<?xml version="1.0"?>
<VTKFile type="UnstructuredGrid" version="0.1" byte_order="LittleEndian" header_type="UInt32" compressor="vtkZLibDataCompressor">
  <UnstructuredGrid>
    <Piece NumberOfPoints="352" NumberOfCells="198">
      <PointData>
        <DataArray type="Int32" Name="libmesh_node_id" format="ascii" RangeMin="293" RangeMax="2131">
          293 377 378 384 396 551
          552 553 556 559 565 566
          573 575 576 577 578 582
          583 585 586 588 603 604
          610 894 895 898 907 908
          913 1041 1042 1045 1048 1062
          1063 1066 1068 1082 1083 1085
          1088 1098 1100 1102 1104 1105
          1106 1107 1108 1109 1110 1111
          1112 1113 1114 1115 1116 1117
          1118 1119 1120 1121 1125 1126
          1128 1129 1131 1132 1133 1134
          1135 1136 1137 1138 1139 1140
          1141 1142 1143 1146 1147 1149
          1151 1152 1153 1154 1155 1156
          1157 1158 1159 1160 1161 1162
          1163 1166 1168 1169 1171 1172
          1173 1174 1175 1176 1177 1178
          1179 1181 1183 1185 1737 1739
          1797 1798 1800 1803 1808 1809
          1811 1825 1826 1828 1831 1841
          1843 1845 1847 1848 1849 1850
          1851 1852 1853 1854 1855 1856
          1857 1858 1859 1860 1861 1862
          1863 1864 1865 1866 1868 1869
          1870 1871 1872 1874 1875 1876
          1877 1878 1879 1880 1881 1882
          1883 1884 1885 1886 1887 1888
          1889 1890 1891 1892 1893 1894
          1895 1896 1897 1898 1899 1900
          1901 1902 1903 1904 1905 1906
          1907 1908 1909 1910 1911 1912
          1913 1914 1915 1916 1917 1918
          1919 1920 1921 1922 1923 1924
          1925 1926 1927 1928 1929 1930
          1931 1932 1933 1934 1935 1936
          1937 1938 1939 1940 1941 1942
          1943 1944 1945 1946 1947 1948
          1949 1950 1951 1952 1953 1954
          1957 1959 1960 1962 1963 1964
          1965 1966 1967 1968 1969 1970
          1972 1974 1976 1977 1978 1979
          1980 1981 1982 1983 1984 1985
          1986 1987 1988 1991 1993 1994
          1995 1996 1997 1998 1999 2000
          2001 2002 2003 2004 2006 2008
          2010 2011 2012 2013 2014 2015
          2016 2017 2018 2020 2021 2022
          2023 2024 2025 2026 2027 2028
          2030 2032 2034 389 605 584
          606 397 611 910 911 388
          579 914 1122 1123 1124 1127
          580 1130 581 1144 1145 1148
          1150 1167 1180 1182 1184 1867
          1955 1956 1958 1164 1961 1165
          1873 1971 1973 1975 1989 1990
          1992 1170 2005 2007 2009 587
          2019 2029 2031 2033 2122 2123
          2128 2129 2126 2131
        </DataArray>
        <DataArray type="Float64" Name="bounds" format="ascii" RangeMin="0" RangeMax="0">
          0 0 0 0 0 0
          0 0 0 0 0 0
          0 0 0 0 0 0
          0 0 0 0 0 0
          0 0 0 0 0 0
          0 0 0 0 0 0
          0 0 0 0 0 0
          0 0 0 0 0 0
          0 0 0 0 0 0
          0 0 0 0 0 0
          0 0 0 0 0 0
          0 0 0 0 0 0
          0 0 0 0 0 0
          0 0 0 0 0 0
          0 0 0 0 0 0
          0 0 0 0 0 0
          0 0 0 0 0 0
          0 0 0 0 0 0
          0 0 0 0 0 0
          0 0 0 0 0 0
          0 0 0 0 0 0
          0 0 0 0 0 0
          0 0 0 0 0 0
          0 0 0 0 0 0
          0 0 0 0 0 0
          0 0 0 0 0 0
          0 0 0 0 0 0
          0 0 0 0 0 0
          0 0 0 0 0 0
          0 0 0 0 0 0
          0 0 0 0 0 0
          0 0 0 0 0 0
          0 0 0 0 0 0
          0 0 0 0 0 0
          0 0 0 0 0 0
          0 0 0 0 0 0
          0 0 0 0 0 0
          0 0 0 0 0 0
          0 0 0 0 0 0
          0 0 0 0 0 0
          0 0 0 0 0 0
          0 0 0 0 0 0
          0 0 0 0 0 0
          0 0 0 0 0 0
          0 0 0 0 0 0
          0 0 0 0 0 0
          0 0 0 0 0 0
          0 0 0 0 0 0
          0 0 0 0 0 0
          0 0 0 0 0 0
          0 0 0 0 0 0
          0 0 0 0 0 0
          0 0 0 0 0 0
          0 0 0 0 0 0
          0 0 0 0 0 0
          0 0 0 0 0 0
          0 0 0 0 0 0
          0 0 0 0 0 0
          0 0 0 0
        </DataArray>
        <DataArray type="Float64" Name="gradient_error" format="ascii" RangeMin="4.1227599901282276e-9" RangeMax="2.7950084951141874e-7">
          4.1227599901282276e-9 1.5610799760426894e-7 1.3232429844004038e-7 2.7950084951141874e-7 1.5125384473234516e-8 1.2722784656092642e-7
          7.908683325756716e-8 1.1301464060929012e-7 2.1387764905715546e-7 8.054811614337147e-8 1.1240719903867296e-7 2.034031114249911e-7
          2.5838150866276615e-7 1.3065181844656064e-7 1.031346689444729e-7 9.702020979336266e-8 1.1524831334900702e-7 1.1417911588273581e-7
          1.9224770319135345e-7 8.573784022198902e-9 5.947213113428157e-8 2.646122898426691e-7 1.1712867090395444e-7 1.688226215144861e-7
          2.2051657212501775e-7 1.1741831781371017e-7 1.0002174434051017e-7 6.788592893688107e-8 8.813920525131676e-8 7.45041074648123e-8
          6.086900967830784e-8 1.1646881396381857e-7 1.114147581016295e-7 9.634294457240215e-8 9.088325531062189e-8 5.7171500530813436e-8
          7.389135335830327e-8 6.145751981124268e-8 1.0713852543723882e-7 8.5530926215931e-9 2.6795677579209742e-8 9.415030803900895e-8
          6.545418577742377e-9 1.2995194864572688e-7 1.1707448475334778e-7 1.3623805260276925e-7 9.369965709388087e-8 8.773416725755479e-8
          1.2418818743801709e-7 1.1787833431581183e-7 8.56202112269955e-8 1.3124982905711512e-7 1.2339856560437862e-7 7.241002670252608e-8
          9.963663591843661e-8 1.014569952612303e-7 8.764686125160873e-8 8.456726297792545e-8 9.284974061476526e-8 1.071187734803797e-7
          8.690939068933734e-8 8.044607544569565e-8 1.3652453360656346e-7 1.2687564527420448e-7 6.371715531394786e-8 1.0095131818599863e-7
          1.0650151502550835e-7 1.0087355098140447e-7 1.2204486211116144e-7 5.4333707317066215e-8 7.34992702787998e-8 4.99556586934637e-8
          7.145774597636653e-8 4.5616038650308945e-8 5.9293749914332975e-8 5.554880358191457e-8 1.130818055630378e-7 1.1788616344748483e-7
          9.281957105427026e-8 4.44262920997123e-8 6.761422754830612e-8 3.5401033773582844e-8 5.0552575666460494e-8 1.2040398601671384e-7
          9.033704693880079e-8 1.0486772483930533e-8 1.3525587255675058e-8 1.4126281690338005e-8 1.6581590081221752e-8 8.980860182468463e-8
          7.886069053522471e-8 6.039774980042768e-9 9.028078522000433e-9 1.2737213929947823e-8 9.08231263947054e-8 1.970070214352509e-8
          2.1483865259535563e-8 6.630808040108758e-8 1.1753179037125183e-8 1.7897974989973996e-8 2.4770430207259738e-8 1.420357860515792e-7
          1.3224235903579358e-7 1.2387668453705402e-7 1.29181778576574e-7 1.5057279421761627e-7 1.2193707064483332e-7 1.3508568814392456e-7
          1.185909547249057e-7 1.3140906197259856e-7 8.74925893847917e-8 1.4784814762693368e-7 1.794612904456057e-8 1.821676372225864e-8
          1.4578351748256783e-8 1.5236481542110224e-8 1.665068656954341e-8 9.499244490533879e-9 1.814617541085444e-8 1.8129513785005996e-8
          1.5271590443164433e-8 5.079917261033773e-9 5.621447622958734e-9 7.931169365460128e-9 4.771240304509591e-9 1.2573719375269557e-8
          1.5448078004502555e-8 1.1277846635517591e-8 1.927427856054791e-8 1.928105206711487e-8 2.0744384807789144e-8 1.943143159248516e-8
          2.204779427306008e-8 2.2265025510132255e-8 2.385467817376447e-8 2.2759680594102352e-8 1.917395203269434e-8 2.0885506540486814e-8
          1.877286645410019e-8 2.2440671017253604e-8 2.412366793976282e-8 2.184423759350694e-8 2.5036020980804893e-8 2.5538835727714978e-8
          2.746781031150842e-8 2.641128661039215e-8 2.9168980828082158e-8 2.9745834920157663e-8 3.062320869290384e-8 2.591303926391375e-8
          2.7789175599078224e-8 2.5045155781668252e-8 2.9706001360092677e-8 2.8488274346610843e-8 1.5387518439764422e-8 1.6000638207365457e-8
          1.644065055384419e-8 1.7024016335814695e-8 1.7589043465660512e-8 1.860867305667638e-8 9.364359316016247e-9 1.0192305062763127e-8
          1.1245501007721284e-8 1.2822834501130568e-8 1.779124953365081e-8 1.8354531159420052e-8 1.952346628893111e-8 2.0026564921168786e-8
          1.996141008460027e-8 2.1569969001970186e-8 1.2053315400747057e-8 1.2738450385693785e-8 1.4716552890413208e-8 1.4829802734652847e-8
          1.8804621645225717e-8 2.0150518062667195e-8 1.9044914334096898e-8 2.0691072129766837e-8 1.6374633120280503e-8 1.723463053155145e-8
          1.8123848047809883e-8 2.1585196930148575e-8 2.3185012741995614e-8 2.216538647628591e-8 2.375975103345731e-8 1.8498840010134184e-8
          2.0047713892706975e-8 2.0761659921603195e-8 6.119835410470404e-9 6.746106695113305e-9 7.37451178063982e-9 8.104489729358043e-9
          8.753592251331324e-9 9.986965750889911e-9 5.011710507889249e-9 5.827827612316404e-9 7.0216253071137645e-9 7.608170839237374e-9
          8.896272430943108e-9 9.716931461320522e-9 1.0648127478962767e-8 1.161718045824727e-8 1.1613647653214204e-8 1.3641508668109871e-8
          7.220618854633648e-9 8.400998959961317e-9 9.999706804241222e-9 1.0730829412220907e-8 1.3082408047150844e-8 1.39366242161074e-8
          1.603000957139525e-8 1.6733784608511242e-8 1.185084111149777e-8 1.2819516953959468e-8 1.5129285261264346e-8 1.5225703306545252e-8
          1.683598368107088e-8 1.776170179836003e-8 2.1020666521424432e-8 1.4183449435865687e-8 1.582289712095621e-8 1.6486619112578542e-8
          2.1617768858761072e-8 2.2057665407141957e-8 2.411754192616039e-8 2.447865080111525e-8 2.3461204873853855e-8 2.566564679802917e-8
          1.6690085651707513e-8 1.71958631086193e-8 2.014375327329315e-8 1.879684755190764e-8 2.702755213375973e-8 2.727547547768356e-8
          2.8171476100450376e-8 2.3085920381765743e-8 2.3487532433733585e-8 2.461209485448419e-8 2.4986262210696068e-8 2.697783678170342e-8
          2.554767662920727e-8 2.7464139643418606e-8 2.1920268844360737e-8 2.421984289573178e-8 2.4580492537951075e-8 2.9097704155439435e-8
          2.9375854931585507e-8 2.688239270401013e-8 2.8978065395937343e-8 1.2639143088297418e-8 1.3827062479738608e-8 1.4891426499540855e-8
          1.6358317205229795e-8 1.610279158891072e-8 1.898814938654121e-8 1.0097631609897058e-8 1.1838893828807554e-8 1.3918619154595368e-8
          1.5123011211321713e-8 1.7376893340402216e-8 1.9180163213451607e-8 2.225650705598274e-8 1.3468069356710248e-8 1.6190377594645497e-8
          1.85611069866735e-8 2.100856791099402e-8 1.877563703780327e-8 2.129639002995827e-8 2.3296146329843658e-8 2.5392526387748865e-8
          1.777022154436345e-8 2.031959223278159e-8 2.2746652591133845e-8 2.437557076936958e-8 2.7785090002465117e-8 2.347576308150511e-8
          2.7234799669304306e-8 2.425131628504629e-8 2.476695080817506e-8 2.4422268978984393e-8 2.5282585331303827e-8 2.5336260961016036e-8
          2.7288606849142354e-8 2.48280106090534e-8 2.9015553586564668e-8 2.7956391354823906e-8 2.5723234934034e-8 2.758195287444329e-8
          2.521484997734558e-8 2.6820542171141712e-8 2.6110208907051962e-8 2.7875298899744233e-8 2.560168934563776e-8 2.9394881335712868e-8
          2.8441143179770172e-8 2.9774209084861067e-8 2.8925895004716432e-8 8.385089232600942e-8 8.222518530488999e-8 1.5430432930507057e-7
          1.2536992448354274e-7 2.2614188986449083e-7 1.6851466366219547e-7 5.795484412102298e-8 4.852816767731394e-8 9.567816520227685e-8
          7.328782677457078e-8 3.910149123360491e-8 7.189615437941557e-8 1.377298054594874e-7 1.2642891447570596e-7 9.703101737176554e-8
          1.1463866069076066e-7 1.0695625687709118e-7 1.2576672459778376e-7 3.7778008854290145e-8 6.15793661867777e-8 4.422472112194889e-8
          1.1931704160961517e-7 7.273346708640143e-8 1.2051385337928284e-7 1.2797753209053573e-7 8.845887532031334e-8 3.2349233893224214e-8
          3.026569199098556e-8 3.0381207261919914e-8 3.0925056542497205e-8 2.677287939384869e-8 2.714646300574321e-8 2.8088917764137483e-8
          3.157892200305231e-8 3.131067745147121e-8 3.126796435080227e-8 2.9829775517760034e-8 2.00052345447777e-8 2.2220426183772152e-8
          2.5843492358085107e-8 2.440842309070371e-8 2.780291088852988e-8 3.041147973522983e-8 2.6988703641429803e-8 2.9994806294691923e-8
          3.068978980589776e-8 3.1213912637261965e-8 2.9959320687720416e-8 3.1738035468626163e-8 2.2590626430235652e-8 2.533034278998721e-8
          1.647621026918215e-8 2.0838345240320368e-8 2.9617832987638584e-8 2.7996041593160402e-8
        </DataArray>
        <DataArray type="Float64" Name="gradient_matprop_error" format="ascii" RangeMin="0" RangeMax="0">
          0 0 0 0 0 0
          0 0 0 0 0 0
          0 0 0 0 0 0
          0 0 0 0 0 0
          0 0 0 0 0 0
          0 0 0 0 0 0
          0 0 0 0 0 0
          0 0 0 0 0 0
          0 0 0 0 0 0
          0 0 0 0 0 0
          0 0 0 0 0 0
          0 0 0 0 0 0
          0 0 0 0 0 0
          0 0 0 0 0 0
          0 0 0 0 0 0
          0 0 0 0 0 0
          0 0 0 0 0 0
          0 0 0 0 0 0
          0 0 0 0 0 0
          0 0 0 0 0 0
          0 0 0 0 0 0
          0 0 0 0 0 0
          0 0 0 0 0 0
          0 0 0 0 0 0
          0 0 0 0 0 0
          0 0 0 0 0 0
          0 0 0 0 0 0
          0 0 0 0 0 0
          0 0 0 0 0 0
          0 0 0 0 0 0
          0 0 0 0 0 0
          0 0 0 0 0 0
          0 0 0 0 0 0
          0 0 0 0 0 0
          0 0 0 0 0 0
          0 0 0 0 0 0
          0 0 0 0 0 0
          0 0 0 0 0 0
          0 0 0 0 0 0
          0 0 0 0 0 0
          0 0 0 0 0 0
          0 0 0 0 0 0
          0 0 0 0 0 0
          0 0 0 0 0 0
          0 0 0 0 0 0
          0 0 0 0 0 0
          0 0 0 0 0 0
          0 0 0 0 0 0
          0 0 0 0 0 0
          0 0 0 0 0 0
          0 0 0 0 0 0
          0 0 0 0 0 0
          0 0 0 0 0 0
          0 0 0 0 0 0
          0 0 0 0 0 0
          0 0 0 0 0 0
          0 0 0 0 0 0
          0 0 0 0 0 0
          0 0 0 0
        </DataArray>
        <DataArray type="Float64" Name="initial_marker" format="ascii" RangeMin="0" RangeMax="2">
          2 1 0 2 2 0.75
          2 2 1.5 2 0 0.5
          1 1 1 2 2 0
          1.5 2 2 2 0 0.5
          1 0 0 0 0 0
          0 2 2 1.75 2 0.5
          1.25 1 2 2 2 2
          2 2 2 2 2 2
          2 2 2 2 2 2
          2 2 2 2 2 2
          2 2 2 2 2 2
          2 2 2 1 1.5 1
          1.5 0 1 1 2 2
          2 1 1.5 0 1 2
          2 2 2 2 2 2
          2 2 2 2 2 2
          2 2 2 2 2 2
          2 2 2 2 2 2
          2 2 2 2 2 2
          2 2 2 2 2 2
          2 2 2 2 2 2
          2 2 2 2 2 2
          2 2 2 2 2 2
          2 2 2 2 2 2
          2 2 2 2 2 2
          2 2 2 2 2 2
          2 2 2 2 2 2
          2 2 2 2 2 2
          2 2 2 2 2 2
          2 2 2 2 2 2
          2 2 2 2 2 2
          2 2 2 2 2 2
          2 2 2 2 2 2
          2 2 2 2 2 2
          2 2 2 2 2 2
          2 2 2 2 2 2
          2 2 2 2 2 2
          2 2 2 2 2 2
          2 2 2 2 2 2
          2 2 2 2 2 2
          2 2 2 2 2 2
          2 2 2 2 2 2
          2 2 2 2 2 2
          2 2 2 2 2 2
          2 2 2 2 2 2
          2 2 2 2 2 2
          2 2 2 2 2 2
          2 2 2 2 2 2
          2 2 2 2 2 2
          2 2 2 0 0 1.5
          0.5 2 1 0 0 1
          1 0 2 2 2 2
          2 2 2 1 1.5 1
          2 2 2 2 2 2
          2 2 2 2 2 2
          2 2 2 2 2 2
          2 2 2 2 2 2
          2 2 2 2 2 2
          2 2 2 2
        </DataArray>
        <DataArray type="Float64" Name="markers_norefine" format="ascii" RangeMin="0" RangeMax="2">
          2 0 0 0 2 0
          0 0 0 1 0 0
          0 0 0 1 0 0
          0 2 1.5 0 0 0
          0 0 0 0 0 0
          0 0 0 0 0 0
          0 0 0 2 1.75 0.25
          2 0 0 0 0 0
          0 0 0 0 0 0
          0 0 0.5 0 0.25 0
          0 0 0 0 0 0
          1 0.5 0 0 0 0
          0 0 0 0 0 0
          0 0 0 0 0 0
          0 2 2 2 2 0.5
          0.75 2 2 2 1 2
          2 1 2 2 2 0
          0 0 0 0 0 0
          0 0 0 0 0 0
          1 1 1 2 0.5 0
          1.3333333333333333 2 2 2 2 1.75
          1.5 2 0 0 0.5 0
          2 1 1.5 0 0 0
          0 0 0 0 2 2
          2 1 2 2 1 0
          0 0 0 0 1 1
          1.5 1.25 1 1 2 2
          2 2 2 1.5 2 1.75
          1 1.25 2 2 2 2
          0.5 0.5 0 0 1.5 1.5
          1 0.5 0.75 0 0.5 1.5
          1.75 1 2 2 2 2
          2 2 2 2 2 2
          2 2 2 2 2 2
          2 2 2 2 2 2
          2 2 2 2 2 2
          2 2 1.6666666666666667 2 2 2
          2 2 2 2 1.5 1.5
          2 2 2 2 2 2
          1.5 2 2 2 1 1
          1 1 2 2 1.3333333333333333 1
          1 2 1.3333333333333333 2 2 2
          2 2 2 2 2 2
          2 2 2 2 2 2
          2 2 2 2 1.5 1.5
          2 2 2 2 1.5 2
          2 0 0.5 0 1 0
          0 0 0 0 0.5 0.5
          0 0 1 1 0 0.5
          0 1 0 0 0 0
          0 0 0 0 0 0
          0 0 0 0 0 0
          1 0.5 0 0 0 0
          0 1 0 0 0 2
          2 2 1.5 2 2 2
          0 1 1 2 2 2
          2 2 2 1.5 2 2
          0 0.5 0 1 2 2
          2 2 2 2
        </DataArray>
        <DataArray type="Float64" Name="markers_mustrefine" format="ascii" RangeMin="0" RangeMax="2">
          2 1 0 2 2 0.75
          2 2 1.5 2 0 0.5
          1 1 1 2 2 0
          1.5 2 2 2 0 0.5
          1 0 0 0 0 0
          0 2 2 1.75 2 0.5
          1.25 1 2 2 2 2
          2 2 2 2 2 2
          2 2 2 2 2 2
          2 2 2 2 2 2
          2 2 2 2 2 2
          2 2 2 1 1.5 1
          1.5 0 1 1 2 2
          2 1 1.5 0 1 2
          2 2 2 2 2 2
          2 2 2 2 2 2
          2 2 2 2 2 2
          2 2 2 2 2 2
          2 2 2 2 2 2
          2 2 2 2 2 2
          2 2 2 2 2 2
          2 2 2 2 2 2
          2 2 2 2 2 2
          2 2 2 2 2 2
          2 2 2 2 2 2
          2 2 2 2 2 2
          2 2 2 2 2 2
          2 2 2 2 2 2
          2 2 2 2 2 2
          2 2 2 2 2 2
          2 2 2 2 2 2
          2 2 2 2 2 2
          2 2 2 2 2 2
          2 2 2 2 2 2
          2 2 2 2 2 2
          2 2 2 2 2 2
          2 2 2 2 2 2
          2 2 2 2 2 2
          2 2 2 2 2 2
          2 2 2 2 2 2
          2 2 2 2 2 2
          2 2 2 2 2 2
          2 2 2 2 2 2
          2 2 2 2 2 2
          2 2 2 2 2 2
          2 2 2 2 2 2
          2 2 2 2 2 2
          2 2 2 2 2 2
          2 2 2 2 2 2
          2 2 2 0 0 1.5
          0.5 2 1 0 0 1
          1 0 2 2 2 2
          2 2 2 1 1.5 1
          2 2 2 2 2 2
          2 2 2 2 2 2
          2 2 2 2 2 2
          2 2 2 2 2 2
          2 2 2 2 2 2
          2 2 2 2
        </DataArray>
        <DataArray type="Float64" Name="gradient_marker" format="ascii" RangeMin="0" RangeMax="1">
          0 1 0.625 1 0 0.75
          0.5 0.875 0.75 0.5 0.3333333333333333 0.625
          0.75 1 0.625 0.5 0.75 0.6666666666666666
          0.75 0 0.25 1 0.5 0.5
          0.5 0.5 0.5 0.3333333333333333 0.5 0.5
          0.5 1 1 0.75 0.625 0
          0.25 0 0.75 0 0.125 0.625
          0 1 1 1 1 1
          1 1 0.75 1 0.875 0.5
          0.75 0.625 0.5 0.5 0.5 0.75
          1 0.5 1 0.75 0 0.5
          0.5 0.5 0.75 0 0.25 0
          0.25 0 0 0 0.75 0.75
          0.5 0 0.25 0 0 0.75
          0.5 0 0 0 0 0.5
          0.375 0 0 0 0.5 0
          0 0.25 0 0 0 1
          0.875 1 1 1 0.75 1
          0.75 1 0.5 1 0 0
          0 0 0 0 0 0
          0 0 0 0 0 0
          0 0 0 0 0 0
          0 0 0 0 0 0
          0 0 0 0 0 0
          0 0 0 0 0 0
          0 0 0 0 0 0
          0 0 0 0 0 0
          0 0 0 0 0 0
          0 0 0 0 0 0
          0 0 0 0 0 0
          0 0 0 0 0 0
          0 0 0 0 0 0
          0 0 0 0 0 0
          0 0 0 0 0 0
          0 0 0 0 0 0
          0 0 0 0 0 0
          0 0 0 0 0 0
          0 0 0 0 0 0
          0 0 0 0 0 0
          0 0 0 0 0 0
          0 0 0 0 0 0
          0 0 0 0 0 0
          0 0 0 0 0 0
          0 0 0 0 0 0
          0 0 0 0 0 0
          0 0 0 0 0 0
          0 0 0 0 0 0
          0 0 0 0 0 0
          0 0 0 0 0 0
          0 0 0 0.625 0.5 0.75
          0.5 1 0.5 0.5 0.375 0.75
          0.375 0.25 0.25 0.75 0.625 0.5
          0.5 0.5 0.75 0 0.25 0
          0.75 0.25 0.75 1 0.5 0
          0 0 0 0 0 0
          0 0 0 0 0 0
          0 0 0 0 0 0
          0 0 0 0 0 0
          0 0 0 0
        </DataArray>
        <DataArray type="Float64" Name="gradient_matprop_marker" format="ascii" RangeMin="0" RangeMax="0">
          0 0 0 0 0 0
          0 0 0 0 0 0
          0 0 0 0 0 0
          0 0 0 0 0 0
          0 0 0 0 0 0
          0 0 0 0 0 0
          0 0 0 0 0 0
          0 0 0 0 0 0
          0 0 0 0 0 0
          0 0 0 0 0 0
          0 0 0 0 0 0
          0 0 0 0 0 0
          0 0 0 0 0 0
          0 0 0 0 0 0
          0 0 0 0 0 0
          0 0 0 0 0 0
          0 0 0 0 0 0
          0 0 0 0 0 0
          0 0 0 0 0 0
          0 0 0 0 0 0
          0 0 0 0 0 0
          0 0 0 0 0 0
          0 0 0 0 0 0
          0 0 0 0 0 0
          0 0 0 0 0 0
          0 0 0 0 0 0
          0 0 0 0 0 0
          0 0 0 0 0 0
          0 0 0 0 0 0
          0 0 0 0 0 0
          0 0 0 0 0 0
          0 0 0 0 0 0
          0 0 0 0 0 0
          0 0 0 0 0 0
          0 0 0 0 0 0
          0 0 0 0 0 0
          0 0 0 0 0 0
          0 0 0 0 0 0
          0 0 0 0 0 0
          0 0 0 0 0 0
          0 0 0 0 0 0
          0 0 0 0 0 0
          0 0 0 0 0 0
          0 0 0 0 0 0
          0 0 0 0 0 0
          0 0 0 0 0 0
          0 0 0 0 0 0
          0 0 0 0 0 0
          0 0 0 0 0 0
          0 0 0 0 0 0
          0 0 0 0 0 0
          0 0 0 0 0 0
          0 0 0 0 0 0
          0 0 0 0 0 0
          0 0 0 0 0 0
          0 0 0 0 0 0
          0 0 0 0 0 0
          0 0 0 0 0 0
          0 0 0 0
        </DataArray>
        <DataArray type="Float64" Name="combo" format="ascii" RangeMin="0" RangeMax="2">
          2 1 0.625 1 2 0.75
          0.5 0.875 0.75 1.5 0.3333333333333333 0.625
          0.75 1 0.625 1.5 0.75 0.6666666666666666
          0.75 2 1.75 1 0.5 0.5
          0.5 0.5 0.5 0.3333333333333333 0.5 0.5
          0.5 1 1 0.75 0.625 0
          0.25 0 0.75 2 1.875 0.875
          2 1 1 1 1 1
          1 1 0.75 1 0.875 0.5
          0.75 0.625 1 0.5 0.75 0.75
          1 0.5 1 0.75 0 0.5
          1.5 1 0.75 0 0.25 0
          0.25 0 0 0 0.75 0.75
          0.5 0 0.25 0 0 0.75
          0.5 2 2 2 2 1
          1.125 2 2 2 1.5 2
          2 1.25 2 2 2 1
          0.875 1 1 1 0.75 1
          0.75 1 0.5 1 0 0
          1 1 1 2 0.5 0
          1.3333333333333333 2 2 2 2 1.75
          1.5 2 0 0 0.5 0
          2 1 1.5 0 0 0
          0 0 0 0 2 2
          2 1 2 2 1 0
          0 0 0 0 1 1
          1.5 1.25 1 1 2 2
          2 2 2 1.5 2 1.75
          1 1.25 2 2 2 2
          0.5 0.5 0 0 1.5 1.5
          1 0.5 0.75 0 0.5 1.5
          1.75 1 2 2 2 2
          2 2 2 2 2 2
          2 2 2 2 2 2
          2 2 2 2 2 2
          2 2 2 2 2 2
          2 2 1.6666666666666667 2 2 2
          2 2 2 2 1.5 1.5
          2 2 2 2 2 2
          1.5 2 2 2 1 1
          1 1 2 2 1.3333333333333333 1
          1 2 1.3333333333333333 2 2 2
          2 2 2 2 2 2
          2 2 2 2 2 2
          2 2 2 2 1.5 1.5
          2 2 2 2 1.5 2
          2 0 0.5 0 1 0
          0 0 0 0 0.5 0.5
          0 0 1 1 0 0.5
          0 1 0 0.625 0.5 0.75
          0.5 1 0.5 0.5 0.375 0.75
          0.375 0.25 0.25 0.75 0.625 0.5
          1.5 1 0.75 0 0.25 0
          0.75 1.25 0.75 1 0.5 2
          2 2 1.5 2 2 2
          0 1 1 2 2 2
          2 2 2 1.5 2 2
          0 0.5 0 1 2 2
          2 2 2 2
        </DataArray>
        <DataArray type="Float64" Name="dHdT" format="ascii" RangeMin="26.08739977526497" RangeMax="79.6130738816104">
          45.51181483507585 30.66736163172648 27.364098628048414 33.13181957253645 46.29854011682782 29.42745880403896
          44.53945619978073 38.204059223933115 31.281133819783456 57.224247111033364 26.73350343314228 27.713031858876278
          28.433503897645828 29.81465862637104 28.594179553863388 49.90573795125568 36.99624731911825 27.240558664810077
          30.3783195593871 46.16486609283354 59.48505063076088 32.320755196001514 26.666000262782234 27.259204461265373
          27.852408659748516 26.842792092198717 26.648698917760207 26.362314875305838 26.52361043211367 26.38926012173761
          26.25490981136155 35.91794154243731 35.20294753887189 33.630850989748545 41.026031931692 29.502344503028077
          31.537138347509767 30.30052825082892 35.3540193409267 67.6056051842728 71.20527316301602 47.063301147936606
          67.59094877939813 38.7208750786623 35.40479978425524 40.30564366746266 33.070431197677365 32.50925748166813
          36.58883778766378 35.32946595913449 31.84030659273331 36.83598680901453 35.22371775149812 30.936310222924497
          33.17953990187209 32.67335884436437 47.74003211393716 42.55623989943867 44.613805209542015 36.876184717971164
          31.611348330783322 30.992850988943204 36.3633914010879 34.70434365062673 29.56516862366855 32.08399465027523
          49.02800514529621 45.29100550649594 37.27412832055492 29.062348991656755 31.072095853518473 28.60458498704311
          30.545459069032038 28.200161303123405 29.855206033897964 29.355649143317063 35.06376389862684 34.529310055097724
          32.99776546283766 28.134443803618915 29.961319415542903 27.51290400700382 28.79994543070092 33.8911248893844
          31.709687466161643 60.830210140607264 65.88121811791743 53.02675686220911 59.98060047694758 49.97338447785957
          50.68638652821225 45.86816588580112 53.358063386254585 46.23072475074937 57.67790194755931 50.78332385763786
          54.678541121868186 50.919118731315955 46.26384093206998 46.11950928258867 59.05322630326214 38.81746674547303
          37.511540098964254 35.02472270078081 34.568660812254336 40.58924840907258 38.491115224175914 35.56416524055882
          36.031273766676335 34.02787519755664 36.332408747340196 34.72336231718802 48.549227164004336 38.02997211625143
          65.6922436354551 62.389229601944464 55.82353933895323 72.00309059956105 44.86821904599287 40.43825121199369
          63.047400495817136 50.08326404623345 56.685649009295034 73.72237815237371 45.59434885935258 74.16547081873449
          64.17421930507815 79.6130738816104 51.672644664002306 50.2642304908888 52.68506319591453 44.97903308037914
          58.55367693132349 55.19652942960317 56.33675822027225 48.899164545959934 39.005519945058445 40.490706945224595
          36.908790047133905 41.65783250197438 42.919565367062354 37.35671783991174 57.81974937114961 56.61925675202349
          56.13961311426604 51.69154048804809 55.868418154384386 55.128649555882255 51.745883704956 44.24257813967465
          45.11442474790421 40.52083943615047 45.12258686731013 41.142287282088404 65.68503277456864 63.20456188070433
          65.69509255091546 63.43492606100616 56.0815439351964 57.64421628741927 63.0829725606997 65.41800427133411
          61.341781888903135 69.05480856075384 63.14552826737797 62.227131014190086 59.331619933720944 60.05921907265735
          58.12654387929976 57.90900346731093 56.7819500100844 57.72689584930497 54.84073214599519 62.68597572909866
          46.45309851370028 48.95319008307966 41.46720014384775 43.79270716241767 62.17099225044971 63.62282038209486
          53.98540336136022 50.06059079719684 50.38760618786514 45.17682759679637 45.74402365270219 62.549797849173075
          60.58004945271167 58.39948592867437 46.08394262069535 50.154406651561864 45.755610457704435 47.150032858229295
          65.41579585304532 58.39743620476369 45.69936100512629 45.61769803097539 45.80129086475016 59.906029374596656
          45.93044576892219 46.08245534766757 46.071808083658965 46.00428867903713 53.30255869975764 50.49720013942188
          46.03437112110803 45.96885159550222 46.10879299112636 48.587089153957564 71.27105614567846 67.59577958321307
          65.93539126769465 66.94114201565291 72.10080487279964 65.36159162317114 69.92558605323046 63.355415068127826
          60.17446990094361 66.34017766315333 61.20286129766463 60.07458353032881 57.04448790513183 68.87832082263893
          57.38298164159732 58.292011166142565 56.163852368215785 56.73421244402012 57.02763574213524 56.00747353498876
          51.522387327443695 52.998813318474376 51.727444030108096 57.120078840307784 54.97674812021832 55.24966419379644
          54.78709529478407 50.156991196471466 50.77860622030192 53.13691413492895 50.837746430639 51.14499176375161
          46.821262067695336 47.57960897735017 58.66206709405286 56.998345551762036 55.08037330924899 50.80954917428852
          47.56748802638348 55.72713833825244 54.36985301621896 46.16676236727865 46.115649105017674 46.221679865057034
          46.1855369980465 48.95067663226551 47.81390957851457 46.23496399171495 46.19843715334824 46.24499770965102
          46.02492658013783 46.25539463985247 46.228763079858 47.311905705084214 46.28188497281425 46.27099255082279
          46.28898669312663 46.17829002492266 57.91422662940234 55.61221339579873 58.548049976162396 57.30078466404664
          55.93723379230232 54.40329446767244 61.036382338071405 53.740332481145906 55.648504224145654 52.52289976705385
          56.73857330930215 43.454951426514185 45.21603255827626 37.40609881847624 46.977113690038344 43.7417713732213
          43.90601531138338 37.360854452686 43.691602019553976 37.434984292009744 45.28050268797517 45.26655338734596
          37.45654126065592 37.67753921220293 46.81923400272907 46.62709146330853 37.55222806862584 45.18618535350103
          38.13434733069765 46.68076868744807 38.83371036938556 26.54265228397943 26.36914519488657 29.238310982747265
          26.782905374046692 31.26729695640713 27.196665553206813 26.249162918647095 26.168281346956032 28.58430379224914
          27.65068726664893 26.08739977526497 29.978210627349277 35.37834804710877 33.804358605662955 31.337666891058134
          47.478552909450705 44.30613491776529 36.674690010067806 27.672067938023886 29.339102530694213 28.233240443489294
          33.13632328334509 49.585766298276866 35.53436107363969 33.38072960809465 36.85297695202847 54.04351973574431
          53.85803377634706 53.95102308190276 53.55622755858614 49.63527746319888 50.04173205754551 52.10371583884684