<?xml version="1.0"?>
<VTKFile type="UnstructuredGrid" version="0.1" byte_order="LittleEndian" header_type="UInt32" compressor="vtkZLibDataCompressor">
  <UnstructuredGrid>
    <Piece NumberOfPoints="753" NumberOfCells="423">
      <PointData>
        <DataArray type="Int32" Name="libmesh_node_id" format="ascii" RangeMin="265" RangeMax="7361">
          348 349 350 351 352 353
          354 355 390 391 392 393
          429 430 431 432 433 434
          435 436 471 472 473 474
          510 511 512 513 514 515
          517 552 553 554 555 567
          568 569 570 571 572 573
          574 575 576 577 578 579
          580 581 582 583 584 585
          586 587 588 589 590 591
          592 593 594 595 596 597
          598 599 656 657 658 659
          660 661 662 663 664 665
          666 667 668 669 684 685
          686 687 688 689 690 691
          692 693 694 695 696 697
          698 699 700 701 702 703
          704 705 706 707 708 709
          710 711 712 713 714 715
          716 717 718 719 720 721
          722 723 724 725 726 727
          728 729 730 731 732 733
          734 735 738 739 740 741
          742 744 857 858 859 860
          861 862 863 864 865 866
          867 868 869 870 945 946
          947 948 949 950 951 952
          953 954 955 956 957 958
          959 960 961 962 963 964
          965 966 967 968 1103 1104
          1105 1106 1107 1108 1109 1110
          1111 1112 1113 1114 1115 1116
          1117 1118 1119 1120 1121 1122
          1123 1124 1125 1126 1127 1128
          1129 1130 1131 1132 1133 1134
          1135 1136 1137 1138 1139 1140
          1141 1142 1143 1144 1145 1146
          1147 1148 1149 1150 1151 1152
          1153 1154 1155 1156 1157 1158
          1159 1160 1161 1162 1163 1164
          1165 1166 1167 1168 1169 1170
          1171 1172 1173 1174 1175 1176
          1177 1178 1179 1180 1181 1182
          1183 1184 1185 1186 1187 1188
          1189 1190 1191 1192 1193 1194
          1195 1196 1197 1198 1199 1200
          1201 1202 1203 1204 1205 1206
          1207 1208 1209 1210 1211 1212
          1213 1214 1215 1216 1217 1218
          1219 1220 1221 1222 1223 1224
          1225 1226 1227 1228 1229 1230
          1231 1232 1233 1234 1235 1236
          1237 1238 1239 1240 1241 1242
          1243 1244 1245 1247 1248 1249
          1250 1251 1252 1253 1254 1255
          1256 1257 1258 1259 1262 1267
          1722 1723 1724 1725 1726 1727
          1728 1729 1730 1731 1732 1733
          1734 1735 1736 1737 1738 1739
          1740 1741 1742 1743 1744 1745
          1746 1747 1748 1749 1750 1751
          1752 1753 1754 1755 1762 1763
          1764 1765 1766 1767 1768 1769
          1770 1771 1772 1773 1774 1775
          1776 1777 1778 1779 1780 1781
          1782 1783 1784 1785 1786 1787
          1788 1789 1790 1791 1792 1793
          1794 1795 1796 1797 1798 1799
          1800 1801 1802 1803 1804 1805
          1806 1807 1808 1809 1810 1811
          1812 1813 1814 1815 1856 1857
          1858 1859 1860 1861 1862 1863
          1864 1865 1866 1867 1868 1869
          1870 1871 1872 1873 1874 1875
          1876 1877 1878 1879 1880 1881
          1882 1883 1884 1885 1886 1887
          1888 1889 1890 1891 1892 1893
          1894 1895 1896 1897 1898 1899
          1900 1901 1902 1903 1904 1905
          1906 1907 1908 1909 1910 1911
          1912 1913 1914 1915 1916 1917
          1918 1919 1920 1921 1922 1923
          1924 1925 1926 1927 1928 1929
          1930 1931 1932 1933 1934 1935
          1936 1937 1938 1939 1940 1941
          1942 1943 1944 1945 1946 1947
          1948 1949 1950 1951 1952 1953
          1954 1955 1956 1957 1958 1959
          2099 2100 2101 2102 2103 2104
          2105 2106 2107 2108 2109 2110
          2111 2112 3027 3028 3029 3030
          3031 3032 3033 3034 3035 3036
          3037 3038 3039 3040 3041 3042
          3043 3044 3045 3046 3047 3048
          3049 3050 3051 3052 3053 3054
          3055 3056 3057 3058 3059 3060
          3061 3062 3063 3064 3065 3066
          3067 3068 3069 3070 3071 3072
          3073 3074 3075 3076 3077 3078
          3079 3080 3081 3082 3083 3084
          3085 3086 3087 3088 3089 3090
          6492 6493 6499 6500 6501 6502
          6505 6510 6511 6512 6513 6514
          6515 6714 6715 6716 6717 6718
          6719 6720 6721 6722 6723 6724
          6725 6726 6727 6728 6729 6730
          6731 6732 6733 6734 6735 6736
          6737 6738 6739 6740 6741 6742
          6743 6744 6745 6746 6747 6748
          6749 6750 6751 6752 6753 6754
          6755 6756 6757 6758 6759 6760
          6761 6762 6763 6764 6765 6766
          6767 6768 6769 6770 6771 7321
          7322 7323 7324 7325 7326 7327
          7328 7329 7340 7341 7342 7343
          7344 7345 7356 7357 7358 7359
          7360 7361 265 267 268 266
          346 347 269 270 271 272
          273 274 309 308 389 310
          311 312 428 470 6494 6495
          6496 6497 6498 6503 6504 6506
          6507 6509 6675 6676 6866 6867
          6868 6869 6679 6870 6871 7311
          7312 7313 7316 6674 7319 7332
          7333 7335 6677 7338 6678 7348
          7349 7352 7354
        </DataArray>
        <DataArray type="Float64" Name="bounds" format="ascii" RangeMin="0" RangeMax="0">
          0 0 0 0 0 0
          0 0 0 0 0 0
          0 0 0 0 0 0
          0 0 0 0 0 0
          0 0 0 0 0 0
          0 0 0 0 0 0
          0 0 0 0 0 0
          0 0 0 0 0 0
          0 0 0 0 0 0
          0 0 0 0 0 0
          0 0 0 0 0 0
          0 0 0 0 0 0
          0 0 0 0 0 0
          0 0 0 0 0 0
          0 0 0 0 0 0
          0 0 0 0 0 0
          0 0 0 0 0 0
          0 0 0 0 0 0
          0 0 0 0 0 0
          0 0 0 0 0 0
          0 0 0 0 0 0
          0 0 0 0 0 0
          0 0 0 0 0 0
          0 0 0 0 0 0
          0 0 0 0 0 0
          0 0 0 0 0 0
          0 0 0 0 0 0
          0 0 0 0 0 0
          0 0 0 0 0 0
          0 0 0 0 0 0
          0 0 0 0 0 0
          0 0 0 0 0 0
          0 0 0 0 0 0
          0 0 0 0 0 0
          0 0 0 0 0 0
          0 0 0 0 0 0
          0 0 0 0 0 0
          0 0 0 0 0 0
          0 0 0 0 0 0
          0 0 0 0 0 0
          0 0 0 0 0 0
          0 0 0 0 0 0
          0 0 0 0 0 0
          0 0 0 0 0 0
          0 0 0 0 0 0
          0 0 0 0 0 0
          0 0 0 0 0 0
          0 0 0 0 0 0
          0 0 0 0 0 0
          0 0 0 0 0 0
          0 0 0 0 0 0
          0 0 0 0 0 0
          0 0 0 0 0 0
          0 0 0 0 0 0
          0 0 0 0 0 0
          0 0 0 0 0 0
          0 0 0 0 0 0
          0 0 0 0 0 0
          0 0 0 0 0 0
          0 0 0 0 0 0
          0 0 0 0 0 0
          0 0 0 0 0 0
          0 0 0 0 0 0
          0 0 0 0 0 0
          0 0 0 0 0 0
          0 0 0 0 0 0
          0 0 0 0 0 0
          0 0 0 0 0 0
          0 0 0 0 0 0
          0 0 0 0 0 0
          0 0 0 0 0 0
          0 0 0 0 0 0
          0 0 0 0 0 0
          0 0 0 0 0 0
          0 0 0 0 0 0
          0 0 0 0 0 0
          0 0 0 0 0 0
          0 0 0 0 0 0
          0 0 0 0 0 0
          0 0 0 0 0 0
          0 0 0 0 0 0
          0 0 0 0 0 0
          0 0 0 0 0 0
          0 0 0 0 0 0
          0 0 0 0 0 0
          0 0 0 0 0 0
          0 0 0 0 0 0
          0 0 0 0 0 0
          0 0 0 0 0 0
          0 0 0 0 0 0
          0 0 0 0 0 0
          0 0 0 0 0 0
          0 0 0 0 0 0
          0 0 0 0 0 0
          0 0 0 0 0 0
          0 0 0 0 0 0
          0 0 0 0 0 0
          0 0 0 0 0 0
          0 0 0 0 0 0
          0 0 0 0 0 0
          0 0 0 0 0 0
          0 0 0 0 0 0
          0 0 0 0 0 0
          0 0 0 0 0 0
          0 0 0 0 0 0
          0 0 0 0 0 0
          0 0 0 0 0 0
          0 0 0 0 0 0
          0 0 0 0 0 0
          0 0 0 0 0 0
          0 0 0 0 0 0
          0 0 0 0 0 0
          0 0 0 0 0 0
          0 0 0 0 0 0
          0 0 0 0 0 0
          0 0 0 0 0 0
          0 0 0 0 0 0
          0 0 0 0 0 0
          0 0 0 0 0 0
          0 0 0 0 0 0
          0 0 0 0 0 0
          0 0 0 0 0 0
          0 0 0 0 0 0
          0 0 0 0 0 0
          0 0 0 0 0 0
          0 0 0
        </DataArray>
        <DataArray type="Float64" Name="gradient_error" format="ascii" RangeMin="9.98755952797636e-10" RangeMax="0.0000018703955860788954">
          3.0221117575450246e-8 1.3104603323034252e-8 3.8993845815678426e-8 1.3653446916069851e-8 9.399361386504708e-9 7.697703578525477e-9
          2.8011078109216703e-9 2.4971355595050126e-9 1.0352768407984906e-8 9.624412334391308e-9 6.5717781568115714e-9 3.0302651119112348e-9
          2.2687442541515152e-7 1.7823705784200266e-7 5.933232710483909e-7 1.2410759070713215e-7 3.020173501767356e-8 5.754214946940342e-8
          2.4793104602688247e-8 1.7452107934221887e-8 1.1374487553500511e-8 1.2089847778489634e-8 7.45885145649903e-9 2.9144629842135703e-9
          0.0000013349949857719323 1.4753118395796626e-7 1.2633016189232432e-7 1.0161885317121883e-7 1.673045100463466e-7 5.3701563605917114e-8
          1.5380108079479164e-8 1.2022352539987173e-8 6.755868525848215e-9 8.038160973796034e-9 4.576575737906793e-9 7.116110787290629e-8
          1.1675461208287066e-7 3.995282181490804e-7 0.0000010465592289831386 3.2604891701639827e-7 5.898410923931692e-7 8.166996076471682e-7
          6.475775907443105e-8 3.0617721797356974e-7 5.450589545989438e-7 1.1288316524101951e-7 1.0014164257261816e-7 1.381467848710971e-7
          6.726887167575717e-8 1.4253258858422002e-7 6.246152779574917e-7 0.0000010612979370181076 6.116097796286238e-7 7.815262333309104e-8
          2.799367992451408e-8 4.154167565035063e-8 2.7427040606463044e-7 1.8497307230176557e-7 2.4278442394138985e-8 2.3339420053716417e-7
          1.3942616226409373e-7 4.3760465827144225e-8 4.0599171232431965e-8 2.0399912124202882e-8 2.0232819918570791e-7 5.847109985278908e-7
          5.373053272242944e-7 2.8554567160894783e-8 6.341704106641965e-7 4.456490499307198e-7 2.5990146331686164e-7 0.0000010192728728279309
          0.000001415393652428711 8.460207355073327e-7 6.85252137664721e-7 2.0021058931325127e-7 1.7203540617339152e-7 2.0305448151474834e-7
          0.0000015150614659594306 0.0000014425362699915183 0.0000013603953226234526 1.23429284337517e-7 3.0724892724581624e-7 5.520452860088133e-7
          9.117272095583518e-7 6.608527070886813e-7 2.6807559603040617e-7 5.466942190106174e-7 9.611968074616776e-7 5.615765673126593e-7
          2.8472403441220207e-7 5.577834478553744e-7 7.05946208138839e-7 7.758824903721614e-7 0.0000010071178669048362 7.682081475627196e-7
          1.3293360026322978e-7 2.72596653640529e-7 6.926896072468985e-7 2.904238044963724e-7 6.257376227824734e-7 3.191740538464685e-7
          5.559077277692555e-7 3.029021941814358e-7 5.731417149779893e-7 5.439790771755657e-7 3.231370070038414e-7 5.883135663837701e-7
          6.871978757816311e-7 7.612627428840525e-7 7.498991240215251e-7 1.5384116512699697e-7 3.1078657163757016e-7 3.336971161872087e-7
          6.197394734387939e-7 2.9092596150770836e-7 3.7884231382410053e-7 3.4558846706170657e-7 4.6192703528009437e-7 2.0817516519768046e-7
          3.7067463441117213e-7 3.43092689942458e-7 4.427120068327684e-7 5.84936127030736e-7 4.151378263082772e-7 1.8340264809421787e-7
          3.597476561026106e-7 3.902559052706952e-7 6.00044758845964e-7 2.5500488039230354e-7 1.9185934820952047e-7 3.9913737016870165e-7
          3.627997978435808e-7 1.7250885382606835e-7 1.9381283484741456e-7 3.9363106461697865e-7 3.6741903242993447e-7 2.2618407817861071e-7
          4.249449578227783e-7 5.639428014735047e-7 5.089211013743844e-9 4.5944838805939285e-9 7.155631921374124e-9 2.0807766484638485e-8
          1.4405491667330591e-8 1.309987886009119e-8 2.005333679326933e-8 2.9865988215638194e-9 1.087603136701506e-8 8.468207728382809e-9
          4.099756747444013e-9 1.1794266052851785e-8 1.929890710190017e-8 6.0603840897505574e-9 3.067180345460463e-8 2.6344793839900197e-8
          2.5195240393585564e-8 2.1015236983997645e-7 1.957868900182474e-7 1.4815146831922114e-7 1.6002990889509428e-7 2.7394822229683798e-8
          1.7867105846092783e-7 1.379707720239542e-7 2.2017784225195762e-8 1.0051604662019488e-7 1.0990744795021213e-7 9.72704855869806e-8
          3.2584123904900913e-8 2.7194850365056356e-8 1.5943728767280018e-7 1.242791730108189e-7 2.5576018219103345e-8 1.381538795190426e-7
          1.0665167946591069e-7 2.1805576825211798e-8 8.912105834883763e-8 7.514947941277882e-8 0.0000018703955860788954 0.0000016346030446098354
          0.0000011552993719424981 0.0000016670662125048733 0.000001381506973020312 0.0000015325852004894915 0.000001650547856117146 9.722287391706305e-7
          0.0000012257295316975306 0.0000012051413159388771 8.733286858296158e-7 0.0000014312609074068885 0.0000017043623342370556 0.000001479230324224431
          2.6044934019133206e-7 2.5981659027633007e-7 2.5283277641610613e-7 1.8747139869905636e-7 1.9097496642461318e-7 2.256980184179448e-7
          2.195477930615017e-7 2.694905503173093e-7 1.9581754836068644e-7 2.323833599958678e-7 2.599159607872829e-7 2.678154847388768e-7
          2.5712916273202324e-7 2.780414216145995e-7 1.276850890831984e-7 1.8592730621897326e-7 1.8382998179717204e-7 1.9009863474657654e-7
          2.6660455992425497e-7 2.762656750190626e-7 2.780198070112543e-7 2.020971932854622e-7 2.404340861734712e-7 2.861201493679558e-7
          2.0913015942565133e-7 2.487880652772777e-7 2.8153985501580105e-7 2.8746778661669174e-7 2.9656402641419784e-7 1.3757785180156335e-7
          1.9624686732066586e-7 2.0325417828525818e-7 2.8108669207153183e-7 2.935809985498236e-7 2.946865114626944e-7 2.1666848248318501e-7
          2.577118165318078e-7 3.0375727425630415e-7 2.2474899628197924e-7 2.6725913276415787e-7 2.9725990070854916e-7 3.061593803649264e-7
          3.16322285349129e-7 1.4794906771919916e-7 2.1081745596023446e-7 2.1895991142571902e-7 3.0030870556279853e-7 3.127484418656169e-7
          3.133744658245264e-7 2.3341601331743986e-7 2.7748191437964957e-7 3.2359212966859264e-7 2.427218581409075e-7 2.8843742001672924e-7
          3.1490823602314646e-7 3.271038980910042e-7 3.3856338732413954e-7 1.6026965940492185e-7 2.2773915750148492e-7 2.3721762197917178e-7
          3.2190244428788926e-7 2.2239208344694136e-7 2.1082491909532176e-7 2.1286058072842359e-7 2.83957170178735e-7 2.88945907349061e-7
          2.7461515641326066e-7 2.695976310904091e-7 2.0886666927131834e-7 2.9408236055137327e-7 2.7917865015049696e-7 1.7606475287409113e-7
          2.3097682012205104e-7 2.369787866292175e-7 2.3363602415154274e-7 3.577417170613802e-7 3.574389988315909e-7 3.457765052158861e-7
          3.6978460598581315e-7 3.3076486579385537e-7 3.3407917791554406e-7 3.3446959748213864e-7 2.5273226111021197e-7 3.001802797804284e-7
          2.638075941468438e-7 3.12083327757151e-7 3.349915078776523e-7 3.5075737047029587e-7 3.6296696187431314e-7 1.7505384555336132e-7
          2.4747878260892735e-7 2.589483265349246e-7 3.4621105755444844e-7 2.7616126916983323e-7 3.2415380058027244e-7 2.894885148204108e-7
          3.378949448357684e-7 3.750778729314653e-7 3.8848642271483085e-7 1.9233883546808663e-7 2.718349972285626e-7 2.8571130872958613e-7
          3.745149016452308e-7 2.2383834005208722e-7 2.0793801925007667e-7 2.993512393852229e-7 2.834449791627264e-7 2.0719250041286324e-7
          3.0455829731371775e-7 2.876658467312568e-7 1.6450824360022305e-7 2.3537370784578878e-7 2.3700285983584164e-7 3.8446774461902663e-7
          3.8281646321061127e-7 3.964676648716789e-7 3.5308284326672493e-7 2.231756605550522e-7 2.0608149576970707e-7 3.096995815366538e-7
          2.9174799975362633e-7 2.045161969906524e-7 3.147281661084315e-7 2.956580126123694e-7 1.5999680588861346e-7 2.3836602814442433e-7
          2.3943697507000565e-7 4.1471098931767216e-7 4.108482011413141e-7 3.7271339019651765e-7 3.038331882942505e-7 3.5365564283403636e-7
          3.1953076661624313e-7 3.7091716996054647e-7 4.034549425276852e-7 4.1944701730035814e-7 2.135950260688063e-7 3.006302983222264e-7
          3.1703820322738534e-7 4.069833706132752e-7 3.3678130455246395e-7 3.8973677431775006e-7 4.3646517591752563e-7 4.4423882184225115e-7
          2.7280099091042127e-8 1.8616605662141464e-8 3.4792398369517137e-8 1.5501235066307863e-7 7.253834010807506e-8 5.098198365005496e-8
          9.794817581938073e-8 9.953112233240805e-9 2.9425627192034855e-8 4.088400097568286e-8 1.627107793535997e-8 2.140234021599789e-8
          2.022676150246635e-8 2.245487954958216e-8 1.1115616859473542e-8 1.701490274285465e-8 5.8740688991548834e-9 6.655763781140742e-9
          7.105515891307775e-9 6.083087231137172e-9 2.418244506957274e-8 2.3507418883166437e-8 2.2914188626235753e-8 7.437458663126599e-9
          7.033643346848124e-9 1.2720638677955073e-8 3.519579730846576e-9 7.288265299969614e-9 2.7067625614919634e-9 4.902779792052737e-9
          2.9760058238713107e-9 1.8407634009062023e-8 1.1056950869092651e-8 7.09879702261351e-9 9.604562491581297e-8 8.185003584067251e-8
          1.2418323030830986e-7 2.574574183422376e-7 2.484235610036474e-7 2.0013411535184105e-7 2.0743600656719041e-7 3.088304653779284e-8
          2.3224431052308134e-7 1.856332833399379e-7 6.765444676553205e-8 1.5184466970003476e-7 1.5741459479214322e-7 1.390222561567945e-7
          1.8789493379967954e-8 2.346845093635211e-8 2.207707454631826e-7 1.726730684183477e-7 2.8147408492736272e-8 1.2457539137351281e-7
          2.608885705096574e-7 2.8087794698699225e-7 3.916869877543743e-7 4.127236837562257e-7 2.397414655877364e-7 3.6849033214973703e-7
          5.6272921825178976e-8 7.42848904677238e-8 9.263280021619364e-8 5.67685937865548e-8 5.224854049990911e-7 5.445694205254592e-7
          4.972391987117377e-7 9.229685911026862e-8 2.1916240079529084e-7 3.440546859555225e-7 1.9955520895100926e-7 3.185612517141564e-7
          3.208822782211232e-8 3.9921121306525804e-8 2.4140127568661605e-8 4.6894697111575404e-7 4.3756729447730343e-7 4.775401479093929e-8
          1.7832478498357356e-7 2.9133489882641943e-7 1.563042995472365e-7 2.6471519539408927e-7 1.2415732515121528e-8 1.2755483246274173e-8
          1.0950771069338381e-8 4.043450126692653e-7 3.73126091240942e-7 1.3095233977426818e-8 2.110333271450771e-7 2.0597409253658008e-7
          2.0820647501025241e-7 2.4557302650140995e-7 2.484740712069206e-7 2.38696200766406e-7 2.3625974519985594e-7 2.070325680961329e-7
          2.5292759308233005e-7 2.424754572813737e-7 2.00914857928083e-7 2.289183303258915e-7 2.2694646389830193e-7 2.3202332148041735e-7
          2.1378249769042334e-7 2.0855530221880583e-7 2.577782987714498e-7 2.466610740204067e-7 2.1019280776320352e-7 2.6287183553622486e-7
          2.5107450108660764e-7 2.0332810674718838e-7 2.3554384926936356e-7 2.392771666369904e-7 2.1719432224003078e-7 2.1157088350381542e-7
          2.680644193706534e-7 2.55547571947527e-7 2.1264023886529775e-7 2.733519027065553e-7 2.6008364007409813e-7 2.0594744476760006e-7
          2.4303072452440064e-7 2.46815377441641e-7 2.7395025595766843e-7 2.6804341883467693e-7 2.8898143953992703e-7 2.8210705218250773e-7
          2.80021442455418e-7 2.9608559161280234e-7 2.4770485854081965e-7 2.643992689304317e-7 2.5953202266552366e-7 2.692958817736832e-7
          3.0401262312218553e-7 2.9617068553033843e-7 3.1214974077018674e-7 2.8109367932004377e-7 2.8625835309118334e-7 3.034206962861406e-7
          2.9269038414497035e-7 3.10999584879823e-7 2.5579297767979904e-7 2.7418141183213207e-7 2.79025377003918e-7 3.205830394810978e-7
          3.293087856146758e-7 2.925698459844651e-7 2.197233960869905e-7 2.1333311073007088e-7 2.787355376255079e-7 2.646952643712094e-7
          2.0694282537315126e-7 2.506549911169108e-7 2.99356245078337e-7 3.1883715660853215e-7 2.7309828188471367e-7 3.268576558906669e-7
          2.6345800062118347e-7 2.837878707271173e-7 2.8814044940016587e-7 3.383180681387273e-7 3.4747544874047455e-7 3.0411774083305114e-7
          2.6177280853518487e-7 3.349100531279677e-7 2.6729203954068256e-7 3.429945969830779e-7 2.1915216608446054e-7 2.9181069238371645e-7
          2.953177233876199e-7 3.567958451100078e-7 3.6654873184768994e-7 3.158930459185926e-7 2.711129000678286e-7 3.512414788100084e-7
          2.74574725469949e-7 3.596306733927321e-7 2.1722529540440328e-7 2.9905116993846864e-7 3.0267088548959783e-7 3.7671626060830093e-7
          3.871441994776511e-7 3.2713135056569796e-7 2.777630108239046e-7 3.6807022182221366e-7 2.806649466343063e-7 3.765153666426246e-7
          2.170846542197299e-7 3.0590233589241227e-7 3.0866131890794714e-7 3.978000203607564e-7 4.0863132382086054e-7 3.3714156423000663e-7
          2.312730228401674e-7 2.327313722100002e-7 2.1643554938037835e-7 1.9934157886881074e-7 1.926337290749747e-7 2.1177877588662005e-7
          2.0748426335206226e-7 2.34189721579833e-7 2.3092382269826532e-7 2.1562694783531377e-7 1.5399443530978196e-7 1.9082617956323983e-7
          1.9853297732374612e-7 2.2765792381669773e-7 2.9914063999834305e-7 3.154201304556128e-7 4.308391445362544e-7 4.4550738270349506e-7
          8.510570990358682e-8 1.1201543765379868e-7 1.3194402235865935e-7 5.62537649074166e-7 5.755946349513773e-7 1.3892516540401055e-7
          2.2552727941426135e-7 2.1738960525285507e-7 2.2392378908690578e-7 2.473648858070931e-7 2.4608055801544877e-7 2.3577702759429946e-7
          2.3594545484178073e-7 2.092519310914488e-7 2.2547349717315016e-7 2.2452602387646833e-7 2.4603919437883314e-7 2.395785181814837e-7
          2.6137760672549153e-7 2.5734318203961166e-7 2.559569010537548e-7 2.687921382448174e-7 2.3069818711847387e-7 2.4754531438450596e-7
          2.4654725073104774e-7 2.5045060489148486e-7 2.767160190721499e-7 2.751078458977396e-7 2.8162737543587995e-7 2.64392441650538e-7
          2.6227231594923855e-7 2.75449290197215e-7 2.394729448579659e-7 2.547339862225267e-7 2.8862626444519137e-7 2.6999502758708745e-7
          1.2591200658879078e-7 1.3371467675062743e-7 1.6821668125661648e-7 1.7026489816152492e-7 1.1527930611478332e-7 1.652114615388413e-7
          9.89522621731015e-8 1.3476412774659116e-7 1.4006962043956365e-7 1.2742581452421776e-7 1.1075452608817374e-7 1.6360681460605753e-7
          1.0740641863042744e-7 1.622193611312562e-7 8.453026342396755e-8 1.240049324607674e-7 1.212063987396248e-7 1.0404100859878061e-7
          1.6061330348145948e-7 1.0046840726182235e-7 1.5869944553302313e-7 7.707573640469629e-8 1.182909686446691e-7 1.1511280004234219e-7
          2.736639127908192e-8 2.1099189993848718e-8 2.9638043029735586e-8 1.4608257133215275e-7 9.963037170735708e-8 1.4831988708615516e-8
          5.317817208256141e-8 6.054427422299538e-8 3.788360638656193e-8 1.7865045113108989e-7 1.1383687697730062e-7 1.5222938550128484e-8
          4.902330282351134e-8 2.2781006938935187e-8 2.0387728864900336e-8 2.351363920008805e-8 2.588677714311341e-8 7.251123511667333e-9
          7.623487211256669e-9 8.75271474290327e-9 2.424627146124091e-8 3.1385825421326484e-8 7.995850910846007e-9 2.2431761859696286e-7
          1.800023390960344e-7 1.6831995554024768e-7 2.9131123549793675e-7 2.8033552579691554e-7 2.354785316333482e-7 2.4716330014949915e-7
          1.8672489364506724e-7 2.7492254534202883e-7 2.2957812673904472e-7 1.3568705959510596e-7 1.9062153746978084e-7 2.0301536480106152e-7
          1.8423370813606066e-7 0.0000010389265079088795 9.166596071354434e-7 9.060898554499737e-7 7.211682673398175e-7 0.0000014982523454825101
          0.0000015803868756472281 0.0000015778480149945398 0.000001508396897314077 0.0000011800510648903787 0.0000011543787437252419 0.000001419274168473565
          0.0000016133315398888546 0.0000015306207284869576 0.000001401127736443259 3.590936411181309e-7 3.713785887935049e-7 4.84671736051997e-7
          4.954036053112996e-7 3.4546687933369333e-7 4.721762431997851e-7 1.434678929408243e-7 1.8455049666508812e-7 2.005911723177596e-7
          1.680993542512344e-7 6.102498309858629e-7 6.194286218290946e-7 5.988856070658769e-7 2.2563310038935194e-7 3.3072761923476046e-7
          4.587575153759856e-7 1.1580826326903536e-7 1.5081724712585357e-7 5.867874115172107e-7 1.858262309826718e-7 1.9106144079245359e-7
          1.5994443793230808e-7 3.02256914199125e-7 2.584192947043046e-7 1.2882743507216258e-7 2.1458167520948416e-7 0.0000010005051193287759
          8.952145205380198e-7 7.248286069510532e-7 0.000001423047428529043 0.0000014439083052988775 0.0000011288123313314114 0.0000012585370060063304
          0.0000014542817209980167 0.0000013205497099096462 3.823606611113005e-7 5.045026767799093e-7 1.7008334486396858e-7 2.1614987296570724e-7
          6.266446924485178e-7 2.622164010674459e-7 5.085038081602856e-9 1.0207959692183371e-8 6.1574778662221635e-9 3.818346653208829e-9
          1.2488489638756449e-8 9.900043382386555e-9 1.3681663588976576e-8 7.61510539149727e-9 6.919412095729462e-9 4.188757223520927e-9
          1.102232537078199e-9 1.0504942449379176e-9 2.1069960402609565e-9 2.5516552248148033e-9 8.66504970050282e-9 1.5485471940179631e-9
          1.4581023513123912e-9 9.98755952797636e-10 2.2145323657916672e-7 7.880619130838745e-9 1.551179672403564e-8 8.532525830965129e-8
          1.1012476595852404e-7 8.298709733014195e-8 7.150970607345772e-8 5.5849428701759885e-8 5.769415383726417e-8 1.8649543063929942e-7
          2.6934580036435125e-7 2.61822686770484e-7 7.078648157859159e-7 2.3608267361285135e-7 1.6488854685188413e-8 3.106231664722424e-8
          3.5037404058519954e-9 1.1009781969091927e-8 1.7597771547117046e-7 4.5635778609260067e-8 1.8515823532331857e-8 1.5430684505657222e-7
          3.1262756492935123e-7 2.6894250947443874e-7 2.252574540195262e-7 9.82079569298522e-7 8.838011357747077e-7 0.0000013539165832281098
          0.0000013838078860770722 0.0000011034204823732509 0.0000011888214370772455 0.0000013835916744970345 0.0000012816794137839513 3.921302025692617e-7
          5.121142545114389e-7 2.310867332024111e-7 6.32098306453616e-7
        </DataArray>
        <DataArray type="Float64" Name="gradient_matprop_error" format="ascii" RangeMin="0" RangeMax="0">
          0 0 0 0 0 0
          0 0 0 0 0 0
          0 0 0 0 0 0
          0 0 0 0 0 0
          0 0 0 0 0 0
          0 0 0 0 0 0
          0 0 0 0 0 0
          0 0 0 0 0 0
          0 0 0 0 0 0
          0 0 0 0 0 0
          0 0 0 0 0 0
          0 0 0 0 0 0
          0 0 0 0 0 0
          0 0 0 0 0 0
          0 0 0 0 0 0
          0 0 0 0 0 0
          0 0 0 0 0 0
          0 0 0 0 0 0
          0 0 0 0 0 0
          0 0 0 0 0 0
          0 0 0 0 0 0
          0 0 0 0 0 0
          0 0 0 0 0 0
          0 0 0 0 0 0
          0 0 0 0 0 0
          0 0 0 0 0 0
          0 0 0 0 0 0
          0 0 0 0 0 0
          0 0 0 0 0 0
          0 0 0 0 0 0
          0 0 0 0 0 0
          0 0 0 0 0 0
          0 0 0 0 0 0
          0 0 0 0 0 0
          0 0 0 0 0 0
          0 0 0 0 0 0
          0 0 0 0 0 0
          0 0 0 0 0 0
          0 0 0 0 0 0
          0 0 0 0 0 0
          0 0 0 0 0 0
          0 0 0 0 0 0
          0 0 0 0 0 0
          0 0 0 0 0 0
          0 0 0 0 0 0
          0 0 0 0 0 0
          0 0 0 0 0 0
          0 0 0 0 0 0
          0 0 0 0 0 0
          0 0 0 0 0 0
          0 0 0 0 0 0
          0 0 0 0 0 0
          0 0 0 0 0 0
          0 0 0 0 0 0
          0 0 0 0 0 0
          0 0 0 0 0 0
          0 0 0 0 0 0
          0 0 0 0 0 0
          0 0 0 0 0 0
          0 0 0 0 0 0
          0 0 0 0 0 0
          0 0 0 0 0 0
          0 0 0 0 0 0
          0 0 0 0 0 0
          0 0 0 0 0 0
          0 0 0 0 0 0
          0 0 0 0 0 0
          0 0 0 0 0 0
          0 0 0 0 0 0
          0 0 0 0 0 0
          0 0 0 0 0 0
          0 0 0 0 0 0
          0 0 0 0 0 0
          0 0 0 0 0 0
          0 0 0 0 0 0
          0 0 0 0 0 0
          0 0 0 0 0 0
          0 0 0 0 0 0
          0 0 0 0 0 0
          0 0 0 0 0 0
          0 0 0 0 0 0
          0 0 0 0 0 0
          0 0 0 0 0 0
          0 0 0 0 0 0
          0 0 0 0 0 0
          0 0 0 0 0 0
          0 0 0 0 0 0
          0 0 0 0 0 0
          0 0 0 0 0 0
          0 0 0 0 0 0
          0 0 0 0 0 0
          0 0 0 0 0 0
          0 0 0 0 0 0
          0 0 0 0 0 0
          0 0 0 0 0 0
          0 0 0 0 0 0
          0 0 0 0 0 0
          0 0 0 0 0 0
          0 0 0 0 0 0
          0 0 0 0 0 0
          0 0 0 0 0 0
          0 0 0 0 0 0
          0 0 0 0 0 0
          0 0 0 0 0 0
          0 0 0 0 0 0
          0 0 0 0 0 0
          0 0 0 0 0 0
          0 0 0 0 0 0
          0 0 0 0 0 0
          0 0 0 0 0 0
          0 0 0 0 0 0
          0 0 0 0 0 0
          0 0 0 0 0 0
          0 0 0 0 0 0
          0 0 0 0 0 0
          0 0 0 0 0 0
          0 0 0 0 0 0
          0 0 0 0 0 0
          0 0 0 0 0 0
          0 0 0 0 0 0
          0 0 0 0 0 0
          0 0 0 0 0 0
          0 0 0 0 0 0
          0 0 0 0 0 0
          0 0 0 0 0 0
          0 0 0
        </DataArray>
        <DataArray type="Float64" Name="initial_marker" format="ascii" RangeMin="0" RangeMax="2">
          0 0 0 0 0 0
          0 0 0 0 0 0
          0 0 0 0 0 0
          0 0 0 0 0 0
          0 0 1 0 2 0
          0 0 0 0 0 0
          0 0 0 0 0 0
          0 0 0 0 0 0
          0 2 0 0 0 0
          0 0 0 0 0 0
          0 0 0 0 2 0
          0 0 0 0 0 0
          0 0 0 0 0 0
          0 0 0 0 0 0
          0 0 0.5 0 0 0
          1 0 0 0 0 0
          2 0 0 0 0 0
          0 1 0 0 1 0.25
          0 0 0 2 1 1
          0 0 0 1 0.5 0
          2 0.5 0 0 0 2
          1 1 0 0 0 2
          0.5 0 0 0 0 2
          1 0 0 0 0 0
          0 0 0 0 0 0
          0 0 0 0 0 0
          0 0 0 0 0 0
          0 0 0 0 0 0
          0 0 0 0 0 0
          0 0 0 0 0 0
          0 0 0 0 0 0
          0 0 0 0 0 0
          0 0 0 0.5 1 0.5
          0.25 0.25 1.5 0.75 0 0
          0 0 2 1 0.5 1
          0 1 0.5 2 1 0.5
          2 1 0 0 0 2
          1 1 0 1 0.5 2
          1.25 0.5 2 1.5 0 0.25
          0.5 2 1.5 2 0.5 1
          0.5 2 1.5 0.75 2 1.75
          0 0.5 0.75 2 2 2
          1 0 0 0 0 0.5
          0.25 0 0 1 0.5 0
          0 0 0 1.5 1.25 1
          1.5 0.5 1 1 2 2
          2 2 0.6666666666666666 1 1 2
          2 2 1 2 2 2
          2 1 1 2 2 2