<?xml version="1.0"?>
<VTKFile type="UnstructuredGrid" version="0.1" byte_order="LittleEndian" header_type="UInt32" compressor="vtkZLibDataCompressor">
  <UnstructuredGrid>
    <Piece NumberOfPoints="692" NumberOfCells="423">
      <PointData>
        <DataArray type="Int32" Name="libmesh_node_id" format="ascii" RangeMin="630" RangeMax="4226">
          803 811 812 1506 1508 1509
          1510 1511 1515 1516 1518 1519
          1521 1522 1524 1525 1527 1528
          1529 1530 1532 1533 1536 1538
          1539 1541 2352 2353 2354 2355
          2359 2360 2361 2362 2363 2364
          2365 2366 2367 2369 2370 2371
          2372 2373 2375 2384 2386 2387
          2388 2389 2390 2391 2392 2393
          2394 2395 2403 2404 2405 2406
          2407 2408 2409 2412 2413 2415
          2418 2420 2421 2422 2423 2424
          2425 2426 2427 2428 2429 2435
          2437 2438 2439 2440 2441 2442
          2443 2444 2445 2446 2447 2448
          2449 2450 2451 2452 2453 2454
          2455 2458 2460 2461 2463 2464
          2465 2466 2467 2468 2469 2470
          2471 2473 2475 2477 2478 2479
          2480 2481 2482 2483 2484 2485
          2486 2487 2488 2489 2492 2498
          2499 2500 2501 2502 2503 2504
          2505 2507 2509 2511 3720 3725
          3726 3727 3728 3729 3730 3731
          3735 3736 3737 3738 3739 3740
          3741 3742 3743 3744 3745 3746
          3747 3748 3749 3750 3751 3752
          3753 3754 3755 3756 3757 3758
          3759 3760 3761 3762 3763 3764
          3765 3766 3767 3768 3769 3770
          3771 3782 3783 3784 3785 3786
          3787 3788 3789 3790 3791 3799
          3800 3801 3802 3803 3804 3805
          3816 3817 3818 3819 3820 3821
          3822 3823 3824 3825 3833 3834
          3835 3836 3837 3838 3839 3840
          3841 3842 3843 3844 3845 3846
          3847 3848 3849 3850 3851 3852
          3853 3854 3855 3856 3857 3858
          3859 3860 3861 3862 3863 3864
          3865 3866 3867 3868 3869 3870
          3871 3872 3873 3874 3875 3876
          3877 3878 3879 3880 3881 3882
          3883 3884 3885 3886 3887 3888
          3889 3890 3891 3892 3893 3894
          3895 3896 3897 3898 3899 3900
          3901 3902 3903 3904 3905 3906
          3907 3908 3909 3910 3911 3912
          3913 3914 3915 3916 3917 3918
          3919 3920 3921 3922 3923 3924
          3925 3926 3927 3928 3929 3930
          3931 3932 3933 3934 3935 3936
          3937 3938 3939 3940 3941 3942
          3943 3944 3945 3946 3947 3948
          3949 3950 3951 3952 3953 3954
          3955 3956 3957 3958 3959 3960
          3961 3962 3963 3964 3965 3966
          3967 3968 3969 3970 3971 3972
          3973 3974 3975 3976 3977 3978
          3979 3980 3981 3982 3983 3984
          3986 3987 3988 3989 3990 3992
          3993 3994 3995 3996 3997 3998
          3999 4000 4001 4002 4003 4004
          4007 4009 4010 4012 4013 4014
          4015 4016 4017 4018 4019 4020
          4022 4024 4026 4027 4028 4029
          4030 4031 4032 4033 4034 4036
          4037 4038 4039 4040 4041 4042
          4043 4044 4045 4046 4047 4048
          4049 4050 4051 4052 4053 4054
          4055 4056 4057 4058 4059 4060
          4061 4062 4063 4064 4065 4066
          4067 4068 4069 4070 4071 4072
          4073 4074 4075 4076 4077 4078
          4079 4080 4081 4082 4083 4084
          4085 4086 4087 4088 4089 4090
          4091 4092 4093 4094 4095 4096
          4097 4098 4099 4100 4101 4102
          4103 4104 4105 4106 4107 4108
          4109 4110 4111 4112 4113 4114
          4125 4126 4127 4128 4129 4130
          4131 4139 4140 4143 4145 4146
          4148 4159 4161 4163 4165 4173
          4174 4175 4176 4177 4178 4179
          4180 4181 4182 4183 4184 4185
          4186 4187 4188 4189 4190 4191
          4192 4193 4194 4195 4196 4197
          4198 4199 4200 4201 4202 4203
          4204 4205 4213 4214 4215 4216
          4217 4218 4219 802 805 631
          808 804 807 810 809 1035
          1038 1039 1036 801 630 1496
          1499 1500 1497 1504 1505 1503
          1502 1507 1498 1512 1513 1514
          1517 806 1520 1544 1542 1526
          1545 1543 1531 1550 1549 1552
          1553 1554 1537 1555 1559 813
          1560 2376 2378 2379 2377 2382
          2383 2381 2380 1523 2385 2350
          2357 2397 2399 2401 2400 2414
          2431 2430 2433 2432 2434 2436
          2368 2456 2457 2459 2374 2472
          2474 1535 2476 2506 2508 2510
          3723 3774 3775 3777 2410 3780
          2411 3733 3793 3795 3797 3808
          3809 3811 2416 3814 2417 3827
          3829 3831 2419 3985 4005 4006
          4008 1534 4011 2462 3991 4021
          4023 4025 4115 4116 4117 4118
          4119 4120 4121 4122 4124 4132
          4133 4134 4135 4136 4138 4141
          4142 4144 2494 4147 2495 4149
          4150 4153 4160 4162 4164 2497
          4166 4168 4206 4035 4207 4208
          4209 4210 4212 4220 4222 4172
          4224 4226
        </DataArray>
        <DataArray type="Float64" Name="bounds" format="ascii" RangeMin="0" RangeMax="0">
          0 0 0 0 0 0
          0 0 0 0 0 0
          0 0 0 0 0 0
          0 0 0 0 0 0
          0 0 0 0 0 0
          0 0 0 0 0 0
          0 0 0 0 0 0
          0 0 0 0 0 0
          0 0 0 0 0 0
          0 0 0 0 0 0
          0 0 0 0 0 0
          0 0 0 0 0 0
          0 0 0 0 0 0
          0 0 0 0 0 0
          0 0 0 0 0 0
          0 0 0 0 0 0
          0 0 0 0 0 0
          0 0 0 0 0 0
          0 0 0 0 0 0
          0 0 0 0 0 0
          0 0 0 0 0 0
          0 0 0 0 0 0
          0 0 0 0 0 0
          0 0 0 0 0 0
          0 0 0 0 0 0
          0 0 0 0 0 0
          0 0 0 0 0 0
          0 0 0 0 0 0
          0 0 0 0 0 0
          0 0 0 0 0 0
          0 0 0 0 0 0
          0 0 0 0 0 0
          0 0 0 0 0 0
          0 0 0 0 0 0
          0 0 0 0 0 0
          0 0 0 0 0 0
          0 0 0 0 0 0
          0 0 0 0 0 0
          0 0 0 0 0 0
          0 0 0 0 0 0
          0 0 0 0 0 0
          0 0 0 0 0 0
          0 0 0 0 0 0
          0 0 0 0 0 0
          0 0 0 0 0 0
          0 0 0 0 0 0
          0 0 0 0 0 0
          0 0 0 0 0 0
          0 0 0 0 0 0
          0 0 0 0 0 0
          0 0 0 0 0 0
          0 0 0 0 0 0
          0 0 0 0 0 0
          0 0 0 0 0 0
          0 0 0 0 0 0
          0 0 0 0 0 0
          0 0 0 0 0 0
          0 0 0 0 0 0
          0 0 0 0 0 0
          0 0 0 0 0 0
          0 0 0 0 0 0
          0 0 0 0 0 0
          0 0 0 0 0 0
          0 0 0 0 0 0
          0 0 0 0 0 0
          0 0 0 0 0 0
          0 0 0 0 0 0
          0 0 0 0 0 0
          0 0 0 0 0 0
          0 0 0 0 0 0
          0 0 0 0 0 0
          0 0 0 0 0 0
          0 0 0 0 0 0
          0 0 0 0 0 0
          0 0 0 0 0 0
          0 0 0 0 0 0
          0 0 0 0 0 0
          0 0 0 0 0 0
          0 0 0 0 0 0
          0 0 0 0 0 0
          0 0 0 0 0 0
          0 0 0 0 0 0
          0 0 0 0 0 0
          0 0 0 0 0 0
          0 0 0 0 0 0
          0 0 0 0 0 0
          0 0 0 0 0 0
          0 0 0 0 0 0
          0 0 0 0 0 0
          0 0 0 0 0 0
          0 0 0 0 0 0
          0 0 0 0 0 0
          0 0 0 0 0 0
          0 0 0 0 0 0
          0 0 0 0 0 0
          0 0 0 0 0 0
          0 0 0 0 0 0
          0 0 0 0 0 0
          0 0 0 0 0 0
          0 0 0 0 0 0
          0 0 0 0 0 0
          0 0 0 0 0 0
          0 0 0 0 0 0
          0 0 0 0 0 0
          0 0 0 0 0 0
          0 0 0 0 0 0
          0 0 0 0 0 0
          0 0 0 0 0 0
          0 0 0 0 0 0
          0 0 0 0 0 0
          0 0 0 0 0 0
          0 0 0 0 0 0
          0 0 0 0 0 0
          0 0 0 0 0 0
          0 0 0 0 0 0
          0 0
        </DataArray>
        <DataArray type="Float64" Name="gradient_error" format="ascii" RangeMin="2.353800342123387e-9" RangeMax="5.006309809152438e-7">
          3.6902745240842376e-7 3.4884111493669813e-9 5.006309809152438e-7 3.020197457518953e-7 1.4740679629140739e-8 2.6078688755592847e-8
          2.7569213838017557e-7 2.274657691236061e-7 3.741669788204496e-8 1.7923939986703664e-7 3.641452840811471e-7 2.920558838281822e-7
          2.749341480385198e-7 5.016331614465796e-8 1.5177371630142726e-8 1.486620103625451e-7 3.927362356713323e-7 2.6943310620416425e-9
          1.5404869008072375e-8 1.6406258005471787e-8 1.6316100971973054e-8 9.249903686562769e-8 3.787612332748873e-7 4.487520325807973e-9
          1.8681103982113477e-8 4.93311471661631e-7 1.6727826519869255e-7 1.6130127337154767e-7 1.6824996901331476e-7 1.4319737676932558e-7
          1.172110992708774e-7 1.1754568375310818e-7 1.0335172654750644e-7 1.8322124570208685e-7 1.7548437436076268e-7 1.8282932944666928e-7
          1.513381411092231e-7 2.0033709514039916e-7 1.9023313700557252e-7 1.5879769766829267e-7 1.1755943033146766e-7 1.1714105054082024e-7
          1.001900814639276e-7 1.1605459017848198e-7 9.464296389112449e-8 7.303046938068856e-8 9.491786395585427e-8 1.3120166532878753e-7
          9.947592764735778e-8 1.3730597940954128e-7 1.606729899951849e-7 1.6701779225229184e-7 1.4961074581019618e-8 5.787886215881734e-8
          6.046398668032146e-8 1.414227727766015e-7 1.375710955604485e-7 1.4038372893975522e-7 1.214449778200471e-7 1.220740385717583e-7
          1.7025616744656425e-7 1.7747254307684855e-7 1.5826839569621055e-7 5.315076848219124e-9 7.939413337606e-9 5.774922126296793e-8
          6.0144455227402595e-9 6.081422901775103e-9 8.615110455066302e-9 6.952381166004894e-9 9.519437119447499e-9 6.040853917036914e-8
          6.349301837413184e-8 3.07108566892274e-9 6.878452188639726e-9 7.85001740612189e-9 1.5812908275362815e-8 1.0386287451376008e-7
          1.457299348301328e-7 1.530823529670262e-7 1.8522037812645949e-7 1.9378734393638456e-7 1.0902638353785867e-7 1.1467349448484832e-7
          1.9344219395308555e-7 1.0436217203500907e-7 1.4389868302974467e-7 1.0943171316368312e-7 1.2711491477914364e-7 1.7375743560060115e-7
          1.567243833877479e-7 1.5599546141433328e-8 6.34408628789042e-8 4.3027350427934006e-8 1.327993024618678e-7 1.1458994346973471e-7
          1.0944355222525702e-7 1.3863497398670006e-7 1.743574366053647e-8 2.1388260018712714e-8 7.388823908150797e-8 1.430397152063347e-7
          1.4530075575423368e-7 1.2228657471874838e-7 1.2195692345660684e-7 1.6116643979922824e-7 1.4373325465555967e-7 1.6828964178252676e-7
          1.4714083137546864e-7 1.2099425974871137e-7 1.4840874372807697e-7 1.7732898273107657e-7 7.856672996001854e-9 1.0671327520468444e-8
          8.842397346273448e-9 1.2027740164129525e-8 4.317719442882973e-8 2.1702520558396927e-8 3.954975383923721e-9 8.898241568675301e-9
          1.0073857818039225e-8 1.732414519387823e-8 9.966274948209818e-9 1.3609997032650298e-8 2.314369180172872e-8 1.3723523807978832e-7
          1.20622276702142e-7 2.0260951433607178e-7 2.116305250666153e-7 1.2062318378737587e-7 1.2682819513130855e-7 2.130228130806592e-7
          1.2631008177287156e-7 2.2084065705625248e-7 1.333273678972517e-7 2.3436890425665008e-7 2.0998663562518088e-8 2.0693292992305817e-8
          2.0657374172904582e-8 2.0621455353503343e-8 1.0822351846328846e-8 1.1840510307875205e-8 1.4554397131208929e-8 1.5199263745681942e-8
          1.864107397112336e-8 1.893123192470568e-8 1.9742289220304404e-8 2.1697621470595923e-8 2.153125961383149e-8 2.2394162725216848e-8
          2.1364897757067067e-8 2.323064879767112e-8 2.3043369092996556e-8 2.370352560387664e-8 2.285608938832199e-8 2.0833596134282916e-8
          2.092249950255744e-8 2.117548976993655e-8 2.1416296787421898e-8 2.1011402870831977e-8 2.165710380490725e-8 1.514449654255118e-8
          1.5877548343175716e-8 1.5870409002580827e-8 1.700873785125094e-8 2.1564945749595555e-8 2.1861698966155215e-8 2.1935084632532012e-8
          2.2292843889659956e-8 2.215845218271487e-8 2.2650603146787896e-8 1.5030226549775786e-8 1.5993709090100354e-8 1.6157029973073233e-8
          1.735742283560679e-8 1.925845415309119e-8 1.9606335415140626e-8 2.0711895040030066e-8 1.994660829432319e-8 2.0287063926059204e-8
          2.1735331342675856e-8 8.309249574796345e-9 9.118043489742737e-9 8.37526764815396e-9 9.193531261355714e-9 1.206338918690143e-8
          1.2124822093671465e-8 5.005322960909783e-9 5.625520224714606e-9 5.953943634722484e-9 7.681455695809206e-9 1.652472264133354e-8
          1.6714355819586437e-8 1.8849504313553347e-8 1.9190862326387413e-8 1.2294389626509272e-8 1.2398369503846249e-8 1.7255409986594257e-8
          3.3673779571918964e-9 4.209439587968614e-9 3.5960013620446265e-9 4.500010394466394e-9 6.035336805902807e-9 6.416832471444599e-9
          2.520257295828072e-9 3.563415398118287e-9 3.8056427370313934e-9 5.63527684830812e-9 9.476204646146222e-9 9.63158526391335e-9
          1.619354477251841e-8 1.621954371756547e-8 8.772001350817614e-9 8.963911234601398e-9 1.548233426854657e-8 8.437925036337178e-9
          9.277861033234846e-9 8.593336910353775e-9 9.44356605544492e-9 1.2219808841803996e-8 1.2371913667756467e-8 5.6750095628837956e-9
          6.330014584440029e-9 6.7502618401178965e-9 8.250862675318484e-9 8.87710117468223e-9 9.70144236827556e-9 9.263536022732886e-9
          1.003347714574293e-8 1.2580265200480413e-8 1.2849286651107368e-8 6.5121179074135535e-9 7.199698398513158e-9 7.670697182381826e-9
          9.036054448781775e-9 1.692070251283713e-8 1.7152484513778266e-8 1.9519584372198783e-8 1.9854936892579663e-8 1.2544622452904218e-8
          1.2733163405078933e-8 1.761347787940644e-8 1.7419983081275353e-8 1.7726069777760454e-8 2.0205219323458776e-8 2.0556984522059147e-8
          1.299660663788229e-8 1.3335507882942632e-8 1.8074682949203305e-8 3.835773883454716e-9 4.804169589590636e-9 4.0879449934737664e-9
          5.125146363888019e-9 6.838919092160942e-9 7.2971358636885796e-9 2.877956426683744e-9 4.06267478170287e-9 4.334514002895388e-9
          6.431577732714937e-9 4.352687553624304e-9 5.462425417397557e-9 4.630167530057917e-9 5.8145194773629396e-9 7.785021123709046e-9
          8.301545164829623e-9 3.2741312437543775e-9 4.6209494334330795e-9 4.922701110744884e-9 7.352736985959061e-9 9.881483455879187e-9
          1.0211584869390738e-8 1.6417455892987585e-8 1.6654034134647827e-8 9.256672878533e-9 9.655476541039511e-9 1.557833181904926e-8
          1.0626612106750777e-8 1.1125101392668056e-8 1.6929820691020717e-8 1.7247413237257805e-8 1.0153368805964488e-8 1.0744262648912554e-8
          1.608517061035732e-8 2.1054797701927118e-8 2.1443836467155152e-8 2.2115899435071395e-8 2.2064613674366646e-8 2.1023320843946523e-8
          2.1555231402893386e-8 2.099184398596593e-8 2.1316053980783742e-8 2.1873166630263733e-8 2.2178255315762825e-8 2.3140770837222186e-8
          2.1188271494412325e-8 2.163043382545607e-8 2.2291896957159e-8 2.2674321784769992e-8 2.323743940967398e-8 2.3653288253656125e-8
          2.3828158520395835e-8 2.4443130710255322e-8 2.5049034728809342e-8 2.2385175605472986e-8 2.2889819362759436e-8 2.379313344813385e-8
          2.4462816201929805e-8 2.2096029426175986e-8 2.2542199315844896e-8 2.3932978642611577e-8 2.3417568225074428e-8 2.396827692883498e-8
          2.5230840315361687e-8 2.6087711263499177e-8 2.3006977929753018e-8 2.3493423147414643e-8 2.5412645901914032e-8 2.466546026296932e-8
          2.4420917955760814e-8 2.521627688513037e-8 2.417637564855231e-8 2.637583101848301e-8 2.607100004384475e-8 2.693815113438894e-8
          2.5766169069206488e-8 2.6563395471357653e-8 2.229432807982179e-8 2.2722683947958557e-8 2.2655934264171656e-8 2.3167730550764102e-8
          2.3151039816095316e-8 2.3679526837356554e-8 1.536770077014377e-8 1.6361053577968773e-8 1.660364041087272e-8 1.77638440544909e-8
          2.304804570783542e-8 2.364519227242826e-8 2.3502368891511414e-8 2.4149843178968024e-8 2.42423388370211e-8 2.5584842850316692e-8
          1.5905999157563325e-8 1.690045133659836e-8 1.7297812043568003e-8 1.833230474950005e-8 2.065085892303033e-8 2.104471905842867e-8
          2.2718998454175512e-8 2.6935288382744217e-8 2.6710683147387602e-8 2.150181174780487e-8 2.3725348826302985e-8 2.5536610114243027e-8
          2.8017237097054158e-8 2.780454746301356e-8 2.869689187418999e-8 2.7630008095002004e-8 2.974931970786713e-8 2.9644805909344925e-8
          2.967847859297303e-8 2.718801483089556e-8 2.82964270060879e-8 2.670787130076007e-8 2.9259704371467236e-8 2.8702743667811122e-8
          2.404054842600682e-8 2.4693853888656734e-8 2.46746952450463e-8 2.532058281510297e-8 2.63718796518067e-8 2.7013583341880218e-8
          1.6828364292533046e-8 1.7812705249034808e-8 1.840539319281013e-8 2.099005909895117e-8 2.54130558249658e-8 2.6046515536694663e-8
          2.7809403441461105e-8 1.812759249558163e-8 1.9075064726469637e-8 2.2029662868271492e-8 2.743593409698307e-8 2.840209920127735e-8
          2.7475268241659382e-8 2.87435021039539e-8 2.498966759428209e-8 2.565841147556831e-8 2.7692246360363136e-8 2.933844262272905e-8
          2.973805361095941e-8 2.6455607031419154e-8 2.9847057424731097e-8 2.6485405381658897e-8 2.716213263525901e-8 2.831736008514022e-8
          2.7047561320408345e-8 2.92638012848531e-8 3.024104771068591e-8 2.9043389881013665e-8 3.1295155441627596e-8 3.079798917636783e-8
          9.739458624159521e-9 1.0452009203032818e-8 1.029797943288354e-8 1.0953123698949845e-8 1.3188333156082315e-8 1.3599407634618191e-8
          7.398377029393065e-9 8.16650721797319e-9 8.693678951005773e-9 1.006579571483005e-8 1.0928020066575207e-8 1.1524568706725864e-8
          1.1600276678889299e-8 1.2182968379724947e-8 1.4090658874464378e-8 1.4629997947562665e-8 8.335343120856011e-9 9.251824283951102e-9
          9.8317447556764e-9 1.1325789412186795e-8 1.8066652520845053e-8 1.8400273570859155e-8 2.0921198511431588e-8 2.309518940029077e-8
          1.3739225980685975e-8 1.4194785187480181e-8 1.866337627085619e-8 1.874970445509909e-8 1.9182521211341344e-8 2.4312638852414536e-8
          2.4909292576848236e-8 1.4709171344256376e-8 1.5335240676937705e-8 2.1248259801146823e-8 4.92241863226738e-9 6.183862566482112e-9
          5.2313423163074974e-9 6.573824577640049e-9 8.850940565799116e-9 9.430371982215208e-9 3.7147948104543995e-9 5.241071887302229e-9
          5.578442045820647e-9 8.364041924185571e-9 5.558928224319906e-9 6.987123314980294e-9 5.907840558891004e-9 7.428334301277693e-9
          1.0037227643724419e-8 1.0680032630492287e-8 4.211472422139384e-9 5.938217303325169e-9 6.32502698706358e-9 9.464991390171787e-9
          1.1703446303478272e-8 1.2375945021727447e-8 1.762158848980218e-8 1.8091336449456392e-8 1.141088676424437e-8 1.2118147751784179e-8
          1.6809811857663914e-8 1.3134303351366678e-8 1.3931126428220648e-8 1.8679469017248865e-8 1.9364949697419065e-8 1.2847861176613917e-8
          1.3622381332859484e-8 1.7951086022790127e-8 1.2294240382735544e-8 1.2922741938907504e-8 1.3020520203399208e-8 1.3694192814590886e-8
          1.5218551088193184e-8 1.5925184618272785e-8 9.385573733664999e-9 1.0434845332003792e-8 1.1083563053734422e-8 1.2786309813498754e-8
          1.9699536947389757e-8 2.03457140637519e-8 2.5691251634330665e-8 2.653630633059686e-8 1.6091792447473192e-8 1.6943650225597763e-8
          2.2371265292352638e-8 6.281488245904377e-9 7.9051751073419e-9 1.1367863152393722e-8 4.787440959843236e-9 6.743893244721516e-9
          1.0733841864885369e-8 1.4770580982192002e-8 2.013966284860163e-8 1.4461169138723518e-8 1.9502261431893966e-8 2.6894941054124818e-8
          2.6924313582373493e-8 2.507493596008256e-8 2.6241865704790686e-8 2.672273898412688e-8 2.740668016558121e-8 2.8382474375348246e-8
          2.762729113447929e-8 2.881707020511798e-8 2.7015243517126553e-8 2.779148813188343e-8 2.846903674314481e-8 2.4543786789623432e-8
          2.5162811048923754e-8 2.6994714575697648e-8 2.7950402116931798e-8 2.4012637619164294e-8 2.4615061903956846e-8 2.7266690167268416e-8
          2.585697502668844e-8 2.6639780148216616e-8 2.896448183980435e-8 3.000067654071621e-8 2.533469071502718e-8 2.6144172698222656e-8
          2.9197911141869313e-8 2.9312671728992848e-8 3.0285844770858157e-8 2.9756055402796972e-8 3.0708001197263395e-8 2.86629822469277e-8
          2.9599366273897067e-8 3.067851610744159e-8 2.749227746813711e-8 2.842695441147907e-8 3.1039526867446924e-8 3.2148631016925125e-8
          2.702013261555139e-8 2.79858181061944e-8 3.1190742444590946e-8 1.3445208193540087e-7 7.833386387881477e-8 7.054615498546953e-8
          1.557621849680776e-7 3.2314703791592847e-7 2.3814481961359527e-7 7.563958171284223e-8 1.346133192524704e-7 2.7610134629871398e-8
          1.7489922209453402e-8 1.7502026598499913e-8 2.784857136617212e-8 3.796985018106577e-8 2.054243426027281e-8 3.1298298381420196e-7
          2.961916510141375e-7 2.481587433898512e-7 2.6541233510141694e-7 3.6884908706025797e-7 3.0718295110827144e-7 2.0012583576556499e-7
          2.1784168638863198e-7 3.172607164865399e-7 3.954818860817189e-8 1.9340737624207153e-8 2.5371345208180505e-7 2.0423840789836293e-7
          1.547633637149208e-7 3.5250451622396444e-7 2.754808209100819e-7 2.658961627646415e-7 2.9307160750306205e-7 3.981909444630002e-7
          3.62081476605373e-7 3.8882587601011806e-7 4.979652130293493e-7 4.582667904461045e-7 4.845801445171741e-7 2.3346245438333684e-7
          3.273026924858872e-7 1.9559711526710633e-7 3.5319795786283743e-7 2.8352486897131514e-7 4.211429305884376e-7 4.7217218787121544e-7
          3.7145262267552396e-7 1.5477669230911798e-7 1.251636971497726e-7 1.428812419287643e-7 1.544949199230232e-7 8.346324891982792e-8
          8.769588159803161e-8 1.5478958519173478e-7 1.4921933435844717e-7 1.3494840669158055e-7 1.290749353526889e-7 1.5479731663676296e-7
          1.165372464253697e-7 1.3469195779171254e-7 1.2049787062055048e-7 1.6355246062309632e-7 1.5734241365159023e-7 7.317015868804814e-8
          1.3899744098430434e-7 1.503219810428465e-7 1.7710853542751702e-7 1.69597919900816e-7 1.339532620332725e-7 1.763271259776924e-7
          1.9771109288253705e-7 1.2002745341109137e-7 1.1422213646959162e-7 1.4292812092035273e-7 1.1401998139534492e-7 1.4851664341023432e-7
          1.1902253140478361e-7 7.782169535830809e-8 1.5304689255538438e-7 1.3207292554091838e-7 2.2990179239597364e-7 1.401939409789858e-7
          1.197402348045989e-8 8.23322267908833e-9 9.054548665188115e-9 1.2033841598219295e-8 4.7192827738041445e-9 5.329457385115213e-9
          7.479668764968481e-9 1.8365030006938903e-8 1.6355896411402537e-8 1.851998427765438e-8 1.22529680223306e-8 3.1485416555913473e-9
          3.928575704935791e-9 5.695289628809037e-9 2.353800342123387e-9 3.3333104895574917e-9 5.295008486804531e-9 9.405183813119296e-9
          1.4916068843600387e-8 8.651194397443555e-9 5.0962340034545503e-8 3.066320096382108e-8 2.6241084198194444e-8 2.6860652968665025e-8
          2.8669753518252687e-8 1.8887396337270338e-8 1.9842011822185878e-8 2.277559172615757e-8 3.023182604639981e-8 3.030694969017304e-8
          3.0754614082976316e-8 2.7322883789353995e-8 1.3788945918972563e-8 1.4506461420743578e-8 1.461307274556533e-8 1.5399628717110884e-8
          1.675848637396079e-8 1.7689691593881305e-8 1.058934601430541e-8 1.1791986363334637e-8 1.4508921170673483e-8 2.1118016534592023e-8
          2.1987692547565126e-8 2.743167287060891e-8 2.8408971863927433e-8 1.7885155077479124e-8 2.401439481527033e-8 6.6859101313568625e-9
          8.423332609068557e-9 1.2113703115907568e-8 5.115422143041887e-9 7.201412110245725e-9 1.145446060445358e-8 7.127559122779083e-9
          8.988880031537055e-9 1.2932627815401275e-8 1.5688502041902845e-8 2.1007815372401902e-8 1.5372080205444138e-8 2.0404222976983064e-8
          1.669903990287882e-8 2.1965619592069185e-8 3.133632388684649e-8 3.240478449560392e-8 3.244822410040075e-8 3.1752339276252216e-8
          3.28606910689707e-8 3.062734364360376e-8 3.2972992182642006e-8 2.946880004378773e-8 3.338938601868721e-8 2.1381890934772733e-8
          2.906040513243333e-8 3.3539477048227e-8
        </DataArray>
        <DataArray type="Float64" Name="gradient_matprop_error" format="ascii" RangeMin="0" RangeMax="0">
          0 0 0 0 0 0
          0 0 0 0 0 0
          0 0 0 0 0 0
          0 0 0 0 0 0
          0 0 0 0 0 0
          0 0 0 0 0 0
          0 0 0 0 0 0
          0 0 0 0 0 0
          0 0 0 0 0 0
          0 0 0 0 0 0
          0 0 0 0 0 0
          0 0 0 0 0 0
          0 0 0 0 0 0
          0 0 0 0 0 0
          0 0 0 0 0 0
          0 0 0 0 0 0
          0 0 0 0 0 0
          0 0 0 0 0 0
          0 0 0 0 0 0
          0 0 0 0 0 0
          0 0 0 0 0 0
          0 0 0 0 0 0
          0 0 0 0 0 0
          0 0 0 0 0 0
          0 0 0 0 0 0
          0 0 0 0 0 0
          0 0 0 0 0 0
          0 0 0 0 0 0
          0 0 0 0 0 0
          0 0 0 0 0 0
          0 0 0 0 0 0
          0 0 0 0 0 0
          0 0 0 0 0 0
          0 0 0 0 0 0
          0 0 0 0 0 0
          0 0 0 0 0 0
          0 0 0 0 0 0
          0 0 0 0 0 0
          0 0 0 0 0 0
          0 0 0 0 0 0
          0 0 0 0 0 0
          0 0 0 0 0 0
          0 0 0 0 0 0
          0 0 0 0 0 0
          0 0 0 0 0 0
          0 0 0 0 0 0
          0 0 0 0 0 0
          0 0 0 0 0 0
          0 0 0 0 0 0
          0 0 0 0 0 0
          0 0 0 0 0 0
          0 0 0 0 0 0
          0 0 0 0 0 0
          0 0 0 0 0 0
          0 0 0 0 0 0
          0 0 0 0 0 0
          0 0 0 0 0 0
          0 0 0 0 0 0
          0 0 0 0 0 0
          0 0 0 0 0 0
          0 0 0 0 0 0
          0 0 0 0 0 0
          0 0 0 0 0 0
          0 0 0 0 0 0
          0 0 0 0 0 0
          0 0 0 0 0 0
          0 0 0 0 0 0
          0 0 0 0 0 0
          0 0 0 0 0 0
          0 0 0 0 0 0
          0 0 0 0 0 0
          0 0 0 0 0 0
          0 0 0 0 0 0
          0 0 0 0 0 0
          0 0 0 0 0 0
          0 0 0 0 0 0
          0 0 0 0 0 0
          0 0 0 0 0 0
          0 0 0 0 0 0
          0 0 0 0 0 0
          0 0 0 0 0 0
          0 0 0 0 0 0
          0 0 0 0 0 0
          0 0 0 0 0 0
          0 0 0 0 0 0
          0 0 0 0 0 0
          0 0 0 0 0 0
          0 0 0 0 0 0
          0 0 0 0 0 0
          0 0 0 0 0 0
          0 0 0 0 0 0
          0 0 0 0 0 0
          0 0 0 0 0 0
          0 0 0 0 0 0
          0 0 0 0 0 0
          0 0 0 0 0 0
          0 0 0 0 0 0
          0 0 0 0 0 0
          0 0 0 0 0 0
          0 0 0 0 0 0
          0 0 0 0 0 0
          0 0 0 0 0 0
          0 0 0 0 0 0
          0 0 0 0 0 0
          0 0 0 0 0 0
          0 0 0 0 0 0
          0 0 0 0 0 0
          0 0 0 0 0 0
          0 0 0 0 0 0
          0 0 0 0 0 0
          0 0 0 0 0 0
          0 0 0 0 0 0
          0 0 0 0 0 0
          0 0 0 0 0 0
          0 0 0 0 0 0
          0 0
        </DataArray>
        <DataArray type="Float64" Name="initial_marker" format="ascii" RangeMin="0" RangeMax="2">
          2 2 2 2 0 0
          1 1 0 1 2 2
          1.3333333333333333 2 2 2 1.5 2
          2 2 2 2 1.5 2
          2 2 2 2 2 2
          2 2 2 2 2 2
          2 2 2 2 2 2
          2 2 2 2 2 2
          2 2 2 2 2 2
          2 2 2 2 2 2
          2 2 2 2 2 2
          2 2 2 2 2 2
          2 2 2 2 2 2
          2 2 2 2 2 2
          2 2 2 2 2 2
          2 2 2 2 2 2
          2 2 2 2 2 2
          2 2 2 2 2 2
          2 2 2 2 2 2
          2 2 2 2 2 2
          2 2 2 2 2 2
          2 2 2 2 2 2
          2 2 2 2 2 2
          2 2 2 2 2 2
          2 2 2 2 2 2
          2 2 2 2 2 2
          2 2 2 2 2 2
          2 2 2 2 2 2
          2 2 2 2 2 2
          2 2 2 2 2 2
          2 2 2 2 2 2
          2 2 2 2 2 2
          2 2 2 2 2 2
          2 2 2 2 2 2
          2 2 2 2 2 2
          2 2 2 2 2 2
          2 2 2 2 2 2
          2 2 2 2 2 2
          2 2 2 2 2 2
          2 2 2 2 2 2
          2 2 2 2 2 2
          2 2 2 2 2 2
          2 2 2 2 2 2
          2 2 2 2 2 2
          2 2 2 2 2 2
          2 2 2 2 2 2
          2 2 2 2 2 2
          2 2 2 2 2 2
          2 2 2 2 2 2
          2 2 2 2 2 2
          2 2 2 2 2 2
          2 2 2 2 2 2
          2 2 2 2 2 2
          2 2 2 2 2 2
          2 2 2 2 2 2
          2 2 2 2 2 2
          2 2 2 2 2 2
          2 2 2 2 2 2
          2 2 2 2 2 2
          2 2 2 2 2 2
          2 2 2 2 2 2
          2 2 2 2 2 2
          2 2 2 2 2 2
          2 2 2 2 2 2
          2 2 2 2 2 2
          2 2 2 2 2 2
          2 2 2 2 2 2
          2 2 2 2 2 2
          2 2 2 2 2 2
          2 2 2 2 2 2
          2 2 2 2 2 2
          2 2 2 2 2 2
          2 2 2 2 2 2
          2 2 2 2 2 2
          2 2 2 2 2 2
          2 2 2 2 2 2
          2 2 2 2 2 2
          2 2 2 2 2 2
          2 2 2 2 2 2
          2 2 2 2 2 2
          2 2 2 2 2 2
          2 2 2 2 2 2
          2 2 2 2 2 2
          2 2 2 2 2 2
          2 2 2 2 2 2
          2 2 2 2 2 2
          2 2 2 2 2 2
          2 2 2 2 2 2
          2 2 2 2 2 2
          2 2 2 0 0 0
          0 1 1 0 0 0
          0 0 0 0 0 1
          1 1 1 2 2 1
          1 1.3333333333333333 0 0 1 1
          1 2 2 0 0 1.5
          0.5 0.5 2 1 1 0
          0.5 0 1.5 0.5 1 2
          1 2 2 2 2 2
          2 2 2 2 2 2
          2 2 2 2 2 2
          2 2 2 2 2 2
          2 2 2 2 2 2
          2 2 2 2 2 2
          2 2 2 2 2 2
          2 2 2 2 2 2
          2 2 2 2 2 2
          2 2 2 2 2 2
          2 2 2 2 2 2
          2 2 2 2 2 2
          2 2 2 2 2 2
          2 2 2 2 2 2
          2 2 2 2 2 2
          2 2 2 2 2 2
          2 2 2 2 2 2
          2 2 2 2 2 2
          2 2
        </DataArray>
        <DataArray type="Float64" Name="markers_norefine" format="ascii" RangeMin="0" RangeMax="2">
          0 2 0 0 0 0
          0 0 0 0 0 0
          0 1 2 0 0 2
          2 2 2 0.5 0 2
          2 0 0 0 0 0
          0 0 0 0 0 0
          0 0 0 0 0 0
          0 0 0 1 0 0
          0 0 0 0 2 1
          1.5 0 0 0 0 0
          0 0 0 2 2 1
          2 2 2 2 2 1.5
          1.5 2 2 2 2 0
          0 0 0 0 0 0
          0 0 0 0 0 0
          0 2 1.5 1.5 0.5 0
          0 0 2 2 0.5 0
          0 0 0 0 0 0
          0 0 0 0 2 2
          2 2 1.5 2 2 2
          2 2 2 2 2 0
          0 0 0 0 0 0
          0 0 0 0 0 0
          0 0 2 2 1.3333333333333333 2
          1 1 0 0 0 0
          0 0 0 0 0 0.5
          0.25 1 0.5 0 0 1.5
          1.25 1.5 1.3333333333333333 1 0.75 1