<?xml version="1.0"?>
<VTKFile type="UnstructuredGrid" version="0.1" byte_order="LittleEndian" header_type="UInt32" compressor="vtkZLibDataCompressor">
  <UnstructuredGrid>
    <Piece NumberOfPoints="700" NumberOfCells="402">
      <PointData>
        <DataArray type="Int32" Name="libmesh_node_id" format="ascii" RangeMin="524" RangeMax="6491">
          524 841 843 845 848 853
          1691 1694 1696 1698 1699 1700
          1701 1702 1703 1704 1708 1709
          1710 1712 1713 1714 1715 1716
          1717 1718 1719 1720 1721 2075
          2076 2077 2078 2079 2080 2081
          2082 2083 2084 2085 2086 2087
          2088 2936 2938 2940 2946 2947
          2948 2951 2954 2958 2959 2961
          2962 2963 2964 2965 2966 2967
          2968 2969 2970 2971 2972 2973
          2974 2975 2976 2977 2978 2979
          2982 2983 2986 2987 2988 2989
          2990 2991 2992 2993 2994 2995
          2996 2997 2998 2999 3000 3001
          3002 3003 3004 3005 3006 3007
          3008 3009 3010 3011 3012 3013
          3014 3015 3016 3017 3018 3019
          3020 3021 3022 3023 3024 3025
          3026 3095 3096 3097 3098 3099
          3100 3101 3102 3103 3104 3198
          3199 3200 3201 3202 3203 3204
          3205 3206 3207 3208 3209 3210
          3213 3214 3215 3216 3217 3218
          3219 3220 3221 3222 3223 3224
          3242 3243 3244 3245 3246 3247
          3248 3249 3250 3251 3252 3253
          3254 3255 3256 3257 3258 3259
          3260 3261 3262 3263 3264 3265
          3266 3267 3268 3269 3270 3271
          3272 3273 3274 3275 3276 3277
          3278 3279 3280 3281 3282 5993
          5994 5997 6090 6091 6092 6093
          6094 6095 6096 6097 6098 6099
          6100 6101 6102 6103 6124 6125
          6126 6127 6128 6129 6130 6131
          6132 6133 6141 6142 6143 6144
          6145 6146 6147 6148 6149 6150
          6153 6154 6156 6159 6161 6162
          6163 6164 6165 6166 6167 6168
          6169 6170 6172 6174 6176 6178
          6179 6180 6181 6182 6183 6184
          6185 6186 6187 6188 6189 6190
          6191 6192 6193 6194 6195 6196
          6197 6198 6199 6200 6201 6202
          6203 6204 6205 6206 6207 6208
          6209 6210 6211 6212 6213 6214
          6215 6216 6217 6218 6219 6220
          6221 6222 6223 6224 6225 6226
          6227 6228 6229 6230 6231 6232
          6233 6234 6235 6236 6237 6238
          6239 6250 6251 6252 6253 6254
          6255 6256 6257 6258 6259 6261
          6263 6265 6267 6268 6269 6270
          6271 6272 6273 6276 6277 6278
          6279 6280 6281 6282 6283 6286
          6287 6289 6292 6294 6295 6296
          6297 6298 6299 6300 6301 6302
          6303 6305 6307 6309 6311 6312
          6313 6314 6315 6316 6317 6320
          6321 6323 6326 6328 6329 6330
          6331 6332 6333 6334 6335 6336
          6337 6339 6341 6343 6345 6346
          6347 6348 6349 6350 6351 6352
          6353 6354 6355 6356 6357 6358
          6359 6360 6361 6362 6363 6364
          6365 6366 6367 6368 6369 6370
          6371 6372 6373 6374 6375 6376
          6377 6378 6379 6380 6381 6382
          6383 6384 6385 6386 6387 6388
          6389 6390 6391 6392 6393 6394
          6395 6396 6397 6398 6399 6400
          6401 6402 6403 6404 6405 6406
          6407 6408 6409 6410 6411 6412
          6413 6414 6415 6416 6417 6418
          6419 6420 6421 6422 6424 6426
          6428 6430 6431 6432 6433 6434
          6435 6436 6437 6438 6439 6440
          6441 6442 6443 6445 6447 6449
          6451 6452 6453 6454 6455 6456
          6457 6458 6459 6460 6461 6462
          6463 6464 6465 6466 6467 6468
          6469 6470 6471 6472 6473 6474
          6475 6476 6477 6478 6479 6480
          6481 6482 6483 6484 6485 6486
          6487 6488 6489 6490 6491 1078
          1085 1086 1079 644 844 833
          1088 1089 647 847 1688 1690
          838 1692 1689 1693 1695 653
          1697 1648 1649 1650 1705 1706
          1653 1707 846 1711 1842 1843
          1844 1845 849 1852 1853 855
          854 2091 2089 2092 2090 2093
          2094 2097 2096 2098 2924 2932
          2925 2933 2937 2928 2934 2935
          2893 2894 2897 2939 2941 2942
          2943 2944 2945 2949 2950 2953
          2955 2980 2984 2981 2985 3106
          2071 835 3189 3194 3190 3195
          3193 3196 3197 3211 3212 2754
          2755 2758 2760 2860 1673 5961
          5967 5969 5985 5991 5987 5968
          5992 5989 5995 5996 6080 6081
          6082 6085 2952 6088 6116 6117
          6119 2956 6122 2957 6112 6135
          6137 6139 2960 6120 6121 6151
          6152 6123 6155 6157 6158 6160
          6138 6171 6140 6173 6175 6177
          6242 6243 6246 6248 6247 6260
          6249 6262 6264 6266 6274 6275
          5720 5744 5746 5732 2862 5748
          6284 6285 6288 6290 6291 6293
          6304 6306 6308 6310 6318 6319
          6322 6324 6325 6327 6338 6340
          6342 6344 6423 6425 6427 6429
          5952 5964 5966 2892 6444 6446
          6448 6450 5980 2896
        </DataArray>
        <DataArray type="Float64" Name="bounds" format="ascii" RangeMin="0" RangeMax="0">
          0 0 0 0 0 0
          0 0 0 0 0 0
          0 0 0 0 0 0
          0 0 0 0 0 0
          0 0 0 0 0 0
          0 0 0 0 0 0
          0 0 0 0 0 0
          0 0 0 0 0 0
          0 0 0 0 0 0
          0 0 0 0 0 0
          0 0 0 0 0 0
          0 0 0 0 0 0
          0 0 0 0 0 0
          0 0 0 0 0 0
          0 0 0 0 0 0
          0 0 0 0 0 0
          0 0 0 0 0 0
          0 0 0 0 0 0
          0 0 0 0 0 0
          0 0 0 0 0 0
          0 0 0 0 0 0
          0 0 0 0 0 0
          0 0 0 0 0 0
          0 0 0 0 0 0
          0 0 0 0 0 0
          0 0 0 0 0 0
          0 0 0 0 0 0
          0 0 0 0 0 0
          0 0 0 0 0 0
          0 0 0 0 0 0
          0 0 0 0 0 0
          0 0 0 0 0 0
          0 0 0 0 0 0
          0 0 0 0 0 0
          0 0 0 0 0 0
          0 0 0 0 0 0
          0 0 0 0 0 0
          0 0 0 0 0 0
          0 0 0 0 0 0
          0 0 0 0 0 0
          0 0 0 0 0 0
          0 0 0 0 0 0
          0 0 0 0 0 0
          0 0 0 0 0 0
          0 0 0 0 0 0
          0 0 0 0 0 0
          0 0 0 0 0 0
          0 0 0 0 0 0
          0 0 0 0 0 0
          0 0 0 0 0 0
          0 0 0 0 0 0
          0 0 0 0 0 0
          0 0 0 0 0 0
          0 0 0 0 0 0
          0 0 0 0 0 0
          0 0 0 0 0 0
          0 0 0 0 0 0
          0 0 0 0 0 0
          0 0 0 0 0 0
          0 0 0 0 0 0
          0 0 0 0 0 0
          0 0 0 0 0 0
          0 0 0 0 0 0
          0 0 0 0 0 0
          0 0 0 0 0 0
          0 0 0 0 0 0
          0 0 0 0 0 0
          0 0 0 0 0 0
          0 0 0 0 0 0
          0 0 0 0 0 0
          0 0 0 0 0 0
          0 0 0 0 0 0
          0 0 0 0 0 0
          0 0 0 0 0 0
          0 0 0 0 0 0
          0 0 0 0 0 0
          0 0 0 0 0 0
          0 0 0 0 0 0
          0 0 0 0 0 0
          0 0 0 0 0 0
          0 0 0 0 0 0
          0 0 0 0 0 0
          0 0 0 0 0 0
          0 0 0 0 0 0
          0 0 0 0 0 0
          0 0 0 0 0 0
          0 0 0 0 0 0
          0 0 0 0 0 0
          0 0 0 0 0 0
          0 0 0 0 0 0
          0 0 0 0 0 0
          0 0 0 0 0 0
          0 0 0 0 0 0
          0 0 0 0 0 0
          0 0 0 0 0 0
          0 0 0 0 0 0
          0 0 0 0 0 0
          0 0 0 0 0 0
          0 0 0 0 0 0
          0 0 0 0 0 0
          0 0 0 0 0 0
          0 0 0 0 0 0
          0 0 0 0 0 0
          0 0 0 0 0 0
          0 0 0 0 0 0
          0 0 0 0 0 0
          0 0 0 0 0 0
          0 0 0 0 0 0
          0 0 0 0 0 0
          0 0 0 0 0 0
          0 0 0 0 0 0
          0 0 0 0 0 0
          0 0 0 0 0 0
          0 0 0 0 0 0
          0 0 0 0 0 0
          0 0 0 0 0 0
          0 0 0 0
        </DataArray>
        <DataArray type="Float64" Name="gradient_error" format="ascii" RangeMin="8.898517956839754e-14" RangeMax="2.8798724526865266e-9">
          1.2090828747283348e-12 4.886031524596887e-11 1.5930794321472763e-12 1.6474327730959168e-12 4.99240667727857e-13 5.575104924096308e-12
          1.8211131560701203e-11 3.030716968537133e-11 2.2787830383280706e-11 7.904960887112433e-13 7.429436387926419e-13 1.2040900380679843e-12
          1.244172453079357e-12 4.18307323294872e-13 5.655187223268499e-13 9.310506468577169e-13 4.819720479607821e-12 4.483501134204289e-12
          1.709492333770388e-12 8.643218922006925e-11 2.259723787018276e-11 2.5043595007928806e-12 4.214257082099186e-12 1.0641051499148832e-11
          3.9574602672980706e-12 2.277457689887184e-10 5.733697905203577e-11 5.622339843014451e-12 6.960440311485096e-12 4.825143230447722e-13
          7.599331594387439e-13 8.635975069191264e-13 1.765540871183957e-12 3.337728759892502e-13 9.47534698018327e-13 8.153934191188466e-13
          1.0289306334689894e-12 2.735593897458958e-12 6.832521402193661e-13 1.3944304229698932e-12 2.426715946336293e-12 1.0784575414851197e-12
          3.667212433634967e-12 1.1547853761680613e-11 6.243572554180409e-12 3.5627532660348165e-11 1.2921771350926663e-12 2.1490958355517403e-12
          3.4617568291453383e-12 4.065756005548106e-12 5.096641174020017e-12 2.4414821829806314e-11 1.737813789779952e-11 8.513129881357514e-12
          5.154315715076046e-10 3.727046564171572e-10 6.217069841792849e-11 1.2175220015873528e-10 2.615161400044793e-12 2.085852595873287e-12
          4.107590884329557e-12 4.0647238490220074e-12 1.5647180366540956e-12 1.8931609002619825e-12 2.7032184018684384e-12 2.011396576758676e-12
          5.5095363903208926e-12 3.058981524635872e-12 1.1571038306694447e-11 9.146220077453067e-12 3.0932603004101276e-12 7.125583984463493e-12
          3.0452454065723445e-12 7.110559908581653e-12 5.155424605478751e-12 2.5083195050874456e-11 1.3533752546989961e-11 1.298308452859174e-11
          1.0612347168918554e-9 7.960777153691402e-10 1.7986557158888813e-10 1.3217933991807141e-10 2.619175001039488e-10 4.4665282686998886e-11
          1.3321079573406289e-9 1.0196183372942346e-9 1.694199649533507e-10 3.380224039748055e-10 2.3898371425265042e-11 1.7491309268754217e-11
          4.589542015361219e-12 3.531459873795386e-12 7.808749734614036e-12 4.384840196477589e-12 3.0281697469986564e-11 2.231406501762002e-11
          4.31098048797311e-12 9.828811657061864e-12 4.316565880108918e-11 1.364027978521393e-11 1.6093217806945473e-11 1.2211504586241234e-11
          5.0751716096377373e-11 1.1586768563446929e-11 1.3544306814566743e-11 5.828268636961882e-12 5.710676166175399e-12 3.2111050210721777e-12
          5.2372704590741566e-12 3.849936472880085e-12 5.886133465275803e-12 1.9190417172063875e-12 6.77646698252425e-12 6.249539293921692e-12
          6.755348524659792e-12 1.4279288340315933e-13 1.7230153332212622e-13 3.467949323265312e-13 2.8732148838729634e-13 8.898517956839754e-14
          9.372767430419954e-14 1.0210081739716227e-13 2.0181018324109313e-13 2.2784804444806144e-13 1.10473960490125e-13 8.551068668663198e-12
          1.0096791574633008e-11 4.471946761264266e-12 4.206318358913853e-13 4.644756098228064e-13 1.4575752923206491e-12 1.269325249303388e-12
          3.3968338776313346e-13 5.095691036508985e-13 4.999596366635527e-13 5.083193837542275e-13 1.0810752062861269e-12 4.903501696762068e-13
          8.110322619903137e-13 1.9735782298796107e-12 1.0165675681992025e-12 1.771284104617292e-12 1.2087789513555962e-12 2.020900282602168e-12
          4.507354509057529e-12 1.0618896697854916e-12 1.6295490438516125e-12 1.1056364000930001e-12 1.8942954699806773e-12 1.0918518300344444e-12
          5.05008740181865e-13 5.066682627549865e-13 8.37860935997738e-13 7.556202547999614e-13 2.4451802515058597e-13 3.624661823715539e-13
          3.6780323835827517e-13 5.08327785328108e-13 6.73379573602185e-13 3.731402943449965e-13 1.923333582341175e-12 1.583735805047126e-12
          7.115506538097551e-13 1.2441380277530767e-12 3.2402377480355154e-12 2.6405920003472734e-12 1.2783215232395791e-12 1.1091906856402769e-12
          2.0409462526590314e-12 9.400598480409746e-13 3.804521463202291e-12 3.1182846374452314e-12 1.286368515227008e-12 2.4320478116881714e-12
          1.714596809502112e-12 3.016180740796539e-12 1.0506439762646415e-12 1.414363027059079e-12 1.2687916681630417e-12 1.9254665488882098e-12
          1.1661727481919432e-12 6.074904670013962e-12 2.290538739205462e-12 3.0618621007148937e-12 9.612270264811094e-12 3.787960786401057e-12
          3.4340871614105825e-12 2.286253050026164e-12 1.1392495861685232e-11 4.772926172244707e-12 3.3265915510047554e-12 6.084757383189613e-11
          3.080843484051851e-11 6.451937474388964e-11 1.587392825525566e-12 1.681594104264e-12 3.2388469082398606e-12 3.0147845250217313e-12
          1.1280697465065884e-12 1.8741531674105006e-12 1.8412444900619546e-12 1.775795383002434e-12 2.790722141803602e-12 1.8083358127134083e-12
          9.909753298176483e-12 9.013074665014523e-12 4.571073469497007e-12 8.251072070577896e-12 2.634204936171399e-11 2.4185644510589872e-11
          1.0636509596802833e-11 9.760431729164124e-12 1.8619998163843475e-11 7.53174032157249e-12 6.098790167727131e-11 5.6077783338485914e-11
          2.2468318489877144e-11 4.3243130872002216e-11 6.802636246507634e-12 1.2031358444877128e-11 2.821348513122195e-12 4.916584287358025e-12
          3.760896406805666e-12 6.508258171662621e-12 3.240740139132993e-12 2.7749621982565203e-11 1.1256607319913685e-11 1.476609685507805e-11
          2.9259377532097977e-10 2.698723846818084e-10 2.0869180791879585e-10 4.777851677237933e-10 1.234550331128432e-10 1.1376795794673804e-10
          4.9169611762493355e-11 4.531208544776091e-11 8.795691342856289e-11 3.509324044205573e-11 2.1761327984947047e-10 2.0130693488511526e-10
          7.988583582824027e-11 1.566408764331842e-10 1.3227516001703486e-10 6.857972855953174e-11 2.367587646936606e-10 5.6178359236189517e-11
          2.2574216338092682e-11 2.9403250054213584e-11 1.4427955714502487e-11 1.0000626982133569e-10 3.995555095233673e-11 5.19335132187819e-11
          2.3538118703653704e-12 2.151882950640877e-12 4.040520506967841e-12 3.715533242552587e-12 1.210561993975266e-12 2.1653726499748885e-12
          1.995107477011428e-12 1.6579972499441972e-12 2.880122341700086e-12 1.5431320142353293e-12 9.294113493849409e-12 8.571695113702832e-12
          3.787637953846634e-12 6.654214988139291e-12 1.1109661278674677e-12 1.8795592344339263e-12 6.342977515584244e-13 1.015067481900927e-12
          8.558917867629252e-13 1.3894197636050125e-12 7.687132393791622e-13 4.309752063894183e-12 2.3442042345734702e-12 3.1603508850660393e-12
          1.8577876181332615e-11 1.7147574036777438e-11 6.67101875657926e-12 6.121401366127932e-12 1.3316895244863126e-11 5.649243352236954e-12
          3.242556277826087e-11 2.999901358532074e-11 1.0648795894060615e-11 2.34147570932396e-11 1.5453984058046524e-12 1.4647949637319976e-12
          2.2633168338756697e-12 2.0916749503256153e-12 8.150713401948493e-13 1.1143556766095457e-12 1.1370013014154886e-12 1.3841915216593427e-12
          1.920033066775561e-12 1.1596469262214318e-12 3.954496987331335e-12 3.6144863163845247e-12 1.8679198813597995e-12 3.1422478986529076e-12
          8.54809234594916e-12 4.620858925738711e-12 6.179666094394327e-12 3.4375557461197694e-12 1.5072270320794756e-11 6.491084201884961e-12
          9.285518153257682e-12 1.7939129901916076e-12 3.00432637585342e-12 1.1321708762578807e-12 1.790261277274189e-12 1.1508815117585942e-12
          1.8440966299146486e-12 1.166385723342375e-12 6.709639182079671e-12 3.9931844918470174e-12 4.067731874829709e-12 3.009335144565511e-11
          1.4093896681220102e-11 5.2490784238064e-11 1.3030426205842434e-11 7.648295288444564e-12 7.778126699143846e-12 4.845745283586387e-12
          2.257627418350887e-11 1.0882589884303062e-11 1.3016898626516963e-11 4.144217473063151e-12 5.546355380417298e-12 3.836422891728029e-12
          4.833109871708342e-12 3.500908739897557e-12 1.4040667766828696e-11 9.009050712235466e-12 7.482636276781536e-12 7.902354401153548e-10
          7.372042143724577e-10 5.817646060840986e-10 9.9664281100116e-10 3.347918250718174e-10 3.1123427024889323e-10 1.330347569315295e-10
          1.2341150979027502e-10 2.443335206904994e-10 9.668955864272067e-11 4.517400248431906e-10 4.221359884456787e-10 1.675106692883825e-10
          3.3451103490794573e-10 3.715926951193421e-10 1.903811136904814e-10 5.118928740727285e-10 1.5633110331118916e-10 6.222244227380917e-11
          8.095638298715552e-11 3.25795717573184e-11 2.1490028034253372e-10 8.525542738548325e-11 1.1102206370612275e-10 1.259569495013671e-9
          1.1891064007070075e-9 9.587552753317135e-10 1.260106924210485e-9 5.383551953853245e-10 5.051276833809897e-10 2.148060412009951e-10
          2.0068792908186528e-10 4.032017994596674e-10 1.592570119843045e-10 5.702765875181347e-10 5.359115244516126e-10 2.1303486429769403e-10
          4.289605954033176e-10 6.198702415435644e-10 3.1714755808208334e-10 6.605930239122732e-10 2.6006438647075553e-10 1.0301919926566116e-10
          1.3421752529754078e-10 5.386567373376627e-11 2.7709543438664577e-10 1.0970836450125256e-10 1.4296658905437393e-10 4.984357203798935e-11
          4.6206047104940146e-11 1.770721836497971e-11 1.6395568777219993e-11 3.623003759939487e-11 1.2847157082919942e-11 6.739313536109176e-11
          6.262935737265348e-11 2.2183637345338174e-11 4.9337259826750073e-11 6.007740114183569e-12 5.54283868100648e-12 2.9732397048676927e-12
          2.7563383387247417e-12 4.342073130310315e-12 2.2021492617928206e-12 8.071190323016457e-12 7.485515296860547e-12 3.681954932888992e-12
          5.915745191343252e-12 2.3522070907542966e-11 8.414629820132295e-12 1.2457260073877063e-11 5.571531090949557e-12 3.215122099262068e-11
          1.1513485267997222e-11 1.7116220794062208e-11 2.3221374472186385e-12 2.865149114277703e-12 1.3387002486180935e-12 1.5094115224456826e-12
          1.7664824893539846e-12 2.124089215764166e-12 1.1539614938875138e-12 3.882136627053258e-12 1.9260308941998788e-12 2.8326231421246488e-12
          8.053867149074612e-11 7.503660998182369e-11 2.8550870744247658e-11 2.655204820144188e-11 5.937706498601683e-11 2.0997376926536506e-11
          8.542184529730244e-11 7.965951363819274e-11 2.8181539760035877e-11 6.313777927774773e-11 9.637430266058493e-12 8.942782096125834e-12
          4.7480289543526915e-12 4.396755114114574e-12 7.072821379671648e-12 3.4609462052872407e-12 1.0220201401735224e-11 9.489793264693716e-12
          4.6653685398171776e-12 7.51286409524395e-12 3.876424553233466e-11 1.3835233256502551e-11 2.0576059076384916e-11 9.075929557882506e-12
          4.125048315803472e-11 1.4710702611734758e-11 2.1886708562064865e-11 4.644205696013019e-12 2.308802589563294e-12 3.3909025588759172e-12
          1.7411940424285643e-12 4.932298919256288e-12 2.4456661870001024e-12 3.598254775676884e-12 8.103824795879894e-11 3.6303415828465115e-11
          1.103305328032739e-10 3.48820264333907e-11 1.4232872960485779e-11 1.9523167559819037e-11 8.160632317532238e-12 4.75111096044662e-11
          1.9483721832146588e-11 2.0573550421484948e-11 2.0759897132629328e-11 1.3312874272309824e-11 1.0916070555696726e-11 8.002371532590551e-12
          2.762841694331737e-11 1.4923993070180523e-11 1.388189654755243e-11 1.3267333016681673e-10 4.752724687594725e-11 1.4107622730967232e-10
          5.725684423680105e-11 2.349988428908856e-11 2.090694826894912e-11 1.094967489749645e-11 6.095928757347414e-11 2.5053472644143706e-11
          2.2438890537322387e-11 3.2894517135546015e-11 1.5546643366497965e-11 1.54691175631378e-11 7.963575974613961e-12 3.484333705865699e-11
          1.6485367331685225e-11 1.5871107440689782e-11 6.941395578991456e-12 7.170666307531704e-12 4.641828871530161e-12 4.5233423206464714e-12
          4.739209321587422e-12 4.231419354516808e-12 2.922885220990361e-12 7.399937036071951e-12 4.404855769762781e-12 3.723629387446195e-12
          4.543769321529305e-12 5.591959947457438e-12 2.752687694823485e-12 3.158721681260366e-12 3.0059658782674034e-12 3.421988535347881e-12
          2.04057941744203e-12 7.571011632938448e-12 4.083963871463819e-12 4.403083393708907e-12 9.082017927048241e-12 4.897448031326941e-12
          5.3208272668635244e-12 3.024984026142752e-12 9.662163161605162e-12 5.191723987423492e-12 5.673498938737594e-12 1.994350409879846e-11
          3.654786118780401e-12 5.4935271238818964e-12 3.7308997586944655e-11 3.513061138006079e-12 2.6884909257088967e-12 2.4438763270947823e-11
          2.036696578980509e-12 3.245028280180799e-12 1.0415833248034182e-12 1.2909332833408128e-12 5.5659004902126076e-11 1.1950643597443131e-11
          3.4874282377704285e-11 8.970713902251926e-11 1.1767867424261207e-10 2.0055085894469344e-10 1.606800482280889e-10 4.264692852024996e-11
          2.6003826237388016e-10 5.57631438585473e-12 3.796437438007333e-12 3.51565278718925e-12 9.556099421173912e-13 1.8095926091583453e-12
          7.777859558357844e-12 1.109876879138959e-12 2.5972947244000833e-12 3.0414082865012734e-12 1.1982954721427375e-13 1.3665755381169362e-13
          3.93183751969276e-13 3.556076809480867e-13 1.2869767191973169e-12 6.665379567242783e-13 5.745578080844798e-13 1.7991117406526085e-12
          4.897375912801602e-12 1.841160860260008e-12 2.397929232536835e-12 3.682776209661556e-12 3.714050150712988e-12 2.0045975299216155e-12
          3.668758941612924e-12 4.434550774057004e-12 4.534026025576414e-12 4.696467422167487e-12 1.0237140841687559e-10 6.035575847675651e-11
          6.696234218061404e-11 5.842384061113052e-11 1.47450294249581e-11 5.136790957458182e-11 2.1030627833602504e-11 3.13228641389723e-11
          1.0070972717735433e-10 4.1365844155796224e-11 9.548985396676218e-11 3.825763608458948e-11 1.8036865807157794e-11 6.42293102665933e-12
          4.9115474472743265e-12 4.9405002191061515e-12 5.523470957047743e-12 2.3600372149942255e-12 6.303640575717226e-12 1.7482209229788922e-11
          9.742447253265043e-12 7.540761691003541e-12 5.896577323474548e-12 1.0515733325518377e-11 7.772938748320123e-12 1.7395677563163311e-12
          9.28536030080108e-12 1.1509706577507351e-11 3.946931630302866e-11 1.7499236584798097e-11 8.594034227762923e-11 3.018716052394935e-11
          2.4883792339556485e-11 5.361174595810238e-12 1.0202117322709405e-11 1.1682390651491656e-12 4.248360607363543e-12 3.5710077149985185e-12
          6.7825887569987515e-12 5.6173746908316705e-12 1.1359019422632246e-11 1.2884613961220296e-11 2.486138221808983e-11 2.0565550659929698e-10
          1.1002449620847754e-10 5.108142089629592e-11 2.4517646641788517e-10 1.310744141529958e-10 8.86904834361884e-11 5.636021933161052e-11
          6.69912584818276e-11 2.6003378454718074e-10 1.3897608319124898e-10 7.095030908964274e-11 3.4099030609132975e-12 7.536763581679206e-12
          6.903141085514769e-12 6.197939422825303e-12 2.306944532197531e-11 2.1112011732480365e-11 6.177137699671123e-11 5.6775144303552445e-11
          4.373394273124546e-11 1.441881039308698e-10 1.3256288105720792e-10 1.0203541559261816e-10 1.2869017623097543e-11 2.799044239266029e-11
          1.4959696190753166e-11 6.484325494302371e-11 3.410568552769718e-11 3.2147447644517434e-10 2.957782907861572e-10 6.518962676829076e-10
          6.023674292395643e-10 2.2765349878862536e-10 4.668891947347295e-10 1.14312340405477e-9 1.0631362322581901e-9 8.338183976156357e-10
          1.4393566534827976e-10 2.9512107434485397e-10 7.493736254837617e-11 1.516847404863532e-10 5.297711209644451e-10 2.704838745893158e-10
          4.011551390051418e-12 6.848104340673349e-12 4.068727233063672e-12 1.5287827520744355e-11 3.31277609329723e-11 6.551465593524806e-11
          1.5516563892125847e-11 2.458378562678069e-11 1.1469076708936286e-10 4.2033495708099547e-11 6.165822268411689e-12 8.519250105505065e-12
          1.09055045400414e-11 1.7208768443057993e-11 8.786964174835897e-12 5.0431089360186746e-11 8.62893462986261e-11 2.8524276976672304e-11
          1.739404229897308e-9 1.6309948616407215e-9 1.2987790564558575e-9 2.3160990276058712e-9 2.190447330172717e-9 1.7718701095442476e-9
          8.324393271318714e-10 4.2410724806260947e-10 1.1467117119372167e-9 5.844696716245395e-10 2.7302458927815605e-9 2.5996579217202213e-9
          2.1284939233825897e-9 2.8798724526865266e-9 2.749292033181264e-9 2.261364709602473e-9 1.387925023682795e-9 7.08260301136945e-10
          1.4787566187906163e-9 7.550451887177076e-10 1.7758218583586726e-10 6.372981699612025e-11 2.4252814011528424e-10 8.598535592303631e-11
          1.3127936078329344e-10 4.233757621354917e-11 2.0099395445362504e-11 1.7740489389917188e-10 2.922551035961532e-10 1.0312083644283142e-10
          3.109798810728546e-10 1.0959019171960309e-10 2.126952520172381e-10 2.2598266248713905e-10
        </DataArray>
        <DataArray type="Float64" Name="gradient_matprop_error" format="ascii" RangeMin="0" RangeMax="0">
          0 0 0 0 0 0
          0 0 0 0 0 0
          0 0 0 0 0 0
          0 0 0 0 0 0
          0 0 0 0 0 0
          0 0 0 0 0 0
          0 0 0 0 0 0
          0 0 0 0 0 0
          0 0 0 0 0 0
          0 0 0 0 0 0
          0 0 0 0 0 0
          0 0 0 0 0 0
          0 0 0 0 0 0
          0 0 0 0 0 0
          0 0 0 0 0 0
          0 0 0 0 0 0
          0 0 0 0 0 0
          0 0 0 0 0 0
          0 0 0 0 0 0
          0 0 0 0 0 0
          0 0 0 0 0 0
          0 0 0 0 0 0
          0 0 0 0 0 0
          0 0 0 0 0 0
          0 0 0 0 0 0
          0 0 0 0 0 0
          0 0 0 0 0 0
          0 0 0 0 0 0
          0 0 0 0 0 0
          0 0 0 0 0 0
          0 0 0 0 0 0
          0 0 0 0 0 0
          0 0 0 0 0 0
          0 0 0 0 0 0
          0 0 0 0 0 0
          0 0 0 0 0 0
          0 0 0 0 0 0
          0 0 0 0 0 0
          0 0 0 0 0 0
          0 0 0 0 0 0
          0 0 0 0 0 0
          0 0 0 0 0 0
          0 0 0 0 0 0
          0 0 0 0 0 0
          0 0 0 0 0 0
          0 0 0 0 0 0
          0 0 0 0 0 0
          0 0 0 0 0 0
          0 0 0 0 0 0
          0 0 0 0 0 0
          0 0 0 0 0 0
          0 0 0 0 0 0
          0 0 0 0 0 0
          0 0 0 0 0 0
          0 0 0 0 0 0
          0 0 0 0 0 0
          0 0 0 0 0 0
          0 0 0 0 0 0
          0 0 0 0 0 0
          0 0 0 0 0 0
          0 0 0 0 0 0
          0 0 0 0 0 0
          0 0 0 0 0 0
          0 0 0 0 0 0
          0 0 0 0 0 0
          0 0 0 0 0 0
          0 0 0 0 0 0
          0 0 0 0 0 0
          0 0 0 0 0 0
          0 0 0 0 0 0
          0 0 0 0 0 0
          0 0 0 0 0 0
          0 0 0 0 0 0
          0 0 0 0 0 0
          0 0 0 0 0 0
          0 0 0 0 0 0
          0 0 0 0 0 0
          0 0 0 0 0 0
          0 0 0 0 0 0
          0 0 0 0 0 0
          0 0 0 0 0 0
          0 0 0 0 0 0
          0 0 0 0 0 0
          0 0 0 0 0 0
          0 0 0 0 0 0
          0 0 0 0 0 0
          0 0 0 0 0 0
          0 0 0 0 0 0
          0 0 0 0 0 0
          0 0 0 0 0 0
          0 0 0 0 0 0
          0 0 0 0 0 0
          0 0 0 0 0 0
          0 0 0 0 0 0
          0 0 0 0 0 0
          0 0 0 0 0 0
          0 0 0 0 0 0
          0 0 0 0 0 0
          0 0 0 0 0 0
          0 0 0 0 0 0
          0 0 0 0 0 0
          0 0 0 0 0 0
          0 0 0 0 0 0
          0 0 0 0 0 0
          0 0 0 0 0 0
          0 0 0 0 0 0
          0 0 0 0 0 0
          0 0 0 0 0 0
          0 0 0 0 0 0
          0 0 0 0 0 0
          0 0 0 0 0 0
          0 0 0 0 0 0
          0 0 0 0 0 0
          0 0 0 0 0 0
          0 0 0 0 0 0
          0 0 0 0 0 0
          0 0 0 0
        </DataArray>
        <DataArray type="Float64" Name="initial_marker" format="ascii" RangeMin="0" RangeMax="2">
          0 0.5 0 0 0 1
          0 0 0 0 0 0
          0 0 0 0 0.5 0
          0 2 1.75 0 0 0
          0 2 2 0 0 0
          0 0 0 0 0 0
          0 0 0 0 0 0
          0 0 0 0 0 0
          0 0 0.5 2 2 1
          2 2 2 2 0 0
          0.5 0.25 0 0 0 0
          0 0 2 1.25 0 0.25
          0 0 0 1.25 0.25 0
          2 2 2 2 2 2
          2 2 2 2 2 2
          0 0 0.75 0 2 2
          0 1 1.75 0.5 0 0
          2 0.5 0 0 0 0
          0 0 0 0 0 0
          0 0 0 0 0 0
          0 0 0 0 0 0
          0 0 0 0 0 0
          0 0 0 0 0 0
          0 0 0 0 0 0
          0 0 0 0 0 0
          0 0 0 0 0 0
          0 0 0 0 0 0
          0 0 0 0 0 0
          0 0 0 0 0 0
          0 0 0 0 0 0
          0 0 0 0 0 0
          0 0 0 0 0 2
          1 2 0 0 0.5 0.5
          0 0 0 0 0.5 0
          1.5 1.5 0.6666666666666666 1.6666666666666667 2 2
          1.5 1.5 2 1.5 2 2
          2 2 1.5 1.75 0.5 1
          0.5 1 0.3333333333333333 2 1.75 1.75
          2 2 2 2 2 2
          2 2 2 2 2 2
          2 2 2 2 2 2
          2 2 2 2 2 2
          0 0 0.5 0.5 0 0
          0 0 0.5 0 1.5 1.5
          0.6666666666666666 1.25 0 0.25 0 0
          0 0 0 0.75 0 0.5
          2 2 1.5 1.25 1.75 1
          2 2 1.75 2 0 0
          0.5 0.25 0 0 0 0
          0 0 1 0.75 0 0.3333333333333333
          1.25 0.5 1 0 1.75 1
          1.3333333333333333 0 0.25 0 0 0
          0 0 0.75 0.5 0 1.75
          1 2 1.25 1 0.5 0
          1.75 1.3333333333333333 1.5 0 0 0
          0 0 0.75 0.5 0 2
          2 2 2 2 2 2
          2 2 2 2 2 2
          2 2 2 2 2 2
          2 2 2 2 2 2
          2 2 2 2 2 2
          2 2 2 2 2 2
          2 2 2 2 2 2
          2 2 2 2 2 2
          2 2 2 2 1.75 2
          2 2 2 1 1 0
          0 0.75 0 1 1 0
          1 2 1.25 1.5 0.6666666666666666 2
          1.5 1.75 0 0.25 0 0
          0 0 0 0.5 0 0
          2 2 2 2 2 2
          2 2 2 2 1.5 1.25
          1 0.5 1 0 2 1.5
          1 1 2 1.5 2 1.3333333333333333
          2 1.5 2 0.5 0 0
          0 0.5 0 0 2 2
          2 2 1.5 2 1 2
          1.5 1.6666666666666667 1 1 0 0
          1 1 0 2 2 2
          2 1.5 1.5 0.6666666666666666 2 1.5
          1.5 1 1 0 0 1
          1 0 0.5 0.5 0 0
          0 0 0 0.5 0 0
          0.5 0.5 0 0 0 0
          0 0.75 0.5 0 1 1
          0 0 1 1 0 0
          0 0 0 0 0 0
          0 0 0 0 0 0
          0 0 0 0 0 0
          0 0 0 0 0 0
          0 0 0 0 0 0
          0 0 0 0 0 0
          0 0 0 0 0 0
          0 0 0 0 0 0
          0 0 0 0 0 0
          1 0.5 1 0 0 0
          0 0.5 0 0 0 1.75