<?xml version="1.0"?>
<VTKFile type="UnstructuredGrid" version="0.1" byte_order="LittleEndian" header_type="UInt32" compressor="vtkZLibDataCompressor">
  <UnstructuredGrid>
    <Piece NumberOfPoints="398" NumberOfCells="214">
      <PointData>
        <DataArray type="Int32" Name="libmesh_node_id" format="ascii" RangeMin="308" RangeMax="2772">
          678 679 680 681 688 689
          1022 1023 1024 1025 1400 1401
          1402 1403 1404 1405 1406 1407
          1408 1409 1410 1411 1412 1413
          1428 1430 1432 1448 1449 1450
          1451 1452 1453 1454 1455 1456
          1457 1761 1762 1763 1764 1765
          1766 1772 1775 1776 1777 1778
          1779 1782 1783 2405 2406 2407
          2408 2409 2410 2411 2412 2413
          2414 2415 2416 2417 2418 2419
          2420 2421 2422 2423 2424 2425
          2426 2427 2428 2429 2430 2431
          2432 2433 2434 2435 2436 2440
          2441 2443 2444 2446 2461 2462
          2465 2466 2468 2470 2481 2482
          2485 2487 2488 2490 2501 2503
          2505 2507 2515 2516 2517 2518
          2519 2521 2526 2527 2528 2530
          2531 2533 2536 2540 2546 2550
          2580 2581 2582 2583 2584 2585
          2586 2587 2588 2589 2590 2591
          2592 2593 2594 2595 2596 2597
          2598 2599 2600 2601 2602 2603
          2604 2605 2606 2607 2608 2609
          2610 2611 2612 2613 2614 2615
          2616 2617 2618 2619 2620 2621
          2622 2623 2624 2625 2626 2627
          2628 2629 2630 2631 2632 2633
          2634 2635 2636 2637 2638 2639
          2640 2641 2642 2643 2644 2645
          2646 2647 2648 2649 2652 2654
          2655 2657 2668 2670 2672 2674
          2682 2683 2686 2688 2689 2691
          2702 2704 2706 2708 2716 2717
          2718 2719 2721 2725 2726 2727
          2728 2729 2730 2731 2732 2734
          2738 2742 2766 2770 870 873
          874 871 409 308 413 410
          1016 1017 1018 1026 1027 1028
          1029 1030 1021 1031 411 668
          685 412 1336 1337 1338 1341
          669 1344 670 1358 1429 1359
          1431 1433 1362 1434 1435 1364
          1436 1437 673 1438 1442 1439
          1443 1381 1468 1394 1469 1470
          1396 1473 1472 1398 1474 420
          1767 1768 1769 1770 1771 1773
          1774 1414 1415 1421 1780 1781
          1784 682 1440 415 2437 2438
          2439 2442 1416 2445 1417 2463
          2464 2467 2469 1422 2483 2484
          2486 1424 2489 1425 2502 2504
          2506 1427 2529 2532 2534 2535
          2475 2476 2537 2538 2477 2539
          2541 2542 2547 2548 2520 2549
          2551 2552 1445 2221 2309 2310
          2312 1378 2315 1379 2227 2325
          2327 2329 2343 2344 2346 419
          2349 1384 2359 2361 2363 676
          2650 2651 2653 1458 2656 1459
          2669 2671 2673 1462 2684 2685
          2687 1464 2690 1465 2703 2705
          2707 1467 2389 2399 2401 2403
          2739 2740 2720 2741 2743 2744
          1475 2767 2768 2733 2769 2771
          2772 1479
        </DataArray>
        <DataArray type="Float64" Name="bounds" format="ascii" RangeMin="0" RangeMax="0">
          0 0 0 0 0 0
          0 0 0 0 0 0
          0 0 0 0 0 0
          0 0 0 0 0 0
          0 0 0 0 0 0
          0 0 0 0 0 0
          0 0 0 0 0 0
          0 0 0 0 0 0
          0 0 0 0 0 0
          0 0 0 0 0 0
          0 0 0 0 0 0
          0 0 0 0 0 0
          0 0 0 0 0 0
          0 0 0 0 0 0
          0 0 0 0 0 0
          0 0 0 0 0 0
          0 0 0 0 0 0
          0 0 0 0 0 0
          0 0 0 0 0 0
          0 0 0 0 0 0
          0 0 0 0 0 0
          0 0 0 0 0 0
          0 0 0 0 0 0
          0 0 0 0 0 0
          0 0 0 0 0 0
          0 0 0 0 0 0
          0 0 0 0 0 0
          0 0 0 0 0 0
          0 0 0 0 0 0
          0 0 0 0 0 0
          0 0 0 0 0 0
          0 0 0 0 0 0
          0 0 0 0 0 0
          0 0 0 0 0 0
          0 0 0 0 0 0
          0 0 0 0 0 0
          0 0 0 0 0 0
          0 0 0 0 0 0
          0 0 0 0 0 0
          0 0 0 0 0 0
          0 0 0 0 0 0
          0 0 0 0 0 0
          0 0 0 0 0 0
          0 0 0 0 0 0
          0 0 0 0 0 0
          0 0 0 0 0 0
          0 0 0 0 0 0
          0 0 0 0 0 0
          0 0 0 0 0 0
          0 0 0 0 0 0
          0 0 0 0 0 0
          0 0 0 0 0 0
          0 0 0 0 0 0
          0 0 0 0 0 0
          0 0 0 0 0 0
          0 0 0 0 0 0
          0 0 0 0 0 0
          0 0 0 0 0 0
          0 0 0 0 0 0
          0 0 0 0 0 0
          0 0 0 0 0 0
          0 0 0 0 0 0
          0 0 0 0 0 0
          0 0 0 0 0 0
          0 0 0 0 0 0
          0 0 0 0 0 0
          0 0
        </DataArray>
        <DataArray type="Float64" Name="gradient_error" format="ascii" RangeMin="1.3765047599129897e-10" RangeMax="1.8159281951601097e-7">
          1.9453454488077386e-8 1.379074784470527e-8 1.0141375680590444e-7 7.758309250793758e-8 3.054160485024567e-8 1.4372022139416564e-7
          8.375770701541425e-10 8.878722885537413e-10 9.06722565148252e-9 7.172848945812477e-9 4.804501374804975e-8 4.3452528856391186e-8
          1.5701771802642663e-7 1.3718526837312594e-7 1.3537657673290593e-8 7.772168940932282e-8 6.684759273715505e-8 3.156309752313756e-8
          8.922774204959787e-8 4.187748586344797e-8 1.664555179537931e-7 1.4648665113580277e-7 8.69018394764206e-8 1.4933883920499887e-7
          1.7749571020891038e-8 6.029282942174228e-9 1.1232990960239591e-8 6.536804546756928e-8 7.07324843506648e-8 6.952918741929361e-8
          7.31974437525385e-8 1.5131287468911326e-7 1.1746534840653602e-7 1.764782995856055e-8 6.491932528395198e-8 7.193955382083931e-8
          1.4516831756827698e-7 1.4626657258470664e-9 2.2089403647994826e-9 1.9703289943916173e-9 1.4925134876947013e-9 1.017986743511007e-9
          9.045753543891344e-10 6.73739009220786e-10 6.894968948962227e-10 9.84253467374852e-10 7.151975833440526e-10 4.4608321920343794e-10
          6.852089934671092e-10 3.358523852325656e-10 4.900143933965624e-10 3.020212125468956e-9 4.040343520415439e-9 3.906142319280602e-9
          3.5620883619374627e-9 1.2886072173176596e-8 2.3166450445415525e-9 3.0111530801406695e-9 2.340121942467044e-9 8.67082033212315e-9
          6.509761152357437e-8 6.449188737479483e-8 6.612905679851298e-8 6.159698920347085e-8 2.7161593184810904e-8 2.5464011730550805e-8
          2.1918075523147816e-8 6.711711754738504e-8 6.585986779605009e-8 5.184989197210681e-8 6.019100151890815e-8 5.432222463134688e-8
          5.2606602352015175e-8 4.933663408176733e-8 1.742737487219472e-8 1.2059471660661519e-8 4.886590737627447e-8 3.6154323786742486e-8
          4.195242975944774e-8 2.3227429388528643e-9 2.2523596269142173e-9 3.6636662291993996e-9 3.5217265942662335e-9 2.043889084646734e-9
          3.145491910909708e-9 1.1461874793924008e-8 1.0814776288444435e-8 9.26316813268619e-9 1.7083809022438028e-9 2.5914182300797372e-9
          1.3141318922606855e-9 1.9647408004865053e-9 7.230729433317143e-9 5.082724523057755e-9 2.420709718410919e-8 2.282001175875651e-8
          1.956084256259213e-8 4.479518181729103e-8 4.281147036485115e-8 3.709531906108893e-8 1.5288749784127782e-8 1.0557261343120911e-8
          2.8627173628537435e-8 1.96693406694774e-8 1.2657500675752596e-9 1.679863632749517e-9 1.349553935117123e-9 4.1048445266323796e-9
          7.929679653967893e-9 1.4472413632053815e-8 9.44639022964702e-10 1.3747165471391817e-9 5.043142613209415e-10 7.719742115777416e-10
          1.091591090978478e-9 3.3516903143530665e-9 3.1808447867893844e-10 2.733332113582946e-10 6.798168631092218e-9 1.268648350911189e-8
          6.59290425396782e-8 6.547141183627403e-8 6.871308868745132e-8 6.814493297256437e-8 6.363104359450126e-8 6.562118546005304e-8
          6.108819113645052e-8 6.370008553466677e-8 6.815784024984218e-8 6.66034227022612e-8 6.941603199341983e-8 6.882556622689635e-8
          6.769029712010592e-8 6.707393972319187e-8 6.566637530265763e-8 6.336910755037417e-8 6.855839673928451e-8 7.112819323087273e-8
          7.171351196257767e-8 7.312228093857895e-8 5.898808848128496e-8 5.9030991875871926e-8 5.5727870906437233e-8 5.439639008931516e-8
          6.58011254444164e-8 6.893623644223201e-8 6.114137709152289e-8 5.7037068918703255e-8 5.321154432116688e-8 5.0976487692464104e-8
          4.015345632143963e-8 6.966287710544312e-8 6.78908034081171e-8 6.677918205618931e-8 3.659874804477369e-8 4.748309762425906e-8
          3.893917856078958e-8 5.129740827757105e-8 6.371270837365917e-8 6.859860872346017e-8 1.7781587372428387e-8 3.401696047693782e-8
          3.643994520207346e-8 5.988366932832757e-8 4.366912582984711e-8 5.591055998486845e-8 4.944758629295855e-8 6.021912811868417e-8
          7.215340701402584e-8 7.368477185235687e-8 2.1936404620579842e-8 4.1355998165734056e-8 4.835824961435689e-8 6.920400123730089e-8
          6.794220534054236e-8 7.304802093609612e-8 6.232323366538273e-8 6.703737162513515e-8 6.793611212347497e-8 7.367895038745686e-8
          6.39939555590347e-8 7.533701648550523e-8 7.453322368383384e-8 7.451921308284854e-8 6.401644523341709e-8 7.655650922125622e-8
          7.6085828611595e-8 7.548060767879893e-8 6.359847351491168e-8 6.286248487803771e-8 5.865132159596106e-8 6.75443575916157e-8
          6.934028905313062e-8 7.046815803667111e-8 4.7835464489204316e-8 3.3095144711595144e-8 6.380669293641179e-8 4.6847644442454465e-8
          5.358272972124182e-8 6.208806707829811e-8 7.233353295941585e-8 4.0178361954409835e-8 5.439914957895046e-8 7.168519851221829e-8
          7.146862297605168e-8 5.67203216469127e-8 7.333093806015048e-8 6.016138584199057e-8 4.98418453345748e-8 4.856638646465703e-8
          4.567433022896772e-8 2.4010838497871653e-8 3.287540635785656e-8 5.3100664851736765e-8 5.2359710874216214e-8 4.8381303510218914e-8
          4.8716231712275784e-8 5.635948436889873e-8 5.6153035283775395e-8 5.108827679147011e-8 4.073363231311155e-8 4.453694909474045e-8
          2.1113232543830744e-8 2.9578213202174006e-8 3.679191791929119e-8 3.997865820846404e-8 2.62157358746216e-9 3.3368647140493546e-10
          3.2165301060000873e-10 2.4859963661931445e-9 3.3703065138048634e-9 4.1448537230994036e-10 3.826008038955299e-10 1.0527931161793167e-8
          2.780899936573063e-9 2.751215230827531e-8 2.2171356528666986e-8 2.3682777012464784e-10 2.519297990958296e-10 2.0730865281312984e-10
          9.786963019967743e-10 3.493840542689263e-9 1.2026920956158354e-8 3.984244147437466e-10 5.999966129184332e-8 4.287792762129678e-8
          1.2152981975423849e-8 4.169955615837311e-8 6.062563648560888e-8 1.8159281951601097e-7 1.6144078408122943e-7 1.1027635412737124e-7
          1.788938700987211e-7 1.6081597344272134e-7 1.732883464607026e-7 2.5854053318919295e-8 4.2850366315214226e-8 5.668303903293778e-8
          1.967756691987491e-8 2.459806725105799e-8 3.4102118457581e-8 8.867453624709475e-9 1.2015234491740604e-7 1.4461766644198606e-7
          5.7644312030383525e-8 4.88953852216166e-8 1.0428266164856472e-7 1.3865844042657379e-9 1.8156741356586946e-9 1.9434264010983857e-9
          2.199100061290703e-9 1.1674992459847827e-7 1.7058278279020708e-7 1.5423982973072463e-7 1.0887608446445886e-7 6.722701421483634e-8
          1.0365677214754718e-7 1.3371371549857993e-7 1.7051807581914912e-7 1.0850014900106145e-7 8.009252236818597e-8 1.6884769788270144e-7
          1.603106486129387e-9 1.433226870491868e-9 2.2541849356883395e-10 6.866513480595809e-10 6.165001407382366e-10 1.0718754241960028e-9
          4.4712991151964225e-10 1.7361066352107746e-9 1.53003080919117e-9 1.077037312484525e-9 1.3765047599129897e-10 2.659748087039658e-10
          1.8403872778553947e-10 4.995238527340091e-10 5.738305403006471e-10 7.791872479670556e-10 1.2365173382477963e-9 2.7757578566171447e-9
          2.6455254360468294e-9 2.291812167577824e-9 7.971972754891447e-9 7.562281073080642e-9 6.449705101797874e-9 8.99412084667425e-10
          1.8122430175690053e-9 1.3159725055376495e-9 4.9521752313124166e-9 3.4406604405047103e-9 1.9081556302595872e-8 1.8085436194812998e-8
          1.5352339185569523e-8 3.8844763518419476e-8 3.699661297784562e-8 3.153979401250853e-8 1.1639012485436408e-8 7.908646531917763e-9
          2.3728158324245215e-8 1.5861797292305913e-8 8.765218236525579e-10 6.772533516886939e-10 2.1755696296137765e-9 2.4420016086061717e-9
          4.346513931036354e-10 8.665646799339576e-10 5.666708340735505e-10 2.0382220564214623e-10 5.698814678444111e-10 3.68539284897171e-10
          4.3305918967514225e-10 2.8034335692721496e-10 4.867939107716195e-9 4.118157155216834e-9 4.967494466726808e-9 2.7543884425544476e-9
          9.55422491175806e-9 7.471372082609178e-9 5.267865423861333e-9 6.136814089322205e-8 6.157437466794874e-8 6.131744113634563e-8
          6.01201064796585e-8 5.57936553229254e-8 5.8181275567390845e-8 6.120028205651292e-8 5.4325109490511066e-8 5.729040919308134e-8
          5.540111303158818e-8 6.133005003866596e-8 3.455409733035146e-8 4.368769392244726e-8 5.7968824751333714e-8 1.8792746536520754e-8
          3.2279578089582045e-8 5.440128314036595e-8 6.210256735170452e-8 5.97915461514833e-8 6.180074352172873e-8 6.094479939004149e-8
          5.751713550681911e-8 5.655766858919372e-8 5.176299964737065e-8 6.270212693337198e-8 6.422220843546789e-8 6.48640677981061e-8
          4.095226081464941e-8 2.7399925954563803e-8 5.696806032362157e-8 4.0251916312039257e-8 5.397839060166391e-8 5.996804842081654e-8
          6.785330427691628e-8 4.638396708035251e-8 5.571463497070408e-8 6.771559349825583e-8 6.567376143184151e-8 5.004004840137324e-8
          6.795835565596686e-8 5.3536375911287326e-8 5.1169096401900964e-8 5.3455971133731083e-8 4.841762567978025e-8 5.57428458655612e-8
          1.619831388586378e-8 1.2178684114780665e-8 1.4261406337682676e-8 8.747676798310008e-9 2.3594980895137008e-8 1.690717696627016e-8
          1.252223693134718e-8 2.9589367077714693e-8 2.0843477588647148e-8 2.4035580045490506e-8 1.554480930289102e-8 3.191041865555581e-8
          2.256614119181097e-8 1.6720770675759144e-8
        </DataArray>
        <DataArray type="Float64" Name="gradient_matprop_error" format="ascii" RangeMin="0" RangeMax="0">
          0 0 0 0 0 0
          0 0 0 0 0 0
          0 0 0 0 0 0
          0 0 0 0 0 0
          0 0 0 0 0 0
          0 0 0 0 0 0
          0 0 0 0 0 0
          0 0 0 0 0 0
          0 0 0 0 0 0
          0 0 0 0 0 0
          0 0 0 0 0 0
          0 0 0 0 0 0
          0 0 0 0 0 0
          0 0 0 0 0 0
          0 0 0 0 0 0
          0 0 0 0 0 0
          0 0 0 0 0 0
          0 0 0 0 0 0
          0 0 0 0 0 0
          0 0 0 0 0 0
          0 0 0 0 0 0
          0 0 0 0 0 0
          0 0 0 0 0 0
          0 0 0 0 0 0
          0 0 0 0 0 0
          0 0 0 0 0 0
          0 0 0 0 0 0
          0 0 0 0 0 0
          0 0 0 0 0 0
          0 0 0 0 0 0
          0 0 0 0 0 0
          0 0 0 0 0 0
          0 0 0 0 0 0
          0 0 0 0 0 0
          0 0 0 0 0 0
          0 0 0 0 0 0
          0 0 0 0 0 0
          0 0 0 0 0 0
          0 0 0 0 0 0
          0 0 0 0 0 0
          0 0 0 0 0 0
          0 0 0 0 0 0
          0 0 0 0 0 0
          0 0 0 0 0 0
          0 0 0 0 0 0
          0 0 0 0 0 0
          0 0 0 0 0 0
          0 0 0 0 0 0
          0 0 0 0 0 0
          0 0 0 0 0 0
          0 0 0 0 0 0
          0 0 0 0 0 0
          0 0 0 0 0 0
          0 0 0 0 0 0
          0 0 0 0 0 0
          0 0 0 0 0 0
          0 0 0 0 0 0
          0 0 0 0 0 0
          0 0 0 0 0 0
          0 0 0 0 0 0
          0 0 0 0 0 0
          0 0 0 0 0 0
          0 0 0 0 0 0
          0 0 0 0 0 0
          0 0 0 0 0 0
          0 0 0 0 0 0
          0 0
        </DataArray>
        <DataArray type="Float64" Name="initial_marker" format="ascii" RangeMin="0" RangeMax="2">
          1 0.75 2 2 2 2
          0 0 0 0 2 2
          2 2 1.3333333333333333 2 2 2
          2 2 2 2 2 2
          1 0.3333333333333333 0 2 2 2
          2 2 2 2 2 2
          2 0 0 0 0 0
          0 0 0 0 0 0
          0 0 0 2 2 2
          2 2 2 2 1.5 2
          2 2 2 2 2 2
          2 2 2 2 2 2
          2 2 2 2 2 2
          2 2 2 2 2 2
          2 2 2 2 2 2
          1 1.5 2 2 2 2
          2 2 2 2 2 2
          2 2 0 1 1 2
          2 2 0 1 0 0
          1 2 0 0 2 2
          2 2 2 2 2 2
          2 2 2 2 2 2
          2 2 2 2 2 2
          2 2 2 2 2 2
          2 2 2 2 2 2
          2 2 2 2 2 2
          2 2 2 2 2 2
          2 2 2 2 2 2
          2 2 2 2 2 2
          2 2 2 2 2 2
          2 2 2 2 2 2
          2 2 2 2 2 2
          2 2 2 2 2 2
          2 2 2 2 2 2
          2 2 2 2 2 2
          2 2 2 2 2 2
          2 2 2 2 2 2
          2 2 2 2 0 0
          0 0 0 0 0 0
          0 0 0 0 0 0
          0 0 0 0 1 1
          0 0 2 2 2 2
          2 2 2 1 1.5 1.5
          1.5 1 1 0.3333333333333333 2 2
          2 2 1.5 0 0 1.5
          0 2 2 2 2 2
          2 2 2 2 2 2
          0 0 0 0 0 0
          0 1 1 0.5 0 0
          0 0.5 0 0 2 2
          2 2 2 2 2 2
          2 1.5 2 2 2 2
          2 2 2 2 2 2
          2 2 1 1 2 2
          1 1.5 1 0 1.5 1
          1 1 2 2 2 2
          2 2 2 2 2 2
          2 2 2 2 2 2
          2 2 2 2 2 2
          2 2 2 2 2 2
          2 2 2 2 2 2
          2 2 2 2 2 2
          2 2 2 2 2 2
          2 2 2 2 2 2
          2 2 2 2 2 2
          2 2 2 2 2 2
          2 2
        </DataArray>
        <DataArray type="Float64" Name="markers_norefine" format="ascii" RangeMin="0" RangeMax="2">
          0 0 0.5 0 2 1
          0 0 0 0 0 0
          0 0 0 0 0 0
          0 0 1 0.5 0 0
          0 0 0 2 2 2
          2 0.75 0.5 2 2 2
          1.5 0 0 0 0 0
          0 0 0 0 0 0
          0 0 0 0 0 0
          0 0 0 0 0 0
          2 2 2 1.5 0 0
          0 2 1.5 0.3333333333333333 0.5 0.5
          0 0 0 0 0 0
          0 0 0 0 0 0
          0 0 0 0 0 0
          0 0 0 0 0 0
          0 0 0 0 0 0
          0 0 0 0 0 0
          0 0 0 0 0 0
          0 0 0 0 0 0
          2 2 2 2 1.75 1.5
          2 2 2 2 2 1.75
          1.5 1.25 1.25 1 2 2
          2 2 1.25 0.75 1 0.5
          2 1.75 1.3333333333333333 0.5 0.5 0
          0 1.5 1.5 1 2 2
          2 2 2 2 2 2
          2 2 2 2 2 2
          2 2 2 2 2 2
          2 2 1.5 1.6666666666666667 2 2
          2 2 2 2 1.3333333333333333 2
          2 2 1 1 0.75 2
          2 1.75 0.25 0 1 0.25
          2 2 2 2 2 2
          1.75 0.75 2 1 0 0
          0 0 0 0.5 0.5 0
          0 1 1 0 0 0
          0 0 0 0 0 0
          0 0 0 0 0 0
          0 0 0 0 0 0
          0 0 0 0 0 0
          0 0 0 0 0 0
          1 1 0 0 0 0
          0 0 0 0 0 0
          0 0 0 0 0 0
          0 1.25 0 0 0 0
          0 0 0 0 0 0
          0 0 0 0 0 0
          0 0 0 0 0 0
          0 0 0 0 0 0
          0 0 0 0 0 0
          0 0 0 0 0 0
          0 0 0 0 0 0
          0 0 0 0 0 0
          0 0 0 0 0 0
          0 0 0 0 0 0
          0 0 0 2 2 2
          2 2 2 2 1 1.5
          1 2 2 2 2 2
          2 2 2 1.75 2 2
          1 1 0.5 2 2 1.5
          0 0 0.5 0 2 2
          2 2 2 2 1.25 0.25
          1.5 0.5 0.5 0.75 0 1
          0 0 0 0 0 0
          0 0 0 0 0 0
          0 0
        </DataArray>
        <DataArray type="Float64" Name="markers_mustrefine" format="ascii" RangeMin="0" RangeMax="2">
          1 0.75 2 2 2 2
          0 0 0 0 2 2
          2 2 1.3333333333333333 2 2 2
          2 2 2 2 2 2
          1 0.3333333333333333 0 2 2 2
          2 2 2 2 2 2
          2 0 0 0 0 0
          0 0 0 0 0 0
          0 0 0 2 2 2
          2 2 2 2 1.5 2
          2 2 2 2 2 2
          2 2 2 2 2 2
          2 2 2 2 2 2
          2 2 2 2 2 2
          2 2 2 2 2 2
          1 1.5 2 2 2 2
          2 2 2 2 2 2
          2 2 0 1 1 2
          2 2 0 1 0 0
          1 2 0 0 2 2
          2 2 2 2 2 2
          2 2 2 2 2 2
          2 2 2 2 2 2
          2 2 2 2 2 2
          2 2 2 2 2 2
          2 2 2 2 2 2
          2 2 2 2 2 2
          2 2 2 2 2 2
          2 2 2 2 2 2
          2 2 2 2 2 2
          2 2 2 2 2 2
          2 2 2 2 2 2
          2 2 2 2 2 2
          2 2 2 2 2 2
          2 2 2 2 2 2
          2 2 2 2 2 2
          2 2 2 2 2 2
          2 2 2 2 0 0
          0 0 0 0 0 0
          0 0 0 0 0 0
          0 0 0 0 1 1
          0 0 2 2 2 2
          2 2 2 1 1.5 1.5
          1.5 1 1 0.3333333333333333 2 2
          2 2 1.5 0 0 1.5
          0 2 2 2 2 2
          2 2 2 2 2 2
          0 0 0 0 0 0
          0 1 1 0.5 0 0
          0 0.5 0 0 2 2
          2 2 2 2 2 2
          2 1.5 2 2 2 2
          2 2 2 2 2 2
          2 2 1 1 2 2
          1 1.5 1 0 1.5 1
          1 1 2 2 2 2
          2 2 2 2 2 2
          2 2 2 2 2 2
          2 2 2 2 2 2
          2 2 2 2 2 2
          2 2 2 2 2 2
          2 2 2 2 2 2
          2 2 2 2 2 2
          2 2 2 2 2 2
          2 2 2 2 2 2
          2 2 2 2 2 2
          2 2
        </DataArray>
        <DataArray type="Float64" Name="gradient_marker" format="ascii" RangeMin="0" RangeMax="1">
          0.25 0.25 0.25 0.25 0 0.25
          0.5 0.5 0.5 0.5 0 0
          0.5 0.5 0.3333333333333333 0.25 0.25 0
          0.25 0.125 0.5 0.5 0.25 0.5
          0 0.5 0 0 0 0
          0 0.375 0.25 0 0 0
          0.25 1 1 1 1 1
          1 1 1 1 1 1
          1 1 1 0 0 0
          0 0 0 0 0 0
          0 0 0 0 0 0
          0 0 0 0 0 0
          0 0 0 0 0 0
          0 0.5 0.5 0.5 0.5 0.5
          0.5 0.5 0.5 0.5 0.5 0.5
          0.5 0.5 0.5 0.5 0.5 0.5
          0.5 0.5 0.5 0.5 0.5 0.5
          0.5 0.5 0 0 0 0
          0 0 0.5 0.5 1 0.5
          0.5 0.5 1 1 0.5 0.5
          0 0 0 0 0 0
          0 0 0 0 0 0
          0 0 0 0 0 0
          0 0 0 0 0 0
          0 0 0 0 0 0
          0 0 0 0 0 0
          0 0 0 0 0 0
          0 0 0 0 0 0
          0 0 0 0 0 0
          0 0 0 0 0 0
          0 0 0 0 0 0
          0 0 0.5 0.5 0.5 0.5
          0.5 0.5 0.5 0.5 0.5 0.5
          0.5 0.5 0.5 0.5 0.5 0.5
          0.5 0.5 0.5 0.5 0 0
          0 0 0 0 0 0
          0 0 0 0 0 0
          0.5 0.5 0.5 0.5 1 1
          1 1 0.5 1 1 0.625
          0 0 0 1 1 1
          0.5 0.5 0 1 0 0
          0.5 0.25 0 0.5 0.5 0.375
          0.5 0.5 0.625 0 0 0.125
          0.125 0 0 0.5 0.25 0.5
          0.125 0 0.375 1 1 1
          1 0.25 0.5 0.625 0.25 0.125
          0.5 0.25 0.5 0.5 0.25 0.75
          1 1 1 1 1 1
          1 1 1 1 1 1
          1 1 1 1 1 1
          1 1 1 1 1 1
          1 1 1 1 1 1
          1 1 1 1 1 1
          1 1 1 1 1 0.5
          1 1 1 1 1 1
          1 1 1 0.5 0 1
          1 0.5 1 0 0 0
          0 0 0 0 0 0
          0 0 0 0 0 0
          0 0 0 0 0 0
          1 1 1 1 1 1
          1 1 1 1 1 1
          1 1 1 1 1 1
          1 1 0 0 0 0
          1 0.5 0 1 1 0.5
          1 1 0.5 0 1 1
          0.5 1
        </DataArray>
        <DataArray type="Float64" Name="gradient_matprop_marker" format="ascii" RangeMin="0" RangeMax="0">
          0 0 0 0 0 0
          0 0 0 0 0 0
          0 0 0 0 0 0
          0 0 0 0 0 0
          0 0 0 0 0 0
          0 0 0 0 0 0
          0 0 0 0 0 0
          0 0 0 0 0 0
          0 0 0 0 0 0
          0 0 0 0 0 0
          0 0 0 0 0 0
          0 0 0 0 0 0
          0 0 0 0 0 0
          0 0 0 0 0 0
          0 0 0 0 0 0
          0 0 0 0 0 0
          0 0 0 0 0 0
          0 0 0 0 0 0
          0 0 0 0 0 0
          0 0 0 0 0 0
          0 0 0 0 0 0
          0 0 0 0 0 0
          0 0 0 0 0 0
          0 0 0 0 0 0
          0 0 0 0 0 0
          0 0 0 0 0 0
          0 0 0 0 0 0
          0 0 0 0 0 0
          0 0 0 0 0 0
          0 0 0 0 0 0
          0 0 0 0 0 0
          0 0 0 0 0 0
          0 0 0 0 0 0
          0 0 0 0 0 0
          0 0 0 0 0 0
          0 0 0 0 0 0
          0 0 0 0 0 0
          0 0 0 0 0 0
          0 0 0 0 0 0
          0 0 0 0 0 0
          0 0 0 0 0 0
          0 0 0 0 0 0
          0 0 0 0 0 0
          0 0 0 0 0 0
          0 0 0 0 0 0
          0 0 0 0 0 0
          0 0 0 0 0 0
          0 0 0 0 0 0
          0 0 0 0 0 0
          0 0 0 0 0 0
          0 0 0 0 0 0
          0 0 0 0 0 0
          0 0 0 0 0 0
          0 0 0 0 0 0
          0 0 0 0 0 0
          0 0 0 0 0 0
          0 0 0 0 0 0
          0 0 0 0 0 0
          0 0 0 0 0 0
          0 0 0 0 0 0
          0 0 0 0 0 0
          0 0 0 0 0 0
          0 0 0 0 0 0
          0 0 0 0 0 0
          0 0 0 0 0 0
          0 0 0 0 0 0
          0 0
        </DataArray>
        <DataArray type="Float64" Name="combo" format="ascii" RangeMin="0" RangeMax="2">
          0.25 0.25 0.75 0.25 2 1.25
          0.5 0.5 0.5 0.5 0 0
          0.5 0.5 0.3333333333333333 0.25 0.25 0
          0.25 0.125 1.5 1 0.25 0.5
          0 0.5 0 2 2 2
          2 1.125 0.75 2 2 2
          1.75 1 1 1 1 1
          1 1 1 1 1 1
          1 1 1 0 0 0
          0 0 0 0 0 0
          2 2 2 1.5 0 0
          0 2 1.5 0.3333333333333333 0.5 0.5
          0 0 0 0 0 0
          0 0.5 0.5 0.5 0.5 0.5
          0.5 0.5 0.5 0.5 0.5 0.5
          0.5 0.5 0.5 0.5 0.5 0.5
          0.5 0.5 0.5 0.5 0.5 0.5
          0.5 0.5 0 0 0 0
          0 0 0.5 0.5 1 0.5
          0.5 0.5 1 1 0.5 0.5
          2 2 2 2 1.75 1.5
          2 2 2 2 2 1.75
          1.5 1.25 1.25 1 2 2
          2 2 1.25 0.75 1 0.5
          2 1.75 1.3333333333333333 0.5 0.5 0
          0 1.5 1.5 1 2 2
          2 2 2 2 2 2
          2 2 2 2 2 2
          2 2 2 2 2 2
          2 2 1.5 1.6666666666666667 2 2
          2 2 2 2 1.3333333333333333 2
          2 2 1.25 1.25 1.125 2
          2 1.875 0.75 0.5 1.375 0.75
          2 2 2 2 2 2
          1.875 1.125 2 1.25 0 0
          0 0 0 0.5 0.5 0
          0 1 1 0 0 0
          0.5 0.5 0.5 0.5 1 1
          1 1 0.5 1 1 0.625
          0 0 0 1 1 1
          0.5 0.5 0 1 0 0
          0.5 0.25 0 0.5 0.5 0.375
          1.5 1.5 0.625 0 0 0.125
          0.125 0 0 0.5 0.25 0.5
          0.125 0 0.375 1 1 1
          1 1.5 0.5 0.625 0.25 0.125
          0.5 0.25 0.5 0.5 0.25 0.75
          1 1 1 1 1 1
          1 1 1 1 1 1
          1 1 1 1 1 1
          1 1 1 1 1 1
          1 1 1 1 1 1
          1 1 1 1 1 1
          1 1 1 1 1 0.5
          1 1 1 1 1 1
          1 1 1 0.5 0 1
          1 0.5 1 2 2 2
          2 2 2 2 1 1.5
          1 2 2 2 2 2
          2 2 2 1.75 2 2
          1.5 1.5 1.25 2 2 1.75
          1 1 1.25 1 2 2
          2 2 2 2 1.625 1.125
          1.75 1.25 0.5 0.75 0 1
          1 0.5 0 1 1 0.5
          1 1 0.5 0 1 1
          0.5 1
        </DataArray>
        <DataArray type="Float64" Name="dHdT" format="ascii" RangeMin="25.805524345578526" RangeMax="50.84847207358089">
          26.309804239183244 26.118586622777897 40.805069750522705 31.611578197414964 46.32437841773315 43.97942801272785
          25.808806066304676 25.810969406331907 25.86128545936809 25.84960087031111 27.343260794239022 27.165996669084613
          31.544219208445632 30.538141568503445 26.34603521871034 29.586199710301553 28.897134078411995 26.746558570821538
          28.640776661896567 27.57897275003143 42.67238806654151 40.19522699914664 37.25849194883212 33.21560345332725
          26.3302483561927 26.012525585069728 26.15611211467253 47.94234845969098 49.460182393827104 48.25880172942342
          49.501934343394495 43.16109511489784 40.11773568476898 46.32490402909056 46.91756069691643 47.99477812446342
          47.565263091898245 25.84059774176588 25.886991743146105 25.87914253977271 25.862198204295655 25.83179962483609
          25.83034502079162 25.827010780561714 25.82890157797009 25.844685706136588 25.836268340081183 25.823363960746086
          25.83465730390494 25.821596777115893 25.829160473742064 26.27898348298121 26.66360074788483 26.630708019609287
          26.542598652875345 28.328776111429242 26.166086105900554 26.41606308774787 26.274658899742978 27.408393969528575
          50.383903460033 49.95027325098116 49.10827047653516 47.69486193245705 32.727842204938504 32.39088599884509
          31.37916163577698 48.683912133296886 47.681220487113805 41.862385762529954 44.14792372981366 42.509421373680155
          40.839651200631515 39.145761924375535 29.82583459038282 28.346432976247936 38.62678472977351 34.98769922743388
          35.63625084085043 26.204316216842155 26.189060449330732 26.540105094940213 26.509445283084347 26.149428138306334
          26.427666975956644 28.05456351928686 27.91063419311531 27.564833181886232 26.094475270397034 26.313787263181013
          26.03313234017642 26.19075849380953 27.143867717775098 26.74315700331535 31.89322613748073 31.557482288341287
          30.575634295942354 39.15952809152224 38.06413647652414 35.476981273001854 29.193623406221242 27.948163319478493
          32.77409598384342 30.40122141839007 26.01910065553885 26.14175796723607 26.078942296064977 26.557006787275657
          27.36848202787339 28.959647782007142 25.976845573243985 26.080263009258545 25.91236323725169 25.95132541213584
          26.03003507657524 26.424239334796496 25.875799300998406 25.86669508275379 27.11275440946556 28.452689009606054
          50.01669231032763 49.925020914673304 49.58330695369037 49.59404460841472 49.2902684312127 48.52801039586607
          47.9842926289266 48.103913791736645 48.190506278345296 49.38325325163205 48.91344276018579 48.89277250630761
          48.47709891720781 47.87103407139503 47.21621451310217 45.35926735845419 47.72789401057315 48.303798409688284
          48.856689963197496 49.54867664964237 46.27209465207036 44.691115312044744 43.79700196073428 41.93099209549644
          50.10038729317602 49.27550621567897 48.31688386520168 42.774416431443335 40.736154847959455 39.98850608911178
          36.37563228480872 48.36358975629557 46.9309316537456 46.5095290221098 46.32197781893131 46.31555795102932
          46.32129277576128 46.31190240899762 47.09355475826463 47.63103611160477 46.32485154063166 46.323056896950774
          46.32261100159892 46.306277943233525 46.318828621021865 46.412049935554606 46.30910395968699 46.76299956704543
          48.22010577385688 48.72936732369184 46.3248426079721 46.320827577234084 46.31443487222558 47.62736354481971
          49.73576313707921 49.64341326179048 49.46524548275 49.16700445416253 49.30551961826694 49.278393515680996
          50.679286166243976 49.6280810223724 49.25534020412039 49.321221747118386 44.606285501619205 49.451030665266835