<?xml version="1.0"?>
<VTKFile type="UnstructuredGrid" version="0.1" byte_order="LittleEndian" header_type="UInt32" compressor="vtkZLibDataCompressor">
  <UnstructuredGrid>
    <Piece NumberOfPoints="709" NumberOfCells="463">
      <PointData>
        <DataArray type="Int32" Name="libmesh_node_id" format="ascii" RangeMin="988" RangeMax="6710">
          988 989 996 997 1652 1653
          1656 1657 1658 1660 1662 1663
          1681 1682 2724 2731 2732 2734
          2735 2737 2738 2739 2740 2741
          2742 2748 2753 2754 2755 2756
          2757 2758 2759 2760 2761 2762
          2765 2766 2771 2773 2774 2775
          2776 2777 2778 2779 2780 2781
          2782 2788 2793 2794 2795 2796
          2797 2798 2799 2800 2801 2802
          2804 2808 2810 2811 2812 2813
          2814 2815 2816 2817 2818 2819
          2820 2824 2825 2827 2828 2830
          2845 2846 2849 2850 2852 2854
          2865 2866 2869 2871 2872 2874
          2885 2887 2889 2891 2909 2910
          2911 2912 2913 2914 2915 2916
          2917 2918 2926 2927 2928 2929
          2930 2931 2943 2944 2948 2950
          2952 2963 2967 3195 3200 3202
          3204 3205 3214 3216 3220 3221
          3223 3224 3303 3304 3309 3322
          3326 5323 5324 5325 5326 5357
          5391 5395 5396 5397 5398 5399
          5400 5401 5402 5403 5404 5405
          5406 5407 5408 5409 5410 5411
          5412 5413 5414 5415 5416 5417
          5418 5419 5420 5421 5422 5423
          5424 5425 5426 5427 5428 5429
          5430 5431 5432 5433 5434 5435
          5436 5437 5438 5439 5440 5441
          5442 5443 5444 5445 5446 5447
          5448 5449 5450 5451 5452 5453
          5454 5455 5456 5457 5458 5459
          5460 5461 5462 5463 5464 5465
          5466 5467 5468 5469 5470 5471
          5472 5485 5486 5489 5491 5521
          5523 5525 5541 5542 5543 5544
          5545 5546 5547 5548 5549 5550
          5551 5552 5553 5554 5555 5556
          5557 5558 5559 5560 5561 5562
          5563 5564 5567 5568 5569 5571
          5572 5573 5574 5575 5576 5577
          5578 5579 5580 5581 5582 5583
          5584 5585 5586 5587 5588 5589
          5590 5591 5592 5593 5594 5595
          5596 5598 5599 5600 5602 5603
          5604 5605 5606 5607 5608 5639
          5673 5677 5678 5679 5680 5681
          5682 5683 5684 5685 5686 5687
          5688 5689 5690 5691 5692 5693
          5694 5695 5696 5697 5698 5699
          5700 5701 5702 5703 5704 5705
          5706 5707 5708 5709 5710 5711
          5712 5713 5714 5715 5716 5717
          5718 5719 5720 5721 5722 5723
          5724 5725 5726 5727 5728 5729
          5730 5731 5732 5733 5734 5735
          5736 5737 5738 5739 5740 5741
          5742 5743 5744 5753 5755 5757
          5781 5783 5785 5801 5802 5803
          5804 5805 5806 5807 5808 5809
          5810 5811 5812 5813 5814 5815
          5816 5818 5819 5820 5822 5823
          5824 5825 5826 5827 5828 5829
          5830 5831 5832 5833 5834 5835
          5836 5837 5838 5839 5840 5841
          5842 5843 5844 5846 5847 5848
          5850 5851 5852 5853 5854 5855
          5856 5857 5858 5859 5860 5861
          5862 5863 5864 5865 5866 5867
          5868 5869 5870 5873 5874 5879
          5881 5882 5884 5885 5886 5887
          5888 5889 5890 5891 5892 5893
          5894 5896 5900 5902 5904 5905
          5906 5907 5908 5909 5910 5911
          5912 5913 5914 5915 5916 5919
          5921 5922 5924 5925 5926 5927
          5928 5929 5930 5931 5932 5934
          5936 5938 6021 6022 6023 6024
          6025 6026 6027 6028 6029 6030
          6032 6036 6038 6040 6041 6042
          6043 6044 6045 6046 6047 6048
          6049 6050 6061 6062 6063 6064
          6065 6066 6067 6068 6070 6072
          6074 6075 6076 6077 6078 6079
          6080 6081 6143 6144 6145 6146
          6147 6148 6149 6150 6151 6152
          6153 6154 6157 6159 6160 6162
          6163 6164 6165 6166 6167 6168
          6169 6170 6172 6174 6176 6177
          6178 6179 6180 6181 6182 6183
          6184 6185 6186 6187 6188 6191
          6193 6194 6196 6197 6198 6199
          6200 6201 6202 6203 6204 6206
          6208 6210 6279 6280 6281 6282
          6283 6284 6285 6286 6288 6290
          6292 6293 6294 6295 6296 6297
          6298 6299 6307 6308 6309 6310
          6311 6312 6313 6314 6316 6318
          6320 6321 6322 6323 6324 6325
          6326 6327 6447 6448 6451 6453
          6455 6456 6457 6458 6459 6460
          6461 6462 6463 6464 6467 6468
          6471 6473 6475 6476 6477 6478
          6479 6480 6481 6482 6483 6484
          6542 6544 6546 6548 6549 6550
          6551 6552 6553 6554 6556 6558
          6560 6562 6563 6564 6565 6566
          6567 6568 6570 6572 6574 6576
          6577 6578 6579 6580 6581 6582
          6584 6588 6590 6591 6594 6595
          6617 6618 6619 6620 6621 6622
          6623 6624 6625 6626 6657 6658
          6659 6660 6661 6662 6663 6671
          6672 6673 6674 6675 6676 6677
          6678 6679 6691 6692 6693 6694
          6695 6696 6697 6705 6706 6709
          6710
        </DataArray>
        <DataArray type="Float64" Name="bounds" format="ascii" RangeMin="0" RangeMax="0">
          0 0 0 0 0 0
          0 0 0 0 0 0
          0 0 0 0 0 0
          0 0 0 0 0 0
          0 0 0 0 0 0
          0 0 0 0 0 0
          0 0 0 0 0 0
          0 0 0 0 0 0
          0 0 0 0 0 0
          0 0 0 0 0 0
          0 0 0 0 0 0
          0 0 0 0 0 0
          0 0 0 0 0 0
          0 0 0 0 0 0
          0 0 0 0 0 0
          0 0 0 0 0 0
          0 0 0 0 0 0
          0 0 0 0 0 0
          0 0 0 0 0 0
          0 0 0 0 0 0
          0 0 0 0 0 0
          0 0 0 0 0 0
          0 0 0 0 0 0
          0 0 0 0 0 0
          0 0 0 0 0 0
          0 0 0 0 0 0
          0 0 0 0 0 0
          0 0 0 0 0 0
          0 0 0 0 0 0
          0 0 0 0 0 0
          0 0 0 0 0 0
          0 0 0 0 0 0
          0 0 0 0 0 0
          0 0 0 0 0 0
          0 0 0 0 0 0
          0 0 0 0 0 0
          0 0 0 0 0 0
          0 0 0 0 0 0
          0 0 0 0 0 0
          0 0 0 0 0 0
          0 0 0 0 0 0
          0 0 0 0 0 0
          0 0 0 0 0 0
          0 0 0 0 0 0
          0 0 0 0 0 0
          0 0 0 0 0 0
          0 0 0 0 0 0
          0 0 0 0 0 0
          0 0 0 0 0 0
          0 0 0 0 0 0
          0 0 0 0 0 0
          0 0 0 0 0 0
          0 0 0 0 0 0
          0 0 0 0 0 0
          0 0 0 0 0 0
          0 0 0 0 0 0
          0 0 0 0 0 0
          0 0 0 0 0 0
          0 0 0 0 0 0
          0 0 0 0 0 0
          0 0 0 0 0 0
          0 0 0 0 0 0
          0 0 0 0 0 0
          0 0 0 0 0 0
          0 0 0 0 0 0
          0 0 0 0 0 0
          0 0 0 0 0 0
          0 0 0 0 0 0
          0 0 0 0 0 0
          0 0 0 0 0 0
          0 0 0 0 0 0
          0 0 0 0 0 0
          0 0 0 0 0 0
          0 0 0 0 0 0
          0 0 0 0 0 0
          0 0 0 0 0 0
          0 0 0 0 0 0
          0 0 0 0 0 0
          0 0 0 0 0 0
          0 0 0 0 0 0
          0 0 0 0 0 0
          0 0 0 0 0 0
          0 0 0 0 0 0
          0 0 0 0 0 0
          0 0 0 0 0 0
          0 0 0 0 0 0
          0 0 0 0 0 0
          0 0 0 0 0 0
          0 0 0 0 0 0
          0 0 0 0 0 0
          0 0 0 0 0 0
          0 0 0 0 0 0
          0 0 0 0 0 0
          0 0 0 0 0 0
          0 0 0 0 0 0
          0 0 0 0 0 0
          0 0 0 0 0 0
          0 0 0 0 0 0
          0 0 0 0 0 0
          0 0 0 0 0 0
          0 0 0 0 0 0
          0 0 0 0 0 0
          0 0 0 0 0 0
          0 0 0 0 0 0
          0 0 0 0 0 0
          0 0 0 0 0 0
          0 0 0 0 0 0
          0 0 0 0 0 0
          0 0 0 0 0 0
          0 0 0 0 0 0
          0 0 0 0 0 0
          0 0 0 0 0 0
          0 0 0 0 0 0
          0 0 0 0 0 0
          0 0 0 0 0 0
          0 0 0 0 0 0
          0 0 0 0 0 0
          0 0 0 0 0 0
          0
        </DataArray>
        <DataArray type="Float64" Name="gradient_error" format="ascii" RangeMin="2.5020817229788286e-12" RangeMax="5.646474884904704e-9">
          5.2810691161913265e-11 2.417203649515483e-11 2.7186371965110808e-9 2.2702903342931537e-10 8.64363935647643e-11 3.4012189427879526e-11
          1.3620526187202051e-9 9.94399839709846e-10 4.790912454737727e-10 5.663706774818083e-11 4.4045313844827914e-9 1.9553937303458898e-9
          1.5791572074190812e-11 1.0072117784340964e-11 6.465755243988166e-11 3.6276597127430634e-11 4.8905920171447444e-11 4.109658578344528e-11
          3.7714218589130333e-11 5.166888547386877e-11 2.8722444568387982e-11 6.165266373890915e-11 6.906689653622912e-11 4.733239500469045e-11
          6.290233976927507e-11 2.735836773300224e-10 2.911340288383111e-10 2.490335421679753e-10 1.5888860986162475e-10 1.3562102333475717e-10
          1.5637469505398176e-10 8.471485316983491e-11 1.6902392426479727e-9 1.4198116281720358e-9 8.288359246668284e-10 8.36465377459188e-10
          6.593275904155379e-11 1.2921720270807298e-10 5.793266536110061e-10 3.612031543893217e-11 7.302615514352336e-11 1.9143706006786964e-11
          3.924556016958518e-11 3.585779364871819e-11 3.7946509494746376e-11 2.029756660920732e-11 3.4511241915501597e-10 1.9347700454938492e-10
          1.0306872933663207e-10 3.801740023555505e-9 4.676837578011377e-9 4.066078178284629e-9 3.0502213737613382e-9 2.6062727982570515e-9
          2.5379047993371516e-9 1.559118960632717e-9 3.779791040303286e-9 3.870466159851826e-9 2.6705776324135415e-9 3.0627257004372383e-9
          1.6551534085905358e-9 2.2160536341090497e-9 1.0438131494532102e-9 6.123008455000534e-10 2.8136494646157743e-10 1.5938759431596965e-10
          1.431704346153216e-9 8.571111504509846e-10 3.961841005494191e-10 2.754053450192848e-11 2.450850497889842e-11 8.203959444491952e-11
          6.995286734117859e-11 1.734465797511806e-11 4.355865917911636e-11 5.421991206437379e-10 4.496224590922939e-10 2.567247328621881e-10
          9.669035498955904e-12 2.0032186058525422e-11 9.485717284697668e-12 1.0241852248469557e-11 1.0224072094270652e-10 2.950470538877747e-11
          1.8062898229404199e-9 1.5226020217509486e-9 8.818722219817021e-10 1.7535196941385447e-9 1.6590159764905117e-9 1.1430025691140854e-9
          3.3495021869259794e-10 8.507570515826015e-11 4.766336690760415e-10 1.2233168658905947e-10 3.952435419513208e-11 2.4616003349576293e-11
          2.1438190612524786e-11 1.5487341251335132e-11 1.1177803764925701e-11 9.359330696306839e-12 8.783284921462324e-12 2.3791647458710925e-11
          1.4645077100526947e-11 1.2446427902628437e-11 5.517130348266751e-11 3.038747104324799e-11 2.1482912629173026e-11 1.1793005372295687e-11
          7.469426964038194e-11 4.150044407115517e-11 1.0806317875471836e-11 1.013534827533598e-11 1.0215093507407129e-11 9.56968354511771e-12
          8.158325897879329e-12 1.587368693497527e-11 2.184602888061709e-11 5.87121840758484e-11 3.247390496479027e-11 1.755393101126002e-11
          2.2871327927560503e-11 1.1994824280559464e-11 5.459979407206894e-12 3.7745828568197385e-12 1.114575095708086e-11 7.116143615631933e-12
          1.7351704056912987e-11 9.833719236795596e-12 2.2436310176472694e-11 2.0299606452696733e-11 1.5013506509907246e-11 8.99662495755387e-12
          6.129139624214023e-12 5.821472086894577e-11 5.5727247947804676e-11 4.891257868780868e-11 5.90969025228719e-11 1.1474789443247443e-10
          6.319557633302243e-10 1.5279547475986873e-10 1.4748046942881231e-10 1.141436015908351e-10 1.0994499934377126e-10 1.325586383225684e-10
          9.837616767909593e-11 3.857802939765698e-10 3.7111390972465e-10 2.7997422718304076e-10 3.3042460131413584e-10 4.667981924260565e-11
          4.4897850844685255e-11 8.357695646532527e-11 8.049435936903754e-11 3.1762528624109137e-11 6.027309139050769e-11 5.809838277333815e-11
          4.0105698077946375e-11 7.199987458086892e-11 5.205082406563451e-11 2.1660183492594933e-10 2.082322594135542e-10 1.52711121311423e-10
          1.8505445407799824e-10 6.384752259953859e-11 1.107302488200422e-10 4.6394777321342186e-11 8.192827599265831e-11 4.9728329376704375e-11
          8.598530125558968e-11 6.359327757250774e-11 2.7243955549602343e-10 2.050031473806131e-10 2.0824292582605533e-10 3.352280829785473e-11
          5.996503351104384e-11 2.4050874753835675e-11 4.3413897309942517e-11 2.6259997724992956e-11 4.656763855228254e-11 3.374213005834827e-11
          1.5213423918920487e-10 1.1138205241215549e-10 1.1585866351902901e-10 9.472340518254336e-10 9.089442289395964e-10 7.29133998485107e-10
          6.991327657996682e-10 8.030207732070445e-10 6.163432575500809e-10 2.139754525552432e-9 2.0512437873394407e-9 1.6183579395472368e-9
          1.8059047115360134e-9 5.517262123695448e-10 5.287105049120704e-10 4.1064454481322316e-10 3.9333249572146427e-10 4.653162259712475e-10
          3.457104522519785e-10 1.3092039309456109e-9 1.2521714494604041e-9 9.501971244590433e-10 1.0951223233668553e-9 6.530841878720649e-10
          4.996701805034901e-10 4.891404826754009e-10 3.7280327779769767e-10 1.4577133685952838e-9 1.1398810429407212e-9 1.076855302523243e-9
          3.7627268452177153e-10 2.7898839732068785e-10 2.7986141258855355e-10 2.069886725244964e-10 8.75044617488969e-10 6.596768078529583e-10
          6.384795492625037e-10 4.910147490224995e-11 8.332120427780933e-11 5.688776417576319e-11 1.9479405842215843e-10 4.3871918568436483e-10
          2.817627679483e-10 9.279031692329329e-10 3.6388281806758466e-11 6.240666011366976e-11 2.667639944652317e-11 4.619632720351807e-11
          2.531879465949361e-11 4.2591628472852654e-11 3.1516856856338606e-11 1.4784015605364914e-10 1.1075137766413295e-10 9.775685255204915e-11
          1.9400444024789e-11 3.382500807143094e-11 1.3987247721172214e-11 2.4492235609352268e-11 1.3546344479635409e-11 2.3038199119994396e-11
          1.664355510385645e-11 8.190010591087269e-11 5.979111923072053e-11 5.3872503498825654e-11 1.736628190068752e-11 2.7320541426521276e-11
          1.2671559757011282e-11 2.0068309822819466e-11 1.515961891881454e-11 6.030899571671074e-11 4.478665551596987e-11 9.184586535263335e-12
          1.46193787725842e-11 6.594345639014325e-12 1.0539537157531572e-11 7.507479597429514e-12 1.1019178476576055e-11 7.941995854142862e-12
          3.290610119863343e-11 2.390733119916726e-11 2.2022031849272854e-11 3.3787953633068646e-10 2.564450666948021e-10 2.1588691173628597e-10
          1.6314790056889861e-10 7.275996055103145e-10 5.611622750141122e-10 4.5058980817182024e-10 1.9185343602317753e-10 1.415071438387845e-10
          1.216149436858201e-10 8.94344804229308e-11 4.257881268870262e-10 3.1793839435744246e-10 2.6034226642611863e-10 1.2842170076488497e-10
          9.654896160279272e-11 5.321363459371792e-11 2.570920866965739e-10 1.9563686138921172e-10 7.1667188419786e-11 5.2528091540063496e-11
          3.9315830512333773e-11 2.8717721782285616e-11 1.4677675255729466e-10 1.085811593760598e-10 7.691643096438938e-11 2.550504614623452e-9
          4.3760930191885475e-9 4.03101014289635e-9 3.8729536093658206e-9 3.2758438818360192e-9 3.142108609371652e-9 3.4291696502923128e-9
          2.7683778351254286e-9 5.646474884904704e-9 5.4595640238858e-9 4.520310811568198e-9 4.9248466512447755e-9 2.6063773860193414e-9
          2.4958224301915002e-9 2.0285625963128146e-9 1.9396666622825116e-9 2.188587557853543e-9 1.6937310994023238e-9 3.8212382619464565e-9
          3.685486704397683e-9 2.9350206600869724e-9 3.2937292568353682e-9 2.785203029910818e-9 2.231227182208033e-9 2.063005710797043e-9
          1.636794356666097e-9 4.113053930663573e-9 3.3689400403444772e-9 3.1373640897511897e-9 1.751327415589505e-9 1.346696767567052e-9
          1.2734993883321249e-9 9.71788686582502e-10 2.7012913091824558e-9 2.117864903609549e-9 2.010232640621776e-9 5.342730855838181e-9
          5.279919062175587e-9 4.461395522790676e-9 4.415829122827293e-9 5.030159173679504e-9 4.214879284737307e-9 4.516980943278341e-9
          4.5709532957833286e-9 3.8344201227464756e-9 4.5915313111657986e-9 3.74209279152663e-9 3.694204245615815e-9 3.079800604856241e-9
          3.0259891511613884e-9 3.4950838179123197e-9 2.8288139461130062e-9 3.2267788178830455e-9 3.2617844027888784e-9 2.726553043538419e-9
          3.2540571859975707e-9 4.497314584912963e-9 3.7480147645745465e-9 3.6622007131619877e-9 3.007015750019504e-9 4.342402870922477e-9
          3.6476375679044907e-9 3.706011450202362e-9 3.0620112857617884e-9 2.4420276243753254e-9 2.4151804062982583e-9 1.897567887088349e-9
          3.0086896987491038e-9 2.420354970642853e-9 2.4748159870108282e-9 1.734365258071713e-9 1.069143808392529e-9 2.65083826921154e-9
          3.216790527255154e-9 2.0809473199644734e-9 3.3502198819425703e-9 1.3868366909043506e-9 1.0887404582840596e-9 8.44960514376225e-10
          6.565095881897422e-10 2.1563389884579776e-9 1.7200759720147323e-9 1.3264885386884693e-9 8.392052868562204e-10 6.353334080060398e-10
          5.015851679027442e-10 3.7694239032419425e-10 1.345269971486632e-9 1.0317710882389388e-9 8.066091085570746e-10 4.68550924794114e-10
          3.6069918972245616e-10 1.8239332648474143e-10 7.315473674580892e-10 5.687593300284844e-10 2.734330547670275e-10 2.0414785818838912e-10
          1.373147504384024e-10 1.0191714552966063e-10 4.349911718372114e-10 3.273347433824428e-10 2.133518702879825e-10 2.648210973922279e-9
          2.136316374253749e-9 1.683194444646892e-9 1.3359513926332746e-9 2.7707219406913316e-9 2.244740804039779e-9 1.79827780498034e-9
          1.6885073138385926e-9 1.3075976818579226e-9 1.0404766272922836e-9 7.9542810090867e-10 1.781465236984992e-9 1.3848724872488224e-9
          1.118235774558011e-9 9.428120130744455e-10 7.377408771132982e-10 3.6449608483851384e-10 1.0189471784764966e-9 7.990774228983898e-10
          5.67516540783344e-10 4.2929070700233317e-10 2.7763919587384664e-10 2.0826457957995618e-10 6.159396877639411e-10 4.667715742222806e-10
          3.0223534204837383e-10 2.322137337934118e-11 2.244512580697789e-11 4.3073337747216876e-11 4.153330285228547e-11 1.579232223268097e-11
          3.048138656283776e-11 2.9391508996655444e-11 2.0243821369239656e-11 3.72325926307532e-11 2.6345980533768645e-11 1.149439675661627e-10
          1.104585866208885e-10 7.882948489972147e-11 9.80535227617596e-11 2.13108652420538e-11 2.054915309423699e-11 1.8417731926725028e-11
          5.778498412123034e-11 5.551866936199678e-11 4.925305319396352e-11 1.707874057379082e-11 3.1068641062307806e-11 1.2013082817853653e-11
          2.1979344769424633e-11 1.3468385572806568e-11 2.4150302713172437e-11 1.7082092092552337e-11 8.04699346050548e-11 5.7375430077350905e-11
          6.114265071377975e-11 1.5358500441587358e-11 1.193740802139628e-11 4.0379156781621325e-11 3.0628707723685375e-11 3.0079700291820403e-10
          2.880112979861074e-10 2.1695045807673186e-10 2.0767240154441996e-10 2.5287896730908285e-10 1.8219764643687262e-10 7.410277324167358e-10
          7.075603858240103e-10 5.174069760984202e-10 6.158860230364213e-10 1.5414212906890852e-10 1.4751962790724502e-10 1.2934653946391145e-10
          3.89820471050605e-10 3.71828406711408e-10 3.2270486491563527e-10 2.0375199600533724e-10 1.4662382247316083e-10 1.5087430942769667e-10
          1.0840647450904207e-10 4.886462453014156e-10 3.5585487150441587e-10 3.535564635404417e-10 1.0399511674331823e-10 7.679287934896253e-11
          2.5492196666375505e-10 1.834926263710378e-10 9.965438275692219e-12 1.7519607523832376e-11 7.05254037714952e-12 1.2386725913005677e-11
          6.932655195582449e-12 1.1879449098558133e-11 8.373838578056249e-12 4.309571264209186e-11 3.0664748192087004e-11 2.8229356711104763e-11
          8.644878430061004e-12 5.800181488687053e-12 2.1545039188913723e-11 1.4003892551998572e-11 4.6457436466688435e-12 7.479385241719693e-12
          3.2885841104613924e-12 5.2498884326209425e-12 3.758998951661007e-12 5.603846728106272e-12 3.929727251821174e-12 1.7152308904820587e-11
          1.2142481096164897e-11 1.1446224305880225e-11 1.0292242372627431e-10 7.383716118092533e-11 6.489349322887869e-11 4.6473800789352724e-11
          2.337157612325044e-10 1.6918355616672967e-10 1.4167761683672373e-10 5.226903805538139e-11 3.28853839190656e-11 1.2062531834414151e-10
          7.270800585284209e-11 3.8011877720033585e-11 2.71612070875344e-11 2.0721075353210423e-11 1.4768747811502275e-11 7.920822891288763e-11
          5.697882439088986e-11 4.1156062894459856e-11 1.5445631027109118e-9 1.4749813260010449e-9 1.1511970073488452e-9 1.098170449262515e-9
          1.2832858535127343e-9 9.525786994317584e-10 2.3751101568742466e-9 2.281063688462299e-9 1.7319279376848904e-9 2.014695016202847e-9
          8.406785814339336e-10 8.012645020619509e-10 6.93344052336843e-10 1.3430364888268005e-9 1.2859151130277912e-9 1.1259664183225385e-9
          1.0148318716253238e-9 7.499567531114939e-10 7.276427562812744e-10 5.349332166205677e-10 1.6241215104089925e-9 1.2190007399812691e-9
          1.1844378666023473e-9 5.439073314363953e-10 3.863465813542601e-10 8.961591777906446e-10 6.439443144379452e-10 2.4615052515412003e-9
          2.4095106459494385e-9 1.9168287014884762e-9 1.8703784082665434e-9 2.231164373768731e-9 1.7176842956784269e-9 2.214492302741435e-9
          2.2074626979563793e-9 1.7391044165415229e-9 2.131610629071307e-9 1.4566838507374757e-9 1.417350186841234e-9 1.2920594245772373e-9
          1.3529945230728814e-9 1.3358673050559041e-9 1.2605881205789857e-9 1.9023759987104202e-9 1.4486427260929104e-9 1.4588038555619605e-9
          1.0979762136101411e-9 1.9005028936020627e-9 1.457930126950054e-9 1.511200100682264e-9 1.079141257487646e-9 8.095998863734106e-10
          1.0935417354467192e-9 8.466265641008284e-10 4.726241082692021e-10 3.4562700913203845e-10 2.7871662509396245e-10 2.0282612205493786e-10
          7.763577181087428e-10 5.734130247207799e-10 4.5675630067466995e-10 2.485724570411282e-10 1.452956814009284e-10 4.1593171023563687e-10
          2.4153931740464297e-10 1.5013566327246295e-10 1.0877021541338125e-10 7.458004061678952e-11 5.380572820976967e-11 2.4241269083591164e-10
          1.7670237990756078e-10 1.1731529989360187e-10 9.925485431606749e-10 7.38855511228201e-10 5.971153784194218e-10 4.403340851901685e-10
          1.0549255431175966e-9 7.878376163719983e-10 6.449506880410628e-10 5.396812745129143e-10 3.1910877078949866e-10 5.771637925853915e-10
          3.460881419536126e-10 3.1939879801561406e-10 2.3378618701045787e-10 1.5386022200820417e-10 1.1195042473228219e-10 3.4785924754575186e-10
          2.549990409882964e-10 1.6793496117374019e-10 1.8743084455090356e-11 2.7583569899645417e-11 1.361991035915545e-11 5.0951634146729345e-11
          1.3711336377232855e-11 2.0316677306895935e-11 9.935257269413159e-12 1.4775158600519437e-11 7.089440717322969e-12 9.898065179971018e-12
          8.261714067646478e-12 3.788967024617599e-11 2.7801253980707942e-11 1.7497243792245937e-11 4.662208683161441e-12 6.3797233567863256e-12
          4.1305754901619215e-12 1.0648441557851327e-11 3.4898586686136542e-12 4.6796868492207914e-12 3.0229132848062815e-12 3.953730074863371e-12
          2.5020817229788286e-12 3.2611878204478047e-12 2.9530684796539055e-12 7.8116762530552e-12 6.343286250691536e-12 5.045027216012795e-12
          8.602571944555931e-11 3.833762084855464e-11 1.2849157947791704e-10 6.439699713195495e-11 4.756349346067762e-11 2.850689811796183e-11
          2.089329240175204e-11 9.669887419277837e-11 7.176509673791591e-11 4.121349941559828e-11 1.632606683986535e-11 9.585115278103819e-12
          2.260466076927403e-11 1.2076318907688243e-11 8.809288021891232e-12 7.158095578897982e-12 5.327130259442761e-12 1.6738541046501867e-11
          1.2260059751496816e-11 9.442130904470549e-12 1.6438198215896796e-10 6.920638080586956e-11 1.7835303130396226e-10 1.2418787299832053e-10
          9.249765203002468e-11 5.1875195061693215e-11 3.83709770416394e-11 1.3491466961920122e-10 1.0060464947578266e-10 5.604938958624073e-11
          2.775263076399434e-11 2.974842858387988e-11 2.0581541505946898e-11 1.51000244289755e-11 2.208480125798408e-11 1.6225849455162762e-11
          7.09462212854302e-12 1.0581792553757849e-11 5.015030586889864e-12 7.493269833678525e-12 4.9666865519664686e-12 7.0260824270793754e-12
          4.931927069166824e-12 2.0075626914196263e-11 1.4301022370536032e-11 1.0778476983912564e-11 3.4622952634387194e-11 2.4852072539198016e-11
          1.5080656032647295e-11 1.0750525347733993e-11 5.2524379801413346e-11 3.790721428013054e-11 2.2112986659995594e-11 5.028381084126235e-12
          6.318376648637959e-12 3.540369231877155e-12 4.474856329694271e-12 3.3861938909140696e-12 3.853631116390521e-12 2.717120898261092e-12
          8.863864153245928e-12 6.325271499819059e-12 6.791696076972158e-11 4.915838692840164e-11 2.8003684903093408e-11 2.0159805731135982e-11
          7.3948776355971e-11 5.3575954714333365e-11 3.031773222671751e-11 1.0944192109813338e-11 7.834820869233123e-12 1.1769028126284502e-11
          8.428442166339516e-12
        </DataArray>
        <DataArray type="Float64" Name="gradient_matprop_error" format="ascii" RangeMin="0" RangeMax="0">
          0 0 0 0 0 0
          0 0 0 0 0 0
          0 0 0 0 0 0
          0 0 0 0 0 0
          0 0 0 0 0 0
          0 0 0 0 0 0
          0 0 0 0 0 0
          0 0 0 0 0 0
          0 0 0 0 0 0
          0 0 0 0 0 0
          0 0 0 0 0 0
          0 0 0 0 0 0
          0 0 0 0 0 0
          0 0 0 0 0 0
          0 0 0 0 0 0
          0 0 0 0 0 0
          0 0 0 0 0 0
          0 0 0 0 0 0
          0 0 0 0 0 0
          0 0 0 0 0 0
          0 0 0 0 0 0
          0 0 0 0 0 0
          0 0 0 0 0 0
          0 0 0 0 0 0
          0 0 0 0 0 0
          0 0 0 0 0 0
          0 0 0 0 0 0
          0 0 0 0 0 0
          0 0 0 0 0 0
          0 0 0 0 0 0
          0 0 0 0 0 0
          0 0 0 0 0 0
          0 0 0 0 0 0
          0 0 0 0 0 0
          0 0 0 0 0 0
          0 0 0 0 0 0
          0 0 0 0 0 0
          0 0 0 0 0 0
          0 0 0 0 0 0
          0 0 0 0 0 0
          0 0 0 0 0 0
          0 0 0 0 0 0
          0 0 0 0 0 0
          0 0 0 0 0 0
          0 0 0 0 0 0
          0 0 0 0 0 0
          0 0 0 0 0 0
          0 0 0 0 0 0
          0 0 0 0 0 0
          0 0 0 0 0 0
          0 0 0 0 0 0
          0 0 0 0 0 0
          0 0 0 0 0 0
          0 0 0 0 0 0
          0 0 0 0 0 0
          0 0 0 0 0 0
          0 0 0 0 0 0
          0 0 0 0 0 0
          0 0 0 0 0 0
          0 0 0 0 0 0
          0 0 0 0 0 0
          0 0 0 0 0 0
          0 0 0 0 0 0
          0 0 0 0 0 0
          0 0 0 0 0 0
          0 0 0 0 0 0
          0 0 0 0 0 0
          0 0 0 0 0 0
          0 0 0 0 0 0
          0 0 0 0 0 0
          0 0 0 0 0 0
          0 0 0 0 0 0
          0 0 0 0 0 0
          0 0 0 0 0 0
          0 0 0 0 0 0
          0 0 0 0 0 0
          0 0 0 0 0 0
          0 0 0 0 0 0
          0 0 0 0 0 0
          0 0 0 0 0 0
          0 0 0 0 0 0
          0 0 0 0 0 0
          0 0 0 0 0 0
          0 0 0 0 0 0
          0 0 0 0 0 0
          0 0 0 0 0 0
          0 0 0 0 0 0
          0 0 0 0 0 0
          0 0 0 0 0 0
          0 0 0 0 0 0
          0 0 0 0 0 0
          0 0 0 0 0 0
          0 0 0 0 0 0
          0 0 0 0 0 0
          0 0 0 0 0 0
          0 0 0 0 0 0
          0 0 0 0 0 0
          0 0 0 0 0 0
          0 0 0 0 0 0
          0 0 0 0 0 0
          0 0 0 0 0 0
          0 0 0 0 0 0
          0 0 0 0 0 0
          0 0 0 0 0 0
          0 0 0 0 0 0
          0 0 0 0 0 0
          0 0 0 0 0 0
          0 0 0 0 0 0
          0 0 0 0 0 0
          0 0 0 0 0 0
          0 0 0 0 0 0
          0 0 0 0 0 0
          0 0 0 0 0 0
          0 0 0 0 0 0
          0 0 0 0 0 0
          0 0 0 0 0 0
          0 0 0 0 0 0
          0 0 0 0 0 0
          0
        </DataArray>
        <DataArray type="Float64" Name="initial_marker" format="ascii" RangeMin="0" RangeMax="2">
          1 0 2 2 1 1
          2 2 2 2 2 2
          0 0 0 0 0 0
          0 0 0 1.5 1 1
          1 2 2 2 2 2
          2 2 2 2 2 2
          0.75 2 2 0.5 2 0.25
          2 0 1.5 1.5 2 2
          2 2 2 2 2 2
          2 2 2 2 2 2
          2 2 2 2 2 2
          2 2 2 1 1 2
          2 1 2 2 2 2
          0 2 0 1 2 2
          2 2 2 2 2 2
          2 2 2 2 0 0.5
          0 0 0 0 0 2
          1.5 0 2 2 1 0.75
          2 2 0 0 0 1.5
          0 2 2 0 0 0
          0 0 0 0 0 0
          0 0 0 0 0 0
          0 2 1.75 1.6666666666666667 1.6666666666666667 2
          2 2 2 2 2 2
          2 2 2 2 2 2
          2 2 2 2 2 2
          2 2 2 2 2 2
          2 2 2 2 2 2
          2 2 2 2 2 2
          2 2 2 2 2 2
          2 2 2 2 2 2
          2 2 2 2 2 2
          2 2 2 2 2 2
          2 2 2 2 2 2
          2 2 2 2 2 2
          2 2 2 2 2 2
          2 2 2 1.75 2 2
          2 2 2 2 2 2
          1 1.5 1.5 2 2 2
          2 2 1.5 1.75 1 1.5
          1.25 2 2 2 0 1
          0 1 1 2 2 0
          1 0 1 0 1 1
          2 2 2 2 2 2
          2 2 2 2 2 2
          2 2 2 2 2 2
          2 2 2 2 2 2
          2 2 2 2 2 2
          2 2 2 2 2 2
          2 2 2 2 2 2
          2 2 2 2 2 2
          2 2 2 2 2 2
          2 2 2 2 2 2
          2 2 2 2 2 2
          2 2 2 2 2 2
          2 2 2 2 2 2
          2 2 2 2 2 2
          2 2 2 2 2 2
          2 2 2 2 2 2
          2 2 2 2 2 2
          2 2 2 2 2 2
          2 2 2 2 2 2
          2 2 2 2 2 2
          2 2 2 2 2 2
          2 2 2 2 2 2
          2 2 2 2 2 2
          2 2 2 2 2 2
          2 2 2 2 2 2
          2 2 2 2 2 2
          2 2 2 2 2 2
          2 2 2 2 2 2
          2 2 2 2 2 2
          2 2 2 2 2 2
          2 2 2 2 2 2
          2 2 1.75 2 2 2
          2 2 2 2 2 2
          2 2 2 2 2 2
          2 2 2 2 2 2
          2 2 2 2 2 2
          2 2 1 1.5 1 1.5
          0 1 1 2 2 2
          1.25 1 2 2 0 0.75
          0 0.5 0 0.5 0 1.75
          1.5 1.6666666666666667 2 2 2 2
          2 2 2 2 2 2
          2 2 2 2 2 2
          2 2 2 2 2 2
          2 2 2 2 2 2
          2 2 2 2 2 2
          2 2 2 2 2 2
          2 2 2 2 2 2
          2 2 2 2 2 2
          2 2 2 2 2 2
          2 2 2 2 2 2
          2 2 2 2 2 2
          2 2 2 2 2 2
          2 2 2 2 2 2
          2 2 2 2 2 2