<?xml version="1.0"?>
<VTKFile type="UnstructuredGrid" version="0.1" byte_order="LittleEndian" header_type="UInt32" compressor="vtkZLibDataCompressor">
  <UnstructuredGrid>
    <Piece NumberOfPoints="495" NumberOfCells="300">
      <PointData>
        <DataArray type="Int32" Name="libmesh_node_id" format="ascii" RangeMin="561" RangeMax="3882">
          561 572 580 907 937 938
          939 940 942 947 1285 1286
          1287 1288 1626 1627 1628 1697
          1698 1699 1700 1701 1702 1703
          1704 1706 1709 1711 1712 1713
          1714 1715 1716 1717 1718 1719
          1721 1722 1723 1724 1747 1748
          1753 1755 1756 1757 1758 1761
          1762 1763 1789 1790 1827 1828
          1833 1834 2269 2270 2271 2272
          2273 2275 2276 2277 2278 2279
          2280 2284 2285 3040 3041 3042
          3043 3044 3045 3046 3047 3048
          3049 3050 3051 3052 3053 3054
          3055 3056 3057 3058 3059 3060
          3061 3062 3063 3064 3065 3066
          3067 3068 3069 3070 3071 3072
          3073 3074 3075 3080 3081 3082
          3083 3084 3085 3086 3087 3088
          3089 3090 3095 3096 3098 3099
          3100 3102 3103 3104 3105 3106
          3107 3108 3109 3110 3111 3112
          3113 3114 3115 3116 3117 3118
          3119 3120 3121 3122 3123 3124
          3125 3126 3127 3128 3129 3130
          3131 3132 3133 3134 3135 3136
          3137 3138 3139 3140 3141 3142
          3143 3144 3145 3147 3148 3149
          3150 3151 3152 3153 3154 3155
          3156 3157 3158 3159 3160 3161
          3162 3163 3164 3165 3166 3167
          3168 3169 3170 3171 3172 3173
          3174 3175 3176 3177 3179 3181
          3183 3184 3185 3188 3189 3190
          3191 3232 3233 3234 3235 3242
          3243 3310 3311 3312 3313 3314
          3315 3316 3317 3318 3319 3327
          3328 3331 3332 3344 3345 3346
          3347 3348 3349 3350 3351 3352
          3353 3361 3362 3365 3366 3368
          3369 3370 3371 3372 3373 3374
          3375 3376 3377 3378 3379 3380
          3381 3382 3383 3384 3385 3386
          3387 3388 3389 3392 3393 3395
          3399 3402 3403 3404 3405 3406
          3407 3408 3409 3410 3411 3412
          3413 3414 3415 3416 3417 3418
          3419 3420 3421 3422 3423 3426
          3427 3429 3433 3538 3539 3540
          3541 3545 3546 3548 3549 3551
          3566 3567 3573 3586 3587 3590
          3592 3593 3594 3595 3817 3818
          3819 3820 3821 3822 3823 3824
          3825 3826 3851 3852 3853 3854
          3855 3856 3857 3858 3859 3860
          570 1289 1290 1291 1705 1631
          1725 1648 1726 1649 2281 2282
          2283 2286 941 2290 2288 1727
          2295 1735 2297 1737 2303 2304
          1779 1780 2309 1786 3097 3091
          3101 3146 1720 3178 3180 3182
          943 3192 3193 3186 3194 3195
          3187 3196 3197 1728 3215 3212
          3216 3220 3219 3236 3237 3238
          3239 3240 3241 1736 3244 3245
          3246 3247 3248 3249 3250 3251
          1738 3272 3273 3276 3277 3279
          3280 3283 3284 3330 3329 1750
          3333 3364 3363 948 3367 3390
          3391 3394 1759 3396 3397 3398
          3400 3401 1760 3424 3425 3428
          1764 3430 3431 3432 3434 3435
          949 3442 3441 3482 3483 3489
          3490 3542 3543 3544 3547 1781
          3550 1782 3568 3569 3570 3571
          3572 3574 3575 1787 3588 3589
          3591 3596 3597 3602 3603 3600
          3605 3606 3607 3608 3609 3610
          3611 3613 3617 3827 3828 3831
          3833 3834 3836 3837 3838 3841
          3842 3844 3848 3861 3862 3865
          3867 3868 3870 3871 3872 3875
          3876 3878 3882
        </DataArray>
        <DataArray type="Float64" Name="bounds" format="ascii" RangeMin="0" RangeMax="0">
          0 0 0 0 0 0
          0 0 0 0 0 0
          0 0 0 0 0 0
          0 0 0 0 0 0
          0 0 0 0 0 0
          0 0 0 0 0 0
          0 0 0 0 0 0
          0 0 0 0 0 0
          0 0 0 0 0 0
          0 0 0 0 0 0
          0 0 0 0 0 0
          0 0 0 0 0 0
          0 0 0 0 0 0
          0 0 0 0 0 0
          0 0 0 0 0 0
          0 0 0 0 0 0
          0 0 0 0 0 0
          0 0 0 0 0 0
          0 0 0 0 0 0
          0 0 0 0 0 0
          0 0 0 0 0 0
          0 0 0 0 0 0
          0 0 0 0 0 0
          0 0 0 0 0 0
          0 0 0 0 0 0
          0 0 0 0 0 0
          0 0 0 0 0 0
          0 0 0 0 0 0
          0 0 0 0 0 0
          0 0 0 0 0 0
          0 0 0 0 0 0
          0 0 0 0 0 0
          0 0 0 0 0 0
          0 0 0 0 0 0
          0 0 0 0 0 0
          0 0 0 0 0 0
          0 0 0 0 0 0
          0 0 0 0 0 0
          0 0 0 0 0 0
          0 0 0 0 0 0
          0 0 0 0 0 0
          0 0 0 0 0 0
          0 0 0 0 0 0
          0 0 0 0 0 0
          0 0 0 0 0 0
          0 0 0 0 0 0
          0 0 0 0 0 0
          0 0 0 0 0 0
          0 0 0 0 0 0
          0 0 0 0 0 0
          0 0 0 0 0 0
          0 0 0 0 0 0
          0 0 0 0 0 0
          0 0 0 0 0 0
          0 0 0 0 0 0
          0 0 0 0 0 0
          0 0 0 0 0 0
          0 0 0 0 0 0
          0 0 0 0 0 0
          0 0 0 0 0 0
          0 0 0 0 0 0
          0 0 0 0 0 0
          0 0 0 0 0 0
          0 0 0 0 0 0
          0 0 0 0 0 0
          0 0 0 0 0 0
          0 0 0 0 0 0
          0 0 0 0 0 0
          0 0 0 0 0 0
          0 0 0 0 0 0
          0 0 0 0 0 0
          0 0 0 0 0 0
          0 0 0 0 0 0
          0 0 0 0 0 0
          0 0 0 0 0 0
          0 0 0 0 0 0
          0 0 0 0 0 0
          0 0 0 0 0 0
          0 0 0 0 0 0
          0 0 0 0 0 0
          0 0 0 0 0 0
          0 0 0 0 0 0
          0 0 0
        </DataArray>
        <DataArray type="Float64" Name="gradient_error" format="ascii" RangeMin="1.2883683158737214e-10" RangeMax="7.677242077741032e-8">
          2.988721572766518e-8 6.04334965302906e-10 1.29161690790922e-8 2.16258454131334e-8 2.0996571127311935e-9 1.3659658874612194e-9
          1.8636058391568092e-8 9.524033522923311e-9 9.277017821989091e-9 1.730796096137825e-8 4.5788496264509296e-10 6.245628179812073e-10
          5.779838470110305e-10 5.606734929023616e-10 2.1098479978983235e-8 7.677242077741032e-8 6.84802132607824e-8 9.757230931259101e-9
          8.858373911449032e-9 3.8392960749692105e-8 3.401037274839875e-8 1.8835638429418672e-9 4.741160951701243e-9 4.094938729783e-9
          6.618900143754341e-9 2.634719534020865e-9 1.5723760920950877e-8 1.1826897012629703e-9 1.0534025684518152e-9 3.002341882180132e-9
          2.5611596676298362e-9 5.365004819469475e-10 1.7674890237369566e-9 1.4925622035985185e-9 7.460166836793527e-10 1.5903744548801743e-9
          1.37339479429042e-8 1.1494656981991892e-8 7.713585575016147e-9 6.781804139959077e-9 3.025265988174508e-8 2.9065826887212906e-8
          2.402639780980007e-8 2.64261244370087e-8 2.5018511786427098e-8 2.1406775702328663e-8 1.9397517067360372e-8 1.6598225486844488e-8
          2.075712369480596e-8 1.7846698707824155e-8 5.686070491873674e-9 4.6690456156081735e-9 1.5215002984377832e-8 1.301991041977373e-8
          1.3041209219022039e-8 1.4118582683835362e-8 3.2720617290513736e-9 2.9752102166100714e-9 6.416202645561066e-10 1.8256900012094982e-9
          1.6577268998659552e-9 2.2998556349003442e-9 1.2440921014006914e-9 2.8961927255431464e-10 2.6798197209955415e-10 9.820713571607652e-10
          8.872889738355829e-10 2.123182100264954e-10 6.542318545693045e-10 2.3652713841569027e-9 2.978264436826387e-9 2.882286350324464e-9
          2.6474290988965216e-9 6.8050365824748756e-9 1.9400559535335857e-9 1.878745404846302e-9 2.7001097359309925e-9 2.6112613850753287e-9
          1.2064864869578685e-9 2.1277242429916745e-9 2.0547870921365705e-9 1.714601565812957e-9 2.379215353366809e-9 1.850249998691121e-9
          6.181479843952725e-9 5.9447304139611045e-9 4.5709671085596694e-9 5.34217128184749e-9 1.862022910559307e-9 2.2923936671574437e-9
          1.858654256862448e-9 5.127017073820729e-9 1.4712384824840482e-9 2.03629655586191e-9 9.297164922468941e-10 1.5553896243747313e-9
          1.1812156191107197e-9 1.631167889640615e-9 1.2212095371973698e-9 4.46953105475364e-9 3.40781686839347e-9 3.4696990287360206e-9
          1.2545190658541094e-8 1.200777925985336e-8 1.079702633764909e-8 1.1520455951343904e-8 1.1051900747943456e-8 9.700341525904166e-9
          9.325036791887612e-9 9.893620419526529e-9 8.288640344022658e-9 2.048274469425535e-8 1.9702052487715162e-8 1.78714489739988e-8
          1.7527949105623497e-8 9.059164830105554e-9 8.245378326097598e-9 6.825594377113803e-9 5.219398896550446e-9 1.4352942357291483e-8
          1.2714216695504924e-8 9.251077854751523e-10 8.941418602237493e-10 1.6179347091931934e-9 1.5605241695357466e-9 6.672174112262504e-10
          1.2306348010207107e-9 1.1857158711979653e-9 8.06257136768047e-10 1.3998139761239225e-9 1.0603387271440038e-9 3.788247645737127e-9
          3.6463482413774356e-9 2.885473323430775e-9 3.251211059711758e-9 5.071748772956174e-10 4.895369085277112e-10 9.219552952210603e-10
          8.875645514298786e-10 3.5272484587156446e-10 6.770763448323739e-10 6.513858958478611e-10 4.396533989778348e-10 7.918194519081662e-10
          5.799719902274335e-10 2.332164131932329e-9 2.238216536149509e-9 1.694255658721113e-9 1.9784446478151884e-9 6.8025022693064e-10
          1.1690938000411325e-9 5.04393571816127e-10 8.812556222488975e-10 5.367991089771176e-10 9.099057842845826e-10 6.81380512880285e-10
          2.6845373776481107e-9 2.0992210923846085e-9 2.053703534937488e-9 3.6858033487198256e-10 6.555482165609644e-10 2.648076226728597e-10
          4.786624805741952e-10 2.8822097116379684e-10 5.041730689344158e-10 1.6114004187531055e-9 1.2092413738525407e-9 1.2109609587796874e-9
          8.164261896128391e-9 7.838453551133575e-9 6.7398548377097765e-9 6.4642473692945985e-9 6.939987080286164e-9 5.703592221067023e-9
          1.622154024020894e-8 1.5513961352520703e-8 1.3133333424455833e-8 1.3586079579523523e-8 5.446997872995051e-9 5.21831265262602e-9
          4.299885136350056e-9 4.112638562473208e-9 4.586878836585337e-9 3.595991591406079e-9 1.1414438369842497e-8 1.0910821037927766e-8
          8.859417398635821e-9 9.526046271503241e-9 5.671719280347642e-9 4.6295326620641205e-9 4.280675459816488e-9 3.452964993168167e-9
          1.0938785168267398e-8 9.219208664159576e-9 8.121133804384684e-9 3.6941491691063078e-9 2.7225000445322e-9 7.598686818676824e-9
          5.535643455914624e-9 1.1308896297837287e-9 1.425680077669148e-9 8.900398200596275e-10 1.2315831015643842e-9 5.540062080150803e-10
          8.980927991677081e-10 3.9847792562236543e-10 6.620607193974576e-10 2.9191085909340724e-10 4.91654500094407e-10 2.1122805619412881e-10
          3.612552274702362e-10 2.9331122053850178e-8 2.870629077171609e-8 2.7797422322945244e-8 2.713871500452507e-8 2.6699967899690835e-8
          2.493145717606205e-8 3.118093634599385e-8 3.0955535475507875e-8 3.000243944208177e-8 3.008300757143688e-8 2.2879105330793623e-8
          2.0891059033777752e-8 2.8011709066522433e-8 2.664287004102367e-8 2.3317122126843742e-8 2.499933287133389e-8 2.3281380091072636e-8
          2.4594317961590676e-8 2.7286421475387814e-8 2.6374024999424954e-8 1.61072420140002e-8 1.9654189392922943e-8 2.0129516164041516e-8
          2.489759281231529e-8 2.7773044885837125e-8 2.6874459603861002e-8 2.6728046757561354e-8 2.5833481576163548e-8 2.569479725204426e-8
          2.4947265981694282e-8 2.3000499009521237e-8 2.218931467001801e-8 2.254172171661284e-8 1.9751267057399537e-8 2.8608078001104004e-8
          2.8372703103901204e-8 2.6179938326282458e-8 2.7350984000571512e-8 1.993830783668574e-8 1.914647513212834e-8 1.6762445739564277e-8
          1.603453911424055e-8 1.6855404267532134e-8 1.3992519909719297e-8 2.3932854541740022e-8 2.3647261954813516e-8 2.0996464866917056e-8
          2.2317700929678113e-8 1.849790480255633e-8 1.597037491979776e-8 2.4547236591513078e-8 2.195019030933355e-8 1.3470301508226736e-8
          1.911774296564956e-8 2.237212571695542e-8 2.3396742264132638e-8 2.083596633764291e-8 2.1660272530994986e-8 2.49747441534134e-8
          2.3237796858507247e-8 1.7537399589067232e-8 1.9525804677170055e-8 1.7934393323446734e-8 2.2529727436491023e-8 1.8901719053237972e-8
          1.9733716907232742e-8 1.7352751922772377e-8 1.821922356695342e-8 2.1358874215657363e-8 1.9516745602301548e-8 1.4551871151954335e-8
          1.589000252052466e-8 1.458257358461053e-8 1.910191644639508e-8 2.5416111797267224e-8 2.3437757383339375e-8 2.448829085863684e-8
          2.2796207471328715e-8 2.1125833282851214e-8 2.086742361245948e-8 2.5850182524260054e-10 2.493687435830146e-10 4.864633521875593e-10
          4.677761264593837e-10 2.2347849547955698e-10 4.158352565175787e-10 1.3051653070151528e-9 1.2498391305606719e-9 1.0978710203133902e-9
          1.865154614586691e-10 3.4226336745361577e-10 8.854019107655429e-10 3.298158688652281e-9 3.148550742512739e-9 2.737968952828127e-9
          7.3622429532010605e-9 7.022666798657563e-9 5.414698574510935e-9 6.090672540638944e-9 1.3609124857766356e-8 1.2988878495647452e-8
          1.0713356321401905e-8 1.0224262565660522e-8 1.1282897479979615e-8 8.87068477226299e-9 1.8605067248783706e-8 1.805178893431401e-8
          1.4666462551510324e-8 1.6247090117292635e-8 1.654290531992117e-8 1.7067370520940372e-8 1.494398020728933e-8 1.5001801629526358e-8
          1.7355470421604055e-8 1.442855863195614e-8 1.3069851593812288e-8 1.4447193300472392e-8 1.3649061612743487e-8 1.6489598369889258e-8
          3.2130795404584043e-10 2.6080893329249285e-10 2.1901704768283536e-10 1.84585723537607e-10 2.3571442587653607e-8 4.829520796292437e-8
          4.056630726006975e-9 9.800816625604667e-9 1.2903004022031177e-8 2.695186492569237e-8 1.3751337657255856e-10 4.956938475771817e-10
          4.470422764659854e-10 3.2720471840502393e-10 3.7632315783157613e-10 7.693670638822442e-10 1.496186822440305e-9 7.923731272415597e-10
          3.963130251331302e-10 4.1559022217344855e-10 1.9664807978347588e-10 2.0824957304450876e-10 2.414969165893228e-10 2.1769179912527398e-10
          2.948812260475292e-10 2.615326425970373e-10 1.5882971163886287e-10 1.8270429048395513e-10 6.341887567133583e-9 6.963696962357109e-9
          1.092701337249385e-8 3.6664417878823396e-10 9.024109852243718e-10 2.870548511665398e-9 2.092197798300283e-9 6.116307145368875e-9
          4.403198241332814e-9 6.285817683446563e-10 8.648340413149385e-10 1.0081453523734234e-9 6.204338671058981e-10 2.553887267836391e-9
          2.961275765566339e-9 1.897581085753613e-9 1.753154009200382e-9 1.2783783944251308e-9 4.629743607189214e-9 5.15999940564323e-9
          3.7059951264673732e-9 6.637724341736751e-9 7.912117931621816e-9 2.7703273595069027e-10 4.5067538300316605e-10 3.3096690301041014e-10
          1.4584279852661564e-9 1.1160720071635873e-9 9.641812403165842e-10 7.276609982469843e-10 1.5109418615964014e-10 2.612694921970015e-10
          1.447184599744531e-10 2.41435789828929e-10 1.7362365240818642e-10 8.415166471111265e-10 6.220307971992195e-10 5.426255941019773e-10
          3.97205952898985e-10 2.981542707134346e-9 2.365912660853622e-9 5.5573859763265925e-9 4.570239271129554e-9 1.8392260113598298e-9
          1.3963143012977507e-9 3.6710223025607054e-9 2.8709280117828147e-9 1.568112218591991e-8 1.7520079190131576e-8 2.164516686770898e-8
          2.3323067448614028e-8 2.452088592367218e-8 2.5900837846755093e-8 2.4936861497428918e-8 2.6167169668523218e-8 1.3674846047855201e-8
          1.1677093015613877e-8 1.9353813057597823e-8 1.686117493219467e-8 1.1085746513565364e-8 9.755952075923904e-9 7.96275013550199e-9
          1.616315162567672e-8 1.4344093766635082e-8 1.1888710516100588e-8 2.249441899848023e-8 2.000619655069305e-8 2.3125592678055897e-8
          2.0772675222396334e-8 1.8495956682996154e-8 1.7311472446498072e-8 1.4520035089452271e-8 1.8619620465133094e-8 1.81185779379546e-8
          1.5288015526134177e-8 1.0698878131691762e-8 1.2385995641450892e-8 9.215165165312217e-9 7.776533513522257e-9 6.417579485367559e-9
          5.163138564017669e-9 1.7287789871031963e-10 3.417438545129691e-10 3.2849750935422596e-10 2.9166973126764206e-10 9.382461067118843e-10
          8.977393209579097e-10 7.866603826981535e-10 1.2883683158737214e-10 2.3951418700490834e-10 1.4546826840050681e-10 2.614129000131158e-10
          1.8262217223403804e-10 6.320101400833304e-10 6.56767328788863e-10 4.665251718777216e-10 2.450448321487874e-9 2.3353084981649658e-9
          2.021394774398946e-9 1.7624355312024389e-9 1.6775030017293755e-9 4.248316593003951e-9 4.036352906448747e-9 1.446695728719692e-9
          3.4576237139783017e-9 2.1679082606742295e-9 1.5897204696314027e-9 1.5646609627793889e-9 1.1376185307852102e-9 4.789272738705988e-9
          3.633477891297255e-9 1.1312576712576818e-9 2.66406703740753e-9 8.242909645756611e-9 7.858144635218568e-9 6.786963001642557e-9
          1.181677372512369e-8 1.1380111565035889e-8 1.0093540547954425e-8 8.89783248854942e-9 6.9563568931085755e-9 1.3211285208297111e-8
          1.0482140691956603e-8 5.266443975279216e-9 8.101664133636265e-9 1.2036795697011259e-8 1.1937042267827453e-8 1.1279048771149032e-8
          1.0988919270742581e-8 1.1190804579794669e-8 1.1120279634234871e-8 1.5491668356729114e-8 1.240398054487001e-8 1.5840909769816805e-8
          1.275504991096805e-8 9.6588117916456e-9 9.942778015955754e-9
        </DataArray>
        <DataArray type="Float64" Name="gradient_matprop_error" format="ascii" RangeMin="0" RangeMax="0">
          0 0 0 0 0 0
          0 0 0 0 0 0
          0 0 0 0 0 0
          0 0 0 0 0 0
          0 0 0 0 0 0
          0 0 0 0 0 0
          0 0 0 0 0 0
          0 0 0 0 0 0
          0 0 0 0 0 0
          0 0 0 0 0 0
          0 0 0 0 0 0
          0 0 0 0 0 0
          0 0 0 0 0 0
          0 0 0 0 0 0
          0 0 0 0 0 0
          0 0 0 0 0 0
          0 0 0 0 0 0
          0 0 0 0 0 0
          0 0 0 0 0 0
          0 0 0 0 0 0
          0 0 0 0 0 0
          0 0 0 0 0 0
          0 0 0 0 0 0
          0 0 0 0 0 0
          0 0 0 0 0 0
          0 0 0 0 0 0
          0 0 0 0 0 0
          0 0 0 0 0 0
          0 0 0 0 0 0
          0 0 0 0 0 0
          0 0 0 0 0 0
          0 0 0 0 0 0
          0 0 0 0 0 0
          0 0 0 0 0 0
          0 0 0 0 0 0
          0 0 0 0 0 0
          0 0 0 0 0 0
          0 0 0 0 0 0
          0 0 0 0 0 0
          0 0 0 0 0 0
          0 0 0 0 0 0
          0 0 0 0 0 0
          0 0 0 0 0 0
          0 0 0 0 0 0
          0 0 0 0 0 0
          0 0 0 0 0 0
          0 0 0 0 0 0
          0 0 0 0 0 0
          0 0 0 0 0 0
          0 0 0 0 0 0
          0 0 0 0 0 0
          0 0 0 0 0 0
          0 0 0 0 0 0
          0 0 0 0 0 0
          0 0 0 0 0 0
          0 0 0 0 0 0
          0 0 0 0 0 0
          0 0 0 0 0 0
          0 0 0 0 0 0
          0 0 0 0 0 0
          0 0 0 0 0 0
          0 0 0 0 0 0
          0 0 0 0 0 0
          0 0 0 0 0 0
          0 0 0 0 0 0
          0 0 0 0 0 0
          0 0 0 0 0 0
          0 0 0 0 0 0
          0 0 0 0 0 0
          0 0 0 0 0 0
          0 0 0 0 0 0
          0 0 0 0 0 0
          0 0 0 0 0 0
          0 0 0 0 0 0
          0 0 0 0 0 0
          0 0 0 0 0 0
          0 0 0 0 0 0
          0 0 0 0 0 0
          0 0 0 0 0 0
          0 0 0 0 0 0
          0 0 0 0 0 0
          0 0 0 0 0 0
          0 0 0
        </DataArray>
        <DataArray type="Float64" Name="initial_marker" format="ascii" RangeMin="0" RangeMax="2">
          1 1 2 1 1 1
          2 2 2 2 0 0
          0 0 1.3333333333333333 2 2 1
          1 2 2 1 2 2
          1 2 2 1 1 2
          2 1 2 2 0.75 2
          2 2 2 2 2 2
          2 2 2 2 2 2
          2 2 2 2 2 2
          2 2 0 0 0 0
          0 0 0 0 0 0
          0 0 0 2 2 2
          2 2 2 2 2 2
          2 2 2 2 2 2
          2 2 2 2 2 2
          2 2 2 2 2 2
          2 2 2 2 2 2
          2 2 2 2 2 2
          2 2 2 2 2 2
          2 2 2 2 2 2
          2 2 2 2 2 2
          2 2 2 2 2 2
          2 2 2 2 2 2
          2 2 2 2 2 2
          2 2 2 2 2 2
          2 2 2 2 2 1.75
          2 2 2 2 2 2
          2 1 1.5 2 2 2
          2 2 2 2 2 2
          2 2 2 2 2 2
          2 2 2 2 2 2
          2 2 2 2 2 2
          2 2 2 2 2 2
          2 1 1.5 1 1.5 1
          1.5 1 1.5 0.5 1.25 0
          1 2 2 2 2 2
          2 2 2 2 2 2
          2 2 2 2 2 2
          2 2 2 2 2 2
          2 2 2 2 2 2
          2 2 2 2 2 2
          2 2 2 2 2 2
          2 2 2 2 2 2
          2 2 2 2 2 2
          2 2 2 2 2 2
          2 2 2 2 2 2
          2 2 2 2 2 2
          2 2 2 2 2 2
          2 2 2 2 2 2
          2 2 2 2 2 2
          2 2 2 2 2 2
          2 2 2 2 2 2
          2 2 2 2 2 2
          2 2 2 2 2 2
          2 2 2 2 2 2
          0 0 0 0 2 2
          0.5 1.3333333333333333 2 2 0 0
          0 0 0.5 0 0 0
          0 0 0 0 0 0
          1 1 0 0.25 2 2
          2 1.5 2 2 2 2
          2 0 1 1 1 2
          2 2 2 2 2 2
          2 2 2 0 1 1
          2 2 2 2 0 1
          0 1 1 2 2 2
          2 2 2 2 2 2
          2 2 2 2 2 2
          2 2 2 2 2 2
          2 2 2 2 2 2
          2 2 2 2 2 2
          2 2 2 2 2 2
          2 2 2 2 2 2
          2 2 2 2 2 2
          2 2 1.5 1.75 1 1.5
          1.25 2 2 2 2 2
          2 2 2 2 2 2
          2 2 2 2 2 2
          2 2 2 2 2 2
          2 2 2 2 2 2
          2 2 2 2 2 2
          2 2 2 2 2 2
          2 2 2
        </DataArray>
        <DataArray type="Float64" Name="markers_norefine" format="ascii" RangeMin="0" RangeMax="2">
          0 0 2 0 0 0
          0 0 0 2 0 0
          0 0 0 0 0 0
          0 0 0 0 0 0
          0 0 0 0 0 0
          0 0 0 0 0 0
          0 0 0 0 2 1.75
          2 1.5 0.75 0.5 0 2
          2 0.5 0 0 0 0
          0 0 0 0 0 0
          0 0 0 0 0 0
          0 0 0 0 0 0
          0 0 0 0 0 0
          0 0 0 0 0 0
          0 0 0 0 0 0
          0 0 0 0 0 0
          0 0 0 0 0 0
          0 0 0 0 0 0
          0 0 0 0 0 0
          0 0 0 0 0 0
          0 0 0 0 0 0
          0 0 0 0 0 0
          0 0 0 0 0 0
          0 0 0 0 0 0
          0 0 0 0 0 0
          0 0 0 0 0 0
          0 0 0 0 0 0
          0 0 0 0 0 0
          0 0 0 0 0 0
          0 0 0 0 0 0
          0 0 0 0 0 0
          0 0 0 0 0 0
          0 0 0 0 0 0
          0 0 0 0 0 0
          0 0 0 0 0 0
          0 1 1 1 1 1
          0.75 2 2 2 2 0.5
          0.25 1.5 1 2 2 2
          2 2 2 2 2 2
          2 2 1.75 2 2 1
          0.75 0.5 0.25 0.25 0 2
          1.75 1.25 1.25 0 0 0
          0 0 0 1 0.75 0.25
          0.25 0 0 0.5 0.25 0
          0 2 2 2 2 2
          1.75 2 2 2 2 2
          1.75 1.5 1 1 0.25 2
          2 1.5 1.5 1.25 0.75 1.5
          1 0.25 0.5 0 0 0
          0 0 0 0 0 0
          0 0 0 0 0 0
          0 0 0 0 0 0
          0 0 0 0 0 0
          0 0 0.5 0.25 0 0
          0 0 1 0.5 0 0
          0 0 0 0 0 0
          0 0 0 0 0 0
          0 0 0 0 0 0
          0 0 0 0 0 0
          0 0 0 0 0 0
          0 0 0 0 0 0
          0 0 0 0 0 0
          0 0 0 0 0 0
          0 0 0 0 0 0
          0 0 0 0 0 0
          0 0 0 0 0 0
          0 0 0 0 0 0
          0 0 0 0 0 0.25
          0.5 0.75 1 1 1 0
          0 0 0 0 0 0
          0 0 0 0.25 0 0.5
          0 0 0 0 0 0
          0 0 0 0 0 0
          0 0 0 0 0 0
          0 0 0 0 0 0
          0 0 0 0 0 0
          0 0 0 0 0 0
          0 0 0 0 0 0
          0 0 0 0 0 0
          0 0 0 0 0 0
          0 0 0 0 0 0
          0 0 0 0 0 0
          0 0 0
        </DataArray>
        <DataArray type="Float64" Name="markers_mustrefine" format="ascii" RangeMin="0" RangeMax="2">
          1 1 2 1 1 1
          2 2 2 2 0 0
          0 0 1.3333333333333333 2 2 1
          1 2 2 1 2 2
          1 2 2 1 1 2
          2 1 2 2 0.75 2
          2 2 2 2 2 2
          2 2 2 2 2 2
          2 2 2 2 2 2
          2 2 0 0 0 0
          0 0 0 0 0 0
          0 0 0 2 2 2
          2 2 2 2 2 2
          2 2 2 2 2 2
          2 2 2 2 2 2
          2 2 2 2 2 2
          2 2 2 2 2 2
          2 2 2 2 2 2
          2 2 2 2 2 2
          2 2 2 2 2 2
          2 2 2 2 2 2
          2 2 2 2 2 2
          2 2 2 2 2 2
          2 2 2 2 2 2
          2 2 2 2 2 2
          2 2 2 2 2 1.75
          2 2 2 2 2 2
          2 1 1.5 2 2 2
          2 2 2 2 2 2
          2 2 2 2 2 2
          2 2 2 2 2 2
          2 2 2 2 2 2
          2 2 2 2 2 2
          2 1 1.5 1 1.5 1
          1.5 1 1.5 0.5 1.25 0
          1 2 2 2 2 2
          2 2 2 2 2 2
          2 2 2 2 2 2
          2 2 2 2 2 2
          2 2 2 2 2 2
          2 2 2 2 2 2
          2 2 2 2 2 2
          2 2 2 2 2 2
          2 2 2 2 2 2
          2 2 2 2 2 2
          2 2 2 2 2 2
          2 2 2 2 2 2
          2 2 2 2 2 2
          2 2 2 2 2 2
          2 2 2 2 2 2
          2 2 2 2 2 2
          2 2 2 2 2 2
          2 2 2 2 2 2
          2 2 2 2 2 2
          2 2 2 2 2 2
          0 0 0 0 2 2
          0.5 1.3333333333333333 2 2 0 0
          0 0 0.5 0 0 0
          0 0 0 0 0 0
          1 1 0 0.25 2 2
          2 1.5 2 2 2 2
          2 0 1 1 1 2
          2 2 2 2 2 2
          2 2 2 0 1 1
          2 2 2 2 0 1
          0 1 1 2 2 2
          2 2 2 2 2 2
          2 2 2 2 2 2
          2 2 2 2 2 2
          2 2 2 2 2 2
          2 2 2 2 2 2
          2 2 2 2 2 2
          2 2 2 2 2 2
          2 2 2 2 2 2
          2 2 1.5 1.75 1 1.5
          1.25 2 2 2 2 2
          2 2 2 2 2 2
          2 2 2 2 2 2
          2 2 2 2 2 2
          2 2 2 2 2 2
          2 2 2 2 2 2
          2 2 2 2 2 2
          2 2 2
        </DataArray>
        <DataArray type="Float64" Name="gradient_marker" format="ascii" RangeMin="0" RangeMax="1">
          0 1 1 0 0.75 0.75
          1 1 1 1 0.5 0.5
          0.5 0.5 0 0.5 0.5 0
          0 0.25 0.25 0.75 1 1
          0 1 1 1 1 1
          1 1 1 1 1 1
          1 1 1 1 1 1
          1 1 1 1 1 1
          1 1 1 1 1 1
          1 1 0 0 0.5 0.5
          0.5 0 0.5 1 1 1
          1 1 1 0 0 0
          0 0 0.5 0.5 0.5 0.5
          1 1 1 0.5 0.5 1
          0.5 0.5 1 0.5 0 0
          0 0 0.5 0.5 1 1
          0.5 0.5 1 0.5 1 0.5
          0 0 0 0.5 0.5 1
          1 0.5 1 0.5 0.5 1
          0.5 0 0.5 1 1 0.5
          1 1 1 1 1 1
          1 1 1 1 1 1
          1 1 1 1 1 1
          1 1 1 1 1 1
          1 1 1 1 1 1
          1 1 1 1 1 1
          1 1 1 1 1 1
          1 1 1 1 1 1
          1 1 1 1 1 1
          1 1 1 1 1 1
          1 1 1 1 1 1
          1 1 1 1 1 1
          1 1 1 1 1 1
          1 0 0 0.5 0.5 1
          1 1 1 1 1 1
          1 0.5 0.5 1 1 0.5
          1 0.5 0.5 1 0.5 0.5
          1 0.5 1 0.5 0.5 1
          1 0.5 1 0.5 0.5 1
          0.5 0.5 1 0.5 1 1
          1 1 1 1 1 1
          1 1 1 1 1 1
          1 1 1 1 1 1
          1 1 1 1 1 1
          1 1 1 1 1 1
          1 1 1 1 1 1
          1 1 1 1 1 1
          1 1 1 1 1 1
          1 1 1 1 1 1
          1 1 1 1 1 1
          1 1 1 1 1 1
          1 1 1 1 1 1
          1 1 1 1 1 1
          1 1 1 1 1 1
          1 1 1 1 1 1
          1 1 1 1 0.125 0.375
          0 0 0 0.125 1 1
          1 1 1 0.5 0 0.75
          1 1 1 1 1 1
          1 1 1 1 0.5 0
          0.5 1 1 1 1 1
          1 0.5 0.5 0 1 0.5
          0 1 0.5 1 0.5 0
          1 1 0.5 1 1 1
          1 1 1 1 1 1
          1 1 1 1 1 1
          1 1 1 1 1 1
          1 1 1 1 0.5 1
          0.5 1 0.5 1 0.5 1
          1 1 1 1 1 1
          1 1 1 1 1 1
          1 1 1 1 1 1
          1 1 0.5 1 1 1
          1 1 1 1 1 1
          1 1 1 1 1 1
          1 1 1 1 1 1
          1 1 1 1 1 1
          1 1 1 1 1 1
          1 1 1 1 1 1
          1 1 1 1 1 1
          1 1 1 1 1 1
          1 1 1 1 1 1
          1 1 1
        </DataArray>
        <DataArray type="Float64" Name="gradient_matprop_marker" format="ascii" RangeMin="0" RangeMax="0">
          0 0 0 0 0 0
          0 0 0 0 0 0
          0 0 0 0 0 0
          0 0 0 0 0 0
          0 0 0 0 0 0
          0 0 0 0 0 0
          0 0 0 0 0 0
          0 0 0 0 0 0
          0 0 0 0 0 0
          0 0 0 0 0 0
          0 0 0 0 0 0
          0 0 0 0 0 0
          0 0 0 0 0 0
          0 0 0 0 0 0
          0 0 0 0 0 0
          0 0 0 0 0 0
          0 0 0 0 0 0
          0 0 0 0 0 0
          0 0 0 0 0 0
          0 0 0 0 0 0
          0 0 0 0 0 0
          0 0 0 0 0 0
          0 0 0 0 0 0
          0 0 0 0 0 0
          0 0 0 0 0 0
          0 0 0 0 0 0
          0 0 0 0 0 0
          0 0 0 0 0 0
          0 0 0 0 0 0
          0 0 0 0 0 0
          0 0 0 0 0 0
          0 0 0 0 0 0
          0 0 0 0 0 0
          0 0 0 0 0 0
          0 0 0 0 0 0
          0 0 0 0 0 0
          0 0 0 0 0 0
          0 0 0 0 0 0
          0 0 0 0 0 0
          0 0 0 0 0 0
          0 0 0 0 0 0
          0 0 0 0 0 0
          0 0 0 0 0 0
          0 0 0 0 0 0
          0 0 0 0 0 0
          0 0 0 0 0 0
          0 0 0 0 0 0
          0 0 0 0 0 0
          0 0 0 0 0 0
          0 0 0 0 0 0
          0 0 0 0 0 0
          0 0 0 0 0 0
          0 0 0 0 0 0
          0 0 0 0 0 0
          0 0 0 0 0 0
          0 0 0 0 0 0
          0 0 0 0 0 0
          0 0 0 0 0 0
          0 0 0 0 0 0
          0 0 0 0 0 0
          0 0 0 0 0 0
          0 0 0 0 0 0
          0 0 0 0 0 0
          0 0 0 0 0 0
          0 0 0 0 0 0
          0 0 0 0 0 0
          0 0 0 0 0 0
          0 0 0 0 0 0
          0 0 0 0 0 0
          0 0 0 0 0 0
          0 0 0 0 0 0
          0 0 0 0 0 0
          0 0 0 0 0 0
          0 0 0 0 0 0
          0 0 0 0 0 0
          0 0 0 0 0 0
          0 0 0 0 0 0
          0 0 0 0 0 0
          0 0 0 0 0 0
          0 0 0 0 0 0
          0 0 0 0 0 0
          0 0 0 0 0 0
          0 0 0
        </DataArray>
        <DataArray type="Float64" Name="combo" format="ascii" RangeMin="0" RangeMax="2">
          0 1 2 0 0.75 0.75
          1 1 1 2 0.5 0.5
          0.5 0.5 0 0.5 0.5 0
          0 0.25 0.25 0.75 1 1
          0 1 1 1 1 1
          1 1 1 1 1 1
          1 1 1 1 2 1.875
          2 1.75 1.375 1.25 1 2
          2 1.25 1 1 1 1
          1 1 0 0 0.5 0.5
          0.5 0 0.5 1 1 1
          1 1 1 0 0 0
          0 0 0.5 0.5 0.5 0.5
          1 1 1 0.5 0.5 1
          0.5 0.5 1 0.5 0 0
          0 0 0.5 0.5 1 1
          0.5 0.5 1 0.5 1 0.5
          0 0 0 0.5 0.5 1
          1 0.5 1 0.5 0.5 1
          0.5 0 0.5 1 1 0.5