<?xml version="1.0"?>
<VTKFile type="UnstructuredGrid" version="0.1" byte_order="LittleEndian" header_type="UInt32" compressor="vtkZLibDataCompressor">
  <UnstructuredGrid>
    <Piece NumberOfPoints="544" NumberOfCells="299">
      <PointData>
        <DataArray type="Int32" Name="libmesh_node_id" format="ascii" RangeMin="394" RangeMax="2631">
          394 533 534 540 544 545
          547 548 552 553 554 803
          804 805 806 807 808 809
          810 811 812 813 814 815
          816 841 842 843 844 845
          846 847 848 849 850 851
          852 853 854 855 856 857
          858 859 861 862 863 864
          865 866 868 1339 1340 1341
          1342 1343 1344 1345 1346 1347
          1348 1349 1350 1351 1352 1353
          1354 1355 1356 1357 1358 1359
          1360 1361 1362 1363 1364 1365
          1366 1367 1368 1369 1370 1371
          1372 1373 1374 1375 1376 1377
          1378 1379 1380 1381 1382 1383
          1384 1385 1386 1387 1388 1389
          1390 1391 1392 1393 1394 1395
          1396 1397 1398 1399 1400 1401
          1402 1403 1404 1405 1406 1407
          1408 1409 1410 1411 1412 1413
          1414 1415 1416 1417 1418 1419
          1420 1421 1422 1423 1424 1425
          1426 1427 1428 1429 1430 1431
          1432 1433 1434 1435 1436 1437
          1438 1439 1440 1441 1442 1443
          1444 1445 1446 1447 1448 1449
          1450 1451 1452 1453 1454 1455
          1456 1457 1458 1459 1460 1461
          1462 1463 1464 1465 1466 1467
          1468 1469 1470 1471 1472 1473
          1474 1475 1476 1477 1478 1479
          1480 1481 1482 1483 1484 1485
          1486 1487 1488 1489 1490 1491
          1492 1493 1494 1495 1496 1497
          1498 1499 1500 1501 1503 1506
          1507 1509 1511 1512 1513 1514
          1515 1516 1517 1518 1519 1520
          1521 1522 1523 1524 1525 2345
          2346 2347 2348 2349 2350 2351
          2352 2353 2354 2355 2356 2357
          2358 2359 2360 2361 2362 2363
          2364 2365 2366 2367 2368 2369
          2370 2371 2372 2373 2374 2375
          2376 2377 2378 2379 2380 2381
          2382 2383 2384 2385 2386 2387
          2388 2389 2390 2391 2392 2393
          2394 2395 2396 2397 2398 2399
          2400 2401 2402 2403 2404 2405
          2406 2407 2408 2409 2410 2411
          2412 2413 2414 2415 2416 2417
          2418 2419 2420 2421 2422 2423
          2424 2425 2426 2427 2428 2429
          2430 2431 2432 2433 2434 2435
          2436 2437 2438 2439 2440 2441
          2442 2443 2444 2445 2446 2447
          2448 2449 2450 2451 2452 2453
          2454 2455 2456 2457 2458 2459
          2460 2461 2462 2463 2464 2465
          2466 2467 2468 2469 2470 2471
          2472 2473 2477 2478 2479 2480
          2481 2483 2484 2485 2486 2487
          2488 2489 2490 2491 2492 2493
          2494 2495 2496 2497 2498 2499
          2500 2501 2502 2503 2504 2505
          2506 2507 2508 2509 2510 2511
          2512 2513 2514 2515 2516 2517
          2518 2519 2520 2521 2522 2523
          2524 2525 2526 2527 2528 2529
          2530 2531 2532 2533 2534 2535
          2536 2537 2538 2539 2540 2541
          2542 2543 2544 2545 2546 2547
          2548 2549 2550 2551 2552 2553
          2554 2555 2556 2557 2559 2564
          2569 2570 2571 2572 2573 2574
          2575 2576 2577 2579 2581 2583
          2584 2585 2588 2589 2590 2591
          2593 2598 2603 2604 2605 2606
          2607 2608 2609 2610 2611 2613
          2615 2617 2618 2619 2621 2622
          2623 2624 2625 2627 2629 2631
          530 793 794 795 531 798
          538 801 539 831 821 832
          822 833 834 838 829 839
          869 870 871 872 876 877
          879 880 881 882 886 887
          1210 1217 1218 1211 1220 1221
          1223 1214 1224 1227 1228 1230
          1231 1233 1234 1237 1238 1240
          1241 1243 1244 1247 1248 1250
          1256 1258 2099 2093
        </DataArray>
        <DataArray type="Float64" Name="bounds" format="ascii" RangeMin="0" RangeMax="0">
          0 0 0 0 0 0
          0 0 0 0 0 0
          0 0 0 0 0 0
          0 0 0 0 0 0
          0 0 0 0 0 0
          0 0 0 0 0 0
          0 0 0 0 0 0
          0 0 0 0 0 0
          0 0 0 0 0 0
          0 0 0 0 0 0
          0 0 0 0 0 0
          0 0 0 0 0 0
          0 0 0 0 0 0
          0 0 0 0 0 0
          0 0 0 0 0 0
          0 0 0 0 0 0
          0 0 0 0 0 0
          0 0 0 0 0 0
          0 0 0 0 0 0
          0 0 0 0 0 0
          0 0 0 0 0 0
          0 0 0 0 0 0
          0 0 0 0 0 0
          0 0 0 0 0 0
          0 0 0 0 0 0
          0 0 0 0 0 0
          0 0 0 0 0 0
          0 0 0 0 0 0
          0 0 0 0 0 0
          0 0 0 0 0 0
          0 0 0 0 0 0
          0 0 0 0 0 0
          0 0 0 0 0 0
          0 0 0 0 0 0
          0 0 0 0 0 0
          0 0 0 0 0 0
          0 0 0 0 0 0
          0 0 0 0 0 0
          0 0 0 0 0 0
          0 0 0 0 0 0
          0 0 0 0 0 0
          0 0 0 0 0 0
          0 0 0 0 0 0
          0 0 0 0 0 0
          0 0 0 0 0 0
          0 0 0 0 0 0
          0 0 0 0 0 0
          0 0 0 0 0 0
          0 0 0 0 0 0
          0 0 0 0 0 0
          0 0 0 0 0 0
          0 0 0 0 0 0
          0 0 0 0 0 0
          0 0 0 0 0 0
          0 0 0 0 0 0
          0 0 0 0 0 0
          0 0 0 0 0 0
          0 0 0 0 0 0
          0 0 0 0 0 0
          0 0 0 0 0 0
          0 0 0 0 0 0
          0 0 0 0 0 0
          0 0 0 0 0 0
          0 0 0 0 0 0
          0 0 0 0 0 0
          0 0 0 0 0 0
          0 0 0 0 0 0
          0 0 0 0 0 0
          0 0 0 0 0 0
          0 0 0 0 0 0
          0 0 0 0 0 0
          0 0 0 0 0 0
          0 0 0 0 0 0
          0 0 0 0 0 0
          0 0 0 0 0 0
          0 0 0 0 0 0
          0 0 0 0 0 0
          0 0 0 0 0 0
          0 0 0 0 0 0
          0 0 0 0 0 0
          0 0 0 0 0 0
          0 0 0 0 0 0
          0 0 0 0 0 0
          0 0 0 0 0 0
          0 0 0 0 0 0
          0 0 0 0 0 0
          0 0 0 0 0 0
          0 0 0 0 0 0
          0 0 0 0 0 0
          0 0 0 0 0 0
          0 0 0 0
        </DataArray>
        <DataArray type="Float64" Name="gradient_error" format="ascii" RangeMin="7.394753617244439e-10" RangeMax="3.155745657138803e-7">
          2.4005580821588375e-9 2.2051312279147876e-7 2.040527163812824e-7 2.5152905632847524e-7 1.384610892023143e-7 1.1421417451412157e-7
          1.2421425858213283e-7 9.895902643072734e-8 7.415404171535039e-10 1.887367850901023e-7 1.9796014686753295e-7 2.930488425702135e-7
          2.7086360799785806e-7 2.531559754461281e-7 2.976381270869487e-7 2.3913009466278446e-7 1.345059876345296e-7 2.082779441007772e-7
          2.0048215699621974e-7 2.9044768304190936e-7 2.6431119413494273e-7 1.3596726352736477e-7 2.493506335517721e-7 1.315519214987224e-7
          3.155745657138803e-7 1.3878155196226243e-7 1.5987137442091854e-7 5.742937990790817e-8 9.646773082073531e-8 1.1764349819936981e-7
          3.974156490957444e-8 6.688998680798112e-8 1.619711197955452e-7 1.9145614398166622e-7 1.5608129055656176e-7 1.0853431782671087e-9
          4.2730750939788276e-8 3.7573869937313435e-8 1.7961684765180452e-7 1.340069467393945e-7 1.1127844284642185e-7 4.647702655278096e-8
          6.044043220319673e-8 1.0043810421889951e-7 6.974548781698508e-8 1.028870908942594e-7 1.5690942901782865e-7 1.530449892291636e-7
          1.6998378202885839e-9 4.316979281111578e-8 1.9542705763954697e-7 3.8216688510346784e-8 5.067681259036967e-8 5.3793958521822514e-8
          5.216421589070425e-8 5.0534473259585995e-8 4.285354060574291e-8 4.281375072345758e-8 5.098195986128249e-8 4.277396084117226e-8
          5.052596469989239e-8 3.478585757552832e-8 3.618724183410765e-8 3.758862609268697e-8 3.41577951578685e-8 3.015711837165942e-8
          3.59855076374236e-8 2.6697792307654468e-8 3.741799194841083e-8 4.187096302411351e-8 4.9848964694363153e-8 1.727484454457266e-8
          2.917953179067381e-8 2.5113292325850245e-8 4.096796520705476e-8 5.225367899363921e-8 5.1347146033500176e-8 5.398139328738603e-8
          5.311515501610856e-8 5.170054989644224e-8 5.525439992519171e-8 5.383870891964795e-8 5.383551981894432e-8 5.839035875735425e-8
          5.716692934389989e-8 5.028594477677592e-8 5.242301791410421e-8 5.442289111707358e-8 5.442744782582718e-8 5.459117830237858e-8
          5.8252166338575915e-8 5.481588509640203e-8 5.799607720241619e-8 5.6086976649596115e-8 6.197813942407949e-8 6.065334729625234e-8
          5.8445161224856887e-8 6.603097137656841e-8 6.444157745805733e-8 5.0279516488686774e-8 5.596399915011976e-8 5.891351338467972e-8
          4.849358256883697e-8 5.580386184693727e-8 5.356194081788827e-8 6.247928333055951e-8 4.1671207426752265e-8 4.6624451306607705e-8
          4.18672291228857e-8 5.3172332020981656e-8 5.570645458542091e-8 5.140682631061715e-8 4.170293954603277e-8 4.744033443271546e-8
          4.2081889651451895e-8 4.9083653599951825e-8 3.702472221146804e-8 4.2281225733616614e-8 4.319246397009044e-8 5.745525301543121e-8
          6.097702345270599e-8 5.310645732579294e-8 2.7896562177666667e-8 3.965623377032304e-8 2.8585125669526497e-8 3.586126047469767e-8
          5.318309220323597e-8 5.1050961624634795e-8 1.6031459298149463e-9 2.5755415055633443e-8 1.49677636808774e-8 5.1422402287585134e-8
          1.6853441462296865e-8 2.5726451362248496e-8 4.038624557988065e-9 2.0433866405006587e-8 4.9176134359344026e-8 5.256809952071283e-8
          7.964693536394355e-10 3.451403926301661e-9 2.824995756499649e-9 3.499394321521996e-8 5.425786190592859e-8 5.826354449514877e-8
          5.34284584544701e-8 5.727922731936627e-8 5.5343391790875527e-8 5.8756254705397764e-8 5.545009059832306e-8 6.237750332701404e-8
          6.670298438023851e-8 6.084490407226527e-8 6.45809450252096e-8 6.302222994256376e-8 6.75373394035168e-8 6.301462274870986e-8
          6.362192237528916e-8 6.086422219150516e-8 7.037613180061241e-8 6.841304856225322e-8 6.314111100109917e-8 7.491255467288911e-8
          7.254026173794246e-8 5.3069273387510646e-8 6.189039854433411e-8 6.492904062178354e-8 4.2977974764210636e-8 4.9742367381477756e-8
          4.591805814463067e-8 6.36295910141154e-8 6.866300053400901e-8 6.503928946233207e-8 7.975046675730876e-8 7.686013112507406e-8
          6.635787147208279e-8 8.488362187327204e-8 8.13311262314678e-8 5.536226916125264e-8 6.792576095367103e-8 7.072549798702282e-8
          5.043522136857928e-8 4.974915669612416e-8 5.4069591821906515e-8 6.489824369778423e-8 4.27159323776557e-8 5.071598476582653e-8
          4.319030090028916e-8 5.2272744674041257e-8 3.739983998801126e-8 4.4101137766878894e-8 4.485537690751125e-8 6.448203956643796e-8
          6.81854800729494e-8 5.8192292772057584e-8 4.3415741600535054e-8 5.364576508271367e-8 4.2953146215403127e-8 5.4496286470383646e-8
          3.752252326921995e-8 4.540980375092463e-8 4.53202075563852e-8 7.203856698848033e-8 7.595414253291258e-8 6.307471151041914e-8
          3.6409255526558284e-9 1.3299993544108225e-8 3.783667886825834e-9 5.6078336851104855e-9 4.851169192946447e-8 4.451384920984879e-8
          1.1052866910104197e-9 2.4785638301027706e-9 2.781853912404778e-9 4.022361939669218e-8 5.896948171197212e-9 3.8348070418280714e-8
          3.183697628834769e-8 3.554135421162731e-9 2.6801158632447527e-8 7.131900932888443e-8 7.645810966683645e-8 6.857170341000028e-8
          7.283100636854717e-8 7.238997667889032e-8 7.790044763556749e-8 7.156125682163193e-8 7.231732792395462e-8 6.805750663097382e-8
          7.741344476844717e-8 8.233989302149969e-8 6.450985679135519e-8 5.0328060464753536e-8 8.197455074868537e-8 3.857351140825543e-9
          4.189879187925485e-9 4.099624851675706e-9 4.3860469807837685e-9 4.009370515425926e-9 3.785631789673731e-9 3.786692583608098e-9
          3.787753377542465e-9 3.7160340263906532e-9 3.6647236567934636e-9 3.836399562186349e-9 3.420877269215505e-9 3.838106699971893e-9
          4.008075467579232e-9 4.255336130728282e-9 3.1395681256614425e-9 3.57317427269699e-9 3.290166419160017e-9 4.006780419732538e-9
          7.423220517067152e-9 7.79361485067665e-9 7.712492093961321e-9 8.164508063501638e-9 7.631369337245995e-9 4.4492246376991504e-9
          4.469871052366351e-9 4.468859851848399e-9 4.4905174670335525e-9 4.120907832931519e-9 4.356538998835516e-9 4.179006827301234e-9
          4.592170164739513e-9 6.248575123478943e-9 3.189129140219493e-9 3.743594927180601e-9 2.96750973388439e-9 3.6108960382590877e-9
          4.29806071414171e-9 4.254282342633784e-9 1.9290336427398348e-9 3.0173188019948516e-9 2.7529322246697757e-9 4.105603961249869e-9
          2.726204436883819e-9 3.417271597930095e-9 2.465558990069846e-9 3.159987935073013e-9 4.10833875897637e-9 4.5585764202331135e-9
          1.3315010408361198e-9 2.478004197024673e-9 2.140969042844792e-9 3.6245073532132273e-9 6.199654288711078e-9 6.432413076875175e-9
          6.150733453943213e-9 7.102996459005078e-9 7.142631021700888e-9 7.182265584396698e-9 3.5080383805605133e-9 3.922218682403722e-9
          4.669302179192401e-9 5.264530953898929e-9 7.077488822591793e-9 7.203155518558567e-9 7.052624843598484e-9 7.301608746783201e-9
          7.328822214525343e-9 7.550592649967918e-9 4.480848082316915e-9 4.926727158237945e-9 4.6122207773709725e-9 5.639081154794965e-9
          6.421965327534197e-9 6.639778980520233e-9 6.651267731517468e-9 6.6895999809583574e-9 6.696316674822268e-9 7.207168965849772e-9
          2.2084156389700515e-9 2.8421662702220596e-9 1.9386832531939792e-9 2.517724542875782e-9 4.6299165084252545e-9 4.298200767577984e-9
          9.087928973795899e-10 1.7621138580403968e-9 1.4625165801302765e-9 3.99530206295158e-9 1.6699043659256696e-9 2.216298142097729e-9
          1.4837772642468412e-9 1.9747495588599976e-9 4.028188762048133e-9 3.765624708234202e-9 7.394753617244439e-10 1.2729609108753794e-9
          1.1637669930428133e-9 3.1108933378061638e-9 6.229939645408401e-9 6.252962825261225e-9 6.675963175440358e-9 7.006289947924065e-9
          6.037913963282604e-9 5.866146670002215e-9 6.700658619363249e-9 6.219447973828775e-9 6.157146792595318e-9 7.145210341831074e-9
          7.248766022195385e-9 5.749295966699195e-9 5.617976910368368e-9 7.083251717812377e-9 8.55737712416434e-9 8.471994540175995e-9
          8.790447252779088e-9 8.386611956187647e-9 9.111572939708491e-9 9.153428216398121e-9 9.522980671983448e-9 9.383562647874953e-9
          9.118907913171739e-9 9.48983683959298e-9 1.0110592557032796e-8 9.407831876523805e-9 9.733338131960317e-9 9.882087671944926e-9
          1.0235117520891291e-8 1.0349987832308116e-8 1.1312902111799967e-8 1.0611203581747615e-8 1.1130536593331113e-8 1.0553268710808527e-8
          1.1694396263316468e-8 1.1620746009376807e-8 7.041209344327179e-9 7.36552934503147e-9 7.030509829369305e-9 7.403725503272366e-9
          7.68984934573576e-9 8.159008797754334e-9 3.779706732078847e-9 4.38603715837471e-9 4.214136309475939e-9 5.299900441303784e-9
          7.071888235702766e-9 7.443733127072434e-9 7.186981820724864e-9 7.54839498446404e-9 8.396028333640602e-9 8.535194081663402e-9
          3.6490811616881e-9 4.143654349481102e-9 4.2128119362914466e-9 5.728277358303264e-9 8.980115922118655e-9 9.037087805325162e-9
          6.70311458221186e-9 7.395503009246436e-9 7.491263009853511e-9 9.172984782546002e-9 9.550588829876077e-9 9.369490916252903e-9
          9.940597644628565e-9 7.719429171836901e-9 7.75809841951786e-9 8.620531164341376e-9 1.4407007573900777e-9 1.8431336157562632e-9
          1.5758632200345446e-9 1.8843396008704426e-9 3.5229036602406708e-9 3.34322171621542e-9 8.470296151124769e-10 1.173257064650051e-9
          1.3574103365546503e-9 2.5925000261676005e-9 1.8435919514794117e-9 2.109853467564819e-9 2.1559015698967213e-9 2.426720695360771e-9
          3.2968870955158585e-9 3.411918466887272e-9 1.4212251112796629e-9 1.6664362739141823e-9 2.0016268150832804e-9 2.5457134938314377e-9
          6.0801091666247104e-9 5.980330258004012e-9 7.359977486890529e-9 7.467033065283523e-9 5.4571037510375604e-9 5.2880679676711555e-9
          7.228691963927544e-9 5.87352308122759e-9 5.830694195243445e-9 7.529386955073687e-9 7.535091277537168e-9 5.164320544280398e-9
          5.135776654170525e-9 7.148861537446622e-9 7.363696379249284e-9 7.728493605657029e-9 7.608109453004057e-9 7.970855169641721e-9
          8.767063460295242e-9 9.051973016064223e-9 4.013192538399967e-9 4.40790920384707e-9 5.691511768408259e-9 9.400531169913648e-9
          6.228242998519763e-9 9.929480945667219e-9 1.0337767839862224e-8 1.0418125802808725e-8 1.0905190533875386e-8 7.904410006889242e-9
          8.107675868536008e-9 9.22842234625614e-9 1.0787458026062016e-8 1.1423467063819263e-8 8.374338366456557e-9 1.0294670899465234e-8
          2.504083741523863e-9 2.790297895045094e-9 3.665144310801187e-9 4.03071316793048e-9 1.975837032786043e-9 2.339676921765177e-9
          3.1314041730682233e-9 4.5083547303175784e-9 4.048383691622961e-9 5.8904308569058325e-9 6.022627548845913e-9 7.527085140775614e-9
          8.680319848600722e-9 5.219800009620001e-9 5.374902447013144e-9 6.880308483847868e-9 6.224915197295943e-9 9.343349754088768e-9
          5.581673450486337e-9 8.857787218110544e-9 1.1078464159861571e-8 1.1467221325410833e-8 1.1585805204596202e-8 1.1156071552898467e-8
          1.1280209405453932e-8 1.123367894593536e-8 1.1457007565212938e-8 1.1697720237824217e-8 1.1446793805015044e-8 1.1809635271052231e-8
          2.72902717598547e-7 2.546277774263383e-7 2.7732504740508947e-7 2.9384633701628643e-7 1.943987472140611e-7 2.69714594693342e-7
          2.2415018251444062e-7 2.7237159529286197e-7 2.8893814181466805e-7 1.0744973537850795e-7 1.1056085997375715e-7 1.7111207709731722e-7
          1.6933273678732808e-7 1.0282477418954699e-7 1.7148823725828556e-7 1.963542072420457e-7 1.9184838361620246e-7 1.9970761996662238e-7
          9.637929773740528e-8 1.6977417546329306e-7 8.777997953221972e-8 1.6502351780819384e-7 2.0111530470649504e-7 1.9930657645307027e-7
          7.706075096120258e-8 1.564385949128647e-7 7.98357921097135e-8 1.430016187959179e-7 1.9300256472497736e-7 1.80634542390308e-7
          1.4424345739146704e-7 1.4237651501824196e-7 1.2684421573904115e-7 1.2979599500584894e-7 1.390362245075462e-7 1.2241592298738124e-7
          8.773665295273884e-8 9.247471929290248e-8 8.18354547578504e-8 1.3357784998758162e-7 1.1611634073548471e-7 1.2483045119845578e-7
          1.0717542723046401e-7 7.456928050385238e-8 6.573564002727265e-8 1.1219614473863741e-7 9.522762368185257e-8 9.561189468354313e-8
          8.038348782027357e-8 5.54536848871148e-8 5.272730958285802e-8 3.476048542906156e-8 4.016247998119294e-8 2.9107085383521326e-8
          2.358936942501344e-8 2.0920357631348014e-8 4.515679234755265e-8 5.0079645305075484e-8
        </DataArray>
        <DataArray type="Float64" Name="gradient_matprop_error" format="ascii" RangeMin="0" RangeMax="0">
          0 0 0 0 0 0
          0 0 0 0 0 0
          0 0 0 0 0 0
          0 0 0 0 0 0
          0 0 0 0 0 0
          0 0 0 0 0 0
          0 0 0 0 0 0
          0 0 0 0 0 0
          0 0 0 0 0 0
          0 0 0 0 0 0
          0 0 0 0 0 0
          0 0 0 0 0 0
          0 0 0 0 0 0
          0 0 0 0 0 0
          0 0 0 0 0 0
          0 0 0 0 0 0
          0 0 0 0 0 0
          0 0 0 0 0 0
          0 0 0 0 0 0
          0 0 0 0 0 0
          0 0 0 0 0 0
          0 0 0 0 0 0
          0 0 0 0 0 0
          0 0 0 0 0 0
          0 0 0 0 0 0
          0 0 0 0 0 0
          0 0 0 0 0 0
          0 0 0 0 0 0
          0 0 0 0 0 0
          0 0 0 0 0 0
          0 0 0 0 0 0
          0 0 0 0 0 0
          0 0 0 0 0 0
          0 0 0 0 0 0
          0 0 0 0 0 0
          0 0 0 0 0 0
          0 0 0 0 0 0
          0 0 0 0 0 0
          0 0 0 0 0 0
          0 0 0 0 0 0
          0 0 0 0 0 0
          0 0 0 0 0 0
          0 0 0 0 0 0
          0 0 0 0 0 0
          0 0 0 0 0 0
          0 0 0 0 0 0
          0 0 0 0 0 0
          0 0 0 0 0 0
          0 0 0 0 0 0
          0 0 0 0 0 0
          0 0 0 0 0 0
          0 0 0 0 0 0
          0 0 0 0 0 0
          0 0 0 0 0 0
          0 0 0 0 0 0
          0 0 0 0 0 0
          0 0 0 0 0 0
          0 0 0 0 0 0
          0 0 0 0 0 0
          0 0 0 0 0 0
          0 0 0 0 0 0
          0 0 0 0 0 0
          0 0 0 0 0 0
          0 0 0 0 0 0
          0 0 0 0 0 0
          0 0 0 0 0 0
          0 0 0 0 0 0
          0 0 0 0 0 0
          0 0 0 0 0 0
          0 0 0 0 0 0
          0 0 0 0 0 0
          0 0 0 0 0 0
          0 0 0 0 0 0
          0 0 0 0 0 0
          0 0 0 0 0 0
          0 0 0 0 0 0
          0 0 0 0 0 0
          0 0 0 0 0 0
          0 0 0 0 0 0
          0 0 0 0 0 0
          0 0 0 0 0 0
          0 0 0 0 0 0
          0 0 0 0 0 0
          0 0 0 0 0 0
          0 0 0 0 0 0
          0 0 0 0 0 0
          0 0 0 0 0 0
          0 0 0 0 0 0
          0 0 0 0 0 0
          0 0 0 0 0 0
          0 0 0 0
        </DataArray>
        <DataArray type="Float64" Name="initial_marker" format="ascii" RangeMin="0" RangeMax="2">
          2 1 0.5 2 1 0.5
          1 0.5 2 2 2 1
          1 2 2 1 2 2
          0.5 1.5 1.5 2 2 2
          2 1 1 2 2 1
          2 2 0.5 1.75 2 2
          2 2 2 1 1 2
          2 1 2 0.5 2 2
          2 2 2 2 2 2
          2 2 2 2 2 2
          2 2 2 2 2 2
          2 2 2 2 2 2
          2 2 2 2 2 2
          2 2 2 2 2 2
          2 2 2 2 2 2
          2 2 2 2 2 2
          2 2 2 2 2 2
          2 2 2 2 1 1.5
          1 2 2 2 1 1.5
          1 1.5 0 1 1 2
          2 2 2 2 2 2
          2 2 2 2 2 2
          2 2 2 2 2 2
          2 2 2 2 2 2
          2 2 2 2 2 2
          2 2 2 2 2 2
          2 2 2 2 2 2
          2 2 2 2 2 2
          2 2 2 2 2 2
          2 2 2 2 2 2
          2 2 2 2 1 1.5
          1 1.5 0 1 1 2
          2 2 1 1.5 1 1.5
          0 1 1 2 2 2
          2 2 2 2 2 2
          2 2 2 2 2 2
          2 2 2 2 2 2
          2 2 2 2 2 2
          2 2 2 2 2 2
          2 2 2 2 2 2
          2 2 2 2 2 2
          2 2 2 2 2 2
          2 2 2 2 2 2
          2 2 2 2 2 2
          2 2 2 2 2 2
          2 2 2 2 2 2
          2 2 2 2 2 2
          2 2 2 2 2 2
          2 2 2 2 2 2
          2 2 2 2 2 2
          2 2 2 2 2 2
          2 2 2 2 2 2
          2 2 2 2 2 2
          2 2 2 2 2 2
          2 2 2 2 2 2
          2 2 2 2 2 2
          2 2 2 2 2 2
          2 2 2 2 2 2
          2 2 2 2 2 2
          2 2 2 2 2 2
          2 2 2 2 2 2
          2 2 2 2 2 2
          2 2 2 2 2 2
          2 2 2 2 2 2
          2 2 2 2 2 2
          2 2 2 2 2 2
          2 2 2 2 2 2
          2 2 2 2 2 2
          2 2 2 2 2 2
          2 2 2 2 2 2
          2 2 2 2 2 2
          2 2 2 2 2 2
          2 2 2 2 2 2
          2 2 2 2 2 2
          2 2 2 2 2 2
          2 2 2 2 2 2
          2 2 2 2 2 2
          2 2 2 2 2 2
          2 2 2 2 2 2
          2 2 2 2 2 2
          2 2 2 2 2 2
          1 1 2 2 0.5 1.5
          2 2 2 0 0 0.5
          0.5 0 0.5 1 1 1
          0.25 0.75 0.5 1 1 1
          0.5 1 0.6666666666666666 1 1 1
          0 0 0 0 0 0
          0 0 0 0 0 0
          0 0 0 0 0 0
          0 0 0 0 0 0
          0 0 0 0
        </DataArray>
        <DataArray type="Float64" Name="markers_norefine" format="ascii" RangeMin="0" RangeMax="2">
          2 0 0 0 0 0
          0 0 2 0 0 0
          0 0 0 0 0 0
          0 0 0 0 0 0
          0 0 0 0 0 0
          0 0 0 0 0 2
          0 0 0 0 0 0
          0 0 0 0 0 0
          2 1 0 0 0 0
          0 0 0 0 0 0
          0 0 0 0 0 0
          0 0 0 0 0 0
          0 0.5 0 0 0 0
          0 0 0 0 0 0
          0 0 0 0 0 0
          0 0 0 0 0 0
          0 0 0 0 0 0
          0 0 0 0 0 0
          0 0 0 0 0 0
          0 0 0 0 0 0
          0 0 1 0 1 0.5
          0 0 2 1 1.5 0
          1.5 0.75 2 1.5 0 0
          2 2 2 0 0 0
          0 0 0 0 0 0
          0 0 0 0 0 0
          0 0 0 0 0 0
          0 0 0 0 0 0
          0 0 0 0 0 0
          0 0 0 0 0 0
          1 0.25 0.5 0 0 0
          0 0 0 0 0 0
          0 0 0 0 0 0
          0 0 0 0 0 0
          2 1.75 2 2 0 0.5
          2 2 2 1 2 0.5
          1 2 1 0 0 0
          0 0 0 0 0 0
          0 0 0 0 0 0
          0 0 0 0 0 0
          0 0 0.5 0.25 1 0.75
          0 0.5 1 0.5 1.5 0
          0 0 0 0 0 1
          0.5 1 0 2 1.5 2
          1 0 1.5 1.25 2 1.5
          1 1 2 2 2 2
          2 1.75 2 2 1.5 1.6666666666666667
          2 2 2 2 0.5 0
          1 1 0.5 0 2 2
          1.6666666666666667 1 1 0.75 1 1
          0.5 1 2 1.75 2 1.6666666666666667
          0 0.5 0 1 1 0
          2 2 2 2 1.5 1.75
          2 2 2 2 2 2
          2 2 2 2 2 2
          2 2 0.5 0.75 0 0
          1 1 0 1 1 0
          0 1 1 0 0 0
          0 0 0 0 0 0
          0 0 0 0 1 0.5
          1.5 0 1 0 0 0
          0 0 1 1 1 1
          1 1 2 2 2 2
          1 1 1 1 1 1
          2 2 2 2 0.5 0
          1 1 0 0.5 0.5 0
          0 1.25 1.5 0.5 2 2
          2 2 2 2 2 2
          2 2 2 2 2 2
          2 2 2 2 2 2
          1.25 1.5 0.5 1 1.5 2
          1 1.75 2 1.5 2 2
          2 2 1.5 1.25 2 1.75
          1 1.25 2 2 2 1.5
          2 0.5 0.5 0 0 1.5
          1.5 1 0.75 0.5 1.75 1
          2 2 2 2 2 2
          2 2 2 2 2 2
          1.3333333333333333 2 2 2 2 1.25
          2 1.5 0 0 0 0
          0 0 0.25 0 0.5 0
          0 0 0 0 0 0
          0 0 0 0 0 0
          0 0 0 0 0 0
          0 0 0 0 0 0
          0 0 0 0 0 0
          0 0 0 0 0 0
          0 0 0 0 0 0
          0 0 0 0 0 0
          0 0 0 0 0 0
          0 0 0 0
        </DataArray>
        <DataArray type="Float64" Name="markers_mustrefine" format="ascii" RangeMin="0" RangeMax="2">
          2 1 0.5 2 1 0.5
          1 0.5 2 2 2 1
          1 2 2 1 2 2
          0.5 1.5 1.5 2 2 2
          2 1 1 2 2 1
          2 2 0.5 1.75 2 2
          2 2 2 1 1 2
          2 1 2 0.5 2 2
          2 2 2 2 2 2
          2 2 2 2 2 2
          2 2 2 2 2 2
          2 2 2 2 2 2
          2 2 2 2 2 2
          2 2 2 2 2 2
          2 2 2 2 2 2
          2 2 2 2 2 2
          2 2 2 2 2 2
          2 2 2 2 1 1.5
          1 2 2 2 1 1.5
          1 1.5 0 1 1 2
          2 2 2 2 2 2
          2 2 2 2 2 2
          2 2 2 2 2 2
          2 2 2 2 2 2
          2 2 2 2 2 2
          2 2 2 2 2 2
          2 2 2 2 2 2
          2 2 2 2 2 2
          2 2 2 2 2 2
          2 2 2 2 2 2
          2 2 2 2 1 1.5
          1 1.5 0 1 1 2
          2 2 1 1.5 1 1.5
          0 1 1 2 2 2
          2 2 2 2 2 2
          2 2 2 2 2 2
          2 2 2 2 2 2
          2 2 2 2 2 2
          2 2 2 2 2 2
          2 2 2 2 2 2
          2 2 2 2 2 2
          2 2 2 2 2 2
          2 2 2 2 2 2
          2 2 2 2 2 2
          2 2 2 2 2 2
          2 2 2 2 2 2
          2 2 2 2 2 2
          2 2 2 2 2 2
          2 2 2 2 2 2
          2 2 2 2 2 2
          2 2 2 2 2 2
          2 2 2 2 2 2
          2 2 2 2 2 2
          2 2 2 2 2 2
          2 2 2 2 2 2
          2 2 2 2 2 2
          2 2 2 2 2 2
          2 2 2 2 2 2
          2 2 2 2 2 2
          2 2 2 2 2 2
          2 2 2 2 2 2
          2 2 2 2 2 2
          2 2 2 2 2 2
          2 2 2 2 2 2
          2 2 2 2 2 2
          2 2 2 2 2 2
          2 2 2 2 2 2
          2 2 2 2 2 2
          2 2 2 2 2 2
          2 2 2 2 2 2
          2 2 2 2 2 2
          2 2 2 2 2 2
          2 2 2 2 2 2
          2 2 2 2 2 2
          2 2 2 2 2 2
          2 2 2 2 2 2
          2 2 2 2 2 2
          2 2 2 2 2 2
          2 2 2 2 2 2
          2 2 2 2 2 2
          2 2 2 2 2 2
          1 1 2 2 0.5 1.5
          2 2 2 0 0 0.5
          0.5 0 0.5 1 1 1
          0.25 0.75 0.5 1 1 1
          0.5 1 0.6666666666666666 1 1 1
          0 0 0 0 0 0
          0 0 0 0 0 0
          0 0 0 0 0 0
          0 0 0 0 0 0
          0 0 0 0
        </DataArray>
        <DataArray type="Float64" Name="gradient_marker" format="ascii" RangeMin="0" RangeMax="1">
          0 0.75 1 0.75 1 0.75
          1 0.625 0 1 1 1
          1 0.75 0.875 0.875 0.25 0.5
          1 1 0.875 0.5 0.75 0.25
          1 0.5 0.625 0.5 0.875 0.625
          0.5 1 0.875 0.75 0.75 0
          0.25 0.5 1 1 0.75 0.5
          0.75 0.75 0.75 0.625 0.75 0.75
          0 0.5 1 0 0 0
          0 0 0 0 0 0
          0 0 0 0 0 0
          0 0 0 0 0 0
          0 0 0 0 0 0
          0 0 0.25 0.25 0 0.5
          0.5 0 0.25 0.3333333333333333 0.25 0.375
          0.75 0.5 0.5 0.25 0.75 0.625
          0.75 1 0.875 0 0.375 0.625
          0.5 0.75 0.75 0.875 0 0
          0 0.25 0.5 0 0 0.125
          0 0.25 0 0 0 0.625
          0.75 0.5 0 0.125 0 0.25
          0.25 0.625 0 0 0 0
          0 0.25 0 0.25 0.75 0.75
          0 0 0 0.5 0.25 0.75
          0.25 0.75 0.25 0.75 0.5 1
          1 1 1 1 1 1
          1 1 1 1 1 1
          1 0.5 0.75 0.75 0.5 0.625
          0.5 0.875 1 1 1 1
          1 1 1 0.5 0.75 0.75
          0.5 0.5 0.5 0.75 0 0.25
          0 0.25 0 0 0 0.75
          0.75 0.5 0 0.25 0 0.25
          0 0 0 0.75 0.75 0.5
          0 0.125 0 0 0.625 0.5
          0 0 0 0.5 0 0.375
          0.25 0 0.25 1 1 1
          1 1 1 1 0.875 0.75
          1 1 0.75 0.5 1 0
          0 0 0 0 0 0
          0 0 0 0 0 0
          0 0 0 0 0 0
          0 0 0 0 0 0
          0 0 0 0 0 0
          0 0 0 0 0 0
          0 0 0 0 0 0
          0 0 0 0 0 0
          0 0 0 0 0 0
          0 0 0 0 0 0
          0 0 0 0 0 0
          0 0 0 0 0 0
          0 0 0 0 0 0
          0 0 0 0 0 0
          0 0 0 0 0 0
          0 0 0 0 0 0
          0 0 0 0 0 0
          0 0 0 0 0 0
          0 0 0 0 0 0
          0 0 0 0 0 0
          0 0 0 0 0 0
          0 0 0 0 0 0
          0 0 0 0 0 0
          0 0 0 0 0 0
          0 0 0 0 0 0
          0 0 0 0 0 0
          0 0 0 0 0 0
          0 0 0 0 0 0
          0 0 0 0 0 0
          0 0 0 0 0 0
          0 0 0 0 0 0
          0 0 0 0 0 0
          0 0 0 0 0 0
          0 0 0 0 0 0
          0 0 0 0 0 0
          0 0 0 0 0 0
          0 0 0 0 0 0
          0 0 0 0 0 0
          0 0 0 0 0 0
          0 0 0 0 0 0
          0 0 0 0 0 0
          0 0 0 0 0 0
          1 1 1 1 1 1
          1 1 1 0.75 0.75 1
          1 0.75 1 1 1 1
          0.75 1 0.625 0.875 1 1
          0.375 0.75 0.3333333333333333 0.625 1 0.75
          1 1 0.75 0.875 0.75 0.625
          0.5 0.625 0.5 0.5 0.5 0.5
          0.5 0.5 0.5 0.5 0.5 0.5