<?xml version="1.0"?>
<VTKFile type="UnstructuredGrid" version="0.1" byte_order="LittleEndian" header_type="UInt32" compressor="vtkZLibDataCompressor">
  <UnstructuredGrid>
    <Piece NumberOfPoints="568" NumberOfCells="304">
      <PointData>
        <DataArray type="Int32" Name="libmesh_node_id" format="ascii" RangeMin="262" RangeMax="5337">
          306 307 328 346 348 349
          350 370 388 389 390 391
          392 393 411 412 413 420
          421 422 423 424 425 426
          428 429 430 431 432 433
          434 435 436 437 438 441
          449 450 495 496 497 498
          499 500 501 502 503 504
          505 506 507 508 509 510
          511 512 513 514 515 516
          517 518 519 520 521 522
          523 524 525 526 527 530
          531 538 539 598 599 601
          602 603 604 605 606 607
          608 609 610 611 613 615
          620 623 646 647 648 649
          650 651 652 653 654 655
          656 657 658 659 728 729
          730 731 732 733 734 735
          736 737 738 739 740 741
          742 743 744 745 746 747
          748 749 750 751 752 753
          754 755 756 757 758 759
          760 761 762 763 764 765
          766 767 768 769 770 771
          772 773 774 775 776 777
          778 779 780 781 782 783
          784 785 786 787 788 789
          790 791 792 793 794 795
          796 797 798 799 800 801
          802 817 818 819 820 823
          824 825 827 828 830 1057
          1058 1059 1060 1061 1062 1063
          1064 1065 1066 1067 1068 1069
          1070 1071 1072 1073 1074 1075
          1076 1077 1078 1079 1080 1081
          1082 1083 1084 1085 1086 1087
          1091 1092 1093 1105 1106 1107
          1108 1109 1110 1151 1152 1153
          1154 1155 1156 1157 1158 1159
          1160 1161 1162 1163 1164 1165
          1166 1167 1168 1169 1170 1171
          1172 1173 1174 1175 1176 1177
          1178 1179 1180 1181 1182 1183
          1184 1185 1186 1187 1188 1189
          1190 1191 1192 1193 1194 1195
          1196 1197 1198 1199 1200 1201
          1202 1203 1204 1205 1206 1207
          1208 1212 1213 2038 2039 2040
          2041 2042 2043 2044 2045 2046
          2047 2048 2049 2050 2051 2052
          2053 2054 2055 2056 2057 2058
          2059 2060 2061 2062 2063 2064
          2065 2066 2067 2068 2069 2070
          2071 2072 2073 2074 2075 2076
          2077 2078 2079 2080 2081 2082
          2083 2084 2085 2086 2087 2088
          2089 2090 2091 2094 2095 2096
          2119 2120 2121 2122 2123 2124
          2125 2126 2127 2128 2129 2130
          2131 2132 4822 4823 4826 4827
          4829 4830 4902 4903 4904 4905
          4906 4907 4908 4909 4910 4911
          4912 4913 4914 4915 4916 4917
          4918 4919 4920 4921 4922 4923
          4924 4925 4926 4927 4928 4929
          4930 4931 4932 4933 4934 4935
          4936 4937 4938 4939 4940 4941
          4942 4943 4944 4945 4946 4947
          4948 4949 4950 4951 4952 4953
          4954 4955 4956 4957 4958 4959
          4960 4961 4962 4963 4964 4965
          4966 4967 4968 4969 4970 4971
          4972 4973 4974 4975 4976 4977
          5297 5298 5299 5300 5301 5302
          5303 5304 5305 5316 5317 5318
          5319 5320 5321 5332 5333 5334
          5335 5336 5337 262 264 265
          263 304 305 266 267 308
          309 286 285 327 287 329
          347 369 351 371 427 440
          446 442 447 600 612 614
          618 619 452 622 625 535
          660 661 536 662 663 541
          670 671 821 822 826 829
          1026 1027 1028 1029 439 1088
          1089 1090 1094 1097 1098 528
          529 1103 668 1209 1210 1211
          1214 1025 1035 2092 2093 2097
          4824 4825 4828 4831 4894 4897
          4896 4898 5014 5015 4893 5052
          5053 5054 5055 4901 5056 5057
          5287 5288 5289 5292 4895 5295
          5308 5309 5311 4899 5314 4900
          5324 5325 5328 5330
        </DataArray>
        <DataArray type="Float64" Name="bounds" format="ascii" RangeMin="0" RangeMax="0">
          0 0 0 0 0 0
          0 0 0 0 0 0
          0 0 0 0 0 0
          0 0 0 0 0 0
          0 0 0 0 0 0
          0 0 0 0 0 0
          0 0 0 0 0 0
          0 0 0 0 0 0
          0 0 0 0 0 0
          0 0 0 0 0 0
          0 0 0 0 0 0
          0 0 0 0 0 0
          0 0 0 0 0 0
          0 0 0 0 0 0
          0 0 0 0 0 0
          0 0 0 0 0 0
          0 0 0 0 0 0
          0 0 0 0 0 0
          0 0 0 0 0 0
          0 0 0 0 0 0
          0 0 0 0 0 0
          0 0 0 0 0 0
          0 0 0 0 0 0
          0 0 0 0 0 0
          0 0 0 0 0 0
          0 0 0 0 0 0
          0 0 0 0 0 0
          0 0 0 0 0 0
          0 0 0 0 0 0
          0 0 0 0 0 0
          0 0 0 0 0 0
          0 0 0 0 0 0
          0 0 0 0 0 0
          0 0 0 0 0 0
          0 0 0 0 0 0
          0 0 0 0 0 0
          0 0 0 0 0 0
          0 0 0 0 0 0
          0 0 0 0 0 0
          0 0 0 0 0 0
          0 0 0 0 0 0
          0 0 0 0 0 0
          0 0 0 0 0 0
          0 0 0 0 0 0
          0 0 0 0 0 0
          0 0 0 0 0 0
          0 0 0 0 0 0
          0 0 0 0 0 0
          0 0 0 0 0 0
          0 0 0 0 0 0
          0 0 0 0 0 0
          0 0 0 0 0 0
          0 0 0 0 0 0
          0 0 0 0 0 0
          0 0 0 0 0 0
          0 0 0 0 0 0
          0 0 0 0 0 0
          0 0 0 0 0 0
          0 0 0 0 0 0
          0 0 0 0 0 0
          0 0 0 0 0 0
          0 0 0 0 0 0
          0 0 0 0 0 0
          0 0 0 0 0 0
          0 0 0 0 0 0
          0 0 0 0 0 0
          0 0 0 0 0 0
          0 0 0 0 0 0
          0 0 0 0 0 0
          0 0 0 0 0 0
          0 0 0 0 0 0
          0 0 0 0 0 0
          0 0 0 0 0 0
          0 0 0 0 0 0
          0 0 0 0 0 0
          0 0 0 0 0 0
          0 0 0 0 0 0
          0 0 0 0 0 0
          0 0 0 0 0 0
          0 0 0 0 0 0
          0 0 0 0 0 0
          0 0 0 0 0 0
          0 0 0 0 0 0
          0 0 0 0 0 0
          0 0 0 0 0 0
          0 0 0 0 0 0
          0 0 0 0 0 0
          0 0 0 0 0 0
          0 0 0 0 0 0
          0 0 0 0 0 0
          0 0 0 0 0 0
          0 0 0 0 0 0
          0 0 0 0 0 0
          0 0 0 0 0 0
          0 0 0 0
        </DataArray>
        <DataArray type="Float64" Name="gradient_error" format="ascii" RangeMin="4.959447414652701e-10" RangeMax="9.660860906823489e-7">
          1.330553123604687e-8 5.014859913019215e-9 5.229154943939191e-9 9.387875527045688e-8 4.4265519700561955e-7 6.290702319056408e-8
          2.2303406137409763e-8 5.646703093919222e-9 5.02918055884737e-7 8.731606881600726e-8 7.613860484732549e-7 4.1090496813433104e-7
          1.04994546013121e-7 3.664378178838629e-8 1.3293844674839313e-8 2.5657004898810864e-8 1.1339719492344525e-8 2.2995528525245084e-7
          1.4931728310661949e-7 2.77591734542201e-7 8.038569571889629e-7 4.564999427942734e-7 4.407862357381259e-7 5.548679230775205e-7
          1.132810872582929e-7 1.9760272011188812e-7 5.436385713113485e-8 2.2348536449195074e-7 2.4828242510370855e-7 3.4904348892517245e-8
          7.641001748632128e-8 6.38072897524595e-7 8.07180049533088e-7 1.9616446730512687e-7 3.9096099582415206e-7 7.904921366159746e-8
          1.653865236188992e-7 1.5992283637806925e-7 1.168531653570808e-7 2.169879635540671e-7 3.985986530469453e-7 3.323597701104791e-7
          1.5771838050040577e-7 2.544123777819264e-7 4.528515443867324e-7 2.0744442101720917e-7 1.7891327351025947e-7 2.616834163897723e-7
          2.567613171212339e-7 2.6718884911021106e-7 4.442959708160617e-7 2.6116364558087617e-7 8.844489113871559e-8 1.5762938560544839e-7
          3.544490044836299e-7 1.7976027858909203e-7 1.9135914843823359e-7 9.793347323305932e-8 1.8969103351863434e-7 2.0457544897615486e-7
          2.69790868200893e-7 1.1466164015879433e-7 2.3581822016148956e-7 2.2872444648770556e-7 2.2027906684931442e-7 2.4182447461718575e-7
          1.6291939263914327e-7 1.287653480005635e-7 2.0775793464187937e-7 2.433271989122915e-7 1.815447933364176e-7 2.72902717598547e-7
          1.943987472140611e-7 2.2415018251444062e-7 2.8893814181466805e-7 2.9947373683101187e-7 2.1574695022720164e-7 4.207200498854129e-7
          6.256609148163761e-7 3.6687086352862856e-7 2.915945117734598e-7 1.0161603512229018e-7 1.1083163769888873e-7 1.114448923265773e-7
          6.095751631157575e-7 5.193517819928667e-7 4.78628860583916e-7 1.1867846892661994e-7 4.110220864028614e-9 1.8421059197680006e-8
          6.259619336747019e-9 3.2731897531331395e-8 8.85063441518802e-7 7.435705298419327e-7 7.162842792078694e-7 8.028405497239438e-7
          6.747570754430166e-7 7.285446276096912e-7 7.741782627465859e-7 6.020776181650636e-7 7.840818544237063e-7 5.619472233344826e-7
          4.5358133899884036e-7 7.144855077842937e-7 8.320722462853027e-7 9.660860906823489e-7 1.478490336523182e-7 1.438944048026823e-7
          1.39195086484009e-7 1.1124082110625291e-7 1.1724493784968048e-7 1.3449024634797606e-7 1.2675045280805299e-7 1.5417219119181132e-7
          1.2484648619640266e-7 1.434356513998259e-7 1.3744967650432566e-7 1.473262352148697e-7 1.4064877676381753e-7 1.5727199665723504e-7
          8.127698110423498e-8 1.1300575857877898e-7 1.0740148898596076e-7 1.203520232045749e-7 1.4904944480668712e-7 1.6788672707042048e-7
          1.6370294392593393e-7 1.346483815836174e-7 1.5440001889635294e-7 1.7354781748575453e-7 1.4619605903252593e-7 1.6679467521928637e-7
          1.558556594082245e-7 1.673273625266443e-7 1.7799170406142684e-7 9.601903529686059e-8 1.2980824773331808e-7 1.4103783663963125e-7
          1.6803747059819864e-7 1.9108871939611335e-7 1.8438639101989152e-7 1.596354219328463e-7 1.8104142682653048e-7 1.9633345519846985e-7
          1.7540417162612383e-7 1.9750568134143446e-7 1.7224100186682966e-7 1.898775799088405e-7 2.0311516140691273e-7 1.1573969000087664e-7
          1.541767110481159e-7 1.6967203030961253e-7 1.9293715398856906e-7 2.1947855770487155e-7 2.0946234847326938e-7 1.941038458510265e-7
          2.1661730999470837e-7 2.2360263229708363e-7 2.1677495891922317e-7 2.3845072256536674e-7 1.914902263327551e-7 2.1782897657215845e-7
          2.3366211837300297e-7 1.4492931523949398e-7 1.8816350399004982e-7 2.1081387666244207e-7 2.2443682511876404e-7 2.5357678273965087e-7
          2.3864528119544043e-7 2.446726214392759e-7 2.6379052365351096e-7 2.546277774263383e-7 2.7732504740508947e-7 2.9384633701628643e-7
          1.854323115945563e-7 2.50671334605781e-7 2.69714594693342e-7 1.920812818207241e-7 2.390013578397678e-7 2.7237159529286197e-7
          2.647339884284493e-7 1.1159849634997955e-7 1.218646342810059e-7 1.6635257903869462e-7 1.6236286875150175e-7 7.604614916207646e-8
          1.142709147335733e-7 1.1752798696850776e-7 1.8653771034809738e-7 1.8067046425059145e-7 1.2952887769810775e-7 7.722463141495683e-9
          1.0014659174705576e-8 4.337951441998482e-8 4.649898357844653e-8 2.119213113667555e-9 1.4963627660382128e-8 1.4016296432544984e-8
          7.903656569847395e-8 8.29833079821875e-8 2.7808042207096697e-8 8.286065181974326e-8 9.249506732313649e-8 1.2461590053925724e-7
          1.3507269126589222e-7 6.471939334578625e-8 1.0354480224587254e-7 3.69017456951913e-8 5.5194618924440565e-8 8.468262983662982e-8
          1.633947187200199e-8 1.6637114925877122e-7 1.7765031520864794e-7 1.423702111459588e-7 7.348749215368984e-8 8.034579326333553e-9
          6.367011820232442e-9 9.131682949201595e-9 6.986881103754197e-8 5.577099062267323e-8 3.7602125428008394e-8 5.065169337708242e-8
          4.699444314131331e-9 1.943326023334356e-8 3.1434575716622865e-8 4.8885555832594303e-8 8.428457608925563e-8 5.772430382739917e-9
          6.260473662425092e-9 1.1968359634591697e-7 6.748516942110269e-9 1.2753598830667717e-7 1.2418049986769158e-7 1.3796115418689973e-7
          1.3370602654711508e-7 1.3113349074528536e-7 1.4286460293185095e-7 1.0654331995157573e-7 1.154192395295993e-7 1.1489287638300924e-7
          1.1713908914689508e-7 1.483863200671223e-7 1.4323155322653858e-7 1.5459571511841657e-7 1.2429515910762288e-7 9.467015609526156e-8
          9.159825035774727e-8 9.29736864568839e-8 1.3328510526923234e-7 1.3665822051133614e-7 1.2623244489629258e-7 1.2375890381472574e-7
          8.938887871856784e-8 1.3973372362386563e-7 1.2835822837112555e-7 8.852634462023299e-8 1.15806669281249e-7 1.1423270236021915e-7
          1.1698273311838547e-7 8.900552022037877e-8 8.609639069256126e-8 1.4234212958378144e-7 1.2997498581986653e-7 8.097353543342671e-8
          1.4410028873738195e-7 1.310456157796513e-7 8.318726116474376e-8 1.176078420559516e-7 1.0390541774907934e-7 1.347261815418254e-7
          1.4790122841604517e-7 1.3815910258634772e-7 1.5293156819022603e-7 1.0809748277050122e-7 1.184947287346241e-7 1.192400046233717e-7
          1.6107627529026495e-7 1.6770403379410434e-7 1.2889197469874696e-7 1.412608345400328e-7 1.577956543139748e-7 1.0694326856513469e-7
          1.1906412962202287e-7 1.7433047408791675e-7 1.3118499067891108e-7 7.960820556914408e-8 7.365693335772714e-8 1.4474890499530905e-7
          1.3118390314067694e-7 5.729971078604173e-8 9.577782659602082e-8 1.7036256066419113e-8 1.0231226744753666e-8 1.275811290484764e-8
          7.157730493337071e-8 5.308443915827408e-8 3.2571410113132334e-8 4.4035669331238026e-8 3.4261974230882194e-9 1.2058381067990604e-8
          1.649403372910535e-8 3.401273209681128e-8 2.8040512096826327e-8 4.4443560997768154e-8 9.171341693301523e-8 8.428071235394479e-8
          6.44338350862112e-8 7.150836858690053e-8 2.2068292096841373e-8 4.4586957818477624e-8 5.130332024078583e-8 1.0678860066283155e-7
          1.0127148874477466e-7 1.0552099349879018e-7 1.2390872802732692e-7 1.24636886686171e-7 1.1654278211648305e-7 1.1545370984526336e-7
          9.554820314443346e-8 1.2667315892490257e-7 1.1868665296648956e-7 9.575437682671777e-8 1.084486775467951e-7 1.0699869166319981e-7
          1.107001470080766e-7 9.703845764823626e-8 9.379089276878111e-8 1.297670919593515e-7 1.211024952806306e-7 9.054332788932596e-8
          1.1243789860190973e-7 1.1999950529937916e-7 1.1738367054455124e-7 1.30238471475249e-7 1.2861664412360646e-7 1.0752953299187412e-7
          1.1756002736703033e-7 1.1980712697546656e-7 1.4047743765111888e-7 1.398496177026617e-7 1.2759052174218652e-7 3.528626366477404e-8
          4.1937291797344556e-8 5.615790431772063e-8 5.971032406776905e-8 2.367876690377482e-8 3.8379056729444426e-8 4.368628053214135e-8
          1.313814312377659e-7 1.2919172335849262e-7 1.1772147141456393e-7 1.1035145034085384e-7 1.0936768372637046e-7 1.1801037037216451e-7
          1.1325356863721247e-7 1.2700201547921933e-7 1.2665305701795854e-7 1.161556869335711e-7 8.735393621497501e-8 1.0682901738583639e-7
          1.0878566585986102e-7 1.2630409855669777e-7 1.7464769313376145e-8 1.0718264766493609e-8 6.770113502121406e-8 4.30448603161544e-8
          3.971760219611071e-9 1.838858561109475e-8 9.524452455946214e-9 7.689760912673485e-9 2.9493717508569307e-8 1.6276634247018455e-8
          1.971090106618986e-9 7.377642440928852e-9 7.801609483836372e-9 4.9462982561192393e-8 2.4863507581363424e-8 1.2784194775238719e-8
          1.134839770174721e-7 9.221890461467701e-8 8.596447253031995e-8 1.5136879192087894e-7 1.4458818988279504e-7 1.2130492472982275e-7
          1.284814400120718e-7 9.615729495381597e-8 1.4099371953465883e-7 1.174739361683704e-7 7.095383221188192e-8 9.802165957685046e-8
          1.055940881032647e-7 9.395415280208198e-8 4.351003007565913e-7 3.8037518145888323e-7 3.719640750136198e-7 4.78838507699976e-7
          2.8370848269652265e-7 5.722363095772207e-7 6.235609569352577e-7 6.169508561916997e-7 5.724336867341125e-7 6.793902792747546e-7
          6.658159160605533e-7 4.3095700610227487e-7 4.179926626589866e-7 4.431038269399978e-7 5.526137151054508e-7 6.235422943106015e-7
          5.719376309348091e-7 6.82769359262605e-7 4.988960316306753e-7 7.980908771408786e-7 6.837598099651539e-7 7.379183278155816e-7
          7.18167827611873e-7 3.6757405890901734e-7 4.537938986928017e-7 6.777457784902845e-7 7.525758452585924e-7 5.40013738476586e-7
          1.4247427799040975e-7 1.4856520990884848e-7 1.8272457314668697e-7 1.8790747553619369e-7 1.3516713978756156e-7 1.760723639143744e-7
          8.512323221360196e-8 1.1387588953696592e-7 1.1246068964541837e-7 1.181786267951053e-7 2.229748683029642e-7 2.272497411635389e-7
          2.1697758804118726e-7 1.426285468603299e-7 1.2663206762328906e-7 1.6791725205167832e-7 1.2205279921204925e-7 1.634525723323548e-7
          8.754476021797266e-8 1.2666403412591808e-7 1.3209542619971862e-7 2.092024364800676e-7 2.0485234545266033e-7 1.6578330803386348e-7
          9.616578961766891e-8 8.261539450192688e-8 1.5724049895002906e-7 1.3465474270107962e-7 6.906499938618486e-8 1.1206898645213021e-7
          4.0676709990984186e-7 3.631332466355746e-7 2.8555064889821055e-7 5.266770053264221e-7 5.328178565425068e-7 4.0476607731818634e-7
          4.581350191155496e-7 5.260633107140969e-7 4.587426680480947e-7 1.5351157210165146e-7 1.917427054217977e-7 8.936998423128586e-8
          1.129119639658142e-7 2.2997383874194396e-7 1.3645394370034253e-7 3.6389088187291585e-9 3.323308699851687e-9 2.1307122572016365e-9
          2.4867152697221257e-9 7.37921423953048e-9 5.120058709636342e-9 2.43846370608147e-9 1.479992784628195e-9 5.570238131294952e-9
          3.0152282710815123e-9 9.381158145515857e-10 1.334521720715093e-9 5.849051473269882e-9 5.215218631749203e-10 3.0697805143199017e-9
          9.140448861849422e-8 5.905586382822616e-9 2.213242581459629e-8 3.2310096282657184e-9 3.011077313814217e-8 9.440361460276398e-9
          1.0723751759030392e-8 9.722361371071567e-8 9.03559818580312e-9 1.2425709234723307e-7 1.6414771626444331e-9 2.3748758372419545e-9
          4.959447414652701e-10 6.980073955407742e-10 6.653605216889236e-9 3.1082745118394757e-9 9.000700496162782e-10 2.805262568913541e-8
          2.7031040073343364e-8 3.635125839631957e-8 8.241203728188506e-8 5.0829073324603074e-8 6.740279015647714e-8 1.33615175953793e-7
          7.462710657586277e-8 9.845432191663472e-8 1.1056085997375715e-7 1.6933273678732808e-7 1.0960391081545557e-7 1.9184838361620246e-7
          2.1240681006065327e-8 3.171173757626123e-9 2.9764139454106507e-9 1.3930702397928771e-8 6.382068048904453e-9 5.4211001912611155e-9
          4.049273205905474e-8 2.6183367226026005e-8 1.1874002392997276e-8 2.5205603785597036e-8 1.731188461880129e-8 5.916478584719416e-8
          3.8639475823420324e-8 9.41816545200554e-9 5.6732724883186106e-9 6.565751389873208e-8 1.4424345739146704e-7 1.2979599500584894e-7
          9.247471929290248e-8 4.58167076223409e-9 6.620723789792219e-9 2.5854660621090343e-8 5.0079645305075484e-8 3.055838464457683e-8
          5.971088780155911e-9 4.6932350136980427e-8 3.2584952522510546e-8 1.8237554908040665e-8 1.2877527574072015e-7 1.3479844788167058e-7
          3.0385085639681746e-7 1.241253344131422e-7 2.7403169455055588e-8 2.2195573954440472e-8 7.0703448838645e-8 6.063236236821555e-9
          1.6341988603397537e-8 3.5240172866666897e-9 1.2619095815680125e-8 8.399832627160032e-8 2.662074096997352e-8 2.1714174344693557e-8
          8.135780242770127e-8 1.62046954103177e-7 1.3978609384920233e-7 1.1752523359522765e-7 3.930187888080208e-7 3.538490282830628e-7
          4.861467320495642e-7 4.97334540069652e-7 3.914218493149793e-7 4.179426506755173e-7 4.851854088438818e-7 4.3938471847276543e-7
          1.5746477354679247e-7 1.9443504049370418e-7 1.1454873044718956e-7 2.314053074406159e-7
        </DataArray>
        <DataArray type="Float64" Name="gradient_matprop_error" format="ascii" RangeMin="0" RangeMax="0">
          0 0 0 0 0 0
          0 0 0 0 0 0
          0 0 0 0 0 0
          0 0 0 0 0 0
          0 0 0 0 0 0
          0 0 0 0 0 0
          0 0 0 0 0 0
          0 0 0 0 0 0
          0 0 0 0 0 0
          0 0 0 0 0 0
          0 0 0 0 0 0
          0 0 0 0 0 0
          0 0 0 0 0 0
          0 0 0 0 0 0
          0 0 0 0 0 0
          0 0 0 0 0 0
          0 0 0 0 0 0
          0 0 0 0 0 0
          0 0 0 0 0 0
          0 0 0 0 0 0
          0 0 0 0 0 0
          0 0 0 0 0 0
          0 0 0 0 0 0
          0 0 0 0 0 0
          0 0 0 0 0 0
          0 0 0 0 0 0
          0 0 0 0 0 0
          0 0 0 0 0 0
          0 0 0 0 0 0
          0 0 0 0 0 0
          0 0 0 0 0 0
          0 0 0 0 0 0
          0 0 0 0 0 0
          0 0 0 0 0 0
          0 0 0 0 0 0
          0 0 0 0 0 0
          0 0 0 0 0 0
          0 0 0 0 0 0
          0 0 0 0 0 0
          0 0 0 0 0 0
          0 0 0 0 0 0
          0 0 0 0 0 0
          0 0 0 0 0 0
          0 0 0 0 0 0
          0 0 0 0 0 0
          0 0 0 0 0 0
          0 0 0 0 0 0
          0 0 0 0 0 0
          0 0 0 0 0 0
          0 0 0 0 0 0
          0 0 0 0 0 0
          0 0 0 0 0 0
          0 0 0 0 0 0
          0 0 0 0 0 0
          0 0 0 0 0 0
          0 0 0 0 0 0
          0 0 0 0 0 0
          0 0 0 0 0 0
          0 0 0 0 0 0
          0 0 0 0 0 0
          0 0 0 0 0 0
          0 0 0 0 0 0
          0 0 0 0 0 0
          0 0 0 0 0 0
          0 0 0 0 0 0
          0 0 0 0 0 0
          0 0 0 0 0 0
          0 0 0 0 0 0
          0 0 0 0 0 0
          0 0 0 0 0 0
          0 0 0 0 0 0
          0 0 0 0 0 0
          0 0 0 0 0 0
          0 0 0 0 0 0
          0 0 0 0 0 0
          0 0 0 0 0 0
          0 0 0 0 0 0
          0 0 0 0 0 0
          0 0 0 0 0 0
          0 0 0 0 0 0
          0 0 0 0 0 0
          0 0 0 0 0 0
          0 0 0 0 0 0
          0 0 0 0 0 0
          0 0 0 0 0 0
          0 0 0 0 0 0
          0 0 0 0 0 0
          0 0 0 0 0 0
          0 0 0 0 0 0
          0 0 0 0 0 0
          0 0 0 0 0 0
          0 0 0 0 0 0
          0 0 0 0 0 0
          0 0 0 0 0 0
          0 0 0 0
        </DataArray>
        <DataArray type="Float64" Name="initial_marker" format="ascii" RangeMin="0" RangeMax="2">
          0 0 0 0 0 0
          0 0 0 0 0 0
          2 0 0 0 0 0
          0 0 0 0 0 0
          0 0 0 0 0 0
          0 0 0 0 0 0
          2 0 0 0 0 0
          0 0 0 0 0.5 0
          0 0 0 0 2 0.5
          0 1 0 0 0 1
          0.5 0 1 0.5 0 0
          0 2 1 1.5 0 1
          0.5 2 2 0 0 0
          0 0 0 0 0 0
          0 0 0 0 0 0
          0 0 0 0 0 0
          0 0 0 0 0 0
          0 0 0 0 0 0
          0 0 0.5 0.25 0 0
          1 0.75 0 0 0 0.25
          1 0.5 0 1.5 0 0
          0 1 1 0.25 1.5 1.25
          0 0.5 0.5 2 2 2
          1 1 0.75 2 1.75 1
          2 2 0.3333333333333333 0.75 1 2
          2 2 1 1 1 2
          2 1 2 2 0.6666666666666666 1
          1.25 2 2 2 1 1
          1 2 2 1 2 2
          0.5 1.5 1.5 2 2 2
          2 0 0 0.5 0.25 0
          0 0 1 0.5 0 0
          0 0 0 0 0 0
          0 0 0 0 0 0
          0 0 0 0 0 0
          0 0 0 0 0 0
          0 0 0 0 0 0
          0 0 0 0 0 0
          0 0 0 0 0 0
          0 0 0 0 0 0
          0 0 0 0 0 0
          0 0 0 0 0 0
          0 0 0 0 0 0
          0 0 0 0 0 0
          0 0 0 0 0 0
          0 0 0 0 0 0
          0 0 0 0 0 0
          0 0 0 0 0 0
          0 0 0 0 0 0
          0 0 0 0 0 0
          0 0 0 0 0 0
          0 0 0 0 0 0
          0 0 0 0 0 0
          0 0 0 0 0 0
          0 0 0 0 0 0
          0 0 0 0 0 0
          0 0 0 0 0 0
          0 0 0 0 0 0
          0 0 0 0 0 0
          0 0 0 0 0 0
          0 0 0 0 0 0
          0 0 0 0 0 0
          0 0 0 0 0 0
          0 0 0 0 0 0
          0 0 0 0 0 0
          0 0 0 0 0 0
          0 0 0 0 0 0
          0 0 0 0 0 0
          0 0 0 0 0 0
          0 0 0 0 0 0
          0 0 0 0 0 0
          0 0 0 0 0 0
          0 0 0 0 0 0
          0 0 0 0 0 0
          0 0 0 0 0 0
          0 0 0 0 0 0
          0 0 0 0 0 0
          0 0 0 0 0 0
          0 0 0 0 0 0
          0 0 0 0 0 0
          0 0 0 0 0 0
          0 0 0 0 0 0
          0 0 0 0 0 0
          0 0 0 0 0 0
          0 0 0 0.5 0 1
          0 0 0 0 0 0
          0 0 0 0 0 0
          0 0 0 0 0 0
          0 0 0 0 0 0
          0 0 0 0 0 0
          0 0 0 0 0 0
          0 0 0 0 0 0
          0 0 0 0 0 0
          0 0 0 0 0 0
          0 0 0 0
        </DataArray>
        <DataArray type="Float64" Name="markers_norefine" format="ascii" RangeMin="0" RangeMax="0">
          0 0 0 0 0 0
          0 0 0 0 0 0
          0 0 0 0 0 0
          0 0 0 0 0 0
          0 0 0 0 0 0
          0 0 0 0 0 0
          0 0 0 0 0 0
          0 0 0 0 0 0
          0 0 0 0 0 0
          0 0 0 0 0 0
          0 0 0 0 0 0
          0 0 0 0 0 0
          0 0 0 0 0 0
          0 0 0 0 0 0
          0 0 0 0 0 0
          0 0 0 0 0 0
          0 0 0 0 0 0
          0 0 0 0 0 0
          0 0 0 0 0 0
          0 0 0 0 0 0
          0 0 0 0 0 0
          0 0 0 0 0 0
          0 0 0 0 0 0
          0 0 0 0 0 0
          0 0 0 0 0 0
          0 0 0 0 0 0
          0 0 0 0 0 0
          0 0 0 0 0 0
          0 0 0 0 0 0
          0 0 0 0 0 0
          0 0 0 0 0 0
          0 0 0 0 0 0
          0 0 0 0 0 0
          0 0 0 0 0 0
          0 0 0 0 0 0
          0 0 0 0 0 0
          0 0 0 0 0 0
          0 0 0 0 0 0
          0 0 0 0 0 0
          0 0 0 0 0 0
          0 0 0 0 0 0
          0 0 0 0 0 0
          0 0 0 0 0 0
          0 0 0 0 0 0
          0 0 0 0 0 0
          0 0 0 0 0 0
          0 0 0 0 0 0
          0 0 0 0 0 0
          0 0 0 0 0 0
          0 0 0 0 0 0
          0 0 0 0 0 0
          0 0 0 0 0 0
          0 0 0 0 0 0
          0 0 0 0 0 0
          0 0 0 0 0 0
          0 0 0 0 0 0
          0 0 0 0 0 0
          0 0 0 0 0 0
          0 0 0 0 0 0
          0 0 0 0 0 0
          0 0 0 0 0 0
          0 0 0 0 0 0
          0 0 0 0 0 0
          0 0 0 0 0 0
          0 0 0 0 0 0
          0 0 0 0 0 0
          0 0 0 0 0 0
          0 0 0 0 0 0
          0 0 0 0 0 0
          0 0 0 0 0 0
          0 0 0 0 0 0
          0 0 0 0 0 0
          0 0 0 0 0 0
          0 0 0 0 0 0
          0 0 0 0 0 0
          0 0 0 0 0 0
          0 0 0 0 0 0
          0 0 0 0 0 0
          0 0 0 0 0 0
          0 0 0 0 0 0
          0 0 0 0 0 0
          0 0 0 0 0 0
          0 0 0 0 0 0
          0 0 0 0 0 0
          0 0 0 0 0 0
          0 0 0 0 0 0
          0 0 0 0 0 0
          0 0 0 0 0 0
          0 0 0 0 0 0
          0 0 0 0 0 0
          0 0 0 0 0 0
          0 0 0 0 0 0
          0 0 0 0 0 0
          0 0 0 0 0 0
          0 0 0 0
        </DataArray>
        <DataArray type="Float64" Name="markers_mustrefine" format="ascii" RangeMin="0" RangeMax="2">
          0 0 0 0 0 0
          0 0 0 0 0 0
          2 0 0 0 0 0
          0 0 0 0 0 0
          0 0 0 0 0 0
          0 0 0 0 0 0
          2 0 0 0 0 0
          0 0 0 0 0.5 0
          0 0 0 0 2 0.5
          0 1 0 0 0 1
          0.5 0 1 0.5 0 0
          0 2 1 1.5 0 1
          0.5 2 2 0 0 0
          0 0 0 0 0 0
          0 0 0 0 0 0
          0 0 0 0 0 0
          0 0 0 0 0 0
          0 0 0 0 0 0
          0 0 0.5 0.25 0 0
          1 0.75 0 0 0 0.25
          1 0.5 0 1.5 0 0
          0 1 1 0.25 1.5 1.25
          0 0.5 0.5 2 2 2
          1 1 0.75 2 1.75 1
          2 2 0.3333333333333333 0.75 1 2
          2 2 1 1 1 2
          2 1 2 2 0.6666666666666666 1
          1.25 2 2 2 1 1
          1 2 2 1 2 2
          0.5 1.5 1.5 2 2 2
          2 0 0 0.5 0.25 0
          0 0 1 0.5 0 0
          0 0 0 0 0 0
          0 0 0 0 0 0
          0 0 0 0 0 0
          0 0 0 0 0 0
          0 0 0 0 0 0
          0 0 0 0 0 0
          0 0 0 0 0 0
          0 0 0 0 0 0
          0 0 0 0 0 0
          0 0 0 0 0 0
          0 0 0 0 0 0
          0 0 0 0 0 0
          0 0 0 0 0 0
          0 0 0 0 0 0
          0 0 0 0 0 0
          0 0 0 0 0 0
          0 0 0 0 0 0
          0 0 0 0 0 0
          0 0 0 0 0 0
          0 0 0 0 0 0
          0 0 0 0 0 0
          0 0 0 0 0 0
          0 0 0 0 0 0
          0 0 0 0 0 0
          0 0 0 0 0 0
          0 0 0 0 0 0
          0 0 0 0 0 0
          0 0 0 0 0 0
          0 0 0 0 0 0
          0 0 0 0 0 0
          0 0 0 0 0 0
          0 0 0 0 0 0
          0 0 0 0 0 0
          0 0 0 0 0 0
          0 0 0 0 0 0
          0 0 0 0 0 0
          0 0 0 0 0 0
          0 0 0 0 0 0
          0 0 0 0 0 0
          0 0 0 0 0 0
          0 0 0 0 0 0
          0 0 0 0 0 0
          0 0 0 0 0 0
          0 0 0 0 0 0
          0 0 0 0 0 0
          0 0 0 0 0 0
          0 0 0 0 0 0
          0 0 0 0 0 0
          0 0 0 0 0 0
          0 0 0 0 0 0
          0 0 0 0 0 0
          0 0 0 0 0 0
          0 0 0 0.5 0 1
          0 0 0 0 0 0
          0 0 0 0 0 0
          0 0 0 0 0 0
          0 0 0 0 0 0
          0 0 0 0 0 0
          0 0 0 0 0 0
          0 0 0 0 0 0
          0 0 0 0 0 0
          0 0 0 0 0 0
          0 0 0 0
        </DataArray>
        <DataArray type="Float64" Name="gradient_marker" format="ascii" RangeMin="0" RangeMax="1">
          1 1 1 1 1 1
          1 1 1 1 1 1
          1 1 1 1 1 1
          1 1 1 1 1 1
          1 1 1 1 1 1
          1 1 1 1 1 1
          1 1 1 1 1 1
          1 1 1 1 1 1
          1 1 1 1 1 1
          1 1 1 1 1 1
          1 0.875 1 1 1 1
          1 1 1 1 1 1
          1 1 1 1 1 1
          1 1 1 1 1 1
          1 1 1 1 1 1
          1 1 1 1 1 1
          1 1 1 1 1 1
          1 1 1 1 1 1
          1 1 1 1 1 1
          1 1 1 1 1 1
          1 1 1 1 1 1
          1 1 1 1 1 1
          1 1 1 1 1 1
          1 1 1 1 1 1
          1 1 1 1 1 1
          1 1 1 1 1 1
          1 1 1 1 1 1
          1 1 1 1 1 1
          1 1 1 1 1 1
          1 1 1 1 1 1
          1 0.875 1 1 1 0.75
          1 1 1 1 1 1
          1 1 1 1 1 1
          1 1 1 1 1 1
          1 1 1 1 1 1
          1 1 1 1 1 1
          1 1 1 1 1 1
          1 1 1 1 1 1
          1 1 1 1 1 1
          1 1 1 1 1 1
          1 1 1 1 1 1
          1 1 1 1 1 1
          1 1 1 1 1 1
          1 1 1 1 1 1
          1 1 1 1 0.8333333333333334 1
          1 1 1 1 1 1
          1 1 1 1 1 1
          1 1 1 1 1 1
          1 0.5 0.75 1 1 1
          1 1 1 1 1 1
          1 1 1 1 1 1
          1 1 1 1 1 1
          1 1 1 1 1 1
          1 1 1 1 1 1
          1 1 1 1 1 1
          1 1 1 1 1 1
          1 1 1 1 1 0
          0 0.375 0.5 0 0.25 0.5
          1 1 1 1 1 1
          1 1 1 1 1 1
          1 1 1 1 1 1
          1 1 1 1 1 1
          1 1 1 1 1 1
          1 1 1 1 1 1