<?xml version="1.0"?>
<VTKFile type="UnstructuredGrid" version="0.1" byte_order="LittleEndian" header_type="UInt32" compressor="vtkZLibDataCompressor">
  <UnstructuredGrid>
    <Piece NumberOfPoints="1308" NumberOfCells="859">
      <PointData>
        <DataArray type="Int32" Name="libmesh_node_id" format="ascii" RangeMin="910" RangeMax="7105">
          910 1088 1089 1095 1414 1415
          1420 1422 1423 1424 1425 1429
          1436 1437 1438 1439 1440 1441
          1442 1443 1444 1445 1456 1457
          1459 1474 1475 1478 1481 1483
          1793 1799 1809 1811 1813 1814
          1815 2644 2646 2647 2648 2649
          2651 2653 2654 2655 2674 2703
          2705 2724 2725 2726 2727 2728
          2729 2730 2731 2732 2733 2734
          2735 2736 2737 2738 2739 2740
          2741 2742 2743 2744 2745 2747
          2748 2749 2751 2752 2753 2754
          2755 2756 2757 2758 2759 2760
          2761 2762 2763 2764 2765 2766
          2767 2768 2769 2770 2771 2772
          2773 2774 2775 2776 2777 2778
          2779 2781 2782 2783 2785 2786
          2787 2788 2789 2790 2791 2792
          2793 2794 2795 2800 2801 2802
          2820 2821 2822 2823 2824 2825
          2826 2827 2828 2829 2840 2841
          2842 2843 2844 2845 2846 2854
          2855 2858 2859 2860 2861 2863
          2874 2875 2876 2877 2878 2879
          2880 3559 3560 3563 3565 3567
          3568 3569 3570 3571 3572 3573
          3574 3575 3576 3577 3578 3579
          3580 3581 3582 3583 3584 3585
          3586 3815 3816 3817 3818 3819
          3820 3821 3822 3823 3824 3825
          3826 3827 3828 3829 3830 3831
          3832 3833 3834 3835 3836 3837
          3838 3839 3840 3841 3842 3843
          3844 3845 3846 3847 3848 3849
          3850 3851 3852 3853 3854 3855
          3856 3857 3858 3859 3860 3861
          3862 3863 3864 3865 3866 3867
          3868 3869 3870 3871 3872 3873
          3874 3875 3876 3877 3878 3879
          3880 3881 3882 3883 3884 3885
          3886 3887 3888 3889 3890 3891
          3892 3893 3894 3895 3896 3897
          3898 3899 3900 3901 3902 3903
          3904 3905 3906 3907 3908 3909
          3910 3911 3912 3913 3914 3915
          3916 3917 3918 3919 3920 3921
          3922 3923 3924 3925 3926 3927
          3928 3929 3930 3931 3932 3933
          3934 3935 3936 3937 3938 3939
          3940 3941 3942 3943 3944 3945
          3946 3947 3948 3949 3950 3951
          3952 3953 3954 3955 3956 3957
          3958 3959 3960 3961 3962 3963
          3964 3965 3966 3967 3968 3969
          3970 3971 3972 3973 3974 3975
          3976 3977 3978 3979 3980 3981
          3982 3983 3984 3985 3986 3987
          3988 3989 3990 3991 3992 3993
          3994 3995 3996 3997 3998 3999
          4000 4001 4002 4003 4004 4005
          4006 4007 4008 4009 4010 4011
          4012 4047 4048 4049 4050 4051
          4052 4053 4054 4055 4056 4057
          4058 4059 4060 4061 4062 4063
          4064 4066 4067 4068 4069 4070
          4071 4072 4073 4074 4075 4076
          4077 4078 4079 4080 4081 4082
          4083 4084 4085 4086 4087 4088
          4089 4090 4091 4092 4095 4097
          4098 4100 4101 4102 4103 4104
          4105 4106 4107 4108 4109 4110
          4111 4112 4113 4114 6168 6170
          6171 6172 6173 6174 6177 6178
          6180 6183 6185 6186 6187 6188
          6189 6190 6191 6192 6193 6194
          6196 6198 6199 6200 6201 6202
          6203 6204 6205 6206 6207 6208
          6209 6210 6211 6212 6213 6214
          6215 6216 6217 6218 6219 6220
          6221 6222 6223 6224 6225 6226
          6227 6228 6229 6230 6231 6232
          6233 6234 6235 6236 6237 6238
          6239 6240 6241 6242 6243 6244
          6245 6246 6247 6248 6249 6250
          6251 6254 6255 6257 6260 6262
          6263 6264 6265 6266 6267 6268
          6269 6270 6271 6273 6275 6277
          6279 6280 6281 6282 6283 6284
          6285 6288 6289 6291 6294 6296
          6297 6298 6299 6300 6301 6302
          6303 6304 6305 6307 6309 6311
          6313 6314 6315 6316 6317 6318
          6319 6320 6321 6322 6323 6324
          6325 6326 6327 6328 6329 6330
          6331 6332 6333 6334 6335 6336
          6337 6338 6339 6340 6341 6342
          6343 6344 6345 6346 6347 6348
          6349 6350 6351 6352 6353 6354
          6355 6356 6357 6358 6359 6360
          6361 6362 6363 6364 6365 6366
          6367 6368 6369 6370 6371 6372
          6373 6374 6375 6376 6377 6378
          6379 6380 6381 6382 6383 6384
          6385 6386 6387 6388 6389 6390
          6391 6392 6393 6394 6395 6396
          6397 6398 6399 6400 6401 6402
          6403 6404 6405 6406 6407 6408
          6409 6410 6411 6412 6413 6414
          6415 6416 6417 6418 6419 6420
          6421 6422 6423 6424 6425 6426
          6427 6428 6429 6430 6431 6432
          6433 6434 6435 6436 6437 6438
          6439 6440 6441 6442 6443 6444
          6445 6446 6447 6448 6449 6450
          6451 6452 6453 6454 6455 6456
          6457 6458 6459 6460 6461 6462
          6463 6464 6465 6466 6467 6468
          6469 6470 6471 6472 6473 6474
          6475 6476 6477 6478 6479 6480
          6481 6482 6483 6484 6485 6486
          6487 6488 6489 6490 6491 6492
          6493 6494 6495 6496 6497 6498
          6499 6500 6501 6502 6503 6504
          6505 6506 6507 6508 6509 6510
          6511 6512 6513 6514 6515 6516
          6517 6518 6519 6520 6521 6522
          6523 6524 6525 6526 6527 6528
          6529 6530 6531 6532 6533 6534
          6535 6536 6537 6538 6539 6540
          6541 6542 6543 6544 6545 6546
          6547 6548 6549 6550 6551 6552
          6553 6554 6555 6556 6557 6558
          6559 6560 6561 6562 6563 6564
          6565 6566 6567 6568 6569 6570
          6571 6572 6573 6574 6575 6576
          6577 6578 6579 6580 6581 6582
          6583 6584 6585 6586 6587 6588
          6589 6590 6591 6592 6593 6594
          6595 6596 6597 6598 6599 6600
          6601 6602 6603 6604 6605 6606
          6607 6608 6609 6610 6611 6612
          6613 6614 6615 6616 6617 6618
          6619 6620 6621 6622 6623 6624
          6625 6626 6627 6628 6629 6630
          6631 6632 6633 6634 6635 6636
          6637 6638 6639 6640 6641 6642
          6643 6644 6645 6646 6647 6648
          6649 6650 6651 6652 6653 6654
          6655 6656 6657 6658 6659 6660
          6661 6662 6663 6664 6665 6666
          6667 6668 6669 6670 6671 6672
          6673 6674 6675 6676 6677 6678
          6679 6680 6681 6682 6683 6684
          6685 6686 6687 6688 6689 6690
          6691 6692 6693 6694 6695 6696
          6697 6698 6699 6700 6701 6702
          6703 6704 6705 6706 6707 6708
          6709 6710 6711 6712 6713 6714
          6715 6716 6717 6718 6719 6720
          6721 6722 6723 6724 6725 6726
          6727 6728 6729 6730 6731 6732
          6733 6734 6735 6736 6766 6767
          6768 6769 6770 6771 6772 6773
          6774 6775 6776 6777 6778 6779
          6780 6781 6782 6783 6784 6785
          6786 6787 6788 6789 6790 6791
          6792 6793 6794 6795 6796 6797
          6798 6799 6800 6801 6802 6803
          6804 6805 6806 6807 6808 6809
          6810 6811 6812 6813 6814 6815
          6816 6817 6818 6819 6820 6821
          6822 6823 6824 6825 6826 6827
          6828 6829 6830 6831 6832 6833
          6834 6835 6836 6837 6838 6839
          6840 6841 6842 6843 6844 6845
          6848 6849 6850 6851 6852 6853
          6854 6855 6856 6857 6858 6859
          6860 6861 6862 6863 6864 6865
          6866 6867 6868 6870 6871 6872
          6873 6874 6875 6876 6877 6878
          6879 6880 6881 6882 6884 6885
          6886 6887 6888 6889 6890 6891
          6892 6893 6894 6895 6896 6897
          6898 6899 6900 6901 6902 6903
          6904 6905 6906 6907 6908 6909
          6910 6911 6913 6914 6915 6916
          6917 6918 6919 6920 6921 6922
          6923 6924 6925 6926 6927 6928
          6929 6930 6931 6932 6933 6934
          6935 6936 6937 6938 6939 6940
          6941 6942 6943 6944 6945 6946
          6947 6948 6949 6950 6951 6952
          6953 6954 6955 6956 6957 6958
          6959 6960 6961 6962 6963 6964
          6965 6966 6967 6968 6969 6970
          6971 6972 6973 6974 6975 6976
          6977 6978 6979 6980 6981 6982
          6983 6984 6985 6986 6987 6988
          6989 6990 6991 6992 6993 6996
          6998 6999 7001 7002 7003 7004
          7005 7006 7007 7008 7009 7011
          7013 7015 7016 7017 7018 7019
          7020 7021 7022 7023 7024 7025
          7026 7027 7030 7032 7033 7035
          7036 7037 7038 7039 7040 7041
          7042 7043 7045 7047 7049 7050
          7051 7052 7053 7054 7055 7056
          7057 7058 7059 7060 7061 7062
          7063 7064 7065 7066 7067 7068
          7069 7070 7071 7072 7073 7074
          7075 7076 7077 7078 7079 7080
          7081 7082 7083 7084 7085 7087
          7089 7091 7092 7093 7094 7095
          7096 7097 7098 7099 7101 7103
          7105 1417 1418 1421 1448 1449
          1454 1795 1800 1810 1812 911
          1817 1823 1836 1838 1840 1842
        </DataArray>
        <DataArray type="Float64" Name="bounds" format="ascii" RangeMin="0" RangeMax="0">
          0 0 0 0 0 0
          0 0 0 0 0 0
          0 0 0 0 0 0
          0 0 0 0 0 0
          0 0 0 0 0 0
          0 0 0 0 0 0
          0 0 0 0 0 0
          0 0 0 0 0 0
          0 0 0 0 0 0
          0 0 0 0 0 0
          0 0 0 0 0 0
          0 0 0 0 0 0
          0 0 0 0 0 0
          0 0 0 0 0 0
          0 0 0 0 0 0
          0 0 0 0 0 0
          0 0 0 0 0 0
          0 0 0 0 0 0
          0 0 0 0 0 0
          0 0 0 0 0 0
          0 0 0 0 0 0
          0 0 0 0 0 0
          0 0 0 0 0 0
          0 0 0 0 0 0
          0 0 0 0 0 0
          0 0 0 0 0 0
          0 0 0 0 0 0
          0 0 0 0 0 0
          0 0 0 0 0 0
          0 0 0 0 0 0
          0 0 0 0 0 0
          0 0 0 0 0 0
          0 0 0 0 0 0
          0 0 0 0 0 0
          0 0 0 0 0 0
          0 0 0 0 0 0
          0 0 0 0 0 0
          0 0 0 0 0 0
          0 0 0 0 0 0
          0 0 0 0 0 0
          0 0 0 0 0 0
          0 0 0 0 0 0
          0 0 0 0 0 0
          0 0 0 0 0 0
          0 0 0 0 0 0
          0 0 0 0 0 0
          0 0 0 0 0 0
          0 0 0 0 0 0
          0 0 0 0 0 0
          0 0 0 0 0 0
          0 0 0 0 0 0
          0 0 0 0 0 0
          0 0 0 0 0 0
          0 0 0 0 0 0
          0 0 0 0 0 0
          0 0 0 0 0 0
          0 0 0 0 0 0
          0 0 0 0 0 0
          0 0 0 0 0 0
          0 0 0 0 0 0
          0 0 0 0 0 0
          0 0 0 0 0 0
          0 0 0 0 0 0
          0 0 0 0 0 0
          0 0 0 0 0 0
          0 0 0 0 0 0
          0 0 0 0 0 0
          0 0 0 0 0 0
          0 0 0 0 0 0
          0 0 0 0 0 0
          0 0 0 0 0 0
          0 0 0 0 0 0
          0 0 0 0 0 0
          0 0 0 0 0 0
          0 0 0 0 0 0
          0 0 0 0 0 0
          0 0 0 0 0 0
          0 0 0 0 0 0
          0 0 0 0 0 0
          0 0 0 0 0 0
          0 0 0 0 0 0
          0 0 0 0 0 0
          0 0 0 0 0 0
          0 0 0 0 0 0
          0 0 0 0 0 0
          0 0 0 0 0 0
          0 0 0 0 0 0
          0 0 0 0 0 0
          0 0 0 0 0 0
          0 0 0 0 0 0
          0 0 0 0 0 0
          0 0 0 0 0 0
          0 0 0 0 0 0
          0 0 0 0 0 0
          0 0 0 0 0 0
          0 0 0 0 0 0
          0 0 0 0 0 0
          0 0 0 0 0 0
          0 0 0 0 0 0
          0 0 0 0 0 0
          0 0 0 0 0 0
          0 0 0 0 0 0
          0 0 0 0 0 0
          0 0 0 0 0 0
          0 0 0 0 0 0
          0 0 0 0 0 0
          0 0 0 0 0 0
          0 0 0 0 0 0
          0 0 0 0 0 0
          0 0 0 0 0 0
          0 0 0 0 0 0
          0 0 0 0 0 0
          0 0 0 0 0 0
          0 0 0 0 0 0
          0 0 0 0 0 0
          0 0 0 0 0 0
          0 0 0 0 0 0
          0 0 0 0 0 0
          0 0 0 0 0 0
          0 0 0 0 0 0
          0 0 0 0 0 0
          0 0 0 0 0 0
          0 0 0 0 0 0
          0 0 0 0 0 0
          0 0 0 0 0 0
          0 0 0 0 0 0
          0 0 0 0 0 0
          0 0 0 0 0 0
          0 0 0 0 0 0
          0 0 0 0 0 0
          0 0 0 0 0 0
          0 0 0 0 0 0
          0 0 0 0 0 0
          0 0 0 0 0 0
          0 0 0 0 0 0
          0 0 0 0 0 0
          0 0 0 0 0 0
          0 0 0 0 0 0
          0 0 0 0 0 0
          0 0 0 0 0 0
          0 0 0 0 0 0
          0 0 0 0 0 0
          0 0 0 0 0 0
          0 0 0 0 0 0
          0 0 0 0 0 0
          0 0 0 0 0 0
          0 0 0 0 0 0
          0 0 0 0 0 0
          0 0 0 0 0 0
          0 0 0 0 0 0
          0 0 0 0 0 0
          0 0 0 0 0 0
          0 0 0 0 0 0
          0 0 0 0 0 0
          0 0 0 0 0 0
          0 0 0 0 0 0
          0 0 0 0 0 0
          0 0 0 0 0 0
          0 0 0 0 0 0
          0 0 0 0 0 0
          0 0 0 0 0 0
          0 0 0 0 0 0
          0 0 0 0 0 0
          0 0 0 0 0 0
          0 0 0 0 0 0
          0 0 0 0 0 0
          0 0 0 0 0 0
          0 0 0 0 0 0
          0 0 0 0 0 0
          0 0 0 0 0 0
          0 0 0 0 0 0
          0 0 0 0 0 0
          0 0 0 0 0 0
          0 0 0 0 0 0
          0 0 0 0 0 0
          0 0 0 0 0 0
          0 0 0 0 0 0
          0 0 0 0 0 0
          0 0 0 0 0 0
          0 0 0 0 0 0
          0 0 0 0 0 0
          0 0 0 0 0 0
          0 0 0 0 0 0
          0 0 0 0 0 0
          0 0 0 0 0 0
          0 0 0 0 0 0
          0 0 0 0 0 0
          0 0 0 0 0 0
          0 0 0 0 0 0
          0 0 0 0 0 0
          0 0 0 0 0 0
          0 0 0 0 0 0
          0 0 0 0 0 0
          0 0 0 0 0 0
          0 0 0 0 0 0
          0 0 0 0 0 0
          0 0 0 0 0 0
          0 0 0 0 0 0
          0 0 0 0 0 0
          0 0 0 0 0 0
          0 0 0 0 0 0
          0 0 0 0 0 0
          0 0 0 0 0 0
          0 0 0 0 0 0
          0 0 0 0 0 0
          0 0 0 0 0 0
          0 0 0 0 0 0
          0 0 0 0 0 0
          0 0 0 0 0 0
          0 0 0 0 0 0
          0 0 0 0 0 0
          0 0 0 0 0 0
          0 0 0 0 0 0
          0 0 0 0 0 0
          0 0 0 0 0 0
          0 0 0 0 0 0
          0 0 0 0 0 0
          0 0 0 0 0 0
        </DataArray>
        <DataArray type="Float64" Name="gradient_error" format="ascii" RangeMin="4.676414482795132e-10" RangeMax="7.838232519157444e-7">
          1.0642515374334113e-9 6.312541203460341e-7 2.4662604509513623e-7 3.8155835795784096e-7 2.548343886087287e-7 2.4762231190715525e-7
          1.4254958291888467e-7 4.6867670969321326e-7 4.0303183781056116e-7 4.6269497488234836e-7 3.0956881170282867e-7 5.901659483948451e-7
          3.6032000888872355e-7 4.850852211066154e-7 2.4104132287566946e-7 5.265730944016005e-7 3.7243411789275887e-7 3.2406163531705063e-7
          4.791502608718e-10 4.460646715953504e-7 5.00642383329905e-7 4.018955047254467e-7 5.937042291950561e-7 4.1366879102530297e-7
          1.8289822136282075e-7 5.92566924015922e-8 5.700421153101456e-7 3.2603177653080823e-7 5.651625432014433e-7 4.5749162668905026e-7
          2.070126596204549e-8 1.5680396283579563e-7 1.76178426494266e-7 3.870590052686487e-8 7.72638815413915e-8 5.764137948674748e-8
          6.524012768560273e-8 3.2644621955533387e-7 4.6958113817567675e-7 4.373643622863286e-7 4.4440623446416113e-7 3.3771694694385164e-7
          2.1717773922356902e-7 2.094000020128864e-7 2.000516138169415e-7 1.4851369653505005e-7 4.7041033827493154e-7 2.0248591490083604e-7
          5.235446843500723e-7 5.238753503286378e-7 5.110940479806326e-7 5.484110041118053e-7 5.325214138915907e-7 4.4408002102149226e-7
          4.5531692742746444e-7 3.4199186871873605e-7 4.1703227129021e-7 3.618762959862164e-7 5.385355906399635e-7 5.717863888658821e-7
          5.534412090338276e-7 4.3579973901199846e-7 4.94035530980003e-7 4.6601557046185383e-7 4.758049830173725e-7 3.797642905185185e-7
          3.812448507114667e-7 3.220218375510202e-7 5.054819300942304e-7 3.1488987271330735e-7 3.133393536160912e-7 2.326766760486298e-7
          4.878330115293108e-7 4.974878322596984e-7 3.1018827131894436e-7 3.051567623647577e-7 2.2344143091595405e-7 2.1177461120701024e-7
          5.062193505074631e-7 5.136138724549863e-7 3.086243517519872e-7 4.539834108739242e-9 1.275337321880962e-7 3.4118294387532144e-9
          3.8481272780533846e-8 4.7365262417871013e-7 4.2277731856166944e-7 4.772056467327248e-10 7.1349058559033734e-9 6.4010745742804975e-9
          4.2198980263905836e-7 2.7300446696350832e-9 3.0668410314575767e-8 2.496023418424505e-9 3.197088203311566e-8 4.457936700819121e-7
          4.7066602601940743e-7 6.941148383291053e-10 5.75755955165969e-9 5.351357238076784e-9 4.722109222334225e-7 6.084450772272298e-7
          6.293430302377154e-7 3.6245614658622835e-7 6.474765806169002e-7 6.732113639646474e-7 6.507477227990381e-7 6.725003181516318e-7
          3.539089359164932e-7 3.411202409831442e-7 7.000332852081523e-7 7.280348023058651e-7 3.940659268534346e-7 4.923472509706176e-7
          4.5172708750494853e-7 4.575564317512296e-7 3.3251194663720883e-7 1.8904603601550047e-7 1.7618512432357038e-7 1.241751027958628e-7
          2.931378676869644e-7 4.319856726688891e-7 3.0157826090658383e-7 4.4640368799663835e-7 4.847774710421124e-7 4.933659658535984e-7
          5.4772115055283004e-8 2.608407305845886e-7 2.647235315306514e-7 5.477641609562011e-7 2.9782885430787513e-7 2.8750009649887247e-7
          1.9731254819247542e-7 1.7991165905454438e-7 5.189773110586966e-7 5.202959789374899e-7 2.788963224887101e-7 2.95995666594589e-9
          2.1421890948400973e-8 4.970198433248277e-7 5.252705309813473e-7 1.3843361102854018e-9 5.536954129959117e-9 5.312861920607173e-7
          6.943543006870064e-7 7.128000705582748e-7 3.2320415990943395e-7 3.745314387024056e-7 7.573656518568692e-7 7.838232519157444e-7
          3.6328883288034677e-7 1.3409695059715655e-7 1.5232336037489447e-7 8.987173990689285e-8 1.705497701526324e-7 1.2047471053466978e-7
          1.3793456371483225e-7 1.0541286144367627e-7 1.21845608144175e-7 8.106516823404883e-8 8.182872232499607e-8 7.667030860212366e-8
          1.5539441689499473e-7 1.3827835484467373e-7 8.25922764159433e-8 8.886729152972953e-8 1.0397798729916787e-7 8.020947676780229e-8
          9.456963158276693e-8 6.879846065641367e-8 7.660640947372936e-8 7.811524665037686e-8 1.1908868306860623e-7 1.0892978639773157e-7
          8.441435829104507e-8 7.24348369977656e-8 7.320771596470859e-8 7.586154467425426e-8 7.398059493165158e-8 7.792341190032606e-8
          7.879272545573387e-8 8.17772958638695e-8 8.369859767074466e-8 8.521184816158624e-8 8.752751264075134e-8 9.143487584637334e-8
          8.731986895115504e-8 8.927284234393703e-8 8.318585054620194e-8 8.449329684594609e-8 8.704929267584235e-8 8.998123898750007e-8
          9.19120522768564e-8 9.06269826750491e-8 8.93419130732418e-8 8.80694214247036e-8 8.978829186697464e-8 9.201638693883282e-8
          9.619443149179564e-8 9.454307965999853e-8 9.768814808682648e-8 9.492442449068713e-8 1.0105827408538335e-7 1.0463973902911473e-7
          1.0123484749642107e-7 4.039682131596825e-8 5.699625134047375e-8 4.187467529890865e-8 5.049105550382076e-8 7.365364459377154e-8
          6.867866290141917e-8 5.174586665629943e-9 2.3198052862721642e-8 1.496485625992351e-8 5.394485969611302e-8 4.3352891283562225e-8
          4.398562894543906e-8 4.4663365252009806e-8 4.5525025902035095e-8 6.6444928041344e-8 6.821278664053054e-8 3.912860143169025e-9
          6.256528576422004e-9 5.771960793260589e-9 4.7277761270927394e-8 8.748263036714995e-8 8.74332489813878e-8 8.40343878787467e-8
          8.727261753395265e-8 8.757600173207012e-8 8.907880200387471e-8 9.216947297078608e-8 9.010753373343388e-8 9.443536873597647e-8
          8.935676341385502e-8 8.24267501533289e-8 9.327826588315052e-8 1.1069779974482405e-9 3.033372476091562e-9 1.022203734238087e-9
          2.7156171020983993e-9 3.4232890308381784e-8 2.614366012261195e-8 4.983402917296811e-10 2.0710421148349956e-9 1.892691255025462e-9
          2.403610279848491e-8 9.640074404531773e-10 2.4563122108287426e-9 9.312730788825095e-10 2.2534488857799968e-9 2.6165710006071967e-8
          1.690504199683165e-8 4.676414482795132e-10 1.7681491152494672e-9 1.6907462407274987e-9 6.7757680042443574e-9 7.482561271078156e-8
          6.844744727182145e-8 8.826106853957535e-8 9.101915941248219e-8 6.563507852817998e-8 5.09232218960821e-8 8.894613534708057e-8
          7.027291431563802e-8 6.304039525901532e-8 9.412936063484078e-8 9.733782924255671e-8 5.250482738227029e-8 5.4149662806881074e-8
          9.459738801909324e-8 4.576729768244655e-8 4.6889916123955455e-8 4.6777229986083444e-8 4.814631551218993e-8 7.04058470129774e-8
          7.266518635346613e-8 3.0315393172182565e-9 5.297627108267695e-9 4.852286987316541e-9 3.002049244671236e-8 4.7802531573483955e-8
          4.943674912083303e-8 4.830757678887594e-8 5.0414225138651465e-8 7.506498967251155e-8 7.754998594468575e-8 2.5332274601227824e-9
          4.4727132838595136e-9 4.209067737147074e-9 3.131909802900279e-8 9.516967688027637e-8 9.829030844094015e-8 9.766705676647528e-8
          1.0092268075640944e-7 7.584597739068266e-8 7.83622105076898e-8 1.0038991872028163e-7 1.0162045523896086e-7 1.051578539728055e-7
          1.0438190580986055e-7 1.0800292839702602e-7 8.102361405520479e-8 8.38659252654614e-8 1.0756654348244017e-7 9.43487395785353e-10
          2.1307115869290992e-9 1.0478660891463624e-9 2.112376743831349e-9 7.30592561127053e-9 6.9776998325604535e-9 5.368929013853459e-10
          1.6710273160034016e-9 1.7531996279408715e-9 6.0586921378425975e-9 1.2836830392661764e-9 2.2413282482574233e-9 1.5717339039549791e-9
          2.526287403769396e-9 6.677122160222722e-9 6.428810677635806e-9 8.951508404883724e-10 1.9917502630031055e-9 2.322344683381303e-9
          5.507334361496935e-9 5.5894835538237626e-8 5.776290060258625e-8 1.0064645584836318e-7 1.040892901099255e-7 5.586729950781775e-8
          5.7669325860023626e-8 1.0092276329842651e-7 5.974251119441554e-8 6.188600461168444e-8 1.0774995541328004e-7 1.1172663694472101e-7
          5.958777880759508e-8 6.165789799804964e-8 1.0789578798497975e-7 9.171816081236002e-8 9.072227620264529e-8 9.355218039317527e-8
          8.972639159293056e-8 9.682120201697015e-8 9.643994150093914e-8 9.953841682206414e-8 9.605868098490813e-8 9.302031477686623e-8
          9.242519243785864e-8 9.58051700614162e-8 9.590458733385675e-8 9.183007009885107e-8 9.60040046062973e-8 7.253177331469646e-8
          8.39878910388007e-8 7.71222768089599e-8 9.994527791650021e-8 9.921806950073775e-8 9.928594131402474e-8 1.0280264241962405e-7
          1.0279234564998905e-7 9.935381312731174e-8 1.0278204888035406e-7 5.6984984711428285e-8 8.001116047690473e-8 7.10845040307959e-8
          1.0780313587768959e-7 1.0840306208550776e-7 1.1236068606374673e-7 1.0789661840895269e-7 1.165727860223929e-7 1.211066080342776e-7
          1.1584670637169003e-7 2.8327031273781585e-8 4.121150388267786e-8 7.864284831201122e-9 3.19372102189023e-8 8.012941734625317e-8
          7.101744587105449e-8 2.6433236925682502e-9 4.081756014821089e-9 4.13902504866641e-9 3.266394364541236e-8 7.35461893800559e-9
          3.2540551323312574e-8 6.913431480422009e-9 2.1162255433097458e-8 6.162062572123802e-8 5.1904724141655135e-8 3.3807527042344893e-9
          4.384602990151504e-9 9.594844990242352e-9 1.0889934289954621e-7 1.0100799105450516e-7 1.1172437900142974e-7 1.1577103008036097e-7
          8.69180005480915e-8 7.839883301547981e-8 1.1579625015841662e-7 9.314079985209734e-8 9.692314126370429e-8 1.2036675213189278e-7
          1.2538825766741484e-7 6.993233070243743e-8 7.309716195011422e-8 1.2551972831080883e-7 1.845428262895544e-9 2.90325851197759e-9
          2.1051898500872483e-9 3.306375823567368e-9 6.279931257378849e-9 6.273618007875495e-9 1.2249785571810324e-9 2.6676489263219033e-9
          3.008691725727967e-9 5.353409768224431e-9 2.361813190879377e-9 3.711123673351887e-9 6.440839693869305e-9 1.5486790819833158e-9
          3.3591113462467114e-9 5.920403574571802e-9 6.419040106998143e-8 6.671208263166198e-8 1.1602260418658897e-7 1.2074048173589548e-7
          6.386458538883615e-8 6.626874297076757e-8 1.160048476502515e-7 6.951693630855541e-8 7.26501580415522e-8 1.2609347329894674e-7
          1.32214461107547e-7 6.893097783180347e-8 7.196005752156598e-8 1.260342878683713e-7 8.300842405378603e-9 8.50189610882951e-9
          8.42538509476536e-9 8.563670902170344e-9 8.348874080701207e-9 9.59617420346229e-9 7.699229875164086e-9 7.860593933012108e-9
          8.021957990860131e-9 5.701234738280712e-9 7.614871174744097e-9 7.825411075959103e-9 7.496819558833753e-9 7.759107581759302e-9
          8.035950977174107e-9 8.420307578018908e-9 4.863324287663075e-9 5.457893051044358e-9 5.183727000309003e-9 6.330752880924195e-9
          7.51243119007816e-9 9.42256849031902e-9 9.627005455951017e-9 7.466136005428332e-9 8.019151038688987e-9 8.044936996935359e-9
          8.745205220907014e-9 8.692269139528474e-9 8.765046660589336e-9 9.07546667971791e-9 8.735278592977979e-9 8.756563662543523e-9
          8.686041362509183e-9 9.240545562617012e-9 9.68928604463728e-9 9.813437410755732e-9 9.866971787988675e-9 9.892812983679453e-9
          9.99478004129724e-9 1.0082383574233951e-8 7.342161292051192e-9 7.646286283428275e-9 7.151852042487966e-9 7.493492304003535e-9
          8.543707146746653e-9 8.445704919750368e-9 4.216117302446747e-9 4.876977212362456e-9 4.570918461971692e-9 6.556717049866016e-9
          6.932484905069596e-9 7.310583067235703e-9 6.702118961541669e-9 7.105914260306635e-9 8.371503094372309e-9 8.27621029862616e-9
          3.6437314580430715e-9 4.291394193361229e-9 4.037713914188079e-9 6.012831811615955e-9 9.445021860482725e-9 9.48769508812464e-9
          9.753040702277506e-9 9.91911290226765e-9 8.266098576902078e-9 8.20217098468248e-9 8.956600176350291e-9 9.529043521997424e-9
          9.57077529063083e-9 1.0003762084652036e-8 1.0098839543080938e-8 8.138630190387907e-9 8.035878973997972e-9 9.190653686223289e-9
          1.071803499294043e-8 2.363605302605711e-9 2.9545599530978912e-9 4.711937389637638e-9 1.563119812820291e-9 2.1742459149511915e-9
          2.751590930674264e-9 2.011035540698206e-9 2.5648128341529706e-9 4.511347416313964e-9 4.29677993109123e-9 1.0606675951299585e-9
          1.4863289230784338e-9 1.4210374101311908e-9 2.867649179056155e-9 6.8771411089699925e-9 7.875922042254778e-9 5.60665979074102e-9
          6.7775184121373004e-9 6.66603001831164e-9 7.86127793804401e-9 7.857090302048555e-9 5.410541870886793e-9 5.215395767480311e-9
          7.768631711202874e-9 6.47302448258675e-10 1.0622242389453016e-9 2.2730762413366978e-9 9.252047425299918e-10 6.291479217147277e-10
          1.029230412311208e-9 6.129858423161897e-10 1.0000174179851461e-9 2.1605909151966596e-9 2.0631278267164277e-9 4.866501484044551e-10
          8.986357948782072e-10 8.746759447441064e-10 1.9739629203461485e-9 4.694281810095945e-9 7.304270087231586e-9 4.417095066571672e-9
          4.464516365205209e-9 4.243995611364729e-9 7.602137498700822e-9 7.397253595914944e-9 4.196849807483101e-9 3.985014554946511e-9
          7.390136870173665e-9 1.8723706980668603e-9 2.395319511393251e-9 1.7593903857724852e-9 2.2462668470130067e-9 4.062549005684047e-9
          3.830630633408176e-9 9.902688893824073e-10 1.3661733633221593e-9 1.3210060102817573e-9 2.5788384593732907e-9 1.6702477699478437e-9
          2.1204275605376812e-9 1.6012500967046728e-9 2.0175840689637992e-9 3.6157111103334017e-9 3.4197148137029626e-9 9.437349863359616e-10
          1.2855352566491894e-9 1.260259038504952e-9 2.3467396872362024e-9 6.545316001912405e-9 6.409151112055934e-9 7.883802317176357e-9
          7.890184265549043e-9 5.026026758101246e-9 4.833808619240283e-9 7.522170859003828e-9 6.242723555836213e-9 6.027157062108021e-9
          7.824632242133142e-9 8.546190041339882e-9 4.641618967209335e-9 4.445172400903854e-9 7.23339783231541e-9 5.997238182686797e-10
          9.74663936684479e-10 5.906312129007096e-10 9.533632338945274e-10 1.9792451856886044e-9 1.9098460092890686e-9 4.705340122081399e-10
          8.539691721143038e-10 8.373491647259022e-10 1.8244249780420838e-9 5.872672651676903e-10 9.373382206522302e-10 5.918512089587087e-10
          9.289731336780217e-10 1.8542835663863307e-9 1.8112356571755572e-9 4.697883986342127e-10 8.262751342868662e-10 8.22955658001668e-10
          1.7233069818627538e-9 4.047122912120377e-9 3.8637482729708626e-9 7.246641389543638e-9 7.087074956625378e-9 3.801384834387085e-9
          3.6357923277016122e-9 6.956783439690769e-9 3.6955621118680237e-9 3.5491939308933048e-9 6.920536717801725e-9 6.74227409194177e-9
          3.481347080529383e-9 3.337369776163415e-9 6.587525540575247e-9 9.533205165780017e-9 9.59403493126219e-9 9.68626969127413e-9
          9.87772599829213e-9 9.511904054665986e-9 9.750112181938059e-9 9.490602943551955e-9 9.545952282756963e-9 9.600191494944775e-9
          9.924793371037068e-9 1.0154660361010364e-8 9.497869634251734e-9 9.514113298615419e-9 9.971860743782007e-9 9.750476727012967e-9
          9.809352940810231e-9 1.0207349746450095e-8 1.059539697049688e-8 1.0849828893040204e-8 9.856116796067537e-9 1.0071299676288015e-8
          1.0446228269006206e-8 9.635298677655915e-9 9.660041332369986e-9 1.0262674084188377e-8 1.0369832533741145e-8 9.520120628298862e-9
          9.510729723929738e-9 1.0317998421926658e-8 9.67548634107634e-9 9.674221728228912e-9 1.0479865513649387e-8 1.060590687840711e-8
          9.494855886085142e-9 9.477873416052467e-9 1.0513502758292565e-8 8.492463913996065e-9 8.587617387667287e-9 8.473714270933992e-9
          9.287348292068876e-9 8.194666844377186e-9 8.351227367162263e-9 8.208638188939328e-9 9.274622688374325e-9 1.0108729843537018e-8
          1.0226218999408627e-8 1.0325533964274797e-8 1.0337254547334066e-8 1.0435074051300669e-8 1.0633051607866825e-8 6.477892222897811e-9
          6.894743589322286e-9 6.259286044625384e-9 6.682761739367024e-9 8.162470180543142e-9 8.033209993707916e-9 3.2103883036859648e-9
          3.806644420163295e-9 3.5969478708006206e-9 5.532712958247103e-9 6.042807209643991e-9 6.472930138560143e-9 5.8239832358865635e-9