<?xml version="1.0"?>
<VTKFile type="UnstructuredGrid" version="0.1" byte_order="LittleEndian" header_type="UInt32" compressor="vtkZLibDataCompressor">
  <UnstructuredGrid>
    <Piece NumberOfPoints="1434" NumberOfCells="848">
      <PointData>
        <DataArray type="Int32" Name="libmesh_node_id" format="ascii" RangeMin="0" RangeMax="14108">
          0 1 2 3 4 5
          6 7 8 9 10 11
          12 13 14 15 16 17
          18 19 20 21 22 23
          24 25 26 27 28 29
          30 31 32 33 34 35
          36 37 38 39 40 41
          42 43 44 45 46 47
          48 49 50 51 52 53
          54 55 56 57 58 59
          60 61 62 63 64 65
          66 67 144 145 146 147
          148 149 150 151 152 153
          154 155 156 157 158 159
          160 161 162 163 164 165
          166 167 168 169 170 171
          172 173 174 175 176 177
          216 217 218 219 220 221
          222 223 224 225 226 227
          228 229 230 231 232 233
          234 235 236 237 238 239
          240 241 242 243 244 245
          246 247 248 249 288 289
          290 291 292 293 294 295
          296 297 298 299 300 301
          302 303 304 305 306 307
          308 309 310 311 312 313
          314 315 316 317 318 319
          320 321 360 361 362 363
          364 365 366 367 368 369
          370 371 372 373 374 375
          376 396 397 398 399 400
          401 402 403 404 405 406
          407 408 409 410 411 412
          432 433 434 435 436 437
          438 439 440 441 442 443
          444 445 446 447 448 449
          450 451 452 453 454 455
          456 457 458 459 460 461
          462 463 464 465 504 505
          506 507 508 509 510 511
          512 513 514 515 516 517
          518 519 520 540 541 542
          543 544 545 546 547 548
          549 550 551 552 553 554
          555 556 576 577 578 579
          580 581 582 583 584 585
          586 587 588 589 590 591
          592 593 594 595 596 597
          598 599 600 601 602 603
          604 605 606 607 608 609
          648 649 650 651 652 653
          654 655 656 657 658 659
          660 661 662 663 664 684
          685 686 687 688 689 690
          691 692 693 694 695 696
          697 698 699 700 720 721
          722 723 724 725 726 727
          728 729 730 731 732 733
          734 735 736 737 738 739
          740 741 742 743 744 745
          746 747 748 749 750 751
          752 753 792 793 794 795
          796 797 798 799 800 801
          802 803 804 805 806 807
          808 828 829 830 831 832
          833 834 835 836 837 838
          839 840 841 842 843 844
          864 865 866 867 868 869
          870 871 872 873 874 875
          876 877 878 879 880 881
          882 883 884 885 886 887
          888 889 890 891 892 893
          894 895 896 897 936 937
          938 939 940 941 942 943
          944 945 946 947 948 949
          950 951 952 972 973 974
          975 976 977 978 979 980
          981 982 983 984 985 986
          987 988 1586 1587 1588 1589
          1590 1591 1592 1593 1594 1595
          1596 1597 1598 1599 13117 13118
          13119 13120 13121 13122 13123 13124
          13125 13126 13127 13128 13129 13130
          13131 13132 13133 13134 13135 13136
          13137 13138 13139 13140 13141 13142
          13143 13144 13145 13146 13147 13148
          13149 13150 13151 13152 13153 13154
          13155 13156 13157 13158 13159 13160
          13161 13162 13163 13164 13165 13166
          13167 13168 13169 13170 13171 13172
          13173 13174 13175 13176 13177 13178
          13179 13180 13181 13182 13183 13184
          13185 13186 13187 13188 13189 13190
          13191 13192 13193 13194 13195 13196
          13197 13198 13199 13200 13201 13202
          13203 13204 13205 13206 13207 13208
          13209 13210 13211 13212 13213 13214
          13215 13216 13217 13218 13219 13222
          13223 13224 13225 13226 13229 13230
          13231 13232 13233 13234 13235 13236
          13237 13238 13239 13240 13241 13242
          13243 13244 13245 13246 13247 13248
          13249 13250 13251 13252 13253 13254
          13255 13256 13257 13258 13259 13260
          13261 13262 13263 13264 13265 13266
          13267 13268 13269 13270 13271 13272
          13273 13274 13275 13276 13277 13278
          13279 13280 13281 13282 13283 13284
          13285 13286 13287 13288 13289 13290
          13291 13292 13293 13294 13295 13296
          13297 13298 13299 13300 13301 13302
          13303 13304 13305 13306 13307 13308
          13309 13310 13311 13312 13313 13314
          13315 13316 13317 13318 13319 13320
          13321 13322 13323 13324 13325 13326
          13327 13328 13329 13330 13331 13332
          13333 13334 13335 13336 13337 13338
          13339 13340 13341 13342 13343 13344
          13345 13346 13347 13348 13349 13350
          13351 13352 13353 13354 13355 13356
          13357 13358 13359 13360 13361 13362
          13363 13364 13365 13366 13367 13368
          13369 13370 13371 13372 13373 13374
          13375 13376 13377 13378 13379 13380
          13381 13382 13383 13384 13385 13386
          13387 13388 13389 13390 13391 13392
          13393 13394 13395 13396 13397 13398
          13399 13400 13401 13402 13403 13404
          13405 13406 13407 13408 13409 13410
          13411 13412 13413 13414 13415 13416
          13417 13418 13419 13420 13421 13422
          13423 13424 13425 13426 13427 13428
          13429 13430 13431 13432 13433 13434
          13435 13436 13437 13438 13439 13440
          13441 13442 13443 13444 13445 13446
          13447 13448 13449 13450 13451 13452
          13453 13454 13455 13456 13457 13458
          13459 13460 13461 13462 13463 13464
          13465 13466 13467 13468 13469 13470
          13471 13472 13473 13474 13475 13476
          13477 13478 13479 13480 13481 13482
          13483 13484 13485 13486 13487 13488
          13489 13490 13491 13492 13493 13494
          13495 13496 13497 13498 13499 13500
          13501 13502 13503 13504 13505 13506
          13507 13508 13509 13510 13511 13512
          13513 13514 13515 13516 13517 13518
          13519 13520 13521 13522 13523 13524
          13525 13526 13527 13528 13529 13530
          13531 13532 13533 13534 13535 13536
          13537 13538 13539 13540 13541 13542
          13543 13544 13545 13546 13547 13548
          13549 13550 13551 13552 13553 13554
          13555 13556 13557 13558 13559 13560
          13561 13562 13563 13564 13565 13566
          13567 13568 13569 13570 13571 13572
          13573 13574 13575 13576 13577 13578
          13579 13580 13581 13582 13583 13584
          13585 13586 13587 13588 13589 13590
          13593 13615 13616 13617 13618 13619
          13620 13621 13622 13623 13624 13625
          13626 13627 13628 13629 13630 13631
          13632 13633 13643 13644 13645 13646
          13647 13648 13649 13650 13651 13652
          13653 13654 13655 13656 13663 13664
          13665 13666 13667 13668 13669 13670
          13671 13672 13673 13674 13675 13676
          13683 13684 13685 13686 13687 13688
          13689 13690 13691 13692 13693 13694
          13695 13696 13697 13698 13699 13700
          13701 13702 13703 13704 13705 13706
          13707 13708 13709 13710 13711 13712
          13713 13714 13715 13716 13717 13718
          13719 13720 13721 13722 13723 13724
          13725 13726 13727 13728 13729 13730
          13731 13732 13733 13734 13735 13736
          13737 13738 13739 13740 13741 13742
          13743 13744 13745 13746 13747 13748
          13749 13750 13751 13752 13753 13754
          13755 13756 13757 13758 13759 13760
          13761 13762 13763 13764 13765 13766
          13767 13768 13769 13770 13771 13772
          13773 13774 13775 13776 13777 13778
          13779 13780 13781 13782 13783 13784
          13785 13786 13787 13788 13789 13790
          13791 13792 13793 13794 13795 13796
          13797 13798 13799 13800 13801 13802
          13803 13804 13805 13806 13807 13808
          13809 13810 13811 13812 13813 13814
          13815 13816 13817 13818 13819 13820
          13821 13822 13823 13824 13825 13826
          13827 13828 13829 13830 13831 13832
          13833 13834 13835 13836 13837 13838
          13839 13840 13841 13842 13843 13844
          13845 13846 13847 13848 13849 13850
          13851 13852 13853 13854 13855 13856
          13857 13858 13859 13860 13861 13862
          13863 13864 13865 13866 13867 13868
          13869 13870 13871 13872 13873 13874
          13875 13876 13877 13878 13879 13880
          13881 13882 13883 13884 13885 13886
          13887 13888 13889 13890 13891 13892
          13893 13894 13895 13896 13897 13898
          13899 13900 13901 13902 13903 13904
          13905 13906 13907 13908 13909 13910
          13911 13912 13913 13914 13915 13916
          13917 13918 13919 13920 13921 13922
          13923 13924 13925 13926 13927 13928
          13929 13930 13931 13932 13933 13934
          13935 13936 13937 13938 13939 13940
          13941 13942 13943 13944 13945 13946
          13947 13948 13949 13950 13951 13952
          13953 13954 13955 13956 13957 13958
          13959 13960 13961 13962 13963 13964
          13965 13966 13967 13968 13969 13970
          13971 13972 13973 13974 13975 13976
          13977 13978 13979 13980 13981 13982
          13983 13984 13985 13986 13987 13988
          13989 13990 13991 13992 13993 13994
          13995 13996 13997 13998 13999 14000
          14001 14002 14003 14004 14005 14006
          14007 14008 14009 14010 14011 14012
          14013 14014 14015 14016 14017 14018
          14019 14020 14021 14022 14023 14024
          14025 14026 14027 14028 14029 14030
          14031 14032 14033 14034 14035 14036
          14037 14038 14039 14040 14041 14042
          14043 14044 14045 14046 14047 14048
          14049 14050 14051 14052 14053 14054
          14055 14056 14057 14058 14059 14060
          14061 14062 14063 14064 14065 14066
          14067 14068 14069 14070 14071 14072
          14073 14074 14075 14076 14077 14078
          14079 14080 14081 14082 14083 14084
          14085 14086 14087 14088 14089 14090
          14091 14092 14093 14094 14095 14096
          14097 14098 14099 14100 14101 14102
          14103 14104 14105 14106 14107 14108
        </DataArray>
        <DataArray type="Float64" Name="bounds" format="ascii" RangeMin="0" RangeMax="0">
          0 0 0 0 0 0
          0 0 0 0 0 0
          0 0 0 0 0 0
          0 0 0 0 0 0
          0 0 0 0 0 0
          0 0 0 0 0 0
          0 0 0 0 0 0
          0 0 0 0 0 0
          0 0 0 0 0 0
          0 0 0 0 0 0
          0 0 0 0 0 0
          0 0 0 0 0 0
          0 0 0 0 0 0
          0 0 0 0 0 0
          0 0 0 0 0 0
          0 0 0 0 0 0
          0 0 0 0 0 0
          0 0 0 0 0 0
          0 0 0 0 0 0
          0 0 0 0 0 0
          0 0 0 0 0 0
          0 0 0 0 0 0
          0 0 0 0 0 0
          0 0 0 0 0 0
          0 0 0 0 0 0
          0 0 0 0 0 0
          0 0 0 0 0 0
          0 0 0 0 0 0
          0 0 0 0 0 0
          0 0 0 0 0 0
          0 0 0 0 0 0
          0 0 0 0 0 0
          0 0 0 0 0 0
          0 0 0 0 0 0
          0 0 0 0 0 0
          0 0 0 0 0 0
          0 0 0 0 0 0
          0 0 0 0 0 0
          0 0 0 0 0 0
          0 0 0 0 0 0
          0 0 0 0 0 0
          0 0 0 0 0 0
          0 0 0 0 0 0
          0 0 0 0 0 0
          0 0 0 0 0 0
          0 0 0 0 0 0
          0 0 0 0 0 0
          0 0 0 0 0 0
          0 0 0 0 0 0
          0 0 0 0 0 0
          0 0 0 0 0 0
          0 0 0 0 0 0
          0 0 0 0 0 0
          0 0 0 0 0 0
          0 0 0 0 0 0
          0 0 0 0 0 0
          0 0 0 0 0 0
          0 0 0 0 0 0
          0 0 0 0 0 0
          0 0 0 0 0 0
          0 0 0 0 0 0
          0 0 0 0 0 0
          0 0 0 0 0 0
          0 0 0 0 0 0
          0 0 0 0 0 0
          0 0 0 0 0 0
          0 0 0 0 0 0
          0 0 0 0 0 0
          0 0 0 0 0 0
          0 0 0 0 0 0
          0 0 0 0 0 0
          0 0 0 0 0 0
          0 0 0 0 0 0
          0 0 0 0 0 0
          0 0 0 0 0 0
          0 0 0 0 0 0
          0 0 0 0 0 0
          0 0 0 0 0 0
          0 0 0 0 0 0
          0 0 0 0 0 0
          0 0 0 0 0 0
          0 0 0 0 0 0
          0 0 0 0 0 0
          0 0 0 0 0 0
          0 0 0 0 0 0
          0 0 0 0 0 0
          0 0 0 0 0 0
          0 0 0 0 0 0
          0 0 0 0 0 0
          0 0 0 0 0 0
          0 0 0 0 0 0
          0 0 0 0 0 0
          0 0 0 0 0 0
          0 0 0 0 0 0
          0 0 0 0 0 0
          0 0 0 0 0 0
          0 0 0 0 0 0
          0 0 0 0 0 0
          0 0 0 0 0 0
          0 0 0 0 0 0
          0 0 0 0 0 0
          0 0 0 0 0 0
          0 0 0 0 0 0
          0 0 0 0 0 0
          0 0 0 0 0 0
          0 0 0 0 0 0
          0 0 0 0 0 0
          0 0 0 0 0 0
          0 0 0 0 0 0
          0 0 0 0 0 0
          0 0 0 0 0 0
          0 0 0 0 0 0
          0 0 0 0 0 0
          0 0 0 0 0 0
          0 0 0 0 0 0
          0 0 0 0 0 0
          0 0 0 0 0 0
          0 0 0 0 0 0
          0 0 0 0 0 0
          0 0 0 0 0 0
          0 0 0 0 0 0
          0 0 0 0 0 0
          0 0 0 0 0 0
          0 0 0 0 0 0
          0 0 0 0 0 0
          0 0 0 0 0 0
          0 0 0 0 0 0
          0 0 0 0 0 0
          0 0 0 0 0 0
          0 0 0 0 0 0
          0 0 0 0 0 0
          0 0 0 0 0 0
          0 0 0 0 0 0
          0 0 0 0 0 0
          0 0 0 0 0 0
          0 0 0 0 0 0
          0 0 0 0 0 0
          0 0 0 0 0 0
          0 0 0 0 0 0
          0 0 0 0 0 0
          0 0 0 0 0 0
          0 0 0 0 0 0
          0 0 0 0 0 0
          0 0 0 0 0 0
          0 0 0 0 0 0
          0 0 0 0 0 0
          0 0 0 0 0 0
          0 0 0 0 0 0
          0 0 0 0 0 0
          0 0 0 0 0 0
          0 0 0 0 0 0
          0 0 0 0 0 0
          0 0 0 0 0 0
          0 0 0 0 0 0
          0 0 0 0 0 0
          0 0 0 0 0 0
          0 0 0 0 0 0
          0 0 0 0 0 0
          0 0 0 0 0 0
          0 0 0 0 0 0
          0 0 0 0 0 0
          0 0 0 0 0 0
          0 0 0 0 0 0
          0 0 0 0 0 0
          0 0 0 0 0 0
          0 0 0 0 0 0
          0 0 0 0 0 0
          0 0 0 0 0 0
          0 0 0 0 0 0
          0 0 0 0 0 0
          0 0 0 0 0 0
          0 0 0 0 0 0
          0 0 0 0 0 0
          0 0 0 0 0 0
          0 0 0 0 0 0
          0 0 0 0 0 0
          0 0 0 0 0 0
          0 0 0 0 0 0
          0 0 0 0 0 0
          0 0 0 0 0 0
          0 0 0 0 0 0
          0 0 0 0 0 0
          0 0 0 0 0 0
          0 0 0 0 0 0
          0 0 0 0 0 0
          0 0 0 0 0 0
          0 0 0 0 0 0
          0 0 0 0 0 0
          0 0 0 0 0 0
          0 0 0 0 0 0
          0 0 0 0 0 0
          0 0 0 0 0 0
          0 0 0 0 0 0
          0 0 0 0 0 0
          0 0 0 0 0 0
          0 0 0 0 0 0
          0 0 0 0 0 0
          0 0 0 0 0 0
          0 0 0 0 0 0
          0 0 0 0 0 0
          0 0 0 0 0 0
          0 0 0 0 0 0
          0 0 0 0 0 0
          0 0 0 0 0 0
          0 0 0 0 0 0
          0 0 0 0 0 0
          0 0 0 0 0 0
          0 0 0 0 0 0
          0 0 0 0 0 0
          0 0 0 0 0 0
          0 0 0 0 0 0
          0 0 0 0 0 0
          0 0 0 0 0 0
          0 0 0 0 0 0
          0 0 0 0 0 0
          0 0 0 0 0 0
          0 0 0 0 0 0
          0 0 0 0 0 0
          0 0 0 0 0 0
          0 0 0 0 0 0
          0 0 0 0 0 0
          0 0 0 0 0 0
          0 0 0 0 0 0
          0 0 0 0 0 0
          0 0 0 0 0 0
          0 0 0 0 0 0
          0 0 0 0 0 0
          0 0 0 0 0 0
          0 0 0 0 0 0
          0 0 0 0 0 0
          0 0 0 0 0 0
          0 0 0 0 0 0
          0 0 0 0 0 0
          0 0 0 0 0 0
          0 0 0 0 0 0
          0 0 0 0 0 0
          0 0 0 0 0 0
          0 0 0 0 0 0
          0 0 0 0 0 0
        </DataArray>
        <DataArray type="Float64" Name="gradient_error" format="ascii" RangeMin="2.0928582615005565e-11" RangeMax="0.000004115178424825064">
          4.570204646415692e-9 4.435139417205091e-9 2.549279336927422e-9 2.64501703019133e-9 1.0383420478310169e-8 9.866253771584454e-9
          5.410485392976745e-9 5.668517214287098e-9 4.060218511177339e-9 2.2883423878377404e-9 8.492497566622116e-9 4.75988382565441e-9
          3.4610235130518132e-9 1.8936320672520408e-9 6.5227336738012025e-9 3.878148044937021e-9 2.580553918482297e-9 1.3869681156928901e-9
          4.274593389330237e-9 2.91924991755801e-9 1.5165755658636826e-9 8.904266141052558e-10 3.4951893237229626e-9 2.767848996790298e-9
          1.54338273243038e-9 1.0332997040826757e-9 6.364271144778047e-9 4.507377609164689e-9 2.835272769896926e-9 1.8207860124248031e-9
          1.0857618255166196e-8 7.03919605733596e-9 3.884023574029255e-9 2.44537700194985e-9 1.3528268106895445e-8 8.538983160028375e-9
          4.5469127253211256e-9 2.8249430817799397e-9 1.4841530978379803e-8 9.220760230597192e-9 5.199126215537572e-9 3.170543659373909e-9
          1.59910619478928e-8 9.745629523815535e-9 5.690841334538199e-9 3.42331921095008e-9 1.6642404468083745e-8 9.991144554484312e-9
          4.802345177458792e-9 2.913187532933677e-9 1.3464597582154425e-8 8.15508934035095e-9 2.2059922682414245e-9 1.4666447776763159e-9
          5.9720621688592725e-9 3.981120969182744e-9 6.610047777513287e-10 5.649170116040118e-10 1.7392608041135265e-9 1.5041544296520503e-9
          5.741938569810806e-10 4.345828737007117e-10 1.5023406484050566e-9 1.1442142274240727e-9 4.287971553949485e-10 2.9087168078506796e-10
          1.1170413240474388e-9 7.611134830026156e-10 4.3357816512855913e-10 4.645734220588852e-10 6.996237399678651e-10 7.026080449549721e-10
          3.5219017962157027e-10 7.248093735563871e-10 2.468366857978945e-10 8.132883368538644e-10 1.7262344896541303e-10 9.700805594684238e-10
          2.0689207963107926e-10 1.2151981812829516e-9 3.4529437114844653e-10 1.5492785771649798e-9 5.010297546022244e-10 1.8730674002497503e-9
          6.103996091589188e-10 2.0607139467097034e-9 6.604118995889871e-10 2.0886610214630646e-9 6.809352315639825e-10 2.0371379447609983e-9
          6.917902600562872e-10 1.9605000150138046e-9 6.144142605205445e-10 1.6791557243814783e-9 4.33307972496754e-10 1.1675038990963473e-9
          2.758478503599374e-10 7.359525305838748e-10 1.7151537503888384e-10 4.5120623387857006e-10 8.693739439509649e-11 2.278318423034085e-10
          2.0373707360736447e-10 2.0931743015080243e-10 4.4453046556669463e-10 4.516021396459167e-10 1.879140947449987e-10 4.2234866242607066e-10
          1.6743275014352045e-10 3.9301425763488737e-10 1.5186458502734303e-10 3.7625467315106486e-10 1.4950649691532956e-10 3.8988769270827115e-10
          1.6737206656192145e-10 4.4807308077862827e-10 1.9576025425176835e-10 5.253609409937784e-10 2.1406878844739228e-10 5.717296802581032e-10
          2.1785036093921977e-10 5.773325601115452e-10 2.199093599177184e-10 5.740787897837304e-10 2.2778343275061313e-10 5.811153891427313e-10
          2.0479863263252645e-10 5.127303502154814e-10 1.3931865788230097e-10 3.448280286864792e-10 8.286645526317988e-11 2.0285700597717532e-10
          4.805885965742488e-11 1.1632466131405097e-10 2.0928582615005565e-11 5.0478042649024634e-11 2.5984440294786042e-8 2.4188120410194144e-8
          1.8394559908206287e-8 1.9078387899439046e-8 2.0093903442707467e-8 1.691379298213096e-8 1.7613105454866653e-8 1.6412678007214113e-8
          2.032034265725175e-8 1.8525617816986383e-8 2.9975620568739863e-8 2.408075819535408e-8 4.729058930168617e-8 3.345646513140604e-8
          6.47660434506731e-8 4.2709962623514655e-8 7.285208067228581e-8 4.673779688176585e-8 7.458066289309591e-8 4.702647064936183e-8
          7.51988655984319e-8 4.648655990858826e-8 7.363567228786967e-8 4.478547752108853e-8 5.72126019530566e-8 3.509963670022553e-8
          2.509671067134376e-8 1.6996094793945712e-8 7.52690097525053e-9 6.5494311299749075e-9 6.433956244832401e-9 4.903648485230304e-9
          4.7656956068309154e-9 3.240920927282164e-9 6.836681720926904e-9 6.606385777508675e-9 7.43335265377549e-9 8.20490864069979e-9
          9.019619412619317e-9 9.851812850439008e-9 1.0743725148507684e-8 1.1447603994486453e-8 1.153847208483958e-8 1.0971495042588798e-8
          1.009893072734972e-8 9.164055865929942e-9 7.526063354228792e-9 5.132270254217741e-9 3.182552061557474e-9 1.9108658670309366e-9
          9.552132102967118e-10 1.0723640356353834e-9 1.0404360509253028e-9 1.133022785996529e-9 1.1975667218380043e-9 1.3083458485176153e-9
          1.5177298789097186e-9 1.865109335889445e-9 2.241326192616689e-9 2.4534310784332456e-9 2.470711679549845e-9 2.423607235954811e-9
          2.3928289775524767e-9 2.065455261063123e-9 1.369061591887812e-9 7.931428384156589e-10 4.483910084336665e-10 1.9428017286001324e-10
          1.3522450659571044e-7 1.3868806966413123e-7 1.3408612670796166e-7 1.3222700444196853e-7 1.4922453541746272e-7 1.396276080428922e-7
          1.6893120912970463e-7 1.4960424107009359e-7 2.0100834455483625e-7 1.653433025387691e-7 2.4698150492072196e-7 1.8756883493517547e-7
          3.080633140242776e-7 2.1705941042910701e-7 3.6139139574888635e-7 2.4174867629565777e-7 3.7520851471380636e-7 2.446432260362622e-7
          3.6228806946856394e-7 2.3218380120496795e-7 3.443027531724218e-7 2.164544707504994e-7 3.1812492360742724e-7 1.9677432790736648e-7
          2.3800469084212228e-7 1.4854413388374914e-7 1.0414283359208876e-7 7.189508448501319e-8 3.267885674615077e-8 2.8528526185937335e-8
          2.7579626369983303e-8 2.0998865112756915e-8 2.03668261250892e-8 1.3796382347035509e-8 6.683555008178482e-8 6.699071670854364e-8
          6.651920278801773e-8 6.640097944642791e-8 6.654731968848057e-8 6.662205980588797e-8 6.657396720173794e-8 6.556004703616611e-8
          6.209809814601475e-8 5.61754634860826e-8 4.931199848984279e-8 4.256703937888081e-8 3.3655434502412516e-8 2.251162051554885e-8
          1.3720940669396313e-8 8.06255867715584e-9 3.982668922070538e-9 4.186916411777556e-9 4.751931128860625e-9 3.0077249077137677e-9
          2.5246858823732425e-9 3.4163788542591122e-9 5.087954662146965e-9 7.092427569539401e-9 9.014137229903017e-9 1.0118258933311407e-8
          1.0271394030793293e-8 1.00178086511086e-8 9.710346550455855e-9 8.227292079449035e-9 5.3759056531600774e-9 3.063685713068728e-9
          1.7070134987811553e-9 7.393992751592572e-10 2.7934761568297405e-7 2.839332488782141e-7 6.754564206437757e-7 6.850900472370436e-7
          2.993199153293651e-7 6.542029559335233e-7 3.253064874337805e-7 6.317634218089137e-7 3.627010868661212e-7 6.122494961414999e-7
          4.1425911753246395e-7 5.975197916089347e-7 4.836620753358993e-7 5.90253642891664e-7 0.0000013109277389515137 9.845047809379372e-7
          0.000002017897814345035 0.0000013220394963309755 0.000001865366108701699 0.000001201507568379159 0.0000016980815945817658 0.0000010721977500837182
          0.000001506405535612898 9.337214251836409e-7 8.19995165745647e-7 5.348727844312431e-7 1.09831891094772e-7 1.448679660194797e-7
          6.10463512827066e-8 7.812200689614504e-8 5.620916593355181e-8 4.872093713127176e-8 4.65542985813587e-8 2.5095958362446935e-8
          5.613381626976679e-7 5.745951118171098e-7 5.295978886412495e-7 4.925611886288011e-7 4.5746293169110664e-7 4.2663716900984667e-7
          3.9889782515039097e-7 3.701115657162183e-7 3.3501793413877895e-7 2.915341343351331e-7 2.451132976535824e-7 2.0115757201549122e-7
          1.5290747696420324e-7 1.0123110514948644e-7 6.11076646514146e-8 3.3918053156400035e-8 1.4580881008946354e-8 4.3684388675857575e-8
          4.882880561323402e-8 3.1519518498509157e-8 1.9073512488110385e-8 1.3385498342055972e-8 1.7763517462239572e-8 2.7798085664408507e-8
          3.7509815790896236e-8 4.3854689960642156e-8 4.541924061364726e-8 4.39126897214945e-8 4.127782927659874e-8 3.429878037654527e-8
          2.3015499551618515e-8 1.3741407197278976e-8 7.551772737021081e-9 2.998821842928613e-9 0.0000016516689434487114 0.000001678691809981892
          0.0000015254392114818858 0.0000015280860259856372 0.0000017271601361795642 0.0000015156575115926697 0.0000017777358321103837 0.0000015003587020154886
          0.0000018291256502582441 0.0000014814521536723933 0.0000018817051539622026 0.0000014587458223846113 0.000001937068001565127 0.0000014321900674905143
          0.0000027399553978046626 0.000001790906091199081 0.0000034961757591559594 0.0000021241833356356454 0.000003438847429257475 0.0000020280474580616664
          0.000003337599301207479 0.000001914614543035454 0.000003260036945508895 0.0000017787046851990682 0.000002777475242524131 0.0000014325420138038325
          5.262811710888886e-7 0.0000011123972030825517 5.015838700617692e-7 0.0000010334603671301829 4.4754285765314e-7 9.496847201109571e-7
          3.8947709422200115e-7 8.557353188739e-7 8.218010228986503e-7 8.474905068953151e-7 7.627702704702169e-7 6.942254354493981e-7
          6.270059664015743e-7 5.645714247451591e-7 5.069927695669952e-7 4.5313135691500774e-7 3.9848211389594634e-7 3.397326691399479e-7
          2.847187540406276e-7 2.3847785243078173e-7 1.8835517118259553e-7 1.325311350462531e-7 8.597397898116546e-8 5.031518474770296e-8
          2.4704739926597073e-8 3.922228613774744e-7 4.149850621216835e-7 3.380000333202228e-7 2.758347951624336e-7 2.1991829269401414e-7
          1.7584129740622732e-7 1.418810811066851e-7 1.169423736154769e-7 9.832237170952402e-8 8.23457112487918e-8 7.71189948759234e-8
          8.211816481802601e-8 8.159235774667352e-8 7.10420528030948e-8 5.6770070307200375e-8 4.070970466439275e-8 2.3450278191109027e-8
          0.0000016040773886615827 0.0000016706724898792621 0.000002165032875043939 0.000002110469167466803 0.0000017967200147033157 0.0000022656775240202313
          0.000001941088858247022 0.000002375514760580277 0.0000021031577957918686 0.0000024923353113553444 0.0000022853468353095267 0.0000026161364833815055
          0.0000024907112866898658 0.000002746835783986857 0.0000027260565155587787 0.000002883955656036896 0.000003015825201363933 0.000003026403667389345
          0.0000018209280631896005 0.000003163647637919864 2.719739296430241e-7 0.0000023234217667061723 3.0993187482287683e-7 0.0000014030268927161779
          3.485501901031092e-7 0.0000013982433260877397 4.066306028731951e-7 0.0000013798765457846084 4.724500493701429e-7 0.0000013411210629845692
          5.527523835606268e-7 0.000001277663288653088 6.490601599794609e-7 0.0000011850951794956416 7.803848336337687e-7 8.066751487193908e-7
          7.237887263357736e-7 6.584098331975299e-7 5.911435714458019e-7 5.233790427002983e-7 4.5725738500214426e-7 3.974461095643129e-7
          3.441884438924484e-7 2.9491094028652325e-7 2.5369525946512094e-7 2.2097300032653427e-7 1.8589085817947497e-7 1.436749116052848e-7
          9.756983573197771e-8 5.239383297001749e-8 3.574940938129827e-8 7.03991374013044e-7 7.404293900219107e-7 6.173672171169689e-7
          5.167953994348431e-7 4.1788229947667415e-7 3.2392627834295127e-7 2.3934940144684845e-7 1.7326569935146973e-7 1.2519440977958888e-7
          9.039112073205985e-8 8.25292613588151e-8 9.725015357419614e-8 1.0773149044482677e-7 1.0461713202498777e-7 9.09212595258401e-8
          6.9017699298409e-8 4.207317840364236e-8 3.6007108975067427e-7 8.618733254699752e-7 8.989364230115824e-7 9.798417026447352e-7
          0.0000010385962014989047 0.0000014032199223677629 0.0000013860921853658237 0.0000010708493443668517 0.0000013186173401152557 0.0000013865706992628685
          7.061203640798098e-7 0.000001184431193863172 0.000001105866991728947 0.0000011265330109721446 3.2377975325748426e-7 3.135797488632014e-7
          3.144895232240217e-7 6.756783037501791e-7 6.73458210614223e-7 6.019308572654572e-7 6.043630690668016e-7 3.115568868124491e-7
          6.678596049991971e-7 5.958125739552354e-7 3.0337974446891853e-7 5.304035039166913e-7 5.330478343834242e-7 5.237655429112733e-7
          0.0000016594490331909124 0.0000015469258010827126 0.0000015410654481124296 0.0000015614341676555037 0.000001385363464979032 3.2462509520964384e-7
          3.0975347307804284e-7 6.607277214523897e-7 5.88142224442047e-7 3.0886352784084427e-7 6.528430709232188e-7 5.797896069976033e-7
          2.9488185094644184e-7 5.155567274317042e-7 5.067361430719876e-7 0.0000017023928411321407 0.0000015797243715048925 0.000001599086257410053
          0.0000014029597617411155 3.319573899948908e-7 3.090623427569602e-7 6.442022116261329e-7 5.70688835048439e-7 3.1056381509788945e-7
          6.348002431138516e-7 5.608340989294946e-7 2.8616729551902977e-7 4.97175458470745e-7 4.868679547451376e-7 0.0000017523394144151882
          0.0000016184797290932993 0.0000016376968579755557 0.0000014241758958100964 3.469866429148248e-7 3.135606217645165e-7 6.246125151787437e-7
          5.501774451740794e-7 3.183150774536166e-7 6.136529141632796e-7 5.386998873371801e-7 2.801346006142083e-7 4.757423751694149e-7
          4.63746860511081e-7 0.0000018033241708282919 0.000001656630787891935 0.0000016752225622622121 0.0000014426969757737389 3.719405515487556e-7
          3.251132059011391e-7 6.019624544986232e-7 5.263946125731592e-7 3.343023084073332e-7 5.89652356831509e-7 5.132898276830759e-7
          2.782858602535226e-7 4.508267706476954e-7 4.369272985346429e-7 0.0000018552083779937838 0.0000016934391356050538 0.0000017112714819653925
          0.0000014571967988951652 4.0975464717816295e-7 3.46262340062218e-7 5.769285156294239e-7 4.994647326334519e-7 3.6144118748054546e-7
          5.641903816785371e-7 4.850966917507579e-7 2.8277003294627296e-7 4.2200094963747996e-7 4.060030018229788e-7 0.000001908850382970948
          0.0000017287705777553842 0.000001746078507487148 0.0000014664980605370109 4.6406339181114914e-7 3.8032349333055103e-7 5.521450734139583e-7
          4.7053672890413167e-7 3.9073532210388037e-7 5.463979576576244e-7 4.6326242970803474e-7 2.965835948499529e-7 3.889283843943051e-7
          3.801269017584452e-7 0.0000019671014647763866 0.0000017635356135474914 0.0000022097323131650253 0.0000014693629588642467 3.757572860207198e-8