<?xml version="1.0"?>
<VTKFile type="UnstructuredGrid" version="0.1" byte_order="LittleEndian" header_type="UInt32" compressor="vtkZLibDataCompressor">
  <UnstructuredGrid>
    <Piece NumberOfPoints="1443" NumberOfCells="867">
      <PointData>
        <DataArray type="Int32" Name="libmesh_node_id" format="ascii" RangeMin="474" RangeMax="6312">
          474 475 476 477 618 619
          620 621 669 670 705 706
          762 763 764 765 813 814
          849 850 906 907 908 909
          957 958 993 994 1058 1059
          1060 1061 1063 1064 1066 1067
          1068 1069 1070 1071 1072 1073
          1074 1075 1076 1077 1078 1079
          1080 1081 1082 1083 1084 1085
          1086 1090 1091 1093 1094 1096
          1157 1158 1159 1162 1163 1164
          1165 1166 1167 1168 1169 1170
          1171 1172 1173 1174 1175 1176
          1180 1181 1320 1321 1322 1324
          1325 1328 1329 1335 1342 1343
          1344 1345 1348 1349 1350 1351
          1352 1353 1354 1355 1356 1357
          1358 1359 1360 1361 1362 1363
          1364 1365 1366 1367 1368 1369
          1370 1371 1372 1373 1374 1375
          1376 1377 1378 1379 1380 1381
          1382 1383 1384 1385 1386 1387
          1388 1389 1390 1391 1392 1393
          1394 1395 1396 1397 1398 1399
          1400 1401 1402 1403 1404 1405
          1406 1407 1408 1409 1410 1411
          1412 1413 1419 1426 1427 1428
          1430 1431 1432 1433 1434 1435
          1615 1616 1617 1620 1621 1622
          1624 1625 1626 1627 1628 1629
          1630 1631 1632 1633 1634 1635
          1638 1639 1641 1643 1734 1735
          1738 1740 1742 1743 1744 1745
          1746 1747 1748 1749 1750 1751
          1752 1753 1754 1755 1756 1757
          1758 1759 1760 1761 1762 1763
          1764 1765 1766 1767 1768 1769
          1770 1771 1772 1773 1774 1775
          1776 1777 1778 1779 1780 1781
          1782 1783 1784 1785 1786 1787
          1788 1789 1790 1791 1792 1796
          1797 1801 1802 1803 1804 1805
          1806 1807 1808 2236 2237 2238
          2241 2244 2316 2332 2333 2335
          2338 2346 2349 2352 2353 2354
          2355 2356 2358 2359 2372 2373
          2375 2378 2382 2383 2386 2388
          2389 2390 2392 2393 2394 2395
          2396 2397 2398 2399 2400 2401
          2402 2403 2404 2405 2406 2407
          2408 2409 2410 2411 2412 2413
          2414 2415 2416 2417 2418 2419
          2420 2421 2422 2423 2424 2425
          2426 2427 2428 2429 2430 2431
          2432 2433 2434 2435 2436 2437
          2438 2439 2440 2441 2442 2443
          2444 2445 2446 2447 2448 2449
          2450 2451 2452 2453 2454 2455
          2456 2457 2458 2459 2460 2461
          2462 2463 2464 2465 2466 2467
          2468 2469 2470 2471 2472 2473
          2474 2475 2476 2477 2478 2479
          2480 2481 2482 2483 2484 2485
          2486 2487 2488 2489 2490 2491
          2492 2493 2494 2495 2496 2497
          2498 2499 2500 2501 2502 2503
          2504 2505 2506 2507 2508 2509
          2510 2511 2512 2513 2514 2515
          2516 2517 2518 2519 2520 2521
          2522 2523 2524 2525 2526 2527
          2528 2529 2530 2531 2532 2533
          2534 2535 2536 2537 2538 2539
          2540 2541 2542 2543 2544 2545
          2546 2547 2548 2549 2550 2551
          2552 2553 2554 2555 2556 2557
          2558 2559 2560 2561 2562 2563
          2564 2565 2566 2567 2568 2569
          2570 2571 2572 2573 2574 2575
          2576 2577 2578 2579 2580 2581
          2582 2583 2584 2585 2586 2587
          2588 2589 2590 2591 2592 2593
          2594 2595 2596 2597 2598 2599
          2600 2601 2602 2603 2604 2605
          2606 2607 2608 2609 2610 2611
          2612 2613 2614 2615 2616 2617
          2618 2619 2620 2621 2622 2623
          2624 2625 2626 2627 2628 2629
          2630 2631 2632 2633 2634 2635
          2636 2637 2638 2639 2640 2641
          2642 2643 2645 2650 2652 2656
          2657 2658 2659 2660 2661 2662
          2663 2664 2665 2666 2667 2668
          2669 2670 2671 2672 2673 2675
          2676 2677 2678 2679 2680 2681
          2682 2683 2684 2685 2686 2687
          2688 2689 2690 2691 2692 2693
          2694 2695 2696 2697 2698 2699
          2700 2701 2702 2704 2706 2707
          2708 2709 2710 2711 2712 2713
          2714 2715 2716 2717 2718 2719
          2720 2721 2722 2723 2746 2750
          2780 2784 3263 3264 3265 3268
          3269 3270 3271 3272 3290 3291
          3292 3296 3297 3298 3299 3300
          3301 3302 3303 3304 3305 3306
          3307 3308 3309 3310 3311 3312
          3313 3314 3315 3316 3317 3318
          3319 3320 3321 3322 3323 3324
          3325 3326 3327 3328 3329 3330
          3334 3335 3533 3534 3535 3536
          3537 3538 3539 3540 3541 3542
          3543 3544 3545 3546 3547 3548
          3549 3550 3551 3552 3553 3554
          3555 3556 3557 3558 3561 3562
          3564 3566 3638 3639 3640 3641
          3642 3643 3644 3645 3646 3647
          3648 3649 3650 3651 3652 3653
          3654 3655 3656 3657 3658 3659
          3660 3661 3662 3663 3664 3665
          3666 3667 3668 3669 3670 3671
          3672 3673 3674 3675 3676 3677
          3678 3679 3680 3681 3682 3683
          3684 3685 3686 3687 3688 3689
          3690 3691 3692 3693 3694 3695
          3696 3697 3698 3699 3700 3701
          3702 3703 3704 3705 3706 3707
          3708 3709 3710 3711 3712 3713
          3714 3715 3716 3717 3718 3719
          3720 3721 3722 3723 3724 3725
          3726 3727 3728 3729 3730 3731
          3732 3733 3734 3735 3736 3737
          3738 3739 3740 3741 3742 3743
          3744 3745 3746 3747 3748 3749
          3750 3751 3752 3753 3754 3755
          3756 3757 3758 3759 3760 3761
          3762 3763 3764 3765 3766 3767
          3768 3769 3770 3771 3772 3773
          3774 3775 3776 3777 3778 3779
          3780 3781 3782 3783 3784 3785
          3786 3787 3788 3789 3790 3791
          3792 3793 3794 3795 3796 3797
          3798 3799 3800 3801 3802 3803
          3804 3805 3806 3807 3808 3809
          3810 3811 3812 3813 3814 5551
          5552 5555 5557 5559 5560 5561
          5562 5563 5564 5565 5566 5567
          5568 5569 5570 5571 5572 5573
          5574 5575 5576 5577 5578 5579
          5580 5581 5582 5583 5584 5585
          5586 5587 5588 5589 5590 5591
          5592 5593 5594 5595 5596 5597
          5598 5599 5600 5601 5602 5603
          5604 5605 5606 5607 5608 5609
          5610 5611 5612 5613 5614 5615
          5616 5617 5618 5619 5620 5621
          5622 5623 5624 5625 5626 5627
          5628 5629 5630 5631 5632 5633
          5634 5635 5636 5637 5638 5639
          5640 5641 5642 5643 5644 5645
          5646 5647 5648 5649 5650 5651
          5652 5838 5839 5840 5841 5842
          5843 5844 5845 5846 5847 5848
          5849 5850 5851 5852 5853 5854
          5855 5856 5857 5858 5859 5860
          5861 5862 5863 5864 5865 5866
          5867 5868 5869 5870 5871 5872
          5873 5874 5875 5876 5877 5878
          5879 5880 5881 5882 5883 5884
          5885 5886 5887 5888 5889 5890
          5891 5892 5893 5894 5895 5896
          5897 5898 5899 5900 5901 5902
          5903 5904 5905 5906 5907 5908
          5909 5910 5911 5912 5913 5914
          5915 5916 5917 5918 5919 5920
          5921 5922 5923 5924 5925 5926
          5927 5928 5929 5930 5931 5932
          5933 5934 5935 5936 5937 5938
          5939 5940 5941 5942 5943 5944
          5945 5946 5947 5948 5949 5950
          5951 5952 5953 5954 5955 5956
          5957 5958 5959 5960 5961 5962
          5963 5964 5965 5966 5967 5968
          5969 5970 5971 5972 5973 5974
          5975 5976 5977 5978 5979 5980
          5981 5982 5983 5984 5985 5986
          5987 5988 5989 5990 5991 5992
          5993 5994 5995 5996 5997 5998
          5999 6000 6001 6002 6003 6004
          6005 6006 6007 6008 6009 6010
          6011 6012 6013 6014 6015 6016
          6017 6018 6019 6020 6021 6022
          6023 6024 6025 6026 6027 6028
          6029 6030 6031 6032 6033 6034
          6035 6036 6037 6038 6039 6040
          6041 6042 6043 6044 6045 6046
          6047 6048 6049 6050 6051 6052
          6053 6054 6055 6056 6057 6058
          6059 6060 6061 6062 6063 6064
          6065 6066 6067 6068 6069 6070
          6071 6072 6073 6074 6075 6076
          6077 6078 6079 6080 6081 6082
          6083 6084 6085 6086 6087 6088
          6089 6090 6091 6092 6093 6094
          6095 6096 6097 6098 6099 6100
          6101 6102 6103 6104 6105 6106
          6107 6108 6109 6110 6111 6112
          6113 6114 6115 6116 6117 6118
          6119 6120 6121 6122 6123 6124
          6125 6126 6127 6128 6129 6130
          6131 6132 6133 6134 6135 6136
          6137 6138 6139 6140 6141 6142
          6143 6144 6145 6146 6147 6148
          6149 6150 6151 6152 6153 6154
          6155 6156 6157 6158 6159 6160
          6161 6162 6163 6164 6165 6166
          6167 6169 6175 6176 6179 6181
          6182 6184 6195 6197 6252 6253
          6256 6258 6259 6261 6272 6274
          6276 6278 6286 6287 6290 6292
          6293 6295 6306 6308 6310 6312
          478 479 622 623 671 767
          815 707 851 959 995 1177
          1178 1179 1182 1087 1414 1415
          766 1416 1417 1418 1420 1421
          1423 1425 1636 1092 1637 1640
          911 1642 1793 1794 1795 1798
          1799 1800 1440 1809 1811 1810
          1812 1813 1815 1422 2644 2674
          1429 2703 2705 2724 2725 2726
          2727 2728 2729 2730 2731 2733
          2744 2651 2745 2747 2748 2749
          2762 2778 2779 2781 2767 2782
          2783 1445 3331 3332 3333 3336
          3559 3560 3563 3565 3815 3816
          3845 3846 3818 3849 3852 3854
          3867 3881 3897 3869 3899 3886
          3901 3903 6168 6177 6178 6180
          3851 6183 6254 6255 6257 3877
          6260 3878 6196 6273 6275 6277
          6288 6289 6291 3883 6294 3884
          6307 6309 6311
        </DataArray>
        <DataArray type="Float64" Name="bounds" format="ascii" RangeMin="0" RangeMax="0">
          0 0 0 0 0 0
          0 0 0 0 0 0
          0 0 0 0 0 0
          0 0 0 0 0 0
          0 0 0 0 0 0
          0 0 0 0 0 0
          0 0 0 0 0 0
          0 0 0 0 0 0
          0 0 0 0 0 0
          0 0 0 0 0 0
          0 0 0 0 0 0
          0 0 0 0 0 0
          0 0 0 0 0 0
          0 0 0 0 0 0
          0 0 0 0 0 0
          0 0 0 0 0 0
          0 0 0 0 0 0
          0 0 0 0 0 0
          0 0 0 0 0 0
          0 0 0 0 0 0
          0 0 0 0 0 0
          0 0 0 0 0 0
          0 0 0 0 0 0
          0 0 0 0 0 0
          0 0 0 0 0 0
          0 0 0 0 0 0
          0 0 0 0 0 0
          0 0 0 0 0 0
          0 0 0 0 0 0
          0 0 0 0 0 0
          0 0 0 0 0 0
          0 0 0 0 0 0
          0 0 0 0 0 0
          0 0 0 0 0 0
          0 0 0 0 0 0
          0 0 0 0 0 0
          0 0 0 0 0 0
          0 0 0 0 0 0
          0 0 0 0 0 0
          0 0 0 0 0 0
          0 0 0 0 0 0
          0 0 0 0 0 0
          0 0 0 0 0 0
          0 0 0 0 0 0
          0 0 0 0 0 0
          0 0 0 0 0 0
          0 0 0 0 0 0
          0 0 0 0 0 0
          0 0 0 0 0 0
          0 0 0 0 0 0
          0 0 0 0 0 0
          0 0 0 0 0 0
          0 0 0 0 0 0
          0 0 0 0 0 0
          0 0 0 0 0 0
          0 0 0 0 0 0
          0 0 0 0 0 0
          0 0 0 0 0 0
          0 0 0 0 0 0
          0 0 0 0 0 0
          0 0 0 0 0 0
          0 0 0 0 0 0
          0 0 0 0 0 0
          0 0 0 0 0 0
          0 0 0 0 0 0
          0 0 0 0 0 0
          0 0 0 0 0 0
          0 0 0 0 0 0
          0 0 0 0 0 0
          0 0 0 0 0 0
          0 0 0 0 0 0
          0 0 0 0 0 0
          0 0 0 0 0 0
          0 0 0 0 0 0
          0 0 0 0 0 0
          0 0 0 0 0 0
          0 0 0 0 0 0
          0 0 0 0 0 0
          0 0 0 0 0 0
          0 0 0 0 0 0
          0 0 0 0 0 0
          0 0 0 0 0 0
          0 0 0 0 0 0
          0 0 0 0 0 0
          0 0 0 0 0 0
          0 0 0 0 0 0
          0 0 0 0 0 0
          0 0 0 0 0 0
          0 0 0 0 0 0
          0 0 0 0 0 0
          0 0 0 0 0 0
          0 0 0 0 0 0
          0 0 0 0 0 0
          0 0 0 0 0 0
          0 0 0 0 0 0
          0 0 0 0 0 0
          0 0 0 0 0 0
          0 0 0 0 0 0
          0 0 0 0 0 0
          0 0 0 0 0 0
          0 0 0 0 0 0
          0 0 0 0 0 0
          0 0 0 0 0 0
          0 0 0 0 0 0
          0 0 0 0 0 0
          0 0 0 0 0 0
          0 0 0 0 0 0
          0 0 0 0 0 0
          0 0 0 0 0 0
          0 0 0 0 0 0
          0 0 0 0 0 0
          0 0 0 0 0 0
          0 0 0 0 0 0
          0 0 0 0 0 0
          0 0 0 0 0 0
          0 0 0 0 0 0
          0 0 0 0 0 0
          0 0 0 0 0 0
          0 0 0 0 0 0
          0 0 0 0 0 0
          0 0 0 0 0 0
          0 0 0 0 0 0
          0 0 0 0 0 0
          0 0 0 0 0 0
          0 0 0 0 0 0
          0 0 0 0 0 0
          0 0 0 0 0 0
          0 0 0 0 0 0
          0 0 0 0 0 0
          0 0 0 0 0 0
          0 0 0 0 0 0
          0 0 0 0 0 0
          0 0 0 0 0 0
          0 0 0 0 0 0
          0 0 0 0 0 0
          0 0 0 0 0 0
          0 0 0 0 0 0
          0 0 0 0 0 0
          0 0 0 0 0 0
          0 0 0 0 0 0
          0 0 0 0 0 0
          0 0 0 0 0 0
          0 0 0 0 0 0
          0 0 0 0 0 0
          0 0 0 0 0 0
          0 0 0 0 0 0
          0 0 0 0 0 0
          0 0 0 0 0 0
          0 0 0 0 0 0
          0 0 0 0 0 0
          0 0 0 0 0 0
          0 0 0 0 0 0
          0 0 0 0 0 0
          0 0 0 0 0 0
          0 0 0 0 0 0
          0 0 0 0 0 0
          0 0 0 0 0 0
          0 0 0 0 0 0
          0 0 0 0 0 0
          0 0 0 0 0 0
          0 0 0 0 0 0
          0 0 0 0 0 0
          0 0 0 0 0 0
          0 0 0 0 0 0
          0 0 0 0 0 0
          0 0 0 0 0 0
          0 0 0 0 0 0
          0 0 0 0 0 0
          0 0 0 0 0 0
          0 0 0 0 0 0
          0 0 0 0 0 0
          0 0 0 0 0 0
          0 0 0 0 0 0
          0 0 0 0 0 0
          0 0 0 0 0 0
          0 0 0 0 0 0
          0 0 0 0 0 0
          0 0 0 0 0 0
          0 0 0 0 0 0
          0 0 0 0 0 0
          0 0 0 0 0 0
          0 0 0 0 0 0
          0 0 0 0 0 0
          0 0 0 0 0 0
          0 0 0 0 0 0
          0 0 0 0 0 0
          0 0 0 0 0 0
          0 0 0 0 0 0
          0 0 0 0 0 0
          0 0 0 0 0 0
          0 0 0 0 0 0
          0 0 0 0 0 0
          0 0 0 0 0 0
          0 0 0 0 0 0
          0 0 0 0 0 0
          0 0 0 0 0 0
          0 0 0 0 0 0
          0 0 0 0 0 0
          0 0 0 0 0 0
          0 0 0 0 0 0
          0 0 0 0 0 0
          0 0 0 0 0 0
          0 0 0 0 0 0
          0 0 0 0 0 0
          0 0 0 0 0 0
          0 0 0 0 0 0
          0 0 0 0 0 0
          0 0 0 0 0 0
          0 0 0 0 0 0
          0 0 0 0 0 0
          0 0 0 0 0 0
          0 0 0 0 0 0
          0 0 0 0 0 0
          0 0 0 0 0 0
          0 0 0 0 0 0
          0 0 0 0 0 0
          0 0 0 0 0 0
          0 0 0 0 0 0
          0 0 0 0 0 0
          0 0 0 0 0 0
          0 0 0 0 0 0
          0 0 0 0 0 0
          0 0 0 0 0 0
          0 0 0 0 0 0
          0 0 0 0 0 0
          0 0 0 0 0 0
          0 0 0 0 0 0
          0 0 0 0 0 0
          0 0 0 0 0 0
          0 0 0 0 0 0
          0 0 0 0 0 0
          0 0 0 0 0 0
          0 0 0 0 0 0
          0 0 0 0 0 0
          0 0 0 0 0 0
          0 0 0 0 0 0
          0 0 0 0 0 0
          0 0 0 0 0 0
          0 0 0 0 0 0
          0 0 0 0 0 0
          0 0 0
        </DataArray>
        <DataArray type="Float64" Name="gradient_error" format="ascii" RangeMin="1.3003822151704736e-10" RangeMax="6.732113639646474e-7">
          8.164300095290281e-10 7.410909136051611e-10 3.4699946099479363e-10 3.0412701004806703e-10 1.4315777783678446e-9 2.2628809213676992e-9
          1.2033346814413752e-9 9.243254683957377e-10 1.7437858702866957e-9 5.61731554741238e-10 4.155852484426156e-10 1.6979186900103798e-10
          8.947399199223953e-8 1.159101716695659e-8 4.637926232944668e-8 3.0017123712565514e-9 5.133441052353161e-9 1.4097796600904381e-9
          5.888007050035583e-9 1.8982551427793284e-9 1.5837877748275119e-7 2.8799926475360184e-7 1.5192905061822583e-9 1.2234682450077874e-7
          1.500586966472393e-8 3.766407304678516e-9 1.110325936363749e-8 3.5239790825664016e-9 6.418801614238833e-7 3.139886378605769e-8
          2.4975397160063755e-7 3.6779937642372554e-7 1.7432538879702372e-7 1.16205707195763e-7 3.1311350836641845e-7 3.4216559200852237e-7
          3.944018211389869e-7 6.943047073921494e-8 1.881757950855142e-8 2.664112161121784e-7 3.3084990256470643e-7 9.504639645135146e-9
          2.818264732787851e-7 3.7093794773543676e-7 6.864238128774497e-9 6.827810551601027e-8 3.3280029285491274e-8 2.199295768140986e-7
          3.70704213152017e-7 3.9549963247143043e-7 1.93742773015358e-7 2.133002213540719e-8 7.363992584911592e-9 2.909092062944514e-7
          3.689213615858691e-7 2.108374141993533e-9 1.5677967979861818e-8 5.239354564671964e-10 4.0740821983353364e-7 6.914593477141956e-8
          1.5886833549104046e-9 1.266863067457668e-9 3.4547129807458522e-9 5.469134173145507e-9 1.7082447462499057e-9 1.5992790167094483e-9
          1.8285633598917068e-9 3.1772650762363627e-9 1.5455993578824436e-9 2.5268269283972344e-9 2.672552208137011e-9 1.4903132871689909e-9
          4.951323849466434e-9 3.857406205208116e-9 1.6848342037203382e-9 1.2779087395272799e-9 2.199025448200267e-9 1.926535807972033e-9
          8.709832753342213e-10 2.5667790452212736e-9 6.546618293461e-8 1.3256553055209143e-7 2.874041623207298e-7 3.3344648800796966e-7
          3.129060070715598e-7 3.8009289736208026e-7 5.050025534222151e-7 4.895823207666836e-7 3.239191449443805e-7 3.6727593327230554e-7
          3.797247636013229e-7 2.7564647851359546e-7 3.646428902138534e-7 3.278305575768798e-7 7.96645980992075e-8 5.6175280075200626e-8
          1.2009759575996308e-7 2.6966527390305466e-7 4.682783641599287e-8 1.0729097292122134e-7 2.504580323294635e-7 3.017918849889051e-8
          2.905872739037032e-7 2.665540442817598e-7 2.580937724199449e-7 3.77914634496835e-7 3.7404620396920245e-7 3.5087271093896424e-7
          5.8567056412785e-8 3.756656395954919e-8 9.420869722334274e-8 2.298958328773861e-7 2.8649815128865057e-8 8.079794123717995e-8
          2.0814880460157113e-7 1.549673316311164e-8 2.410965081410027e-7 2.1513832061503888e-7 2.744851549982863e-7 3.6819052542197087e-7
          3.596999938124054e-7 3.075515670086565e-7 3.526539657552598e-7 3.957974124547216e-7 3.851479473497485e-7 4.275099920551307e-7
          2.822322918038011e-7 2.863487026739929e-7 1.8306535754342347e-7 4.046315038476909e-7 4.516409212505686e-7 3.567392920809813e-7
          4.216153173618936e-7 4.6243488722065154e-7 3.625059078720893e-7 5.001340582278678e-7 2.870249066156411e-7 3.6729843718227763e-7
          1.4202125336391523e-7 5.046324493639619e-7 4.3973092447218376e-7 3.8376918235015654e-7 3.1726422033905714e-8 2.0296835386635038e-8
          6.732501123338713e-8 1.8556761879571808e-7 1.578272247202071e-8 6.325192351687015e-8 1.6685929600414915e-7 8.135933131467386e-9
          1.9005753353841103e-7 1.6622317535325458e-7 2.8754220323776145e-7 3.478709280906281e-7 3.322410686815257e-7 4.2242409378515107e-7
          2.3754834101101303e-8 1.8085621237503776e-8 9.614245003666274e-9 2.9565745263312215e-7 5.421126569145589e-7 3.2495686197535957e-7
          4.385385603807331e-7 4.103498873544808e-7 7.007557999367192e-10 3.6323629953223637e-7 4.00302693516583e-7 4.040312134220002e-7
          7.829182370858944e-8 1.336052492862497e-8 3.8644370005086046e-8 1.1290530817870121e-8 1.2884445298975113e-7 6.392821508154713e-8
          4.29808996242751e-9 1.3426041005071615e-8 9.677602491729816e-10 6.949021113966976e-9 1.2439535900871845e-9 4.239105571803587e-9
          2.1810846358446967e-9 2.255399204771572e-8 1.293028197876097e-8 7.234257553519988e-9 7.795075741595982e-10 8.234693632480152e-9
          3.301762193358588e-10 2.6392839396004124e-9 1.5689879690800706e-8 4.9483916598649666e-9 4.883731307671193e-7 5.502635587687995e-7
          4.45867819710462e-7 3.780364467745782e-7 3.386068487536909e-7 4.0462014738595727e-7 1.8833750995506892e-7 2.5380712618543047e-7
          1.8851085670929657e-7 4.055309069710718e-7 3.656049177496302e-7 3.5324278276753047e-7 3.2650905677095774e-7 5.183207256178505e-7
          8.426076028437584e-9 1.161786653834598e-8 6.793604222809276e-8 8.29145785262196e-8 6.079037385159077e-9 5.3771664957833213e-8
          3.494095580167017e-9 1.629548843369368e-8 2.2983998843424503e-8 1.0818964389829377e-8 1.1499604230240073e-7 1.4096465097625118e-7
          1.8298845865754815e-7 8.406113572001622e-8 1.657074492416951e-7 2.276485253506199e-7 1.9893951571193542e-7 1.417836425979401e-7
          3.200183419250823e-7 2.6817922231455457e-7 2.9564238562555214e-7 2.609791403074524e-7 4.1074752381143274e-7 1.6968628629511232e-7
          2.2973730765814313e-7 2.1245330694130142e-7 1.566740069164818e-7 2.234622798805758e-7 1.841104037370441e-7 2.8588122372979073e-7
          4.0935370106207275e-9 4.137640166885858e-8 2.7781292945792588e-9 3.0414889735102565e-8 1.5137721055680109e-9 6.900255702457983e-9
          4.170646545737889e-9 2.434104688257416e-7 2.0058723624053401e-7 3.266501658670349e-8 2.30347318992767e-9 5.970281166690105e-10
          2.4586921718996483e-9 8.246014797628653e-9 2.774336365755043e-7 2.2713468768377617e-7 1.0866208683322553e-7 6.970229134012165e-8
          1.4592419483443722e-7 1.0984139014561237e-7 1.6428087979239201e-7 1.0749764010481566e-7 1.5069445560294584e-7 1.435881420951468e-7
          1.364818285873478e-7 2.3962426800122634e-7 2.97059428502961e-7 3.2825146173398126e-7 3.291622045320812e-7 3.1667132237765236e-7
          3.432880569727623e-7 2.126912915817071e-7 2.8326959386545875e-7 2.3084375205340207e-7 2.736505034844922e-7 1.647550802247261e-7
          2.0144589984302674e-7 2.0416969568970945e-7 3.4592360395101917e-7 2.6951326812206394e-7 2.259617417637978e-7 2.829966088002394e-7
          3.721139000836107e-7 2.3817162080214178e-7 3.036513162500292e-7 3.106195894333743e-7 3.205295344926555e-7 3.875581275290192e-7
          3.179188065430456e-7 3.2481812684808427e-7 3.9972630207158236e-7 3.3494779630329086e-7 1.0230537492263223e-7 1.0575003873455318e-7
          1.5031795025951963e-7 1.4297320504955817e-7 1.038447526802556e-7 1.4975376421791492e-7 1.4216856401527623e-7 1.091947025464741e-7
          1.3562845983959674e-7 1.3458336381263753e-7 2.5391624114635253e-7 2.433198814076957e-7 2.4700606908227053e-7 2.4290220844767385e-7
          9.83531970724895e-8 1.0178983129050674e-7 1.4898161970181227e-7 1.4115418420955275e-7 9.961036040809458e-8 1.4797971212825468e-7
          1.3990971629387918e-7 1.0522646550852398e-7 1.3332674871729323e-7 1.3183972045950369e-7 2.622677405479759e-7 2.506699563265785e-7
          2.542837045129811e-7 2.49339866518024e-7 9.412691692505074e-8 9.734268462435449e-8 1.467178507871835e-7 1.3840899900101769e-7
          9.505307502657298e-8 1.4516677386695084e-7 1.3662320304404718e-7 1.0055845232365826e-7 1.301001472148519e-7 1.2807963222114356e-7
          2.704978905427179e-7 2.578136507043264e-7 2.612100287931782e-7 2.553915769479495e-7 9.02518300540082e-8 9.282710067611772e-8
          1.432925784059095e-7 1.3451591727676783e-7 9.078192221051255e-8 1.4107813453531127e-7 1.3206580272919183e-7 9.540237129822724e-8
          1.2573925614762616e-7 1.2305347092307233e-7 2.7830314126037317e-7 2.6440059438026856e-7 2.6729080480543e-7 2.6064501846438224e-7
          2.3928643978107245e-7 2.3885315554930056e-7 2.3907668969984806e-7 1.4955820866851115e-7 3.384480569003237e-7 3.390543861311984e-7
          3.490952145766798e-7 3.4936126272712614e-7 3.2475527098937646e-7 3.3311719092098303e-7 3.3782082972515854e-7 3.577560383033874e-7
          3.7315437169826104e-7 3.811393662575224e-7 3.60226014498177e-7 3.601139623182189e-7 3.719022989444902e-7 3.7135472052708756e-7
          3.417582325220946e-7 3.506881207382977e-7 3.684418175069355e-7 3.8951356179135133e-7 4.068269242864607e-7 4.112518043379534e-7
          2.3276051200362682e-7 2.7811406417074153e-7 2.3448579709792202e-7 2.825030297364436e-7 1.636000680095714e-7 2.0474900868653416e-7
          2.0464511317618302e-7 3.5551046991400815e-7 3.653884199021491e-7 2.7932129932567876e-7 2.3597304283074565e-7 2.868050275074452e-7
          2.3720508038004562e-7 2.9103653096770793e-7 1.6068036731775074e-7 2.0400776853485884e-7 2.0274042783635002e-7 3.7553658843602985e-7
          3.8600105110026593e-7 2.8461325155323384e-7 2.3895745751093875e-7 2.986336177064441e-7 2.5362424803937027e-7 3.1596639429774535e-7
          3.899482344163731e-7 4.091453790112461e-7 1.6966741267590984e-7 2.53420539617682e-7 2.7082680783897667e-7 3.838060741913033e-7
          2.7037001200387104e-7 3.3528041059974917e-7 2.897660403086781e-7 3.569074607330651e-7 4.2975681909785587e-7 4.5179009594617786e-7
          1.993829792254082e-7 2.9094024672867537e-7 3.1451217710108564e-7 4.2723021074998956e-7 4.013153838214621e-7 4.156664670252527e-7
          3.311208110427872e-7 3.371210631884773e-7 4.1507744415276406e-7 4.310763566211723e-7 3.4949697279771385e-7 4.3055166496283416e-7
          4.4595071112338875e-7 3.428583083740923e-7 3.482678895498615e-7 4.4766716523775333e-7 4.6476730160161585e-7 3.638252833936839e-7
          3.8417166161598673e-7 3.831244106517134e-7 3.9713900679867617e-7 3.954900408588842e-7 3.599151024890286e-7 3.6941532126400625e-7
          4.0289065285428266e-7 4.251591083253222e-7 4.445331040992893e-7 4.44569067876109e-7 4.109935297582429e-7 4.0859377797804493e-7
          4.2599866484465506e-7 4.2272702581590765e-7 3.7912264258667675e-7 3.891626697475041e-7 4.4074825565374913e-7 4.6474771377044565e-7
          4.364303827003662e-7 4.810387966079122e-7 2.3816483058422052e-7 2.952302904947004e-7 2.9947236107811243e-7 1.560846504531888e-7
          2.0068042398863888e-7 1.9760878526346483e-7 3.9687345492906916e-7 4.0833976978240176e-7 2.872425072613433e-7 3.0394852794415795e-7
          3.0805472268253876e-7 1.9326474993941824e-7 2.1296856096595693e-7 4.2075353760572827e-7 4.333549359763747e-7 2.8538410417058597e-7
          3.105581357796114e-7 3.8027619745807826e-7 2.719171127971356e-7 3.7473205651290403e-7 4.752019594795613e-7 4.994187217778853e-7
          2.419912926465115e-7 3.403310115379673e-7 3.073429833395267e-7 4.778295438160603e-7 2.307652817324657e-7 3.683566329126666e-7
          1.4383708827007317e-7 2.79092060961733e-7 5.235993504930489e-7 4.892005708408562e-7 1.4830781104745158e-8 2.722989334729145e-7
          1.7007740776915368e-7 5.304369357455662e-7 4.6182832285850935e-7 4.782195782734143e-7 3.532799294685966e-7 3.578308116470799e-7
          4.822054862640606e-7 4.998511835889497e-7 3.7735104193859545e-7 4.953810638469112e-7 5.132185932117286e-7 3.618488528529197e-7
          3.652686737495038e-7 5.178656685896094e-7 5.367600701359374e-7 3.899007885749929e-7 8.810328563782974e-8 8.907829622473292e-8
          1.3848987796579022e-7 1.292333227128608e-7 8.80557181331959e-8 1.3548853554994036e-7 1.259585340348807e-7 9.005330681163607e-8
          1.1997676745993136e-7 1.1642853251982106e-7 2.8492645294817656e-7 2.6979362537125375e-7 2.718069502679668e-7 2.644328752890362e-7
          9.061294318554323e-8 8.814100297536172e-8 1.320349503662624e-7 1.2216832411670975e-7 9.002553228616853e-8 1.2822185807310218e-7
          1.1782436723711297e-7 8.566906276518022e-8 1.1230169786715711e-7 1.0742687640112378e-7 2.89568830511822e-7 2.731488882606723e-7
          2.735773624488218e-7 2.6585452091212986e-7 2.3774399863238983e-7 2.354829783177101e-7 1.9151096698633277e-7 2.3252707471151462e-7
          2.2861385344201785e-7 1.8094847870568488e-7 1.0387466997420082e-7 9.46312334058129e-8 1.243584016183237e-7 1.1290901042239642e-7
          9.771499456301302e-8 1.2245824968296867e-7 1.1029969082534909e-7 8.538779683742496e-8 1.0145961922646914e-7 9.814113196772951e-8
          2.918590232645292e-7 2.730805088025239e-7 2.628372926553687e-7 2.235272962055524e-7 1.6714670312603592e-7 4.423265693062312e-7
          4.379986352514258e-7 4.599334095910505e-7 4.542177074544151e-7 3.996700296739537e-7 4.104361246228126e-7 2.822214253040987e-7
          4.078511048025825e-7 4.2718745325681576e-7 5.202418857431318e-7 4.790744147647659e-7 4.715520321438259e-7 5.002755109954099e-7
          4.904421300433129e-7 4.213843154345903e-7 4.326381104918928e-7 3.097011851545641e-7 4.480848145100998e-7 5.654660320776533e-7
          3.1080921485375984e-7 3.126513835111303e-7 2.5594907155623275e-7 2.5293252309441513e-7 4.4469404832940594e-7 4.553297980881941e-7
          3.3058384987426884e-7 3.14198731428841e-7 3.1508428163348425e-7 2.4965848151138743e-7 2.455010913743985e-7 4.662895448353824e-7
          4.773155684825249e-7 3.2953582773409114e-7 2.988758556549339e-8 1.8537740486009625e-7 3.187085822241302e-8 1.8859738790508094e-7
          4.540034998244755e-7 4.755784166577083e-7 9.528377815807461e-10 3.622915601733911e-8 3.807177976199176e-8 3.4634196067775726e-7
          3.290645207430177e-8 1.9256042936914076e-7 1.9440932692376242e-8 4.987445666197353e-7 5.918747129924746e-10 3.938298099413114e-8
          4.0342263298170896e-8 3.8096603151048956e-7 5.312018849932183e-7 5.494022985455001e-7 3.6797452151933143e-7 3.698941648358841e-7
          5.568901044027545e-7 5.779647896191626e-7 4.002668562903259e-7 5.682754304196876e-7 5.880135786351277e-7 3.708365421651136e-7
          3.7027089014791053e-7 5.99842159314778e-7 6.229507301301563e-7 4.065535848876356e-7 2.3993244901625747e-7 3.2374280709489445e-7
          3.676625428704665e-7 4.06069972551831e-7 1.2770706146266057e-7 2.1127182296538393e-8 1.128808259727168e-7 3.878509941552911e-8
          1.589474097488024e-8 9.792585576186536e-8 6.6238405554764335e-9 3.045098285631236e-8 1.1406690731302394e-9 9.437235430600203e-9
          6.7489804273052206e-9 4.060725424010238e-9 1.298286746254845e-9 1.2394566501117655e-9 1.0408955599420454e-8 7.255224327262858e-9