<?xml version="1.0"?>
<VTKFile type="UnstructuredGrid" version="0.1" byte_order="LittleEndian" header_type="UInt32" compressor="vtkZLibDataCompressor">
  <UnstructuredGrid>
    <Piece NumberOfPoints="1394" NumberOfCells="844">
      <PointData>
        <DataArray type="Int32" Name="libmesh_node_id" format="ascii" RangeMin="64" RangeMax="13682">
          68 69 70 71 72 73
          74 75 76 77 78 79
          80 81 82 83 84 85
          86 87 88 89 90 91
          178 179 180 181 182 183
          184 185 186 187 188 189
          250 251 252 253 254 255
          256 257 258 259 260 261
          322 323 324 325 326 327
          328 329 330 331 332 333
          377 378 379 380 381 382
          413 414 415 416 417 418
          466 467 468 469 470 471
          472 473 521 522 523 524
          525 526 557 558 559 560
          561 562 610 611 612 613
          614 615 616 617 665 666
          667 668 701 702 703 704
          754 755 756 757 758 759
          760 761 809 810 811 812
          845 846 847 848 898 899
          900 901 902 903 904 905
          953 954 955 956 989 990
          991 992 1008 1009 1010 1011
          1012 1013 1014 1015 1016 1017
          1018 1019 1020 1021 1022 1023
          1024 1025 1026 1027 1028 1029
          1030 1031 1032 1033 1034 1035
          1036 1037 1038 1039 1040 1041
          1042 1043 1044 1045 1046 1047
          1048 1049 1050 1051 1052 1053
          1054 1055 1056 1057 1062 1065
          1139 1140 1141 1142 1143 1144
          1145 1146 1147 1148 1149 1150
          1151 1152 1153 1154 1155 1156
          1160 1161 1203 1204 1205 1206
          1207 1208 1209 1210 1211 1212
          1213 1214 1215 1216 1217 1218
          1219 1220 1221 1222 1223 1224
          1225 1226 1227 1228 1229 1230
          1231 1232 1233 1234 1235 1236
          1237 1238 1239 1240 1241 1242
          1243 1244 1245 1246 1247 1248
          1249 1250 1251 1252 1253 1254
          1255 1256 1257 1258 1259 1260
          1261 1262 1263 1264 1265 1266
          1267 1268 1269 1270 1271 1272
          1273 1274 1275 1276 1277 1278
          1279 1280 1281 1282 1283 1284
          1285 1286 1287 1288 1289 1290
          1291 1292 1293 1294 1295 1296
          1297 1298 1299 1300 1301 1302
          1303 1304 1305 1306 1307 1308
          1309 1310 1311 1312 1313 1314
          1315 1316 1317 1318 1319 1323
          1326 1327 1330 1331 1332 1333
          1334 1336 1337 1338 1339 1340
          1341 1346 1347 1556 1557 1558
          1559 1560 1561 1562 1563 1564
          1565 1566 1567 1568 1569 1570
          1571 1572 1573 1574 1575 1600
          1601 1602 1603 1604 1605 1606
          1607 1608 1609 1610 1611 1612
          1613 1614 1618 1619 1623 1664
          1665 1666 1667 1668 1669 1670
          1671 1672 1673 1674 1675 1676
          1677 1678 1679 1680 1681 1682
          1683 1684 1685 1686 1687 1688
          1689 1690 1691 1692 1693 1694
          1695 1696 1697 1698 1699 1700
          1701 1702 1703 1704 1705 1706
          1707 1708 1709 1710 1711 1712
          1713 1714 1715 1716 1717 1718
          1719 1720 1721 1722 1723 1724
          1725 1726 1727 1728 1729 1730
          1731 1732 1733 1736 1737 1739
          1741 1894 1895 1896 1897 1898
          1899 1900 1901 1902 1903 1904
          1905 1906 1907 1908 1909 1910
          1911 1912 1913 1914 1915 1916
          1917 1918 1919 1920 1921 1922
          1923 1924 1925 1926 1927 1928
          1929 1930 1931 1932 1933 1934
          1935 1936 1937 1938 1939 1940
          1941 1942 1943 1944 1945 1946
          1947 1948 1949 1950 1951 1952
          1953 1954 1955 1956 1957 1958
          1959 1960 1961 1962 1963 1964
          1965 1966 1967 1968 1969 1970
          1971 1972 1973 1974 1975 1976
          1977 1978 1979 1980 1981 1982
          1983 1984 1985 1986 1987 1988
          1989 1990 1991 1992 1993 1994
          1995 1996 1997 1998 1999 2000
          2001 2002 2003 2004 2005 2006
          2007 2008 2009 2010 2011 2012
          2013 2014 2015 2016 2017 2018
          2019 2020 2021 2022 2023 2024
          2025 2026 2027 2028 2029 2030
          2031 2032 2033 2034 2035 2036
          2037 2038 2039 2040 2041 2042
          2043 2044 2045 2046 2047 2048
          2049 2050 2051 2052 2053 2054
          2055 2056 2057 2058 2059 2060
          2061 2062 2063 2064 2065 2066
          2067 2068 2069 2070 2071 2072
          2073 2074 2075 2076 2077 2078
          2079 2080 2081 2082 2083 2084
          2085 2086 2087 2088 2089 2090
          2091 2092 2093 2094 2095 2096
          2097 2098 2099 2100 2101 2102
          2103 2104 2105 2106 2107 2108
          2109 2110 2111 2112 2113 2114
          2115 2116 2117 2118 2119 2120
          2121 2122 2123 2124 2125 2126
          2127 2128 2129 2130 2131 2132
          2133 2134 2135 2136 2137 2138
          2139 2140 2141 2142 2143 2144
          2145 2146 2147 2148 2149 2150
          2151 2152 2153 2154 2155 2156
          2157 2158 2159 2160 2161 2162
          2163 2164 2165 2166 2167 2168
          2169 2170 2171 2172 2173 2174
          2175 2176 2177 2178 2179 2180
          2181 2182 2183 2184 2185 2186
          2187 2188 2189 2190 2191 2192
          2193 2194 2195 2196 2197 2198
          2199 2200 2201 2202 2203 2204
          2205 2206 2207 2208 2209 2210
          2211 2212 2213 2214 2215 2216
          2217 2218 2219 2220 2221 2222
          2223 2224 2225 2226 2227 2228
          2229 2230 2231 2232 2233 2234
          2235 2239 2240 2242 2243 2245
          2246 2247 2248 2249 2250 2251
          2252 2253 2254 2255 2256 2257
          2258 2259 2260 2261 2262 2263
          2264 2265 2266 2267 2268 2269
          2270 2271 2272 2273 2274 2275
          2276 2277 2278 2279 2280 2281
          2282 2283 2284 2285 2286 2287
          2288 2289 2290 2291 2292 2293
          2294 2295 2296 2297 2298 2299
          2300 2301 2302 2303 2304 2305
          2306 2307 2308 2309 2310 2311
          2312 2313 2314 2315 2317 2318
          2319 2320 2321 2322 2323 2324
          2325 2326 2327 2328 2329 2330
          2331 2334 2336 2337 2339 2340
          2341 2342 2343 2344 2345 2347
          2348 2350 2351 2357 2360 2361
          2362 2363 2364 2365 2366 2367
          2368 2369 2370 2371 2374 2376
          2377 2379 2380 2381 2384 2385
          2387 2391 3185 3186 3187 3188
          3189 3190 3191 3192 3193 3194
          3195 3196 3197 3198 3199 3200
          3201 3202 3203 3204 3215 3216
          3217 3218 3219 3220 3221 3222
          3223 3224 3225 3226 3227 3228
          3229 3230 3231 3232 3233 3234
          3235 3236 3237 3238 3239 3240
          3241 3242 3243 3244 3245 3246
          3247 3248 3249 3250 3251 3252
          3253 3254 3255 3256 3257 3258
          3259 3260 3261 3262 3266 3267
          3283 3284 3285 3286 3287 3288
          3289 3293 3294 3295 3377 3378
          3379 3380 3381 3382 3383 3384
          3385 3386 3387 3388 3389 3390
          3391 3392 3393 3394 3395 3396
          3397 3398 3399 3400 3401 3402
          3403 3404 3405 3406 3407 3408
          3409 3410 3411 3412 3413 3414
          3415 3416 3417 3418 3419 3420
          3421 3422 3423 3424 3425 3426
          3427 3428 3429 3430 3431 3432
          3433 3434 3435 3436 3437 3438
          3439 3440 3441 3442 3443 3444
          3445 3446 3447 3448 3449 3450
          3451 3452 3453 3454 3455 3456
          3457 3458 3459 3460 3461 3462
          3463 3464 3465 3466 3467 3468
          3469 3470 3471 5474 5475 5476
          5477 5478 5479 5480 5481 5482
          5483 5484 5485 5486 5487 5488
          5489 5490 5491 5492 5493 5494
          5495 5496 5497 5498 5499 5500
          5501 5502 5503 5504 5505 5506
          5507 5508 5509 5510 5511 5512
          5513 5514 5515 5516 5517 5535
          5536 5537 5538 5539 5540 5541
          5542 5543 5544 5545 5546 5547
          5548 5549 5550 5553 5554 5556
          5558 13220 13221 13227 13228 13591
          13592 13594 13595 13596 13597 13598
          13599 13600 13601 13602 13603 13604
          13605 13606 13607 13608 13609 13610
          13611 13612 13613 13614 13634 13635
          13636 13637 13638 13639 13640 13641
          13642 13657 13658 13659 13660 13661
          13662 13677 13678 13679 13680 13681
          13682 64 65 66 67 92
          93 94 95 176 177 190
          191 248 249 262 263 320
          321 334 335 376 383 412
          419 464 465 474 475 476
          477 478 479 520 527 556
          563 608 609 618 619 664
          669 621 670 623 671 700
          705 706 707 753 808 763
          813 844 849 952 988 957
          993 1157 1158 1159 1162 1059
          1058 762 1320 1321 1322 1324
          1325 1329 1328 1061 1587 1593
          1591 1594 1063 1615 1616 1064
          1617 1620 1068 1621 1622 1734
          1335 1735 1738 1740 2236 2237
          2238 2241 1060 2244 2316 1066
          2332 2333 2335 1342 2338 1343
          2346 2349 1344 2352 2353 2354
          2355 2356 2358 2359 1345 2372
          2373 2375 906 2378 1348 2382
          2383 2386 1349 2388 2389 2390
          2392 2393 1067 3263 3264 3265
          3268 1742 1746 1744 3290 3291
          3292 3296 5551 5552 5555 5557
          13222 13223 13224 13225 13226 13229
          1586 1588 13589 13590 13581 13582
          13585 1599 13593 13587 13622 13623
          13624 13628 1590 13632 13647 13648
          13651 1596 13655 1597 13667 13668
          13672 13675
        </DataArray>
        <DataArray type="Float64" Name="bounds" format="ascii" RangeMin="0" RangeMax="0">
          0 0 0 0 0 0
          0 0 0 0 0 0
          0 0 0 0 0 0
          0 0 0 0 0 0
          0 0 0 0 0 0
          0 0 0 0 0 0
          0 0 0 0 0 0
          0 0 0 0 0 0
          0 0 0 0 0 0
          0 0 0 0 0 0
          0 0 0 0 0 0
          0 0 0 0 0 0
          0 0 0 0 0 0
          0 0 0 0 0 0
          0 0 0 0 0 0
          0 0 0 0 0 0
          0 0 0 0 0 0
          0 0 0 0 0 0
          0 0 0 0 0 0
          0 0 0 0 0 0
          0 0 0 0 0 0
          0 0 0 0 0 0
          0 0 0 0 0 0
          0 0 0 0 0 0
          0 0 0 0 0 0
          0 0 0 0 0 0
          0 0 0 0 0 0
          0 0 0 0 0 0
          0 0 0 0 0 0
          0 0 0 0 0 0
          0 0 0 0 0 0
          0 0 0 0 0 0
          0 0 0 0 0 0
          0 0 0 0 0 0
          0 0 0 0 0 0
          0 0 0 0 0 0
          0 0 0 0 0 0
          0 0 0 0 0 0
          0 0 0 0 0 0
          0 0 0 0 0 0
          0 0 0 0 0 0
          0 0 0 0 0 0
          0 0 0 0 0 0
          0 0 0 0 0 0
          0 0 0 0 0 0
          0 0 0 0 0 0
          0 0 0 0 0 0
          0 0 0 0 0 0
          0 0 0 0 0 0
          0 0 0 0 0 0
          0 0 0 0 0 0
          0 0 0 0 0 0
          0 0 0 0 0 0
          0 0 0 0 0 0
          0 0 0 0 0 0
          0 0 0 0 0 0
          0 0 0 0 0 0
          0 0 0 0 0 0
          0 0 0 0 0 0
          0 0 0 0 0 0
          0 0 0 0 0 0
          0 0 0 0 0 0
          0 0 0 0 0 0
          0 0 0 0 0 0
          0 0 0 0 0 0
          0 0 0 0 0 0
          0 0 0 0 0 0
          0 0 0 0 0 0
          0 0 0 0 0 0
          0 0 0 0 0 0
          0 0 0 0 0 0
          0 0 0 0 0 0
          0 0 0 0 0 0
          0 0 0 0 0 0
          0 0 0 0 0 0
          0 0 0 0 0 0
          0 0 0 0 0 0
          0 0 0 0 0 0
          0 0 0 0 0 0
          0 0 0 0 0 0
          0 0 0 0 0 0
          0 0 0 0 0 0
          0 0 0 0 0 0
          0 0 0 0 0 0
          0 0 0 0 0 0
          0 0 0 0 0 0
          0 0 0 0 0 0
          0 0 0 0 0 0
          0 0 0 0 0 0
          0 0 0 0 0 0
          0 0 0 0 0 0
          0 0 0 0 0 0
          0 0 0 0 0 0
          0 0 0 0 0 0
          0 0 0 0 0 0
          0 0 0 0 0 0
          0 0 0 0 0 0
          0 0 0 0 0 0
          0 0 0 0 0 0
          0 0 0 0 0 0
          0 0 0 0 0 0
          0 0 0 0 0 0
          0 0 0 0 0 0
          0 0 0 0 0 0
          0 0 0 0 0 0
          0 0 0 0 0 0
          0 0 0 0 0 0
          0 0 0 0 0 0
          0 0 0 0 0 0
          0 0 0 0 0 0
          0 0 0 0 0 0
          0 0 0 0 0 0
          0 0 0 0 0 0
          0 0 0 0 0 0
          0 0 0 0 0 0
          0 0 0 0 0 0
          0 0 0 0 0 0
          0 0 0 0 0 0
          0 0 0 0 0 0
          0 0 0 0 0 0
          0 0 0 0 0 0
          0 0 0 0 0 0
          0 0 0 0 0 0
          0 0 0 0 0 0
          0 0 0 0 0 0
          0 0 0 0 0 0
          0 0 0 0 0 0
          0 0 0 0 0 0
          0 0 0 0 0 0
          0 0 0 0 0 0
          0 0 0 0 0 0
          0 0 0 0 0 0
          0 0 0 0 0 0
          0 0 0 0 0 0
          0 0 0 0 0 0
          0 0 0 0 0 0
          0 0 0 0 0 0
          0 0 0 0 0 0
          0 0 0 0 0 0
          0 0 0 0 0 0
          0 0 0 0 0 0
          0 0 0 0 0 0
          0 0 0 0 0 0
          0 0 0 0 0 0
          0 0 0 0 0 0
          0 0 0 0 0 0
          0 0 0 0 0 0
          0 0 0 0 0 0
          0 0 0 0 0 0
          0 0 0 0 0 0
          0 0 0 0 0 0
          0 0 0 0 0 0
          0 0 0 0 0 0
          0 0 0 0 0 0
          0 0 0 0 0 0
          0 0 0 0 0 0
          0 0 0 0 0 0
          0 0 0 0 0 0
          0 0 0 0 0 0
          0 0 0 0 0 0
          0 0 0 0 0 0
          0 0 0 0 0 0
          0 0 0 0 0 0
          0 0 0 0 0 0
          0 0 0 0 0 0
          0 0 0 0 0 0
          0 0 0 0 0 0
          0 0 0 0 0 0
          0 0 0 0 0 0
          0 0 0 0 0 0
          0 0 0 0 0 0
          0 0 0 0 0 0
          0 0 0 0 0 0
          0 0 0 0 0 0
          0 0 0 0 0 0
          0 0 0 0 0 0
          0 0 0 0 0 0
          0 0 0 0 0 0
          0 0 0 0 0 0
          0 0 0 0 0 0
          0 0 0 0 0 0
          0 0 0 0 0 0
          0 0 0 0 0 0
          0 0 0 0 0 0
          0 0 0 0 0 0
          0 0 0 0 0 0
          0 0 0 0 0 0
          0 0 0 0 0 0
          0 0 0 0 0 0
          0 0 0 0 0 0
          0 0 0 0 0 0
          0 0 0 0 0 0
          0 0 0 0 0 0
          0 0 0 0 0 0
          0 0 0 0 0 0
          0 0 0 0 0 0
          0 0 0 0 0 0
          0 0 0 0 0 0
          0 0 0 0 0 0
          0 0 0 0 0 0
          0 0 0 0 0 0
          0 0 0 0 0 0
          0 0 0 0 0 0
          0 0 0 0 0 0
          0 0 0 0 0 0
          0 0 0 0 0 0
          0 0 0 0 0 0
          0 0 0 0 0 0
          0 0 0 0 0 0
          0 0 0 0 0 0
          0 0 0 0 0 0
          0 0 0 0 0 0
          0 0 0 0 0 0
          0 0 0 0 0 0
          0 0 0 0 0 0
          0 0 0 0 0 0
          0 0 0 0 0 0
          0 0 0 0 0 0
          0 0 0 0 0 0
          0 0 0 0 0 0
          0 0 0 0 0 0
          0 0 0 0 0 0
          0 0 0 0 0 0
          0 0 0 0 0 0
          0 0 0 0 0 0
          0 0 0 0 0 0
          0 0 0 0 0 0
          0 0 0 0 0 0
          0 0 0 0 0 0
          0 0 0 0 0 0
          0 0 0 0 0 0
          0 0 0 0 0 0
          0 0
        </DataArray>
        <DataArray type="Float64" Name="gradient_error" format="ascii" RangeMin="8.596139184262921e-13" RangeMax="0.0000014275296497926852">
          2.8621979423299893e-10 1.7339912703075854e-10 7.470580241519055e-10 4.53652602488903e-10 1.5103337292414598e-10 8.878678663970177e-11
          3.930292820142048e-10 2.3000574194903533e-10 6.076531294755051e-11 4.412098996333428e-11 1.507567463408506e-10 1.0833548801305507e-10
          3.373435973991002e-11 3.18123004773297e-11 8.281585417008293e-11 7.771029315477978e-11 2.1610552062229094e-11 1.9730444009369175e-11
          5.4122634642667364e-11 4.8995384449684206e-11 9.106271345045385e-12 7.79808780400547e-12 2.2552520255853432e-11 1.940994691788492e-11
          3.350570866192076e-11 8.817593080167427e-11 1.7593744748496327e-11 4.430878584249492e-11 2.0325980843150826e-11 4.872146380361573e-11
          1.9211964986112466e-11 4.620408220809223e-11 1.0489687407430553e-11 2.5575112678558474e-11 3.817937623218384e-12 9.501872714908879e-12
          6.432957495323343e-12 1.6104680777448057e-11 8.647289141735102e-12 2.163536980112398e-11 1.3175294707183617e-11 3.152869792197191e-11
          8.533688757475558e-12 1.9803432276707828e-11 3.129038858351849e-12 7.28209110041588e-12 1.1459709834712138e-12 2.7363718499013416e-12
          3.1619607512987963e-9 1.9179687337821507e-9 1.6515988275044142e-9 9.605398358263721e-10 6.068670074324419e-10 4.295943416321503e-10
          3.151842503948109e-10 2.9785104112366287e-10 2.114124811095496e-10 1.9135249632215868e-10 8.864133564363988e-11 7.694219033207122e-11
          3.6970967947796934e-10 1.7871807777811358e-10 1.8749998613661061e-10 1.7756459305963071e-10 9.918093527875232e-11 3.795875025175962e-11
          6.544264269043337e-11 8.795531140789699e-11 1.2267829644136265e-10 7.46113542667465e-11 2.7069359022736915e-11 1.0674455483016688e-11
          1.3381179822158318e-8 8.096803931372904e-9 6.937086034702793e-9 4.008696263866806e-9 2.461318777060266e-9 1.7130689930024518e-9
          1.1865374719574028e-9 1.1333133228804646e-9 1.5382906223844732e-9 7.188007904615179e-10 7.223069027485093e-10 6.815102907227874e-10
          3.8315574262928394e-10 1.516459478655511e-10 2.641532041814522e-10 3.5729508789221785e-10 4.797945965523811e-10 2.829314076420482e-10
          1.0055966757727395e-10 4.203733662976177e-11 3.654548403450907e-8 1.2058290770873395e-8 2.9320407386608182e-8 1.1999790910375114e-8
          2.133341006951695e-8 1.1937258899602399e-8 2.3610551034902834e-9 4.559035991194845e-9 5.714885268628103e-9 5.250186258264571e-9
          5.7114584925651364e-9 4.127535558196659e-9 1.318568205463998e-9 1.546841352805925e-9 1.5121872249086357e-9 9.760685839383517e-10
          3.3153497139092194e-7 7.685823413491075e-7 2.8616113713842844e-7 6.854852303814063e-7 2.2219430582799364e-7 3.3919188215870105e-7
          1.2443827856582017e-7 3.118391966553247e-8 1.2939725931876708e-8 1.0602025671921832e-8 1.1210876285733507e-8 1.0796310353832004e-8
          1.0165931723891413e-8 6.439648040810071e-9 9.049733554001167e-9 9.657696794192997e-9 7.72498949947592e-7 0.0000010592575696624055
          9.417698239735889e-7 8.989301378801183e-7 7.755674042507342e-8 7.067109006029374e-7 1.0437359651485023e-7 4.965921998640756e-7
          4.215934589082089e-8 4.6580555625402395e-8 4.6114679090000467e-8 3.4552875993140415e-8 1.8117924563896438e-8 1.0358916379437445e-8
          1.583920735954386e-8 1.7810969703055835e-8 3.0684760400629924e-7 7.998375927209647e-7 8.29678254233892e-7 0.0000011024611365935508
          8.703938516009066e-7 0.0000014275296497926852 0.0000014174593853729138 7.647600764955835e-7 6.072211535019475e-7 0.000001260224866284398
          9.685507617163266e-7 0.0000011540985938000613 0.0000012411335369782925 0.0000010570895973579744 8.518636165958646e-7 0.0000010560659119794293
          0.0000012716474761988432 8.067992145403218e-7 9.831199432913113e-7 2.6473694186228583e-7 7.180268016764161e-7 6.344180837702421e-7
          0.0000010725902714458172 4.2596060665409294e-7 6.609471787589962e-7 8.577739443049204e-7 8.362402657836644e-7 9.489516015079375e-7
          6.274244986626726e-7 5.574051681393903e-7 8.573176221619078e-7 9.107425244368852e-7 8.062381712508616e-7 1.5826673596159258e-7
          1.0110544565036457e-7 4.3868550217252844e-7 6.78592536912281e-7 5.854308814194573e-8 2.1789853812596825e-7 6.678552911796645e-7
          6.343125686617246e-8 3.129707717762414e-7 2.437205318199462e-7 8.901419049601382e-8 9.618814558720306e-7 6.436269991781349e-7
          6.033821986111456e-7 1.0782508272367821e-7 4.474111903226015e-8 2.334463642833826e-7 2.3846728033341008e-8 1.2580009560222423e-7
          1.703330164169695e-8 1.3763907592994098e-8 3.134754638951031e-8 9.95667288140745e-8 3.7888393581434746e-8 3.276590612052271e-8
          8.332976207264528e-8 2.325520761699566e-9 2.511276269374912e-9 3.24431297037711e-9 1.0494513544291246e-8 2.779403758029762e-8
          6.709279533121606e-8 4.064201885065907e-9 1.1786869489756564e-9 1.4163357894978763e-9 1.4243916278581133e-9 3.1734682029021992e-9
          1.6539846300200958e-9 4.911422112596705e-9 5.941351109840528e-7 8.556952908005675e-7 9.793034058177507e-7 8.014373637398826e-7
          5.38009669108249e-7 6.749097104545901e-7 9.454454200178835e-7 7.080940236869213e-7 5.651079646898588e-7 5.370516495238206e-7
          0.0000010882963327515002 0.0000010131387457058405 0.0000011340358442002565 8.731793864138632e-7 8.971259167138743e-7 5.391446410203064e-7
          8.139836343676183e-7 5.662613211756537e-7 7.831641698900601e-7 6.208393648124434e-7 5.55160328396738e-7 5.918533899764966e-7
          3.9696411861030146e-7 5.662410988756234e-7 3.8913696083120993e-7 3.034953338317397e-7 6.791821913125895e-7 7.288608834618058e-7
          7.473104228834055e-7 9.853896324262626e-7 5.934274894407307e-7 3.9160124763035626e-7 8.317784666813225e-7 6.488707173120298e-7
          5.776951919033253e-7 1.7821737909293806e-7 2.1113421240690477e-7 5.896842189025795e-7 1.8856419391709322e-7 2.2280716481670472e-7
          7.032096618066613e-7 7.663581559807632e-7 7.859781347068206e-7 7.499082780231709e-8 1.8182368011484986e-7 1.9385450114772421e-7
          8.845646159529642e-7 2.6657915860686084e-7 2.476817241153354e-7 2.774159277339303e-7 6.932747774671071e-7 6.889495354222381e-7
          6.188430566762646e-7 6.24336129949652e-7 1.5071625573801553e-7 4.40168117865327e-7 4.877063841772528e-7 1.9501732270883807e-7
          4.283256354172447e-7 4.7447178822858604e-7 4.159443980105729e-7 6.707742016926321e-7 6.025599467978593e-7 4.892505329792785e-7
          6.639213033278339e-7 1.2909901577846818e-7 1.0730733347172407e-7 1.8443666362131044e-7 3.541549375754074e-7 1.0035040127705857e-7
          1.7737270091272062e-7 3.4402836107647027e-7 8.636504317367781e-8 4.0023567879084897e-7 3.8504487002090233e-7 2.098581037800816e-7
          3.730659495029875e-7 3.759562995611161e-7 6.760310546628732e-7 1.9909046797136914e-7 2.3509358600120721e-7 2.1079929216214543e-7
          2.486404422594221e-7 8.066634811605944e-7 8.257698232145767e-7 8.291077880666956e-8 2.0683739528735608e-7 2.2126592344936316e-7
          9.35730317469314e-7 2.248000888541597e-7 2.6361807924301327e-7 2.4000978199998305e-7 2.801821614109595e-7 8.423283592369421e-7
          6.656603376047922e-7 9.617116201092299e-8 2.3730001074458066e-7 2.5540530572079137e-7 9.888228902840817e-7 1.1631022337859746e-7
          9.200294794373857e-8 1.670968971395074e-7 3.319229867114224e-7 8.344815700599343e-8 1.5614437323541386e-7 3.1850068373243033e-7
          6.628831133650282e-8 3.69573447277113e-7 3.523965099231359e-7 2.2556594524311014e-7 3.785776421891627e-7 3.8024013004991053e-7
          6.558304767771801e-7 9.887638593634865e-8 7.458812187368314e-8 1.4461078890305988e-7 3.0368993091579905e-7 4.77556379756154e-8
          2.415225620658162e-7 3.808121909618493e-7 2.571734394906063e-7 2.986006602225606e-7 2.766118651885117e-7 3.18951944782392e-7
          4.859072630244959e-7 1.1412584942135551e-7 2.771428674249504e-7 3.01909147420986e-7 2.980553986520032e-7 2.987069002969696e-7
          3.4157158545050584e-7 1.4014766109951852e-7 3.3081071300181813e-7 4.8523742215658673e-8 2.9908953420942613e-8 2.8904528848673794e-8
          1.6025339193148408e-7 1.4423445834602782e-7 9.322419748962041e-8 9.163876284264176e-8 3.316045843813417e-8 1.3547856253361648e-7
          9.85025039994453e-8 1.1294164626226553e-8 4.221393663321302e-8 2.3024133753799416e-8 6.152644546527413e-8 4.777215651931547e-8
          3.677297578287302e-8 1.2956120373371606e-7 1.0296184401988305e-7 2.5773795046430555e-8 7.636248430605001e-8 5.814664343876644e-8
          6.411049727107018e-8 1.7359486349558092e-7 2.1947971070564384e-7 4.645279682998928e-8 1.2643757162758666e-7 1.1487829235029168e-8
          3.83772457328284e-8 4.2421038096781235e-8 3.1160543476111655e-8 2.890430835523954e-7 3.7484892414021753e-7 2.0642234642518405e-7
          6.52666622306276e-8 2.7739194427427728e-8 7.175233257928121e-9 2.1093528486421794e-8 3.5011823714915464e-8 3.619775114634902e-7
          3.6117101008537934e-7 3.7223754064788483e-7 6.822244533453374e-7 6.855848952865703e-7 6.258780541566551e-7 6.250112692915161e-7
          3.4848878407361447e-7 6.887072672646714e-7 6.267971110947471e-7 3.6036450870726846e-7 5.661712130267399e-7 5.677980852376947e-7
          5.648869549248226e-7 0.0000011365725746215798 0.0000010991492161807513 0.0000010681035200085741 0.0000010122290317174392 0.0000010556914784236428
          0.0000012047534712783039 0.0000011570768918324295 0.0000010407614067979409 0.000001250896852628806 0.0000012110105856253222 8.101884094053374e-7
          0.0000010755573884738691 0.000001028235329066904 0.00000131902517243886 3.3408892077990754e-7 3.338867559855664e-7 6.916225451894456e-7
          6.279038571317325e-7 3.177795787481361e-7 6.937386834192569e-7 6.28098955538498e-7 3.336845911912253e-7 5.641851690740196e-7
          5.62459227657739e-7 3.0128914287731377e-7 3.0040022116087906e-7 6.947305476554404e-7 6.271088605899337e-7 2.9951129944444434e-7
          5.594871735244268e-7 5.786651147031503e-7 6.623049602559713e-7 9.927081202637145e-7 9.906490778650044e-7 5.704102974413813e-7
          9.91070288443456e-7 3.5635602769328e-7 6.08437816263576e-7 6.361177933381021e-7 5.775609138248606e-7 0.0000011630771912610012
          0.000001155221318760002 0.0000011686678138777268 7.195669074058069e-7 5.554149013463146e-7 9.857284596963218e-7 5.363379642855508e-7
          7.844688120817716e-7 2.904890461931929e-7 5.456673839152416e-7 5.142877132809866e-7 0.0000011709758884628828 7.934331209301097e-7
          6.621845737445567e-7 5.130814306563622e-7 5.741652138502224e-7 2.3989496862485677e-7 4.830351868588881e-7 3.984241765513473e-7
          6.038194908715955e-7 1.8251262239201243e-7 1.825337282058003e-7 1.7906109097648722e-7 1.789856821805394e-7 1.830513497087596e-7
          1.8083493634346074e-7 1.7696118634545543e-7 1.8554543714652893e-7 1.8713692112901002e-7 1.8490557521202693e-7 1.8255483401958818e-7
          1.7861852297816194e-7 1.749366905103715e-7 1.877393338580653e-7 1.835900770255068e-7 1.7913614448112124e-7 1.7486128171442367e-7
          1.8426571327752495e-7 1.7383071601001605e-7 1.7608050977345198e-7 1.7194278437201576e-7 1.710840151146921e-7 1.6767608169360077e-7
          1.740408383583607e-7 1.7477603769741946e-7 1.7514021042655604e-7 1.8053457230009938e-7 1.7930207311620797e-7 1.844081735575975e-7
          1.8562492614911956e-7 1.8921729914316608e-7 1.8827684507362255e-7 1.9119968044656315e-7 1.8933320127913752e-7 1.9101027747871606e-7
          1.9541985377631687e-7 1.937519190610376e-7 1.8684602877558633e-7 1.9316622328982345e-7 1.9693826299486871e-7 1.9318206174996022e-7
          1.9038955748465249e-7 1.9649356064335906e-7 1.945490061747804e-7 1.9561658304767808e-7 1.9389873329169313e-7 1.9990398064895863e-7
          1.9813463476164487e-7 1.9731868407903732e-7 2.0300555072402515e-7 2.0176958490335022e-7 1.908939002090748e-7 2.0098569909343942e-7
          2.0425330241617276e-7 2.0419137825023916e-7 2.0237053623159664e-7 1.8548942253922e-7 2.067007529992809e-7 1.9027760772000462e-7
          1.964892667609109e-7 1.9588103252378915e-7 1.2150967850022667e-7 1.3296905402490204e-7 2.0292721577680985e-7 1.8688586947859857e-7
          1.2191081188747034e-7 2.0790716851138514e-7 2.045668430358411e-7 2.0145166944278974e-7 2.0462838395628123e-7 2.046220362747563e-7
          2.056489057807936e-7 2.0777326163583638e-7 2.0835060969938253e-7 1.9790202210819188e-7 2.0673064321809442e-7 2.099430876522552e-7
          1.7312358760604455e-7 1.8108185673566438e-7 1.8972027587358436e-7 2.029677337737802e-7 2.1429730675042829e-7 2.09762078056817e-7
          2.1263184151944507e-7 2.1306212516536683e-7 2.1444460129030894e-7 2.177892780086347e-7 2.1815830593410358e-7 2.0485513798983477e-7
          2.1396011766090383e-7 2.1814089782939366e-7 1.8351502963043628e-7 1.955509546938762e-7 2.0098297490334942e-7 2.1706393121208234e-7
          1.1648135571380527e-7 1.3554155288409384e-7 1.1272427245350645e-7 1.4049562220339346e-7 1.8331586715894972e-7 1.9288940670590574e-7
          9.140546109224277e-8 1.1671179540358173e-7 1.126030062775897e-7 1.7625553109833587e-7 1.1569611385237637e-7 1.4510672183746147e-7
          1.192118486368256e-7 1.4964683729740058e-7 1.9943993258414657e-7 2.0564957038106585e-7 7.532854473234201e-8 1.1547370656108721e-7
          1.1919973536600055e-7 1.8781710007610124e-7 1.3055739867858532e-7 1.4756342684104683e-7 1.4135065434147325e-7 1.3513788184189968e-7
          2.3627616035785817e-7 2.3204198719753403e-7 2.2613996123539798e-7 2.0788746179874888e-7 2.1918319972604e-7 1.263763427886512e-7
          1.2520498380971792e-7 1.4757960448344273e-7 1.4186333248759554e-7 1.1835669360884465e-7 1.4766426186481867e-7 1.424862301169641e-7
          1.240336248307847e-7 1.361470604917484e-7 1.3730819836910954e-7 2.0395003687233832e-7 1.9782489038670957e-7 2.0343297527434638e-7
          2.0067426594621992e-7 1.1393143642757553e-7 1.1654402277331886e-7 1.4808057213056708e-7 1.4285961309760543e-7 1.1593900941299338e-7
          1.487454563405945e-7 1.4334973540542257e-7 1.1915660911906222e-7 1.376386540646438e-7 1.3795401447025066e-7 2.1406748068056273e-7
          2.0730442677978724e-7 2.107808527457682e-7 2.0942112275188536e-7 2.2460513936605778e-7 2.2009186628684961e-7 2.2314510789051694e-7
          2.2372352242825127e-7 2.287155255547298e-7 2.2953640291740754e-7 2.1146719926959352e-7 2.226119167469672e-7 2.2740898896381757e-7
          1.9372741398803144e-7 2.064869796651174e-7 2.1220965997579863e-7 2.2879572595845003e-7 2.3450584620216868e-7 2.3538856314592675e-7
          2.393052298998667e-7 2.404782538226417e-7 2.324874375899226e-7 2.376206038364103e-7 2.0467147039923085e-7 2.1823190026810578e-7
          2.2475526262277057e-7 2.416885049683069e-7 1.2295426014329698e-7 1.5441343226914543e-7 1.2694457739379856e-7 1.5947546893970975e-7
          2.12004281578106e-7 2.1866104686033018e-7 8.013876872550706e-8 1.232080837777089e-7 1.274644625272394e-7 2.0017374546365274e-7