<?xml version="1.0"?>
<VTKFile type="UnstructuredGrid" version="0.1" byte_order="LittleEndian" header_type="UInt32" compressor="vtkZLibDataCompressor">
  <UnstructuredGrid>
    <Piece NumberOfPoints="1295" NumberOfCells="881">
      <PointData>
        <DataArray type="Int32" Name="libmesh_node_id" format="ascii" RangeMin="768" RangeMax="10799">
          1111 1113 1496 1499 1500 2956
          2957 2958 2964 2965 2966 2967
          2968 2969 2970 2971 2973 2976
          2994 2995 2996 2997 3001 3002
          3004 3005 3022 3026 3044 3045
          3100 3101 3472 3473 3474 3475
          3476 3477 3478 3479 3480 3481
          3482 3483 3484 3485 3486 3487
          3488 3489 3493 3494 4458 4459
          4460 4461 4462 4463 4464 4465
          4466 4467 4468 4469 4470 4471
          4472 4473 4474 4475 4476 4477
          4478 4479 4480 4481 4482 4483
          4484 4485 4486 4487 4488 4489
          4491 4492 4493 4494 4495 4496
          4497 4498 4499 4500 4501 4502
          4503 4504 4505 4507 4508 4509
          4511 4512 4513 4521 4529 4530
          4531 4532 4533 4534 4535 4536
          4537 4538 4539 4540 4541 4542
          4543 4544 4545 4546 4550 4551
          4553 4554 4556 4557 4558 4559
          4560 4561 4562 4563 4564 4565
          4566 4567 4568 4571 4572 4574
          4576 4577 4578 4579 4580 4581
          4582 4583 4584 4585 4586 4587
          4588 4591 4597 4598 4599 4600
          4601 4602 4604 4606 4659 4661
          4663 4669 4670 4673 4674 4736
          4737 4739 4742 4750 4754 5020
          5021 5022 5023 5024 5025 5026
          5027 5028 5029 5040 5041 5044
          5045 5518 5519 5520 5521 5522
          5523 5524 5525 5526 5527 5670
          5671 5672 5687 5688 5689 5690
          5691 5692 5693 5694 5695 5696
          5697 5698 5699 5700 5770 5771
          5772 5773 5774 5775 5776 5777
          5778 5779 5780 5781 5782 5783
          5784 5785 5786 5787 5788 5789
          5790 5791 5792 5793 5794 5795
          5796 5797 5798 5799 5800 5801
          5802 5803 8487 8488 8489 8490
          8491 8492 8493 8494 8495 8496
          8497 8498 8499 8500 8501 8502
          8503 8504 8505 8506 8507 8508
          8509 8510 8511 8512 8513 8514
          8515 8516 8517 8518 8519 8520
          8521 8522 8523 8524 8525 8526
          8527 8528 8529 8530 8531 8532
          8533 8534 8535 8536 8537 8538
          8539 8540 8541 8542 8543 8544
          8545 8547 8548 8549 8550 8551
          8552 8553 8554 8555 8556 8557
          8558 8559 8560 8561 8562 8563
          8564 8565 8566 8567 8568 8569
          8570 8571 8572 8573 8574 8575
          8576 8577 8578 8579 8580 8581
          8582 8583 8584 8585 8586 8587
          8588 8589 8590 8591 8592 8593
          8594 8595 8596 8597 8598 8599
          8600 8601 8602 8603 8604 8605
          8606 8607 8608 8609 8610 8611
          8612 8613 8614 8615 8616 8617
          8618 8619 8620 8621 8622 8623
          8624 8625 8626 8627 8628 8629
          8630 8631 8632 8633 8634 8635
          8636 8637 8638 8639 8640 8641
          8642 8643 8644 8645 8646 8647
          8648 8649 8650 8651 8652 8653
          8654 8656 8657 8658 8659 8660
          8661 8662 8663 8664 8665 8666
          8667 8668 8669 8670 8671 8672
          8673 8674 8675 8676 8677 8678
          8681 8683 8684 8686 8687 8688
          8689 8690 8691 8692 8693 8694
          8695 8698 8699 8701 8703 8704
          8705 8706 8707 8708 8709 8710
          8711 8712 8713 8714 8715 8716
          8717 8718 8719 8720 8721 8722
          8723 8724 8725 8726 8727 8728
          8729 8730 8731 8732 8733 8734
          8735 8736 8737 8738 8739 8740
          8741 8742 8743 8744 8745 8746
          8747 8748 8749 8750 8751 8752
          8753 8754 8755 8756 8757 8758
          8759 8760 8761 8762 8763 8764
          8765 8766 8767 8768 8769 8770
          8771 8772 8773 8774 8775 8777
          8778 8779 8780 8781 8782 8783
          8784 8785 8786 8787 8788 8789
          8790 8791 8792 8793 8794 8795
          8796 8797 8798 8799 8800 8801
          8802 8803 8804 8805 8806 8807
          8808 8809 8810 8811 8812 8813
          8814 8815 8816 8817 8818 8819
          8820 8821 8822 8823 8824 8825
          8826 8827 8828 8829 8830 8831
          8832 8833 8834 8835 8836 8837
          8838 8839 8840 8841 8842 8843
          8844 8845 8846 8847 8848 8849
          8850 8851 8852 8853 8854 8855
          8856 8857 8858 8859 8860 8861
          8862 8863 8864 8865 8866 8867
          8870 8876 8877 8878 8879 8880
          8881 8882 8883 8885 8890 8891
          8892 8893 8894 8895 8896 8897
          8899 8910 8911 8912 8913 8914
          8916 8924 8925 8926 8927 8928
          8929 8930 8931 8932 8933 8934
          8935 8936 8937 8938 8939 8940
          8941 8942 8943 8944 8945 8946
          8947 8948 8949 8950 8951 8952
          8953 8954 8955 8956 8957 8958
          8959 8960 8961 8962 8963 8964
          8965 8966 8967 8968 8969 8970
          8971 8973 8974 8975 8976 8977
          8978 8980 8981 8982 8983 8984
          8985 8986 8987 8989 8994 8995
          8996 8997 8998 8999 9000 9001
          9002 9003 9004 9005 9006 9007
          9011 9012 9013 9014 9015 9017
          9025 9026 9027 9028 9029 9199
          9200 9201 9202 9203 9204 9205
          9206 9207 9208 9209 9210 9211
          9212 9213 9214 9215 9216 9217
          9218 9219 9220 9221 9222 9226
          9227 9228 9229 9233 9234 9235
          9236 9237 9238 9239 9247 9248
          9249 9357 9358 9359 9360 9361
          9362 9363 9364 9365 9366 9367
          9368 9369 9370 9371 9372 9373
          9374 9376 9377 9378 9379 9380
          9382 9428 9429 9430 9435 9436
          9466 9467 9469 10342 10343 10344
          10345 10346 10347 10348 10349 10350
          10351 10352 10353 10354 10355 10356
          10357 10358 10359 10360 10361 10362
          10363 10364 10365 10366 10367 10368
          10369 10370 10371 10372 10373 10374
          10375 10376 10377 10378 10379 10380
          10381 10382 10383 10384 10385 10386
          10387 10388 10389 10390 10391 10392
          10393 10394 10395 10396 10397 10398
          10399 10400 10401 10402 10403 10404
          10405 10406 10407 10408 10409 10410
          10411 10414 10416 10417 10419 10430
          10432 10434 10436 10444 10445 10448
          10450 10451 10453 10464 10466 10468
          10470 10478 10479 10480 10481 10482
          10483 10484 10485 10486 10487 10488
          10489 10490 10491 10492 10493 10496
          10497 10499 10500 10503 10504 10506
          10507 10508 10509 10510 10511 10512
          10513 10514 10515 10516 10517 10518
          10519 10520 10521 10524 10525 10527
          10528 10531 10532 10534 10536 10538
          10540 10548 10552 10562 10564 10566
          10568 10576 10580 10590 10591 10592
          10593 10594 10595 10610 10611 10612
          10613 10726 10728 10740 768 1494
          1495 1464 1465 1497 1466 1498
          1112 1501 1503 1502 1102 1504
          1505 1472 2972 2959 2974 2975
          2962 2977 2984 2978 2985 2979
          2986 2987 3023 3027 2990 3024
          1516 3025 3028 3359 3362 3363
          3360 3369 3370 1508 1509 3375
          3366 1515 3490 3491 3492 3495
          2998 1511 4490 4510 4506 4514
          1506 4519 4522 4520 4523 4525
          4524 4527 4526 4547 4549 4552
          4569 4570 4573 4575 3003 4660
          4664 4662 4665 4671 4607 4672
          4675 4667 4676 4678 3029 4677
          3030 4727 4734 4735 4728 4738
          4729 4740 4741 4743 4749 4744
          4751 4745 4752 4753 3047 4755
          4766 4768 4769 4767 4771 4770
          4784 4783 4786 4785 1510 4548
          8655 8679 8680 8682 2999 8685
          4555 8696 8697 8700 8702 3000
          8776 8868 8869 8871 8872 8873
          4589 8874 8875 4590 8884 8886
          8887 8888 8889 4592 4593 8898
          4594 8900 8901 8904 8906 8907
          8909 8915 4596 8917 8919 8921
          8923 8972 4603 8979 3007 8988
          8990 8991 8992 8993 4605 9008
          9009 9010 9016 4608 9018 9020
          9022 9024 9030 9031 4610 9032
          9034 9036 9038 9223 8546 9224
          9225 4666 9230 9231 9232 9240
          9241 9242 9243 9244 9245 9246
          9250 9252 9251 10412 10413 10415
          5030 10418 5031 10431 10433 10435
          5034 10446 10447 10449 5036 10452
          5037 10465 10467 10469 5039 10494
          9375 10495 10498 5042 10501 10502
          10505 5043 10522 9381 10523 10526
          5046 10529 10530 10533 3104 10535
          10537 10539 5047 10549 10550 10551
          10553 10554 5049 10563 10565 10567
          5051 10577 10578 10579 10581 10582
          5053 10596 10597 9433 5054 10598
          10599 5055 10600 10601 10602 10603
          10604 10605 10606 10607 10609 10614
          9437 10615 10616 5058 10617 10618
          10619 10620 10621 10623 10658 10659
          10660 10661 10662 10663 10678 10679
          10680 10681 10727 10729 10730 9468
          10731 10732 5074 10733 10734 10735
          10736 10737 10741 10742 9470 10743
          10744 9471 10745 10746 5076 10747
          10748 10749 10750 10782 10783 10784
          10785 10796 10797 10798 10799
        </DataArray>
        <DataArray type="Float64" Name="bounds" format="ascii" RangeMin="0" RangeMax="0">
          0 0 0 0 0 0
          0 0 0 0 0 0
          0 0 0 0 0 0
          0 0 0 0 0 0
          0 0 0 0 0 0
          0 0 0 0 0 0
          0 0 0 0 0 0
          0 0 0 0 0 0
          0 0 0 0 0 0
          0 0 0 0 0 0
          0 0 0 0 0 0
          0 0 0 0 0 0
          0 0 0 0 0 0
          0 0 0 0 0 0
          0 0 0 0 0 0
          0 0 0 0 0 0
          0 0 0 0 0 0
          0 0 0 0 0 0
          0 0 0 0 0 0
          0 0 0 0 0 0
          0 0 0 0 0 0
          0 0 0 0 0 0
          0 0 0 0 0 0
          0 0 0 0 0 0
          0 0 0 0 0 0
          0 0 0 0 0 0
          0 0 0 0 0 0
          0 0 0 0 0 0
          0 0 0 0 0 0
          0 0 0 0 0 0
          0 0 0 0 0 0
          0 0 0 0 0 0
          0 0 0 0 0 0
          0 0 0 0 0 0
          0 0 0 0 0 0
          0 0 0 0 0 0
          0 0 0 0 0 0
          0 0 0 0 0 0
          0 0 0 0 0 0
          0 0 0 0 0 0
          0 0 0 0 0 0
          0 0 0 0 0 0
          0 0 0 0 0 0
          0 0 0 0 0 0
          0 0 0 0 0 0
          0 0 0 0 0 0
          0 0 0 0 0 0
          0 0 0 0 0 0
          0 0 0 0 0 0
          0 0 0 0 0 0
          0 0 0 0 0 0
          0 0 0 0 0 0
          0 0 0 0 0 0
          0 0 0 0 0 0
          0 0 0 0 0 0
          0 0 0 0 0 0
          0 0 0 0 0 0
          0 0 0 0 0 0
          0 0 0 0 0 0
          0 0 0 0 0 0
          0 0 0 0 0 0
          0 0 0 0 0 0
          0 0 0 0 0 0
          0 0 0 0 0 0
          0 0 0 0 0 0
          0 0 0 0 0 0
          0 0 0 0 0 0
          0 0 0 0 0 0
          0 0 0 0 0 0
          0 0 0 0 0 0
          0 0 0 0 0 0
          0 0 0 0 0 0
          0 0 0 0 0 0
          0 0 0 0 0 0
          0 0 0 0 0 0
          0 0 0 0 0 0
          0 0 0 0 0 0
          0 0 0 0 0 0
          0 0 0 0 0 0
          0 0 0 0 0 0
          0 0 0 0 0 0
          0 0 0 0 0 0
          0 0 0 0 0 0
          0 0 0 0 0 0
          0 0 0 0 0 0
          0 0 0 0 0 0
          0 0 0 0 0 0
          0 0 0 0 0 0
          0 0 0 0 0 0
          0 0 0 0 0 0
          0 0 0 0 0 0
          0 0 0 0 0 0
          0 0 0 0 0 0
          0 0 0 0 0 0
          0 0 0 0 0 0
          0 0 0 0 0 0
          0 0 0 0 0 0
          0 0 0 0 0 0
          0 0 0 0 0 0
          0 0 0 0 0 0
          0 0 0 0 0 0
          0 0 0 0 0 0
          0 0 0 0 0 0
          0 0 0 0 0 0
          0 0 0 0 0 0
          0 0 0 0 0 0
          0 0 0 0 0 0
          0 0 0 0 0 0
          0 0 0 0 0 0
          0 0 0 0 0 0
          0 0 0 0 0 0
          0 0 0 0 0 0
          0 0 0 0 0 0
          0 0 0 0 0 0
          0 0 0 0 0 0
          0 0 0 0 0 0
          0 0 0 0 0 0
          0 0 0 0 0 0
          0 0 0 0 0 0
          0 0 0 0 0 0
          0 0 0 0 0 0
          0 0 0 0 0 0
          0 0 0 0 0 0
          0 0 0 0 0 0
          0 0 0 0 0 0
          0 0 0 0 0 0
          0 0 0 0 0 0
          0 0 0 0 0 0
          0 0 0 0 0 0
          0 0 0 0 0 0
          0 0 0 0 0 0
          0 0 0 0 0 0
          0 0 0 0 0 0
          0 0 0 0 0 0
          0 0 0 0 0 0
          0 0 0 0 0 0
          0 0 0 0 0 0
          0 0 0 0 0 0
          0 0 0 0 0 0
          0 0 0 0 0 0
          0 0 0 0 0 0
          0 0 0 0 0 0
          0 0 0 0 0 0
          0 0 0 0 0 0
          0 0 0 0 0 0
          0 0 0 0 0 0
          0 0 0 0 0 0
          0 0 0 0 0 0
          0 0 0 0 0 0
          0 0 0 0 0 0
          0 0 0 0 0 0
          0 0 0 0 0 0
          0 0 0 0 0 0
          0 0 0 0 0 0
          0 0 0 0 0 0
          0 0 0 0 0 0
          0 0 0 0 0 0
          0 0 0 0 0 0
          0 0 0 0 0 0
          0 0 0 0 0 0
          0 0 0 0 0 0
          0 0 0 0 0 0
          0 0 0 0 0 0
          0 0 0 0 0 0
          0 0 0 0 0 0
          0 0 0 0 0 0
          0 0 0 0 0 0
          0 0 0 0 0 0
          0 0 0 0 0 0
          0 0 0 0 0 0
          0 0 0 0 0 0
          0 0 0 0 0 0
          0 0 0 0 0 0
          0 0 0 0 0 0
          0 0 0 0 0 0
          0 0 0 0 0 0
          0 0 0 0 0 0
          0 0 0 0 0 0
          0 0 0 0 0 0
          0 0 0 0 0 0
          0 0 0 0 0 0
          0 0 0 0 0 0
          0 0 0 0 0 0
          0 0 0 0 0 0
          0 0 0 0 0 0
          0 0 0 0 0 0
          0 0 0 0 0 0
          0 0 0 0 0 0
          0 0 0 0 0 0
          0 0 0 0 0 0
          0 0 0 0 0 0
          0 0 0 0 0 0
          0 0 0 0 0 0
          0 0 0 0 0 0
          0 0 0 0 0 0
          0 0 0 0 0 0
          0 0 0 0 0 0
          0 0 0 0 0 0
          0 0 0 0 0 0
          0 0 0 0 0 0
          0 0 0 0 0 0
          0 0 0 0 0 0
          0 0 0 0 0 0
          0 0 0 0 0 0
          0 0 0 0 0 0
          0 0 0 0 0 0
          0 0 0 0 0 0
          0 0 0 0 0 0
          0 0 0 0 0 0
          0 0 0 0 0 0
          0 0 0 0 0 0
          0 0 0 0 0 0
          0 0 0 0 0 0
          0 0 0 0 0 0
          0 0 0 0 0 0
          0 0 0 0 0
        </DataArray>
        <DataArray type="Float64" Name="gradient_error" format="ascii" RangeMin="4.3904175089239007e-13" RangeMax="4.2458435185633015e-7">
          1.1950297660283861e-9 1.2261039808882197e-8 8.330833268301991e-8 2.8580425774529475e-10 4.079507920809434e-10 9.250472979184346e-9
          2.9754623650288862e-8 2.3623897325015043e-8 6.46648687061692e-9 4.9026886801027644e-9 1.623015036439447e-8 1.2650882170720196e-8
          2.134554837839463e-10 9.407673763719347e-10 5.341967479284638e-10 2.8914451258060293e-9 2.1184183059071167e-10 6.826290915381098e-9
          5.456956131074141e-12 4.411958037705725e-12 5.2940332011766836e-11 1.9793107682401355e-11 4.436938123808441e-12 3.4923606066656607e-12
          7.913149754319976e-10 3.0292784846898396e-10 1.2090011661977842e-11 2.0459575361190023e-11 6.298256568815969e-8 4.1467270721753714e-8
          5.774950115038307e-9 2.5329993692953155e-9 2.1237081104456667e-9 3.883397196559434e-9 2.966664883640228e-9 2.049932570721022e-9
          1.9115667195784887e-9 1.4148342335485624e-9 2.380134389003998e-9 1.8226055141023895e-9 4.2368381113850414e-10 4.936654555048033e-10
          3.809087425003976e-10 9.181017475186363e-10 1.26507663920078e-9 1.805561172190739e-10 1.159047934840304e-10 8.590947333683706e-11
          6.404386102898401e-11 4.8184355865582274e-11 3.0001970026814726e-11 1.8310606410332378e-11 6.493875724035204e-10 9.440721002596093e-10
          8.289619957320055e-10 5.988340781328526e-10 2.3739392035373055e-9 5.205491993920143e-10 4.509846000403682e-10 7.424535558813418e-10
          6.521251120332617e-10 9.638286476450477e-11 2.9132197072953636e-10 2.548517194797646e-10 3.170288330674717e-10 4.6063334504419306e-10
          1.7129040684665852e-10 2.207486427850016e-9 1.9421600860305013e-9 8.252487960836032e-10 1.3342190261966155e-9 3.026219504065259e-10
          3.948465669344471e-10 3.0587686880759097e-10 1.0520222241763477e-9 2.0709567501941135e-10 2.88062806778307e-10 4.607965616033429e-11
          9.752469425139143e-11 1.6155368459260145e-10 2.1665559165340943e-10 5.493292614525656e-11 7.696150313828405e-10 2.603255105098322e-10
          6.535299486548995e-9 5.789311546796057e-9 4.006642518723409e-9 2.6194119799630622e-8 6.546709815017929e-9 5.782512997911621e-9
          3.6197040226672657e-9 3.165768742944121e-9 3.835021855764156e-9 1.981726284662599e-9 2.629635619865271e-8 2.2974629840188196e-8
          1.083084878521418e-8 1.4812393005603202e-8 2.383669367132431e-9 9.28367263343425e-9 2.009399000656232e-9 8.755731690891692e-10
          3.414996776631594e-10 7.372585369407279e-9 2.9241870428251507e-9 6.175300918641848e-11 1.2428294136117027e-11 1.101716964376128e-11
          2.230993227052328e-11 1.8250901868129176e-11 4.590463575585044e-12 1.0879644624834211e-11 8.664850857904936e-12 7.849268536254641e-12
          9.556904649430244e-12 4.6251875962708366e-12 1.0222789405663391e-10 8.398260374377373e-11 4.2511965376359185e-11 4.23464804024134e-11
          2.1809940104917184e-12 2.494441534693305e-12 4.616810013564493e-12 4.116618155533255e-12 3.1637836467815034e-12 3.03892227086581e-12
          2.2988183799932334e-11 1.8116160501364268e-11 8.109662014627046e-12 8.075716738669101e-12 6.7317684065806915e-12 3.4880801558780887e-12
          2.8082415112763032e-12 1.0234500593430646e-11 1.1412035935001172e-11 3.115629788216946e-12 1.4951766176025245e-11 6.0416753408260115e-12
          8.820585504044301e-12 2.7248237924253265e-12 2.030093582820053e-12 1.2227875060653415e-12 1.395942242191121e-12 2.5860937027847593e-12
          2.3860672907389374e-12 4.196223667536531e-10 3.4941973918546987e-10 2.2201573013293049e-10 1.8066655145434256e-10 1.7318181521694175e-10
          8.317846085983744e-11 1.4586402545238749e-9 1.2460647729435965e-9 6.577928758331453e-10 6.206035855527205e-10 9.787283235633661e-11
          7.791533216258454e-11 3.448042874962628e-11 5.675555571886385e-11 2.4075314051447854e-11 1.6606820357843087e-11 6.615911257678374e-12
          1.9413240259400898e-10 8.388808654653916e-11 9.450777546765606e-12 3.1927985985157923e-12 1.4011949578708235e-11 5.200877105279498e-12
          1.7183221480822545e-11 2.5598255397163584e-12 3.1111402560943466e-12 1.7473294013038766e-12 3.169207852889784e-12 3.063168172595771e-8
          2.806262259388697e-8 1.8459890306426867e-8 5.973002707482539e-8 7.752208395968678e-9 1.765291712810363e-8 4.158536962914307e-9
          3.7097470250085347e-9 2.3619344378797796e-9 2.028386306874766e-9 1.896154073947111e-9 9.48949613358784e-10 9.390851453048876e-9
          8.965064561811665e-9 5.207112685158161e-9 4.874587957179219e-9 5.734309765500565e-10 2.5426622615073565e-10 1.4693125074352744e-9
          6.687624067255277e-10 5.8893042477657e-12 6.995716810255957e-12 7.885757330375206e-12 5.001973054802734e-12 5.3944060956554035e-12
          4.114641861839767e-12 3.79309538105485e-12 5.914159245619745e-12 6.364012951594162e-12 4.842268572813118e-12 1.374826934007255e-11
          1.876925203785833e-11 1.4430447104093911e-11 8.914365839651573e-12 1.214240238642849e-11 2.7302496091398605e-12 3.610918352798708e-12
          7.49506719512676e-12 9.75738171719779e-12 3.3498258192740374e-12 1.0334364013124937e-12 1.2799006991543434e-12 6.868359235758658e-13
          8.535174277099219e-13 1.0731281928093986e-12 1.294893822596761e-12 9.74452336947118e-13 2.9010582534128143e-11 2.8370910648945224e-11
          2.624919820290747e-11 2.2101125366047503e-11 2.0518864334852448e-11 1.682140229244115e-11 1.3568039609657005e-11 2.5451041336018e-11
          2.3391451463401323e-11 2.1843315215563474e-11 1.9980194881806454e-11 1.103277773694168e-11 1.01560407065584e-11 8.989907749331935e-12
          1.9640500542637688e-11 1.6088357508427492e-11 7.89735518219892e-12 3.844926670737949e-12 3.3402509115115617e-12 3.50987330838028e-12
          3.029301491102721e-12 2.3872667418142674e-12 2.0233849858254882e-12 1.7899790442470084e-12 2.8355751522851744e-12 2.548729673825163e-12
          1.5565731026685286e-12 1.5034567826352826e-11 1.1603878304769687e-11 9.550271317853206e-12 6.3863543170982245e-12 1.2119996158214926e-11
          9.148116140733823e-12 4.72819267181064e-12 1.4810487113021314e-11 1.818097469987857e-11 1.7344290337544035e-11 1.5452685341568648e-11
          3.945691098918647e-11 1.0821357509792589e-11 1.2898897818058819e-11 9.774190783747603e-12 2.7836550767714647e-11 7.60640261324249e-11
          7.191486798696535e-11 6.337565141436021e-11 1.617457498696353e-10 5.1892785835614106e-11 3.715831817979333e-11 1.1230935372871031e-10
          5.823176292621558e-12 6.876012149944733e-12 5.6036736605841e-12 1.393385759775784e-11 2.554571364352488e-11 1.7284387748912786e-11
          5.121666127125727e-11 7.926488350804584e-12 1.0657065702685328e-11 8.320125519021776e-12 2.047914862175605e-11 3.067542570086032e-10
          2.8919597833871266e-10 2.5367437622766405e-10 6.403968407847996e-10 2.0646704414594724e-10 1.424466076113476e-10 4.4459032386398123e-10
          1.1904018279721759e-9 1.1249936186626783e-9 9.939460473998519e-10 2.164234126145478e-9 8.118838404754187e-10 5.488313719955633e-10
          1.553425848570221e-9 9.183249555242092e-11 5.829021458847116e-11 1.884179491304851e-10 3.469955221695855e-11 2.213312038894034e-11
          6.606479494908182e-11 3.4132041691114983e-10 2.0904000829557876e-10 6.441912643747958e-10 1.1611836181848736e-10 7.005020929903435e-11
          2.0849084828454289e-10 9.692007011206096e-12 1.2754717276931531e-11 1.0056680420492233e-11 2.2813634454987556e-11 3.752307236302564e-11
          2.954151850928699e-11 1.1883522149401546e-11 1.136030667649268e-11 1.532118142149216e-11 1.4626902837882324e-11 6.3317576851797385e-12
          1.033475055843255e-11 9.855191679632078e-12 9.989333521253038e-12 1.2879744860653254e-11 8.469518839245926e-12 3.396020351287387e-11
          3.219907623327278e-11 2.1273057710492704e-11 2.796325438269942e-11 4.185642982085644e-12 3.9715432597569145e-12 6.9140445951078e-12
          6.561931459087462e-12 2.641272940936414e-12 4.6853973476686095e-12 4.433114597926993e-12 3.361362771371468e-12 5.556957550419188e-12
          3.720240955835772e-12 1.5734216068166046e-11 1.4949888474313655e-11 1.0310640776996911e-11 1.2678867550935256e-11 8.182405649785442e-12
          1.0491579974261198e-11 4.3178787187483275e-12 6.551835718862604e-12 6.197206485926133e-12 7.791981606980658e-12 4.610306904430044e-12
          2.221983736786341e-11 1.3935444382826126e-11 1.58691717746531e-11 2.5787780534951924e-12 4.178415461430537e-12 1.7139508236706782e-12
          2.746833447599466e-12 1.8190076844389788e-12 2.795701769070667e-12 2.03055492585961e-12 9.472188695111976e-12 6.370253881964697e-12
          6.241285650420528e-12 6.620429521612039e-11 6.287826265528494e-11 4.8542044666027255e-11 4.632458295425453e-11 5.487105369704684e-11
          3.972138939213715e-11 1.4479443728922382e-10 1.3706671824763198e-10 9.775782400404669e-11 1.185412774734069e-10 3.4869280356693524e-11
          3.3180405284312345e-11 2.4434053277067655e-11 2.319549018253914e-11 2.8181208458958034e-11 1.9549481208166597e-11 7.48873507151285e-11
          7.138868395487642e-11 5.033371602910905e-11 6.076460311193353e-11 4.369546970225655e-11 3.0127326876215205e-11 3.076878478524372e-11
          2.0376283388559974e-11 9.309112723708752e-11 6.341501510416814e-11 6.39352860584773e-11 2.0969324187028645e-11 1.4357190869790837e-11
          1.3740850835568801e-11 9.212313472416338e-12 4.504926363991461e-11 3.110906427258055e-11 2.9207933160103855e-11 1.8276592972737766e-12
          1.7529277654815655e-12 3.0920004334729697e-12 2.917982298808841e-12 1.1685065082028788e-12 1.9674858543493013e-12 1.8445507596777105e-12
          1.5105817821866143e-12 2.4203064796712357e-12 1.6848596065992258e-12 7.252653358753339e-12 6.861824589069296e-12 4.341213237628839e-12
          5.713385975221726e-12 7.62838905890102e-13 7.643404276210577e-13 1.1845634265727746e-12 1.1108333783309424e-12 6.046748770450597e-13
          8.673375325119207e-13 8.252955362015391e-13 7.658419493520133e-13 1.0371033300891102e-12 7.832535398911576e-13 2.7935311479786355e-12
          2.600070752503945e-12 2.4782018924330733e-12 1.1606541460488356e-12 1.7574133925913712e-12 9.586591040283419e-13 1.3585815055832491e-12
          9.783409614137974e-13 1.418177989984984e-12 1.1058155213810598e-12 4.128959638455265e-12 3.0516709838734498e-12 3.1036983927708208e-12
          1.6423467179122625e-11 1.556667126679946e-11 1.0514194516794442e-11 9.946939265448303e-12 1.3044688849889991e-11 8.283827630113797e-12
          3.578219624337826e-11 3.392697204514959e-11 2.1737150287258055e-11 2.8453997758880235e-11 6.3955303186617545e-12 6.023279407485564e-12
          4.968770641193067e-12 1.3984896172369987e-11 1.3192527731933663e-11 1.0934722850522627e-11 9.473391070996093e-12 5.9570504062952336e-12
          5.977472416694708e-12 3.717217081592631e-12 2.061756194357156e-11 1.3030115477957725e-11 1.294990690046789e-11 2.1832333442043502e-12
          3.5484387955781973e-12 1.3739059141333035e-12 2.1921336898361967e-12 7.832111439660581e-12 4.838700515232121e-12 4.363104346696312e-12
          5.378614614669179e-12 2.1700308779576803e-12 3.0060672888688078e-12 3.5550311821889798e-12 4.329560496865419e-12 2.331787328942496e-12
          1.071206647500586e-11 6.038698667716177e-12 8.147229479505538e-12 1.2023364977219188e-12 1.72951494059941e-12 9.67643640299543e-13
          1.3281123828548294e-12 9.589317282415155e-13 1.320360488147305e-12 1.0325936515563565e-12 3.747522654649039e-12 2.811035132209535e-12
          2.530113829847397e-12 2.0494199428850547e-11 1.2659327062055142e-11 1.3333538271266054e-11 7.502629207947302e-12 4.109745277552978e-11
          2.5760537786295143e-11 2.5917518268802164e-11 8.176636547709327e-12 5.325219476233268e-12 4.58576945458051e-12 2.8910716488543874e-12
          1.711319299154538e-11 1.1308559784622812e-11 9.448591795347098e-12 5.949324790139165e-12 8.176232251265356e-12 2.997728238213815e-12
          4.391744658005374e-12 4.7307697911720946e-12 6.337279352081153e-12 3.2633144577444025e-12 1.560109024787524e-11 8.491018847919036e-12
          1.1020942371033011e-11 1.6403753623469155e-12 2.4962704321217977e-12 9.966133484421726e-13 1.5253737183424753e-12 1.2197635896950987e-12
          1.7603350474360139e-12 1.0667625578691261e-12 5.070154655343881e-12 3.1400889619607776e-12 3.1259975615165368e-12 2.12980317627355e-12
          3.3957243659170315e-12 1.3132724613521531e-12 2.087961152805145e-12 1.1683264718221778e-12 1.7968234162511342e-12 1.2691394221731434e-12
          7.290223391076275e-12 4.523886426170857e-12 3.803308134657003e-12 7.957071695108127e-13 1.2252005640304798e-12 6.072170244750321e-13
          8.927927873027751e-13 5.886842359230078e-13 8.764985534681992e-13 6.665244837754318e-13 2.674277271910056e-12 1.6457912825548343e-12
          6.114486142987231e-13 9.189594764368192e-13 4.871260094530487e-13 6.916218642669214e-13 4.3904175089239007e-13 6.480558155045213e-13
          5.110608797945429e-13 1.9175503617526712e-12 1.341993051041577e-12 1.3079936517116734e-12 2.740285939764047e-10 2.603615719940145e-10
          2.1086004683744067e-10 2.0206621466478994e-10 2.2694485767181609e-10 1.740877438633414e-10 5.802896942771021e-10 5.509188876662498e-10
          4.0344533293343047e-10 4.784852019486685e-10 1.5551120906155165e-10 1.486061571694685e-10 1.1054589539246646e-10 1.0534172862076137e-10
          1.2694982310268705e-10 8.928104206401076e-11 3.108903520895998e-10 2.9799772511696014e-10 2.1216441112504894e-10 2.558809675302747e-10
          1.7927416810618207e-10 1.311683071616073e-10 1.221601878729634e-10 8.671437994194593e-11 3.747531410111862e-10 2.635027045274703e-10
          2.5153386644712116e-10 9.404931306955274e-11 6.531148246686277e-11 6.052215519047326e-11 4.128232602725934e-11 1.8977489267951614e-10
          1.3227961027857975e-10 1.214685643627325e-10 1.051371951086154e-9 1.0034094216370887e-9 8.005808567853291e-10 7.727644679867557e-10
          8.830061725377369e-10 6.740282996149724e-10 1.97500424448924e-9 1.887067804157688e-9 1.41526746927662e-9 1.664832983979845e-9
          5.963247830532302e-10 5.737937210477421e-10 4.281081501218376e-10 4.105290263148669e-10 4.960398365745871e-10 3.5169633721769324e-10
          1.0947116250027822e-9 1.0583608444464516e-9 7.620187143374131e-10 9.229139389870915e-10 7.003588703583985e-10 5.099385725750147e-10
          4.698059381499104e-10 3.3403527235039053e-10 1.3225963561387551e-9 9.479856533290728e-10 8.852432082892688e-10 3.689439826546915e-10
          2.580956915778876e-10 2.3533166934654313e-10 1.616871448064649e-10 6.897753716023001e-10 4.846266919048406e-10 4.3924984385345027e-10
          7.503938607957046e-11 7.12979206962853e-11 4.8374407889935414e-11 4.5829227620374394e-11 5.998582829774415e-11 3.8299892719788305e-11
          1.5132209029545724e-10 1.441354396226231e-10 9.291972567601273e-11 1.2176244159534914e-10 2.952251964270633e-11 2.7892049484868835e-11
          2.3169973113927893e-11 4.344736080850875e-11 2.7527903735690642e-11 2.7122197136736785e-11 1.704361932841177e-11 8.823311625540167e-11
          5.59935017870822e-11 5.4791624713698224e-11 1.65670736005596e-11 1.0212196886389659e-11 2.9314881622609597e-10 2.8006342063091055e-10
          1.9032194342067137e-10 1.8114545338535785e-10 2.3781374058519176e-10 1.525415514317553e-10 5.449795963160567e-10 5.225251668214273e-10
          4.4655197835216513e-10 1.7261142117983775e-10 1.0972971778065799e-10 1.0675595187988818e-10 6.727407366106028e-11 3.250808328157346e-10
          2.004990618174722e-10 7.681513484321116e-11 5.180057254846512e-11 4.700983517493408e-11 2.935228012999178e-11 1.549166389012293e-10