<?xml version="1.0"?>
<VTKFile type="UnstructuredGrid" version="0.1" byte_order="LittleEndian" header_type="UInt32" compressor="vtkZLibDataCompressor">
  <UnstructuredGrid>
    <Piece NumberOfPoints="1340" NumberOfCells="921">
      <PointData>
        <DataArray type="Int32" Name="libmesh_node_id" format="ascii" RangeMin="1911" RangeMax="13152">
          1917 2075 2616 2617 2620 2621
          2622 2651 2652 2654 2655 2656
          2691 2696 2726 2727 2733 2735
          2766 2768 2770 2772 2839 2845
          2847 3698 3699 3700 3701 3702
          3704 3705 3714 3716 3717 3718
          3719 3720 3721 3722 3723 3724
          3725 3921 3923 3926 3927 3928
          3929 3930 3931 3933 3937 3939
          3940 3941 3942 3943 3944 3945
          3947 3949 3951 3953 3954 3955
          3956 3957 3958 3959 3961 3965
          3967 3968 3969 3970 3971 3972
          3973 4076 4077 4078 4079 4080
          4081 4082 4083 4084 4085 4093
          4094 4095 4096 4097 4098 4099
          4206 4207 4210 4211 4212 4213
          4215 4220 4221 4225 4226 4227
          4228 4229 4230 4231 4232 4233
          4234 4235 4384 4385 4388 4391
          4395 4396 4397 4398 4399 4400
          4401 4402 4403 4404 4407 4408
          4410 4412 4415 4416 4419 4422
          4426 4427 4428 4429 4430 4431
          4432 4433 4434 4436 4438 4440
          4751 4752 4753 4754 4755 4756
          4757 4758 4759 4760 4761 4762
          4765 4766 4768 4770 4771 4772
          4773 4774 4775 4776 4777 4778
          4780 4782 4784 5085 5086 5089
          5091 5094 5096 5098 5117 5118
          5121 5122 5203 5204 5205 5206
          5207 5208 5209 5210 5211 5212
          5213 5214 5215 5216 5217 5218
          5219 5220 5221 5222 5261 5262
          5263 5264 5265 5266 5267 6806
          6807 6810 6812 6830 6834 6835
          6836 6837 6838 6839 6840 6841
          6842 6843 6844 6845 6846 6847
          6848 6849 6850 6851 6852 6853
          6864 6865 6866 6867 6868 6869
          6870 6871 6872 6874 6875 6876
          6877 6878 6879 6880 6881 6882
          6883 6884 6885 6886 6887 6888
          6889 6890 6891 6892 6893 8368
          8370 8371 8372 8373 8383 8384
          8387 8395 8396 8397 8398 8399
          8400 8401 8412 8416 8417 8418
          8419 8420 8421 8422 8423 8424
          8425 8426 8427 8428 8429 8432
          8433 8436 8439 8440 8443 8444
          8445 8446 8447 8448 8449 8450
          8451 8452 8453 8454 8455 8456
          8457 8465 8466 8468 8469 8470
          8484 8485 8490 8499 8500 8502
          8503 8504 8514 8518 8520 8521
          8522 8523 8524 8525 8526 8527
          8528 8529 8530 8531 8532 8533
          8534 8535 8536 8537 8538 8539
          8540 8541 8542 8543 8544 8545
          8546 8547 8548 8549 8550 8551
          8552 8553 8554 8555 8556 8557
          8558 8559 8560 8561 8562 8563
          8564 8565 8566 8567 8568 8569
          8570 8571 8572 8573 8574 8575
          8576 8577 8578 8579 8580 8581
          8591 8592 8595 8603 8604 8605
          8606 8607 8608 8609 8619 8620
          8623 8631 8632 8633 8634 8635
          8636 8637 8640 8641 8644 8647
          8648 8651 8652 8653 8654 8655
          8656 8657 8658 8659 8660 8661
          8662 8663 8664 8665 8668 8669
          8672 8675 8676 8679 8680 8681
          8682 8683 8684 8685 8686 8687
          8688 8689 8690 8691 8692 8693
          8701 8702 8704 8705 8706 8716
          8720 8729 8730 8732 8733 8734
          8744 8748 8750 8751 8752 8753
          8754 8755 8756 8757 8758 8759
          8760 8761 8762 8763 8764 8765
          8766 8767 8768 8769 8770 8771
          8772 8773 8774 8775 8776 8777
          8778 8779 8780 8781 8782 8783
          8784 8785 8786 8787 8788 8789
          8790 8791 8792 8793 8794 8795
          8796 8797 8798 8799 8800 8801
          8802 8803 8804 8805 9164 9165
          9166 9167 9168 9169 9170 9171
          9172 9173 9174 9175 9176 9177
          9178 9179 9180 9181 9182 9183
          9184 9185 9186 9187 9188 9189
          9190 9191 9192 9193 9194 9195
          9196 9197 9198 9199 9200 9257
          9258 9259 9260 9261 9262 9263
          9264 9265 9266 9267 9268 9269
          9270 9271 9272 9273 9274 9275
          9276 9277 9278 9279 9280 9281
          9282 9283 9284 9285 9286 9287
          9288 9289 9290 9291 9292 9293
          9294 9295 9296 9297 9298 9299
          9300 9301 9302 9303 9304 9305
          9306 9307 9308 9309 9310 9311
          9312 9313 9314 9315 9713 9714
          9715 9718 9729 9730 9731 9732
          9733 9734 9735 9736 9737 9738
          9748 9778 9788 9789 9790 9791
          9792 9793 9794 9795 9796 9797
          9798 10816 10817 10820 10828 10829
          10830 10831 10832 10833 10834 10837
          10838 10841 10844 10848 10856 10857
          10858 10859 10860 10861 10862 10865
          10866 10869 10886 10887 10890 10893
          10897 10914 10915 10918 10921 10925
          10926 10927 10928 10929 10930 10931
          10932 10933 10934 10935 10936 10937
          10938 10939 10940 10941 10942 10943
          10944 10945 10946 10947 10948 10949
          10950 10951 10952 10953 10954 10955
          10956 10957 10958 10959 10960 10961
          10962 10963 10964 10965 10966 10967
          10968 10969 10970 10971 10972 10973
          10974 10975 10976 10977 10978 10979
          10980 10981 10982 10983 10984 10985
          10986 10987 10988 10989 10990 10991
          10992 10993 10994 10995 10996 10997
          10998 10999 11000 11001 11002 11005
          11006 11008 11010 11011 11012 11013
          11014 11015 11016 11017 11018 11019
          11020 11021 11022 11023 11024 11025
          11026 11027 11028 11030 11031 11032
          11033 11034 11035 11036 11037 11038
          11040 11042 11044 11045 11046 11047
          11048 11049 11050 11051 11052 11054
          11056 11058 11061 11065 11073 11074
          11075 11076 11077 11078 11079 11082
          11083 11086 11089 11093 11101 11102
          11103 11104 11105 11106 11107 11110
          11111 11114 11131 11132 11135 11138
          11142 11159 11160 11163 11166 11170
          11171 11172 11173 11174 11175 11176
          11177 11178 11179 11180 11181 11182
          11183 11184 11185 11186 11187 11188
          11189 11190 11191 11192 11193 11194
          11195 11196 11197 11198 11199 11200
          11201 11202 11203 11204 11205 11206
          11207 11208 11209 11210 11211 11212
          11213 11214 11215 11216 11217 11218
          11219 11220 11221 11222 11223 11224
          11225 11226 11227 11228 11229 11230
          11231 11232 11233 11234 11236 11238
          11240 11241 11242 11243 11244 11245
          11246 11247 11248 11250 11252 11254
          11255 11256 11257 11258 11259 11260
          11261 11262 11264 11266 11268 11269
          11270 11271 11272 11273 11274 11275
          11276 11278 11280 11282 12996 12997
          12998 12999 13000 13001 13002 13003
          13004 13005 13006 13007 13008 13009
          13010 13011 13012 13013 13014 13015
          13016 13017 13018 13019 13020 13021
          13022 13023 13024 13025 13026 13027
          13028 13029 13030 13031 13032 13033
          13035 13036 13037 13038 13039 13040
          13041 13042 13043 13044 13045 13046
          13047 13048 13049 13050 13051 13052
          13053 13054 13055 13056 13057 13058
          13059 13060 13061 13062 13063 13064
          13065 13066 13067 13068 13069 13070
          13071 13072 13073 13074 13075 13076
          13077 13078 13079 13080 13081 13082
          13083 13084 13085 13086 13087 13088
          13089 13090 13091 13092 13093 13094
          13095 13096 13097 13098 13099 13100
          13101 13102 13103 13104 13105 13107
          13109 13111 13112 13113 13114 13115
          13116 13117 13118 13119 13120 13121
          13122 13123 13124 13125 13126 13127
          13128 13129 13131 13133 13135 13136
          13137 13138 13139 13140 13141 13142
          13143 13144 13145 13146 13147 13148
          13149 13150 13151 13152 2614 1911
          2618 2615 2619 2730 2731 2728
          2107 2729 2732 2690 2838 2842
          2093 2843 2694 2840 2129 2841
          2844 3069 3067 3070 3068 3073
          3072 2688 2692 3118 3119 3121
          2108 3690 3708 3706 3691 3692
          3709 3707 3712 3711 3713 2623
          3715 4068 4069 4072 4763 4409
          4764 4767 4769 4779 4781 4884
          3087 2098 4890 3092 4886 2135
          4891 5083 5078 5084 5079 5087
          5088 2689 5090 4102 5092 4089
          5093 4103 5095 2695 5097 4108
          5099 5119 4222 5120 5123 2734
          4405 2846 5256 5257 5260 6804
          6808 6805 6809 6811 6813 6856
          6800 6857 6860 3695 6862 6873
          8367 8369 8361 8363 8365 3920
          8389 8391 8377 3922 8393 3924
          8459 8467 8461 8463 8471 3932
          8482 8483 8486 8488 8487 8489
          3935 8491 8493 8501 8495 8497
          8505 3936 8513 8516 8515 8517
          2653 8519 8585 8597 8599 3946
          8601 3948 8613 8625 8627 3950
          8629 3952 8695 8703 8697 8699
          8707 3960 8715 8718 8717 8719
          3963 8721 8723 8731 8725 8727
          8735 3964 8743 8746 8745 8747
          2657 8749 9122 9123 9126 9128
          9138 9140 9142 4074 9156 9157
          9160 9162 9209 9211 9213 4087
          9223 9225 9227 9237 9239 9241
          4091 9251 9253 9255 11003 10894
          11004 11007 4392 11009 4406 11029
          10922 11039 11041 2767 11043 4411
          11053 11055 11057 2769 11139 11235
          11237 4423 11239 4435 11249 11251
          11253 4437 11167 11263 11265 2771
          11267 4439 11277 11279 11281 2113
          13034 13106 13108 13110 13130 13132
          13134 4783
        </DataArray>
        <DataArray type="Float64" Name="bounds" format="ascii" RangeMin="0" RangeMax="0">
          0 0 0 0 0 0
          0 0 0 0 0 0
          0 0 0 0 0 0
          0 0 0 0 0 0
          0 0 0 0 0 0
          0 0 0 0 0 0
          0 0 0 0 0 0
          0 0 0 0 0 0
          0 0 0 0 0 0
          0 0 0 0 0 0
          0 0 0 0 0 0
          0 0 0 0 0 0
          0 0 0 0 0 0
          0 0 0 0 0 0
          0 0 0 0 0 0
          0 0 0 0 0 0
          0 0 0 0 0 0
          0 0 0 0 0 0
          0 0 0 0 0 0
          0 0 0 0 0 0
          0 0 0 0 0 0
          0 0 0 0 0 0
          0 0 0 0 0 0
          0 0 0 0 0 0
          0 0 0 0 0 0
          0 0 0 0 0 0
          0 0 0 0 0 0
          0 0 0 0 0 0
          0 0 0 0 0 0
          0 0 0 0 0 0
          0 0 0 0 0 0
          0 0 0 0 0 0
          0 0 0 0 0 0
          0 0 0 0 0 0
          0 0 0 0 0 0
          0 0 0 0 0 0
          0 0 0 0 0 0
          0 0 0 0 0 0
          0 0 0 0 0 0
          0 0 0 0 0 0
          0 0 0 0 0 0
          0 0 0 0 0 0
          0 0 0 0 0 0
          0 0 0 0 0 0
          0 0 0 0 0 0
          0 0 0 0 0 0
          0 0 0 0 0 0
          0 0 0 0 0 0
          0 0 0 0 0 0
          0 0 0 0 0 0
          0 0 0 0 0 0
          0 0 0 0 0 0
          0 0 0 0 0 0
          0 0 0 0 0 0
          0 0 0 0 0 0
          0 0 0 0 0 0
          0 0 0 0 0 0
          0 0 0 0 0 0
          0 0 0 0 0 0
          0 0 0 0 0 0
          0 0 0 0 0 0
          0 0 0 0 0 0
          0 0 0 0 0 0
          0 0 0 0 0 0
          0 0 0 0 0 0
          0 0 0 0 0 0
          0 0 0 0 0 0
          0 0 0 0 0 0
          0 0 0 0 0 0
          0 0 0 0 0 0
          0 0 0 0 0 0
          0 0 0 0 0 0
          0 0 0 0 0 0
          0 0 0 0 0 0
          0 0 0 0 0 0
          0 0 0 0 0 0
          0 0 0 0 0 0
          0 0 0 0 0 0
          0 0 0 0 0 0
          0 0 0 0 0 0
          0 0 0 0 0 0
          0 0 0 0 0 0
          0 0 0 0 0 0
          0 0 0 0 0 0
          0 0 0 0 0 0
          0 0 0 0 0 0
          0 0 0 0 0 0
          0 0 0 0 0 0
          0 0 0 0 0 0
          0 0 0 0 0 0
          0 0 0 0 0 0
          0 0 0 0 0 0
          0 0 0 0 0 0
          0 0 0 0 0 0
          0 0 0 0 0 0
          0 0 0 0 0 0
          0 0 0 0 0 0
          0 0 0 0 0 0
          0 0 0 0 0 0
          0 0 0 0 0 0
          0 0 0 0 0 0
          0 0 0 0 0 0
          0 0 0 0 0 0
          0 0 0 0 0 0
          0 0 0 0 0 0
          0 0 0 0 0 0
          0 0 0 0 0 0
          0 0 0 0 0 0
          0 0 0 0 0 0
          0 0 0 0 0 0
          0 0 0 0 0 0
          0 0 0 0 0 0
          0 0 0 0 0 0
          0 0 0 0 0 0
          0 0 0 0 0 0
          0 0 0 0 0 0
          0 0 0 0 0 0
          0 0 0 0 0 0
          0 0 0 0 0 0
          0 0 0 0 0 0
          0 0 0 0 0 0
          0 0 0 0 0 0
          0 0 0 0 0 0
          0 0 0 0 0 0
          0 0 0 0 0 0
          0 0 0 0 0 0
          0 0 0 0 0 0
          0 0 0 0 0 0
          0 0 0 0 0 0
          0 0 0 0 0 0
          0 0 0 0 0 0
          0 0 0 0 0 0
          0 0 0 0 0 0
          0 0 0 0 0 0
          0 0 0 0 0 0
          0 0 0 0 0 0
          0 0 0 0 0 0
          0 0 0 0 0 0
          0 0 0 0 0 0
          0 0 0 0 0 0
          0 0 0 0 0 0
          0 0 0 0 0 0
          0 0 0 0 0 0
          0 0 0 0 0 0
          0 0 0 0 0 0
          0 0 0 0 0 0
          0 0 0 0 0 0
          0 0 0 0 0 0
          0 0 0 0 0 0
          0 0 0 0 0 0
          0 0 0 0 0 0
          0 0 0 0 0 0
          0 0 0 0 0 0
          0 0 0 0 0 0
          0 0 0 0 0 0
          0 0 0 0 0 0
          0 0 0 0 0 0
          0 0 0 0 0 0
          0 0 0 0 0 0
          0 0 0 0 0 0
          0 0 0 0 0 0
          0 0 0 0 0 0
          0 0 0 0 0 0
          0 0 0 0 0 0
          0 0 0 0 0 0
          0 0 0 0 0 0
          0 0 0 0 0 0
          0 0 0 0 0 0
          0 0 0 0 0 0
          0 0 0 0 0 0
          0 0 0 0 0 0
          0 0 0 0 0 0
          0 0 0 0 0 0
          0 0 0 0 0 0
          0 0 0 0 0 0
          0 0 0 0 0 0
          0 0 0 0 0 0
          0 0 0 0 0 0
          0 0 0 0 0 0
          0 0 0 0 0 0
          0 0 0 0 0 0
          0 0 0 0 0 0
          0 0 0 0 0 0
          0 0 0 0 0 0
          0 0 0 0 0 0
          0 0 0 0 0 0
          0 0 0 0 0 0
          0 0 0 0 0 0
          0 0 0 0 0 0
          0 0 0 0 0 0
          0 0 0 0 0 0
          0 0 0 0 0 0
          0 0 0 0 0 0
          0 0 0 0 0 0
          0 0 0 0 0 0
          0 0 0 0 0 0
          0 0 0 0 0 0
          0 0 0 0 0 0
          0 0 0 0 0 0
          0 0 0 0 0 0
          0 0 0 0 0 0
          0 0 0 0 0 0
          0 0 0 0 0 0
          0 0 0 0 0 0
          0 0 0 0 0 0
          0 0 0 0 0 0
          0 0 0 0 0 0
          0 0 0 0 0 0
          0 0 0 0 0 0
          0 0 0 0 0 0
          0 0 0 0 0 0
          0 0 0 0 0 0
          0 0 0 0 0 0
          0 0 0 0 0 0
          0 0 0 0 0 0
          0 0 0 0 0 0
          0 0 0 0 0 0
          0 0 0 0 0 0
          0 0 0 0 0 0
          0 0 0 0 0 0
          0 0 0 0 0 0
          0 0 0 0 0 0
          0 0 0 0 0 0
          0 0
        </DataArray>
        <DataArray type="Float64" Name="gradient_error" format="ascii" RangeMin="1.557642280343261e-12" RangeMax="7.596830921950565e-10">
          3.758313501593841e-11 5.795405895556242e-11 2.574826716569621e-10 1.6362926766597852e-10 9.599219867213239e-11 5.602900723027252e-11
          2.5365079221010925e-11 1.8970974452403874e-10 9.292281588306679e-11 2.371742914757739e-11 3.346760002979818e-10 1.730490194420035e-10
          3.79266437051628e-11 2.4300360050444912e-11 1.0725453522298233e-10 6.739685622248469e-11 1.932894036194802e-11 3.7047504732359675e-11
          3.945531860244829e-11 9.633608116787526e-12 7.661631505853066e-11 1.567723784981348e-11 2.4915499723670975e-11 9.657477907751022e-12
          1.7083199203662968e-11 1.0203515816515002e-10 6.185585746343806e-11 1.0689343432379866e-10 6.434214378575862e-11 4.19930357591352e-11
          4.045671802734423e-11 3.827246693582249e-11 6.580649079096219e-11 7.076212378746902e-11 6.533828794887098e-11 4.610851156245174e-11
          4.23176857345684e-11 4.5521884542795456e-11 6.326256840257016e-11 4.6447097277329913e-11 4.4473218487285506e-11 2.886178234125014e-11
          5.661403297226737e-11 1.0762584513442325e-10 3.299355650453704e-10 8.52386875966102e-11 7.501936203929106e-11 5.057319731289154e-11
          2.3984559175393604e-10 1.6755916376104954e-10 1.352111509211302e-10 6.125494688750814e-11 1.015660644731449e-10 4.217914427456873e-11
          2.808471877396665e-11 3.062008584578426e-11 2.8284904647467687e-11 7.110918816764828e-11 4.8123937068751216e-11 3.5614733090656196e-11
          5.215048783696006e-10 2.8887146970814647e-10 5.971799615205759e-10 3.89333744150774e-10 2.786405492702611e-10 2.101504753677087e-10
          1.4708427030989807e-10 4.50511034732217e-10 3.25635778393469e-10 2.454405970237742e-10 1.466694290036517e-10 1.6807948896932446e-10
          1.0426735981384917e-10 7.157719819346639e-11 4.916880407417376e-11 3.317025141212211e-11 1.202288983095612e-10 8.29977423997734e-11
          5.545149831201801e-11 4.763753419575825e-11 3.8522517542045916e-11 4.5481511711801636e-11 4.1228525198647984e-11 3.764238892689907e-11
          3.858895149582246e-11 3.793612791455429e-11 2.3824497970085976e-11 2.2518919574215824e-11 3.451393295887313e-11 2.255074071375002e-11
          1.497488498781667e-11 3.4018892385513085e-11 2.2033997853539076e-11 2.4877698034135758e-11 1.658406609166861e-11 3.680641829749164e-11
          6.573576995491669e-11 3.984818353363714e-11 4.415804089044872e-11 3.265913780757689e-11 2.6519216459557188e-11 2.6116527475829758e-11
          2.177988491838282e-11 1.6670854452359332e-11 1.6141626621634108e-11 1.1791838161342684e-11 2.8979557577638086e-11 3.2558644097775806e-11
          1.815648661054092e-11 2.6604946927869838e-11 2.3261656976041915e-11 3.2192652332431397e-11 2.0134436637279364e-11 2.389824494241438e-11
          2.0928056601927164e-11 2.9839475795196315e-11 3.2958247899028084e-11 2.0776372617690603e-11 6.161906421852623e-11 1.2698928092995047e-11
          2.440968247435535e-11 1.809904363555316e-11 1.1316650174018903e-11 1.7949738195416845e-11 1.1101821851107216e-11 3.151681298397157e-11
          1.9982872877442606e-11 1.5339402954157334e-11 1.2836873548955404e-11 6.879160697224572e-12 1.1247079982247257e-11 6.701243199247382e-12
          1.2272887969436326e-11 5.866912390346703e-12 9.910099700201784e-11 6.43329893276997e-11 1.173541661073333e-10 4.0260999275377874e-11
          4.818667981320712e-11 4.746481003002777e-11 3.041543114434709e-11 2.1682348754813238e-11 1.3739983890484739e-11 5.5314013755042744e-11
          3.55990243592159e-11 2.4666002216614152e-11 1.883565560638825e-11 8.429785463584672e-12 2.2128215425995834e-11 9.648531225708456e-12
          3.248531048336744e-11 2.6451904774334373e-11 2.0090866550241717e-11 1.6274588126106086e-11 2.3590448665603914e-11 2.8984947825447513e-11
          1.779987629336838e-11 1.4409517675902839e-11 8.85125948722911e-12 1.9782045580845017e-11 1.2105631007711697e-11 9.756186853085451e-12
          8.822743420030187e-12 1.0625184104504732e-11 6.675107898992239e-12 9.176874543199628e-12 9.650684043746879e-12 6.046735135913778e-12
          1.4030328479963207e-11 8.76028860485263e-12 1.0734138980640398e-11 6.743819998101269e-12 1.5567646639208648e-11 4.984708949783295e-12
          6.663380900704195e-12 4.117576534765964e-12 5.697768426609292e-12 1.7470384546465903e-11 2.0237233015917054e-11 1.5939382048219858e-11
          2.4462200038297175e-11 2.72467051981991e-11 1.8384305511566495e-11 2.930215108163654e-11 1.1194192924483314e-11 1.6385359173032588e-11
          9.1901949340692e-12 1.2498820199424343e-11 1.6385535661996827e-11 1.756873101172822e-11 1.0415279877654474e-11 1.1050456746763386e-11
          1.2345642816182368e-11 1.213999499532841e-11 7.729185200933412e-12 1.875192636145961e-11 1.16856336158723e-11 1.1934347174474453e-11
          6.3163770117575425e-12 6.665584369261214e-12 4.919839851834972e-12 5.034555137108619e-12 4.988846627124251e-12 4.863076594420911e-12
          3.891396704321381e-12 7.014791726764885e-12 5.149270422382267e-12 4.737306561717571e-12 2.8383521552673572e-11 3.7037365527552523e-11
          2.307912262589064e-11 2.920054808609514e-11 2.225238791853802e-11 2.793363887705055e-11 2.282475650597619e-11 3.9875286521429915e-11
          4.9083092424521396e-11 3.930281626267689e-11 7.081902357512354e-11 2.717709682798279e-11 3.294180691315639e-11 4.063222105432376e-11
          2.7028059166180824e-11 3.338743695113069e-11 2.658518003801783e-11 3.249377323600534e-11 2.66587287022501e-11 5.889558270246092e-11
          4.859152510871383e-11 4.648939373135286e-11 2.1893530504369666e-11 2.7173049768550833e-11 1.7693018993661276e-11 2.1994772816959528e-11
          1.7606897691654588e-11 2.1652790573240257e-11 1.7496814010978752e-11 3.978194094261645e-11 3.232437676239348e-11 3.127410722359363e-11
          3.1174398067395025e-11 3.718792336293183e-11 2.57862976838571e-11 3.085695084291627e-11 2.7965587791191387e-11 3.258352322897074e-11
          2.701161348126822e-11 5.217191701699663e-11 4.351897876698096e-11 2.1270753432474784e-11 2.5466270328348868e-11 1.740851749665722e-11
          2.0858282117072436e-11 1.9061489802432435e-11 2.22661774358002e-11 1.8224684258886234e-11 3.6020498805051475e-11 2.95848564192047e-11
          2.988954802241556e-11 1.4026441436165052e-11 1.68826508471108e-11 1.1303668376915717e-11 1.3617646575614642e-11 1.2539787490199971e-11
          1.470867388564605e-11 1.1855331740210112e-11 2.4090111452789013e-11 1.949313812356984e-11 1.9979254392033473e-11 1.0021887586653652e-10
          7.840778745383724e-11 1.6415530173439874e-10 1.3931452870209114e-10 1.2729010513270397e-10 2.848841808852723e-10 2.445722123424981e-10
          3.812641288307809e-10 2.2224968644103571e-10 1.8991067635130006e-10 1.700688612707146e-10 1.4466295699721596e-10 2.937055513495086e-10
          2.5275192873208054e-10 2.216450609274142e-10 5.91703968706473e-11 8.381188266559913e-11 6.951272683168568e-11 6.53874990634217e-11
          5.409015417490229e-11 1.17203616088651e-10 9.77462615972919e-11 9.023502820746765e-11 5.7182130367015803e-11 4.6667045023281624e-11
          4.439058189081803e-11 3.6156496238942533e-11 8.081739634161396e-11 6.625125746935524e-11 6.184959384205853e-11 2.0797985220909604e-10
          1.7518389811719851e-10 2.8271067009192927e-10 1.4616350516408375e-10 1.2080808770798426e-10 2.014640329449384e-10 1.607963696553272e-10
          1.3490294524570225e-10 1.2197237595885606e-10 1.0193994526073013e-10 2.1544558619955615e-10 1.818972247516398e-10 1.6089456911117772e-10
          1.1215274703591242e-10 9.240079651016625e-11 8.445524603385792e-11 6.936227335879116e-11 1.521149198031621e-10 1.2601235151355276e-10
          1.1259697143215961e-10 7.212700885742336e-11 6.046481050031744e-11 4.5752647037956746e-11 9.705917671283048e-11 8.177664238470595e-11
          2.9255278141006635e-11 3.425982492309997e-11 4.527916423086499e-11 1.2790879316060854e-10 1.0833322985431839e-10 7.994057024144194e-11
          1.6425722830179252e-10 1.3986622912566269e-10 5.82470763562701e-11 7.283756846967264e-11 5.028259264932291e-11 4.14810344071896e-11
          3.796615891262152e-11 3.127328171633698e-11 6.833980932238677e-11 5.664172076178077e-11 5.104269068821042e-11 3.394479001811353e-11
          2.7577298301185374e-11 2.5548263426863273e-11 2.070645979212085e-11 4.6562703449271177e-11 3.7967196455445325e-11 3.456394260026224e-11
          2.42184307792688e-11 2.843644792592045e-11 1.9965854928554712e-11 2.3406072046042353e-11 1.8053203425381578e-11 2.0908688674506175e-11
          1.8552093012439142e-11 3.774077776445082e-11 3.1137169021568815e-11 2.7395286874089947e-11 1.641654155041104e-11 1.911308945266366e-11
          1.3345371354249546e-11 1.547273659169459e-11 1.4492556973435012e-11 1.6429616168559156e-11 1.329632433270042e-11 2.534078012525414e-11
          2.046327454654124e-11 1.9733437050120404e-11 9.097834114436358e-11 7.57556422526416e-11 6.688907568369705e-11 5.549347622154244e-11
          1.1805565107418826e-10 9.877503384968785e-11 8.534690964580897e-11 6.254553995444042e-11 5.120412645471817e-11 4.564870756765398e-11
          3.7242150194560356e-11 8.192449149543823e-11 6.736227341539213e-11 5.874331660100312e-11 4.8631071489977847e-11 4.023866684052393e-11
          3.4935831038448914e-11 2.871451773743338e-11 6.094196384561581e-11 5.0555896678443354e-11 4.3100478917369714e-11 3.292354852550632e-11
          2.67193671342428e-11 2.329805186644709e-11 1.880873842052113e-11 4.1594205524471185e-11 3.3949342712816803e-11 2.917885975788963e-11
          4.916403674229887e-10 4.2873619102304354e-10 5.942562683449583e-10 3.7468379977575244e-10 3.2465057080121455e-10 2.7918482390907197e-10
          2.403956495585519e-10 4.5120562545419736e-10 3.931751487026055e-10 3.338110408861786e-10 6.58220947013041e-10 5.799332964355339e-10
          6.76905112993308e-10 5.024494069309052e-10 4.393968840215281e-10 3.719466622764048e-10 3.2290050355149163e-10 5.191323142977755e-10
          4.5452365298496993e-10 3.8510160584763256e-10 3.701014159195575e-10 3.162141285932443e-10 4.529696923236724e-10 2.673966517879389e-10
          2.2380137979367522e-10 3.311155378946971e-10 2.7854742724378753e-10 2.3663924605350097e-10 2.0505059201315989e-10 1.7325395944498976e-10
          3.3919128435421537e-10 2.896730546343711e-10 2.4758318464276195e-10 1.9905824998318127e-10 1.6580794522261707e-10 1.4501303014731735e-10
          1.2024547955913473e-10 2.448882332634195e-10 2.0494677877182867e-10 1.766593602265488e-10 5.057071839639573e-10 4.363461560589912e-10
          5.214368003919832e-10 3.724938638126693e-10 3.1459432503257306e-10 3.8508340136926477e-10 3.803927622951995e-10 3.259584211166846e-10
          2.77601093585492e-10 2.3632639281682657e-10 3.939473802255509e-10 3.379573610471945e-10 2.880211362903319e-10 2.764579718054833e-10
          2.3208334754368177e-10 1.9922380658808245e-10 1.6631391320165962e-10 2.869497867142935e-10 2.411452662054909e-10 2.071039473262563e-10
          2.0400657714808522e-10 1.746166138133245e-10 1.2483789935185393e-10 2.415461301922028e-10 2.0765093472299231e-10 8.813599035261426e-11
          1.0222551970934063e-10 2.6830440702124646e-10 2.3130465868591572e-10 1.6239000166676123e-10 2.77826116585551e-10 2.397406597090437e-10
          1.1232778557823565e-10 1.1600157145967685e-10 1.481157929097398e-10 1.2450679453663744e-10 1.0534150783744447e-10 8.812596294923846e-11
          1.7687247217353855e-10 1.4927057655456948e-10 1.242083790947464e-10 1.0372513446925122e-10 8.564619660042624e-11 7.309332124136619e-11
          6.010981873899547e-11 1.2482232903322418e-10 1.0343022179623667e-10 8.676605332344806e-11 7.401267837457386e-11 6.163599725449014e-11
          5.1523872231544564e-11 4.272267037544087e-11 8.610816886305788e-11 7.192568914024385e-11 5.914334388792178e-11 5.0903640372263446e-11
          4.16967707139938e-11 3.513218402693758e-11 2.8661775602081537e-11 5.957754598603585e-11 4.893970897735905e-11 4.054650370497482e-11
          1.975538453199222e-10 1.671560068908498e-10 1.378462074197504e-10 1.1597603525901284e-10 2.0494606852058985e-10 1.735626277416389e-10
          1.4279105135045587e-10 1.4012123769270538e-10 1.1637485821488249e-10 9.671601999860989e-11 7.9947849888152e-11 1.4561299366563246e-10
          1.2103092433545016e-10 1.0033589797205568e-10 9.480928478216223e-11 7.93502305173723e-11 6.456989355579405e-11 5.3772485313663074e-11
          9.797871341975099e-11 8.205856870779067e-11 6.654514821644296e-11 6.585363372647699e-11 5.419429651732338e-11 4.442138258849348e-11
          3.64027314145109e-11 6.814621933188742e-11 5.6116318086825417e-11 4.5835692144688457e-11 1.3218368126222484e-11 1.5204700653222577e-11
          1.2030904301878669e-11 1.3706085093189458e-11 1.1564491502952432e-11 1.3087524660050687e-11 1.2034611813173442e-11 1.9750074783343314e-11
          1.723457959367053e-11 1.52128803176316e-11 2.4945699685407326e-11 2.0463651843779763e-11 1.7327503993748667e-11 1.55730834973337e-11
          3.032232671257644e-11 2.504545310868781e-11 2.0950008188555556e-11 1.4532894554331909e-11 1.6482836816192138e-11 1.1663506070330732e-11
          1.3240846158170127e-11 1.2557860265038247e-11 1.3870182956727468e-11 1.1086266098563076e-11 2.035808247950706e-11 1.6422669136824843e-11
          1.5061274672213107e-11 1.0852156828512523e-11 1.2037457435811783e-11 9.837610912167655e-12 1.083966201526239e-11 9.480037155162201e-12
          1.0265190784371867e-11 9.466662539247923e-12 1.4410613262141483e-11 1.2442417174988083e-11 1.1945611029444794e-11 3.563313302827998e-11
          2.9446788653845387e-11 2.4404541477534148e-11 2.0004532399861377e-11 4.033961635351858e-11 3.337752115099751e-11 2.736195390271304e-11
          2.4086397843921044e-11 1.9549703423997123e-11 1.6269860039381212e-11 1.3168286510931309e-11 2.7407056972218418e-11 2.2333567306303555e-11
          1.8448780979643966e-11 1.66250995395024e-11 1.3634277517869919e-11 1.3525643497681603e-11 1.1263753358679298e-11 1.8436639614523717e-11
          1.514896615222621e-11 1.4792383069180925e-11 1.0478772588514838e-11 1.1163530152488396e-11 8.543628047806869e-12 9.062778434901981e-12
          9.18085284441744e-12 9.344712737386232e-12 7.60168676469344e-12 1.2344411554510055e-11 9.986978147169722e-12 9.848745435015893e-12
          4.3685456162418445e-11 3.6207856177965376e-11 2.9408348674871085e-11 2.426153451860169e-11 4.489557523355747e-11 3.722940838355472e-11
          3.0142822541897677e-11 2.978117416534375e-11 2.430743787122649e-11 1.9872815748706545e-11 1.6157870823438458e-11 3.0637644193131e-11
          2.5019995950199955e-11 2.0387130432776264e-11 1.9671334179999894e-11 1.6160820007746195e-11 1.5719728978891408e-11 1.2888357963845004e-11
          2.012111972878523e-11 1.6549493543476247e-11 1.6065101169476116e-11 1.3174280358744888e-11 1.067173337559408e-11 1.0468906177915469e-11
          8.461277384448852e-12 1.3508025324931611e-11 1.0951439278845816e-11 1.0748894116154176e-11 1.7472151950298543e-11 2.1886897623956062e-11