<?xml version="1.0"?>
<VTKFile type="UnstructuredGrid" version="0.1" byte_order="LittleEndian" header_type="UInt32" compressor="vtkZLibDataCompressor">
  <UnstructuredGrid>
    <Piece NumberOfPoints="1237" NumberOfCells="871">
      <PointData>
        <DataArray type="Int32" Name="libmesh_node_id" format="ascii" RangeMin="2058" RangeMax="8727">
          2058 2064 2067 2069 2077 2517
          2557 2584 2585 2589 2597 2598
          2611 2612 2628 2629 2633 2644
          2645 2648 2649 3314 3315 3316
          3317 3318 3319 3323 3324 3325
          3326 3327 3331 3332 3443 3444
          3445 3446 3447 3448 3449 3477
          3478 3479 3480 3481 3482 3483
          3504 3509 3510 3513 3514 3533
          3534 3537 3538 3578 3579 3580
          3581 3582 3583 3584 3585 3586
          3587 3588 3589 3590 3591 3592
          3593 3594 3595 3596 3597 3626
          3627 3628 3630 3631 3632 3633
          3635 3646 3647 3648 3649 3653
          3654 3656 3657 3658 3659 3663
          3664 3665 3686 3687 3688 3689
          3692 3693 3695 3746 3747 3748
          3749 3750 3751 3752 3753 3754
          3755 3756 3757 3758 3759 3780
          3781 3782 3783 3784 3785 3786
          3787 3788 3789 3790 3791 3792
          3793 3814 3816 3818 3820 3848
          3850 3852 3854 3862 3863 3865
          3866 3867 3869 3870 3871 3872
          3873 3874 3875 3890 3891 3893
          3894 3895 3897 3898 3899 3900
          3901 3902 3903 3918 3920 3922
          3924 3946 3948 3950 3952 4973
          4975 4976 4998 5000 5002 5003
          5005 5007 5009 5010 5032 5034
          5036 5037 5046 5048 5050 5051
          5053 5055 5057 5058 5525 5531
          5532 5533 5534 5535 5536 5537
          5538 5539 5540 5541 5543 5791
          5793 5794 5795 5797 5799 5800
          5801 5960 5964 5965 5966 5977
          5981 5982 5983 5984 5985 5986
          5987 5989 5990 5991 5992 5993
          5995 6009 6010 6011 6012 6014
          6015 6016 6017 6018 6020 6203
          6211 6212 6213 6216 6219 6220
          6221 6222 6223 6225 6226 6227
          6228 6229 6230 6231 6232 6233
          6234 6235 6236 6240 6243 6246
          6247 6250 6252 6253 6254 6255
          6256 6257 6258 6259 6260 6261
          6262 6263 6264 6266 6268 6269
          6270 6271 6272 6273 6274 6276
          6278 6279 6280 6281 6282 6283
          6284 6285 6286 6287 6288 6289
          6290 6291 6292 6293 6294 6295
          6296 6297 6298 6299 6300 6301
          6302 6303 6304 6305 6306 6307
          6308 6309 6310 6311 6312 6313
          6314 6315 6316 6317 6318 6319
          6320 6321 6322 6323 6324 6325
          6326 6327 6328 6329 6330 6331
          6332 6498 6500 6501 6502 6503
          6504 6505 6506 6511 6512 6514
          6516 6517 6518 6519 6520 6521
          6522 6523 6524 6525 6526 6527
          6528 6529 6530 6531 6532 6533
          6534 6535 6536 6537 6538 6539
          6540 6541 6542 6543 6544 6546
          6548 6550 6551 6552 6553 6554
          6555 6556 6557 6558 6560 6562
          6564 6626 6627 6628 6629 6630
          6631 6632 6633 6634 6635 6636
          6637 6638 6639 6640 6641 6642
          6643 6644 6645 6646 6647 6648
          6649 6650 6651 6652 6653 6654
          6655 6656 6657 6658 6659 6660
          6661 6662 6663 6667 6668 6670
          6671 6672 6673 6674 6675 6676
          6677 6678 6679 6680 6681 6682
          6683 6684 6685 6686 6687 6688
          6689 6690 6691 6692 6693 6694
          6695 6696 6697 6698 6699 6700
          6701 6702 6703 6704 6705 6706
          6707 6708 6709 6710 6711 6712
          6713 6714 6715 6716 6717 6718
          6719 6720 6721 6722 6723 6724
          6725 6726 6727 6728 6729 6730
          6731 6732 6733 6774 6775 6776
          6777 6778 6779 6780 6781 6782
          6783 6784 6785 6788 6789 6791
          6793 6794 6795 6796 6797 6798
          6799 6800 6801 6802 6803 6804
          6805 6808 6809 6811 6813 7032
          7033 7036 7039 7040 7043 7044
          7045 7046 7047 7048 7049 7050
          7051 7052 7053 7054 7055 7056
          7057 7060 7061 7064 7066 7067
          7068 7070 7071 7072 7073 7074
          7075 7076 7077 7078 7079 7080
          7081 7082 7083 7084 7085 7086
          7087 7088 7089 7090 7091 7092
          7093 7094 7095 7096 7097 7098
          7099 7100 7101 7102 7103 7104
          7105 7106 7107 7108 7109 7110
          7111 7112 7113 7114 7115 7116
          7117 7118 7119 7120 7121 7122
          7123 7124 7125 7126 7127 7128
          7129 7130 7131 7132 7133 7134
          7135 7136 7137 7138 7139 7140
          7141 7280 7281 7284 7286 7287
          7288 7290 7291 7292 7293 7294
          7295 7296 7297 7298 7299 7300
          7301 7302 7303 7304 7305 7308
          7309 7312 7314 7315 7316 7318
          7319 7320 7321 7322 7323 7324
          7325 7326 7327 7328 7329 7330
          7331 7332 7333 7334 7335 7336
          7337 7338 7339 7340 7341 7342
          7343 7344 7345 7346 7347 7348
          7349 7350 7351 7352 7353 7354
          7355 7356 7357 7358 7359 7360
          7361 7362 7363 7364 7365 7366
          7367 7368 7369 7370 7371 7372
          7373 7374 7375 7376 7377 7378
          7379 7380 7381 7382 7383 7384
          7385 7386 7387 7388 7389 7526
          7527 7528 7529 7530 7531 7532
          7535 7540 7541 7542 7543 7544
          7545 7546 7547 7549 7554 7555
          7556 7557 7558 7559 7560 7568
          7569 7570 7571 7572 7573 7574
          7774 7775 7776 7777 7778 7779
          7780 7788 7789 7790 7791 7792
          7793 7794 7802 7803 7804 7805
          7806 7807 7808 7816 7817 7818
          7819 7820 7821 7822 7886 7887
          7888 7889 7890 7891 7892 7893
          7894 7895 7896 7897 7898 7899
          7900 7901 7904 7905 7907 7908
          7909 7910 7911 7912 7913 7914
          7915 7916 7917 7918 7919 7920
          7921 7922 7923 7924 7925 7926
          7927 7928 7929 7932 7933 7935
          7936 7937 7938 7939 7940 7941
          7942 7943 7944 7945 7946 7947
          7948 7949 7950 7951 7952 7953
          7954 7955 7956 7957 7958 7959
          7960 7961 7962 7963 7964 7965
          7966 7967 7968 7969 7970 7971
          7972 7973 7974 7975 7976 7977
          7978 7979 7980 7981 7982 7983
          7984 7985 7986 7987 7988 7989
          7990 7991 7992 7993 7994 7995
          7996 7997 8122 8123 8124 8125
          8126 8127 8128 8129 8130 8131
          8132 8133 8134 8135 8136 8137
          8140 8141 8143 8144 8145 8146
          8147 8148 8149 8150 8151 8152
          8153 8154 8155 8156 8157 8158
          8159 8160 8161 8162 8163 8164
          8165 8168 8169 8171 8172 8173
          8174 8175 8176 8177 8178 8179
          8180 8181 8182 8183 8184 8185
          8186 8187 8188 8189 8190 8191
          8192 8193 8194 8195 8196 8197
          8198 8199 8200 8201 8202 8203
          8204 8205 8206 8207 8208 8209
          8210 8211 8212 8213 8214 8215
          8216 8217 8218 8219 8220 8221
          8222 8223 8224 8225 8226 8227
          8228 8229 8230 8231 8232 8233
          8346 8347 8348 8349 8350 8351
          8352 8353 8355 8360 8361 8362
          8363 8364 8365 8366 8367 8369
          8374 8375 8376 8377 8378 8379
          8380 8388 8389 8390 8391 8392
          8393 8394 8582 8583 8584 8585
          8586 8587 8588 8596 8597 8598
          8599 8600 8601 8602 8610 8611
          8612 8613 8614 8615 8616 8624
          8625 8626 8627 8628 8629 8630
          2614 2606 2615 2607 2535 3328
          3330 3329 2540 3333 3308 2521
          3437 3439 3441 2556 3471 3473
          2539 3511 3505 3512 3507 3515
          2569 2570 3527 3535 3529 3536
          2561 3531 3539 2573 2574 3650
          3651 2605 3652 3660 3661 3662
          3690 3691 6664 6665 5542 6666
          6669 3655 6744 6736 6745 6737
          6746 6747 6751 6742 6752 6754
          6755 6756 6757 6761 6762 6764
          6765 6766 6767 6771 6772 6854
          6855 6856 6857 6861 6862 7902
          5988 7903 7906 3864 7930 5994
          7931 7934 3868 8005 7999 8006
          8009 8003 8010 8039 8033 8040
          8043 8037 8044 8060 8061 8064
          8065 8067 8068 8071 8072 8094
          8095 8098 8099 8101 8102 8105
          8106 8138 6013 8139 8142 3892
          8166 6019 8167 8170 3896 8241
          8235 8242 8245 8239 8246 8269
          8263 8270 8273 8267 8274 8290
          8291 8294 8295 8297 8298 8301
          8302 8318 8319 8322 8323 8325
          8326 8329 8330 8458 8459 8462
          8463 8492 8493 8496 8497 8694
          8695 8698 8699 8722 8723 8726
          8727
        </DataArray>
        <DataArray type="Float64" Name="bounds" format="ascii" RangeMin="0" RangeMax="0">
          0 0 0 0 0 0
          0 0 0 0 0 0
          0 0 0 0 0 0
          0 0 0 0 0 0
          0 0 0 0 0 0
          0 0 0 0 0 0
          0 0 0 0 0 0
          0 0 0 0 0 0
          0 0 0 0 0 0
          0 0 0 0 0 0
          0 0 0 0 0 0
          0 0 0 0 0 0
          0 0 0 0 0 0
          0 0 0 0 0 0
          0 0 0 0 0 0
          0 0 0 0 0 0
          0 0 0 0 0 0
          0 0 0 0 0 0
          0 0 0 0 0 0
          0 0 0 0 0 0
          0 0 0 0 0 0
          0 0 0 0 0 0
          0 0 0 0 0 0
          0 0 0 0 0 0
          0 0 0 0 0 0
          0 0 0 0 0 0
          0 0 0 0 0 0
          0 0 0 0 0 0
          0 0 0 0 0 0
          0 0 0 0 0 0
          0 0 0 0 0 0
          0 0 0 0 0 0
          0 0 0 0 0 0
          0 0 0 0 0 0
          0 0 0 0 0 0
          0 0 0 0 0 0
          0 0 0 0 0 0
          0 0 0 0 0 0
          0 0 0 0 0 0
          0 0 0 0 0 0
          0 0 0 0 0 0
          0 0 0 0 0 0
          0 0 0 0 0 0
          0 0 0 0 0 0
          0 0 0 0 0 0
          0 0 0 0 0 0
          0 0 0 0 0 0
          0 0 0 0 0 0
          0 0 0 0 0 0
          0 0 0 0 0 0
          0 0 0 0 0 0
          0 0 0 0 0 0
          0 0 0 0 0 0
          0 0 0 0 0 0
          0 0 0 0 0 0
          0 0 0 0 0 0
          0 0 0 0 0 0
          0 0 0 0 0 0
          0 0 0 0 0 0
          0 0 0 0 0 0
          0 0 0 0 0 0
          0 0 0 0 0 0
          0 0 0 0 0 0
          0 0 0 0 0 0
          0 0 0 0 0 0
          0 0 0 0 0 0
          0 0 0 0 0 0
          0 0 0 0 0 0
          0 0 0 0 0 0
          0 0 0 0 0 0
          0 0 0 0 0 0
          0 0 0 0 0 0
          0 0 0 0 0 0
          0 0 0 0 0 0
          0 0 0 0 0 0
          0 0 0 0 0 0
          0 0 0 0 0 0
          0 0 0 0 0 0
          0 0 0 0 0 0
          0 0 0 0 0 0
          0 0 0 0 0 0
          0 0 0 0 0 0
          0 0 0 0 0 0
          0 0 0 0 0 0
          0 0 0 0 0 0
          0 0 0 0 0 0
          0 0 0 0 0 0
          0 0 0 0 0 0
          0 0 0 0 0 0
          0 0 0 0 0 0
          0 0 0 0 0 0
          0 0 0 0 0 0
          0 0 0 0 0 0
          0 0 0 0 0 0
          0 0 0 0 0 0
          0 0 0 0 0 0
          0 0 0 0 0 0
          0 0 0 0 0 0
          0 0 0 0 0 0
          0 0 0 0 0 0
          0 0 0 0 0 0
          0 0 0 0 0 0
          0 0 0 0 0 0
          0 0 0 0 0 0
          0 0 0 0 0 0
          0 0 0 0 0 0
          0 0 0 0 0 0
          0 0 0 0 0 0
          0 0 0 0 0 0
          0 0 0 0 0 0
          0 0 0 0 0 0
          0 0 0 0 0 0
          0 0 0 0 0 0
          0 0 0 0 0 0
          0 0 0 0 0 0
          0 0 0 0 0 0
          0 0 0 0 0 0
          0 0 0 0 0 0
          0 0 0 0 0 0
          0 0 0 0 0 0
          0 0 0 0 0 0
          0 0 0 0 0 0
          0 0 0 0 0 0
          0 0 0 0 0 0
          0 0 0 0 0 0
          0 0 0 0 0 0
          0 0 0 0 0 0
          0 0 0 0 0 0
          0 0 0 0 0 0
          0 0 0 0 0 0
          0 0 0 0 0 0
          0 0 0 0 0 0
          0 0 0 0 0 0
          0 0 0 0 0 0
          0 0 0 0 0 0
          0 0 0 0 0 0
          0 0 0 0 0 0
          0 0 0 0 0 0
          0 0 0 0 0 0
          0 0 0 0 0 0
          0 0 0 0 0 0
          0 0 0 0 0 0
          0 0 0 0 0 0
          0 0 0 0 0 0
          0 0 0 0 0 0
          0 0 0 0 0 0
          0 0 0 0 0 0
          0 0 0 0 0 0
          0 0 0 0 0 0
          0 0 0 0 0 0
          0 0 0 0 0 0
          0 0 0 0 0 0
          0 0 0 0 0 0
          0 0 0 0 0 0
          0 0 0 0 0 0
          0 0 0 0 0 0
          0 0 0 0 0 0
          0 0 0 0 0 0
          0 0 0 0 0 0
          0 0 0 0 0 0
          0 0 0 0 0 0
          0 0 0 0 0 0
          0 0 0 0 0 0
          0 0 0 0 0 0
          0 0 0 0 0 0
          0 0 0 0 0 0
          0 0 0 0 0 0
          0 0 0 0 0 0
          0 0 0 0 0 0
          0 0 0 0 0 0
          0 0 0 0 0 0
          0 0 0 0 0 0
          0 0 0 0 0 0
          0 0 0 0 0 0
          0 0 0 0 0 0
          0 0 0 0 0 0
          0 0 0 0 0 0
          0 0 0 0 0 0
          0 0 0 0 0 0
          0 0 0 0 0 0
          0 0 0 0 0 0
          0 0 0 0 0 0
          0 0 0 0 0 0
          0 0 0 0 0 0
          0 0 0 0 0 0
          0 0 0 0 0 0
          0 0 0 0 0 0
          0 0 0 0 0 0
          0 0 0 0 0 0
          0 0 0 0 0 0
          0 0 0 0 0 0
          0 0 0 0 0 0
          0 0 0 0 0 0
          0 0 0 0 0 0
          0 0 0 0 0 0
          0 0 0 0 0 0
          0 0 0 0 0 0
          0 0 0 0 0 0
          0 0 0 0 0 0
          0 0 0 0 0 0
          0 0 0 0 0 0
          0 0 0 0 0 0
          0 0 0 0 0 0
          0 0 0 0 0 0
          0 0 0 0 0 0
          0 0 0 0 0 0
          0
        </DataArray>
        <DataArray type="Float64" Name="gradient_error" format="ascii" RangeMin="3.720432370248351e-11" RangeMax="2.2207817720312987e-8">
          2.8946711971868314e-9 9.654549440998017e-9 5.192912994826936e-10 2.407602877909196e-10 1.354652935871701e-9 2.919536765698268e-9
          7.090631539317647e-9 3.522575337555759e-10 3.1806074780294953e-10 3.9583895754161314e-10 3.476674005935188e-10 2.895098345772375e-10
          1.920203130524848e-10 1.0952776873704465e-10 1.1865920004198057e-9 8.443419514174027e-10 1.8106287377925736e-9 5.179085748964063e-10
          3.349074511287793e-10 7.991738351815575e-10 5.5422071022768e-10 2.6620176516059715e-9 3.3681603088696838e-9 1.7068147257137076e-9
          6.621882262363963e-9 3.550760192630424e-9 5.495831330433713e-9 4.680737527779517e-9 2.10893572999708e-9 2.676472738107673e-9
          1.0536988703184698e-9 1.45777782278614e-9 4.343827420958831e-9 2.227823211536981e-9 1.0786733220175971e-8 5.846094589569797e-9
          8.637885889412313e-9 4.652107662897936e-9 1.6420669172263462e-8 9.066955247934968e-9 1.288825298252364e-8 1.530412980549371e-8
          8.877603428998235e-9 1.63682682389035e-8 9.07848238182526e-9 1.0933242796597506e-8 6.6599765741088015e-9 1.731844259685031e-8
          7.007360770103223e-9 6.6320135345595394e-9 3.4879200423811344e-9 9.406379249896302e-9 5.116668087347847e-9 1.194062706626418e-8
          6.551867661575808e-9 1.2888877606155446e-8 7.094186640153212e-9 5.857155675472902e-10 3.360702268735012e-10 4.3308638860051044e-10
          2.604315825801914e-10 4.834945337079747e-10 2.679229795689125e-10 2.0457477623400608e-10 6.268814006721937e-10 5.104694247227828e-10
          4.947420505851739e-10 3.1354410007694527e-10 2.0050210721456565e-10 2.2292470147742046e-10 1.502587312438359e-10 2.502124931780148e-10
          1.5621043768977954e-10 1.6327595544885832e-10 4.0911618689179256e-10 3.18410035234858e-10 3.1307152621103993e-10 1.5512242798760248e-10
          1.090566513811664e-10 1.0634580094713601e-10 2.208981973481664e-10 1.655018726244518e-10 1.1514398928964277e-10 2.395837118634589e-10
          1.7907696128763113e-10 5.997554480728805e-10 4.154258466229136e-10 4.3093273800730064e-10 3.065943810010905e-10 3.649008101600212e-10
          2.8557201989813093e-10 3.0712688363918365e-10 2.278763330728344e-10 3.0020048497681206e-10 2.1517523350864244e-10 2.2213172232386296e-10
          1.6839380001646715e-10 1.4664010188099207e-10 3.3619831375312995e-10 2.0323716638774424e-10 2.3274365549364338e-10 1.4075432040302656e-10
          9.605353705401938e-11 1.2368900215665433e-10 7.952690547539639e-11 1.092465631679315e-9 9.337989177823043e-10 8.484174404082329e-10
          7.120303795974502e-10 1.8057166351204516e-9 1.6017120754480416e-9 1.355860492004433e-9 7.815494999395545e-10 6.341112378815102e-10
          5.866477987970508e-10 4.688940624875931e-10 1.3884197601708852e-9 1.169813629437532e-9 1.01618923937653e-9 2.5414840953365624e-9
          2.3383618375999658e-9 1.898423973902322e-9 1.6988249306053427e-9 2.388621152657627e-9 2.2662426136228357e-9 2.0224494084614356e-9
          2.0537065246489306e-9 1.7480320273077314e-9 1.4860393883598534e-9 1.268280729521954e-9 2.029688086325116e-9 1.7216151958907868e-9
          1.5802517016533323e-9 4.9694311430265e-10 3.6202795748555126e-10 9.553084860729764e-10 6.781170186200445e-10 1.461536760743643e-9
          1.0506730558456153e-9 1.434345969436638e-9 1.1337010576906376e-9 6.138868578307653e-10 5.030001986542524e-10 3.300419888637297e-10
          9.535557935056736e-10 8.148828709922227e-10 4.061794270549918e-10 3.1869214173733787e-10 2.604947879189935e-10 2.0032075761539482e-10
          6.832077020468141e-10 5.556056380712596e-10 4.2258576357269204e-10 1.3032363214410019e-9 1.1497154250640259e-9 7.149581520336897e-10
          1.425951469227917e-9 1.267831008755766e-9 9.913606961178778e-10 8.29429217093645e-10 5.99061439431295e-10 4.868459495713953e-10
          1.1020915977386292e-9 9.305335483979271e-10 6.758094768086162e-10 2.418160619641358e-10 1.4928837900630419e-10 4.3631866167724686e-10
          2.566118800034916e-10 6.704165097019257e-10 3.8208161835293044e-10 7.596830921950565e-10 4.3886896407752673e-10 7.872196522151466e-10
          6.123975970879137e-10 5.169190246843057e-10 7.896886638610307e-10 5.376160260520464e-10 6.541815548062175e-10 4.4358259081451094e-10
          3.834357209387524e-10 2.7397308769746506e-10 3.1364885789248415e-10 2.415741938388757e-10 1.906230310449721e-10 1.298907177016313e-10
          1.7135848850615264e-10 1.16485077733521e-10 5.099740765590111e-10 3.444498170696547e-10 4.34483767283046e-10 2.9496260364478276e-10
          2.408239432579814e-10 2.002988084067618e-10 2.055796735460841e-10 1.73282649684389e-10 2.459436295029626e-10 4.498522524339229e-10
          6.702060781347191e-10 1.9335113860757125e-10 2.1484364361290164e-10 1.9780926556706772e-10 2.9721087351824187e-10 3.969173610951943e-10
          3.4312223481690634e-10 5.214907816062509e-10 2.617742140764164e-10 2.9309097539915933e-10 3.817296977037857e-10 9.564681326915897e-10
          8.639799550978308e-10 7.642665346465941e-10 1.1074518417880672e-9 1.5619249047207212e-9 1.3910836808073857e-9 1.2164204880369167e-9
          1.7334621047619524e-9 2.4074159452562547e-9 2.131931492795127e-9 1.817651370468915e-9 2.325089770655139e-9 2.5396226262731426e-9
          2.390472101121419e-9 2.1188713847684287e-9 2.43373317630278e-9 6.681274852641507e-10 5.721794088515179e-10 8.45519344457632e-10
          4.845683599717564e-10 6.049381409951409e-10 1.0527294505859753e-9 8.908561201299566e-10 1.2804115196383635e-9 7.450997136099359e-10
          8.898122050091354e-10 1.539440991103185e-9 1.2778151296054136e-9 1.7101846856212024e-9 1.048482153916559e-9 1.1641284536105914e-9
          1.8272535113461227e-9 1.5214403881046856e-9 1.8956393377241063e-9 1.242191601310824e-9 1.2838743997027452e-9 2.3863140644164717e-10
          1.6945796260580077e-10 2.072016032172279e-10 1.8133528162471978e-10 2.9546650098662695e-10 1.769189763532167e-10 2.1553097796798207e-10
          1.9522640354460967e-10 2.2643985345195875e-10 1.9182161983692278e-10 3.026728863349444e-10 3.13281545486945e-10 1.52949776666991e-10
          1.8656022243144196e-10 1.3322792071142998e-10 1.6282311572328906e-10 1.3633583764577033e-10 1.6536588451734667e-10 1.4379956102186477e-10
          2.65075338316704e-10 2.329589482377986e-10 2.335717018052884e-10 4.634655817126824e-10 7.003090594588727e-10 4.126006489768214e-10
          3.6778432322736847e-10 5.659728538223855e-10 4.1625429346862465e-10 4.2051515623131225e-10 3.676665365917363e-10 6.309570567960007e-10
          5.615770129493583e-10 5.58656817044739e-10 3.6906874907909813e-10 3.278695844750453e-10 3.2440555155729054e-10 2.8709159799435066e-10
          5.047845571037784e-10 4.5358689627510595e-10 4.423819491174202e-10 1.7342405652388445e-10 1.5057914350386879e-10 1.2828370690375477e-10
          1.580429350824989e-10 1.371293770398232e-10 2.5222805021091386e-10 2.2109640628499836e-10 2.2909146927701588e-10 1.2981324444656827e-10
          1.1116829357500935e-10 9.515226412682627e-11 1.182990101722304e-10 1.0132112650129575e-10 1.9250672679257812e-10 1.6636051987646396e-10
          1.742699756781048e-10 1.1515504712796488e-10 1.4161974725840118e-10 9.989843407461565e-11 1.2305215870775356e-10 1.0195066829202373e-10
          1.2479022226824467e-10 1.0846922516836415e-10 2.0449002666269622e-10 1.7869861005236002e-10 1.791220483546871e-10 8.767585431702905e-11
          1.0677083751591439e-10 7.640866271316116e-11 9.144646639933276e-11 7.920788405335626e-11 9.415159400394656e-11 8.443621236216608e-11
          1.5513770374560144e-10 1.3309172529286237e-10 1.3520643121604487e-10 3.6096307408612844e-10 3.195629536443761e-10 3.267359424270064e-10
          2.886343100756688e-10 5.080627839589118e-10 4.545963697519821e-10 4.5843551015150726e-10 2.8087774370946543e-10 2.449425947295405e-10
          2.531508262289509e-10 2.2025145884681596e-10 4.036788029498459e-10 3.5554196773007245e-10 3.623952036620357e-10 2.904618434509668e-10
          2.560108230697245e-10 2.535282231640618e-10 2.228745482646968e-10 4.0601698107747533e-10 3.612732465055787e-10 3.5300989949907433e-10
          2.24339544551015e-10 1.9498278875111734e-10 1.9520547510928071e-10 1.6948499122978805e-10 3.191194298804196e-10 2.7960068451256614e-10
          2.7565861888850455e-10 9.458497421924511e-11 7.991825744298283e-11 6.860070170977505e-11 8.594883564232364e-11 7.237049734898583e-11
          1.426454515205276e-10 1.2135434949387413e-10 1.2850166910564893e-10 4.789440995225205e-11 6.054401479956571e-11 1.0244343274960733e-10
          9.189377780416481e-11 6.439965211047065e-11 7.691557671220294e-11 5.353773582896923e-11 6.433692864894722e-11 6.29071960092505e-11
          7.209214253055966e-11 6.006702735406934e-11 1.1297224563153756e-10 9.539659225901523e-11 1.0641128105388028e-10 4.480368801607385e-11
          5.3893520123052755e-11 3.720432370248351e-11 4.4753471253075e-11 4.38343054419835e-11 5.0428689506998184e-11 4.1861366087877676e-11
          8.020337208900452e-11 6.694465440424389e-11 7.508292512133874e-11 2.1186695122318656e-10 1.8174656914043066e-10 1.900544757306471e-10
          1.626691924623404e-10 3.1049155301108493e-10 2.688001439924032e-10 2.7739253894106866e-10 1.5461724325369877e-10 1.3812777956198186e-10
          2.3066275800646934e-10 2.05150348140361e-10 1.6772825283303178e-10 1.4304645485399343e-10 1.4522395212672443e-10 1.2334639194281099e-10
          2.42907267044208e-10 2.092307516543163e-10 2.0852576795711243e-10 1.2113480164669492e-10 1.0412548849678481e-10 1.7870792831031095e-10
          1.5252254431998091e-10 1.7399487705075562e-10 1.9803459440025583e-10 1.424754455572619e-10 1.672610298913848e-10 1.6401395680107008e-10
          1.8302892885463803e-10 1.5463370336994674e-10 2.7309597578828066e-10 2.317683387345404e-10 2.5343166793699627e-10 1.2194923092736765e-10
          1.4337540696971557e-10 1.0528790319501918e-10 1.2417008343907041e-10 1.1581042454200857e-10 1.320457336990865e-10 1.1412590044976615e-10
          2.0097479383504896e-10 1.7540774798790187e-10 1.8401897579774716e-10 3.692072946102818e-10 3.200444075892117e-10 3.18213244862863e-10
          2.737510068249483e-10 4.877243572812691e-10 4.2842383791749376e-10 4.183481645844502e-10 2.808864579479138e-10 2.475457145351362e-10
          2.386617372582364e-10 2.093753593944049e-10 3.8093855451200765e-10 3.392388970013499e-10 3.2234519691044277e-10 2.3660346718283887e-10
          2.7020045725349364e-10 1.9558697402156438e-10 2.2984269532886537e-10 3.538747522208595e-10 3.055681408775498e-10 1.6810245431115965e-10
          1.9889509164748087e-10 1.4590603752602656e-10 1.7355857136775605e-10 1.3830471107849814e-10 1.633102783079145e-10 1.4175635638753308e-10
          2.6809102831511575e-10 2.361935141073236e-10 2.1920442326016423e-10 9.068003059356963e-11 1.0745500329907833e-10 7.871814699527057e-11
          9.318750979485519e-11 8.596375760929342e-11 9.85830092259455e-11 8.536034832924593e-11 1.5304925829463406e-10 1.331132037840787e-10
          1.395197113291226e-10 6.971702835558478e-11 8.048968358825252e-11 6.636820375188089e-11 7.462848665108208e-11 6.522533010565477e-11
          7.363390160808534e-11 6.853397691052547e-11 1.1478379421384018e-10 1.0714747074369977e-10 1.0438725814729961e-10 2.1780984948736497e-10
          1.9082974769456892e-10 1.8350261937790802e-10 1.6017464076588918e-10 3.0128300284787794e-10 2.6618684693456183e-10 2.524792729079955e-10
          1.6654623888998605e-10 1.439952357344701e-10 1.390221557206547e-10 1.1963188337963003e-10 2.3354644623997824e-10 2.0329664253176107e-10
          1.9414144756973319e-10 1.2691260387043556e-10 1.5154045173992103e-10 1.1001792769411667e-10 1.3180338556977845e-10 1.0363086893624429e-10
          1.23315373198758e-10 1.0685825916900454e-10 2.0783100331724973e-10 1.8204800284227558e-10 1.681435611628588e-10 9.444614440516996e-11
          1.1377374932473014e-10 8.054148125836e-11 9.75354270484291e-11 7.642364664333647e-11 9.181527165031906e-11 7.846558170696859e-11
          1.5847829374352165e-10 1.3697606355735464e-10 1.2715667123455668e-10 1.0090310839863071e-10 1.2290483455615408e-10 8.473383186387811e-11
          1.0407251308150329e-10 8.367813520128643e-11 1.0189523604897188e-10 8.615896030825552e-11 1.755074515985297e-10 1.5025431241254618e-10
          1.449033045051372e-10 7.091172763204029e-11 8.76129919806246e-11 5.870485616221963e-11 7.237642443960146e-11 1.276028179132635e-10
          1.0475243471651672e-10 6.830006778780601e-11 8.30640173775949e-11 5.7609906715358336e-11 7.026985373079156e-11 5.5227065020607097e-11
          6.680314872664823e-11 5.6489917873644104e-11 1.175034219689341e-10 1.0002235374000016e-10 9.367743236074357e-11 4.8088303590807466e-11
          5.893762103310379e-11 3.888240334290409e-11 4.7283365323029036e-11 8.449058058290948e-11 6.700936431306995e-11 9.14172537526634e-10
          8.344084723643324e-10 1.1850885543751862e-9 7.628632510513499e-10 6.962947635438692e-10 1.0113673837689963e-9 8.220011376849732e-10
          7.449209551121976e-10 7.253275057259285e-10 6.537072875234498e-10 1.058965808198321e-9 9.711580654569262e-10 9.291338251900651e-10
          6.781298359399775e-10 6.16523859795247e-10 5.919671478838134e-10 5.357660211946925e-10 8.952634041603629e-10 8.232672167842479e-10
          7.779018033989826e-10 1.5093712429532878e-9 1.4110560348573365e-9 1.909812144447544e-9 1.3795043165827364e-9 1.321184644344489e-9
          1.2326422516237678e-9 1.81216113042916e-9 1.7040221576512698e-9 1.3402225383222567e-9 1.2464722879130134e-9 1.169523613606945e-9
          1.0822653314679204e-9 1.6785617944034519e-9 1.576314323286191e-9 1.4477665204440465e-9 1.1624379018986654e-9 1.0804101630967031e-9
          1.0039633474580832e-9 9.28821767461826e-10 1.4833726547659509e-9 1.3911556733109926e-9 1.270108986085083e-9 7.030528544814417e-10
          6.359978398851952e-10 6.323353610947254e-10 5.703683622493613e-10 9.568893894086585e-10 8.748951219184352e-10 8.573190782790167e-10
          5.708438185700445e-10 5.080979397036559e-10 5.105001520378925e-10 4.531326800863342e-10 7.936282540483238e-10 7.13964732280991e-10
          7.069123342365412e-10 5.578770864860134e-10 5.014956509369061e-10 4.82805186460819e-10 4.3233368747250796e-10 7.530369856995401e-10
          6.840572079295294e-10 6.484773078544888e-10 4.473857616647639e-10 3.958405822154648e-10 3.842616685663283e-10 3.3877354438018895e-10
          6.165838080411455e-10 5.51164354153297e-10 5.266504191211161e-10 1.2826862177499006e-9 1.1840419654715768e-9 1.1430713755484196e-9
          1.0523957606011063e-9 1.694485195222389e-9 1.573817937188881e-9 1.4962937534855445e-9 1.0845960403946097e-9 9.856191270474555e-10
          9.614447902192095e-10 8.712872457381231e-10 1.4519614023506505e-9 1.3303470290438678e-9 1.2791825103896547e-9 9.983902535336312e-10
          9.160658507476526e-10 8.546173104644439e-10 7.808960975253424e-10 1.2967245821013655e-9 1.2003047203357423e-9 1.1019446608152546e-9
          8.340472795788825e-10 7.531893893608384e-10 7.080422305398629e-10 6.367089975332517e-10 1.102830020507834e-9 1.0054094111143757e-9
          9.300194534794292e-10 2.350742450940869e-9 2.245213900526688e-9 2.5787679905093403e-9 2.3071599902348406e-9 2.1399169130873295e-9
          2.021689876987936e-9 2.6169843898054584e-9 2.4528879802899805e-9 2.0603808474333654e-9 1.94094328369174e-9 1.7556371083867047e-9
          1.6487378812848054e-9 2.3037343077655302e-9 2.235117917875583e-9 1.977026828385405e-9 1.8411343738561858e-9 1.7350912142923044e-9
          1.5584259831540722e-9 1.4661742885787461e-9 2.132385046713983e-9 2.015826128397771e-9 1.8008244346104062e-9 2.5234536521039305e-9
          2.5019045774320607e-9 2.4347835166053903e-9 2.4850973927176144e-9 2.441918278380691e-9 2.352159685349286e-9 2.2962672982572913e-9
          2.3424789624714973e-9 2.3695209632735533e-9 2.308696209704832e-9 2.089625249959339e-9 2.0115633052517716e-9 2.3706458837599025e-9
          2.2750366275575575e-9 2.127179498077365e-9 2.2168079142834985e-9 2.1031202608094918e-9 1.909665449751103e-9 1.800646629312032e-9
          2.1935662161891847e-9 2.0848587496608996e-9 1.9216731409632874e-9 2.1691584397514038e-9 2.019897118907685e-9 1.89488872197849e-9
          1.7637523678363925e-9 2.4915158278102663e-9 2.338692816056411e-9 2.2027030051950458e-9 1.8666704890080045e-9 1.7151817952935185e-9
          1.6317955371289118e-9 1.5010006918625674e-9 2.1680011899154833e-9 1.991171530034194e-9 1.899828752030864e-9 1.625276959488295e-9