<?xml version="1.0"?>
<VTKFile type="UnstructuredGrid" version="0.1" byte_order="LittleEndian" header_type="UInt32" compressor="vtkZLibDataCompressor">
  <UnstructuredGrid>
    <Piece NumberOfPoints="991" NumberOfCells="653">
      <PointData>
        <DataArray type="Int32" Name="libmesh_node_id" format="ascii" RangeMin="684" RangeMax="8654">
          684 836 843 1118 1132 1133
          1138 1154 1160 2016 2017 2018
          2019 2104 2105 2106 2107 2108
          2109 2110 2111 2112 2113 2131
          2132 2144 2145 2146 2147 2148
          2149 2150 2151 2152 2153 2161
          2162 2163 2164 2165 2166 2167
          2196 2197 2200 2202 2203 2204
          2205 2236 2237 2238 2239 2240
          2242 2243 2244 2245 2256 2260
          3107 3109 3110 3111 3112 3113
          3114 3115 3116 3117 3118 3119
          3120 3121 3122 3123 3124 3125
          3126 3127 3128 3129 3130 3131
          3132 3133 3134 3136 3137 3138
          3207 3208 3209 3210 3211 3212
          3215 3217 3218 3219 3220 3221
          3222 3223 3224 3225 3226 3227
          3228 3230 3232 3234 3235 3236
          3237 3238 3239 3240 3243 3244
          3246 3249 3251 3252 3253 3254
          3255 3256 3257 3258 3259 3260
          3262 3264 3266 3268 3269 3270
          3271 3272 3273 3274 3296 3298
          3299 3300 3302 3304 3306 3308
          3309 3310 3311 3312 3313 3314
          3399 3400 3401 3402 3423 3424
          3425 3426 3427 3428 3429 3430
          3431 3432 3433 3434 3437 3439
          3440 3441 3442 3445 3446 3447
          3581 3582 3583 3584 3585 3586
          3587 3588 3589 3590 3591 3592
          3593 3594 3595 3596 3597 3598
          3599 3600 3601 3602 3603 3604
          3605 3606 3607 3608 3612 3615
          3616 3617 3618 3619 3620 3621
          3622 3623 3624 3625 3626 3627
          3628 3629 3630 3631 3632 3633
          3634 3635 3636 3637 3638 3639
          3640 3641 3642 3646 5883 5885
          5886 5887 5888 5890 5892 5893
          5894 5895 5896 5897 5898 5899
          5900 5901 5902 5903 5904 5905
          5906 5907 5908 6347 6348 6350
          6353 6355 6356 6357 6358 6359
          6360 6361 6362 6363 6364 6366
          6368 6370 6372 6373 6374 6375
          6376 6377 6378 6389 6390 6391
          6392 6393 6394 6395 6396 6397
          6398 6406 6407 6408 6409 6410
          6411 6412 6413 6414 6415 6416
          6417 6418 6419 6420 6421 6422
          6423 6424 6425 6426 6427 6428
          6429 6430 6431 6432 6433 6434
          6435 6436 6437 6438 6439 6440
          6441 6442 6443 6444 6445 6446
          6447 6448 6449 6450 6451 6452
          6453 6454 6455 6456 6457 6458
          6459 6460 6461 6462 6463 6464
          6465 6466 6467 6468 6469 6470
          6471 6472 6473 6474 6475 6476
          6477 6478 6479 6480 6484 6485
          6486 6494 6495 6496 6497 6498
          6499 6500 6504 6505 6506 6507
          6508 6509 6510 6511 6512 6513
          6514 6515 6516 6517 6518 6519
          6520 6521 6522 6523 6534 6535
          6536 6537 6538 6539 6540 6541
          6542 6543 6551 6552 6553 6554
          6555 6556 6557 6568 6569 6570
          6571 6572 6573 6574 6575 6576
          6577 6585 6586 6587 6588 6589
          6590 6591 6592 6593 6594 6595
          6596 6597 6598 6599 6600 6601
          6602 6603 6604 6605 6606 6607
          6608 6609 6610 6611 6612 6613
          6614 6615 6616 6617 6618 6619
          6620 6621 6622 6623 6624 6625
          6626 6627 6628 6629 6630 6631
          6632 6633 6634 6635 6636 6637
          6638 6639 6640 6641 6642 6643
          6644 6645 6646 6647 6648 6649
          6650 6651 6652 6653 6654 6655
          6656 6657 6658 6659 6667 6668
          6669 6670 6671 6672 6673 6682
          6691 6692 6693 6694 6695 6696
          6697 6706 6708 6710 6712 6713
          6714 6715 6716 6717 6718 6719
          6720 6721 6722 6723 6724 6725
          6726 6727 6728 6729 6730 6731
          6732 6733 6734 6735 6736 6737
          6738 6739 6740 6741 6742 6743
          6744 6745 6746 6747 6748 6749
          7103 7104 7105 7106 7107 7108
          7109 7110 7111 7112 7113 7114
          7115 7116 7120 7127 7128 7130
          7133 7138 7140 7141 7142 7143
          7144 7145 7146 7147 7148 7149
          7150 7151 7152 7153 7154 7155
          7156 7157 7158 7159 7160 7161
          7162 7163 7164 7165 7166 7167
          7938 7939 7940 7941 7942 7943
          7944 7945 7946 7947 7948 7949
          7950 7951 7952 7953 7954 7955
          7956 7957 7958 7959 7960 7961
          7962 7963 7964 7965 7966 7967
          7968 7969 7970 7971 7972 7973
          7974 7975 7976 7977 7978 7979
          7980 7981 7982 7983 7984 7985
          7986 7987 7988 7989 7990 7991
          7992 7993 7994 7995 7996 7997
          7998 7999 8000 8001 8002 8003
          8004 8005 8006 8007 8008 8009
          8010 8011 8012 8013 8014 8015
          8016 8017 8018 8019 8020 8021
          8022 8023 8024 8025 8026 8027
          8028 8029 8030 8031 8032 8033
          8034 8035 8036 8037 8038 8039
          8040 8041 8042 8043 8044 8045
          8046 8047 8048 8049 8050 8051
          8052 8053 8054 8055 8056 8057
          8058 8059 8060 8061 8062 8063
          8064 8065 8066 8067 8068 8069
          8070 8071 8072 8073 8074 8075
          8076 8077 8078 8079 8080 8081
          8082 8083 8084 8085 8086 8087
          8088 8089 8090 8091 8114 8115
          8116 8134 8135 8136 8137 8138
          8139 8140 8141 8142 8143 8144
          8145 8146 8147 8148 8149 8150
          8151 8152 8153 8154 8155 8156
          8157 8158 8159 8160 8161 8162
          8163 8164 8165 8166 8167 8168
          8169 8170 8171 8172 8173 8174
          8175 8176 8177 8178 8179 8180
          8181 8182 8183 8184 8185 8186
          8187 8188 8189 8190 8191 8192
          8193 8194 8195 8196 8197 8198
          8199 8200 8201 8202 8203 8204
          8205 8206 8207 8208 8209 8210
          8211 8212 8213 8214 8215 8216
          8217 8218 8219 8220 8221 8222
          8223 8224 8225 8226 8227 8228
          8229 8230 8231 8232 8233 8234
          8235 8236 8237 8238 8239 8240
          8241 8242 8243 8244 8245 8246
          8247 8248 8249 8250 8251 8252
          8253 8254 8255 8256 8257 8258
          8259 8260 8261 8262 8263 8264
          8265 8266 8267 8268 8269 8270
          8271 8272 8273 8274 8275 8276
          8277 8278 8279 8280 8281 8282
          8283 8284 8285 8286 8287 8288
          8289 8290 8291 8292 8293 8294
          8295 8296 8297 8298 8299 8300
          8301 8302 8303 8304 8322 8323
          8324 8325 8326 8327 8328 7499
          7500 7505 7506 7503 7508 7519
          7523 7521 7525 8346 8347 8350
          8352 8353 8355 8366 8368 8370
          8372 8380 8381 8384 8386 8387
          8389 8400 8402 8404 8406 8594
          8595 8598 8600 8601 8603 8614
          8616 8618 8620 8628 8629 8632
          8634 8635 8637 8648 8650 8652
          8654
        </DataArray>
        <DataArray type="Float64" Name="bounds" format="ascii" RangeMin="0" RangeMax="0">
          0 0 0 0 0 0
          0 0 0 0 0 0
          0 0 0 0 0 0
          0 0 0 0 0 0
          0 0 0 0 0 0
          0 0 0 0 0 0
          0 0 0 0 0 0
          0 0 0 0 0 0
          0 0 0 0 0 0
          0 0 0 0 0 0
          0 0 0 0 0 0
          0 0 0 0 0 0
          0 0 0 0 0 0
          0 0 0 0 0 0
          0 0 0 0 0 0
          0 0 0 0 0 0
          0 0 0 0 0 0
          0 0 0 0 0 0
          0 0 0 0 0 0
          0 0 0 0 0 0
          0 0 0 0 0 0
          0 0 0 0 0 0
          0 0 0 0 0 0
          0 0 0 0 0 0
          0 0 0 0 0 0
          0 0 0 0 0 0
          0 0 0 0 0 0
          0 0 0 0 0 0
          0 0 0 0 0 0
          0 0 0 0 0 0
          0 0 0 0 0 0
          0 0 0 0 0 0
          0 0 0 0 0 0
          0 0 0 0 0 0
          0 0 0 0 0 0
          0 0 0 0 0 0
          0 0 0 0 0 0
          0 0 0 0 0 0
          0 0 0 0 0 0
          0 0 0 0 0 0
          0 0 0 0 0 0
          0 0 0 0 0 0
          0 0 0 0 0 0
          0 0 0 0 0 0
          0 0 0 0 0 0
          0 0 0 0 0 0
          0 0 0 0 0 0
          0 0 0 0 0 0
          0 0 0 0 0 0
          0 0 0 0 0 0
          0 0 0 0 0 0
          0 0 0 0 0 0
          0 0 0 0 0 0
          0 0 0 0 0 0
          0 0 0 0 0 0
          0 0 0 0 0 0
          0 0 0 0 0 0
          0 0 0 0 0 0
          0 0 0 0 0 0
          0 0 0 0 0 0
          0 0 0 0 0 0
          0 0 0 0 0 0
          0 0 0 0 0 0
          0 0 0 0 0 0
          0 0 0 0 0 0
          0 0 0 0 0 0
          0 0 0 0 0 0
          0 0 0 0 0 0
          0 0 0 0 0 0
          0 0 0 0 0 0
          0 0 0 0 0 0
          0 0 0 0 0 0
          0 0 0 0 0 0
          0 0 0 0 0 0
          0 0 0 0 0 0
          0 0 0 0 0 0
          0 0 0 0 0 0
          0 0 0 0 0 0
          0 0 0 0 0 0
          0 0 0 0 0 0
          0 0 0 0 0 0
          0 0 0 0 0 0
          0 0 0 0 0 0
          0 0 0 0 0 0
          0 0 0 0 0 0
          0 0 0 0 0 0
          0 0 0 0 0 0
          0 0 0 0 0 0
          0 0 0 0 0 0
          0 0 0 0 0 0
          0 0 0 0 0 0
          0 0 0 0 0 0
          0 0 0 0 0 0
          0 0 0 0 0 0
          0 0 0 0 0 0
          0 0 0 0 0 0
          0 0 0 0 0 0
          0 0 0 0 0 0
          0 0 0 0 0 0
          0 0 0 0 0 0
          0 0 0 0 0 0
          0 0 0 0 0 0
          0 0 0 0 0 0
          0 0 0 0 0 0
          0 0 0 0 0 0
          0 0 0 0 0 0
          0 0 0 0 0 0
          0 0 0 0 0 0
          0 0 0 0 0 0
          0 0 0 0 0 0
          0 0 0 0 0 0
          0 0 0 0 0 0
          0 0 0 0 0 0
          0 0 0 0 0 0
          0 0 0 0 0 0
          0 0 0 0 0 0
          0 0 0 0 0 0
          0 0 0 0 0 0
          0 0 0 0 0 0
          0 0 0 0 0 0
          0 0 0 0 0 0
          0 0 0 0 0 0
          0 0 0 0 0 0
          0 0 0 0 0 0
          0 0 0 0 0 0
          0 0 0 0 0 0
          0 0 0 0 0 0
          0 0 0 0 0 0
          0 0 0 0 0 0
          0 0 0 0 0 0
          0 0 0 0 0 0
          0 0 0 0 0 0
          0 0 0 0 0 0
          0 0 0 0 0 0
          0 0 0 0 0 0
          0 0 0 0 0 0
          0 0 0 0 0 0
          0 0 0 0 0 0
          0 0 0 0 0 0
          0 0 0 0 0 0
          0 0 0 0 0 0
          0 0 0 0 0 0
          0 0 0 0 0 0
          0 0 0 0 0 0
          0 0 0 0 0 0
          0 0 0 0 0 0
          0 0 0 0 0 0
          0 0 0 0 0 0
          0 0 0 0 0 0
          0 0 0 0 0 0
          0 0 0 0 0 0
          0 0 0 0 0 0
          0 0 0 0 0 0
          0 0 0 0 0 0
          0 0 0 0 0 0
          0 0 0 0 0 0
          0 0 0 0 0 0
          0 0 0 0 0 0
          0 0 0 0 0 0
          0 0 0 0 0 0
          0 0 0 0 0 0
          0 0 0 0 0 0
          0 0 0 0 0 0
          0 0 0 0 0 0
          0 0 0 0 0 0
          0
        </DataArray>
        <DataArray type="Float64" Name="gradient_error" format="ascii" RangeMin="2.6661077313695166e-9" RangeMax="3.869808921735276e-7">
          1.657935755231144e-8 8.232468524080068e-8 5.4344069984351274e-8 2.5569409652289617e-8 1.1327367889227799e-7 2.936544699085485e-7
          3.3704617075641323e-7 1.9809635036506084e-8 4.2729666755262346e-8 1.828520813793661e-7 1.3606893320549887e-7 7.236758658947955e-8
          6.129863822811969e-8 1.3899601859622903e-7 2.511230306803732e-7 1.2057934498977223e-7 2.0791687094714983e-7 2.3758448707491637e-7
          1.836805717868733e-7 1.0692099692568355e-7 2.6325661462692613e-7 2.3771917257389264e-7 3.869808921735276e-7 2.187815291746248e-7
          1.4476403932073347e-7 2.336871861923362e-8 3.419850436860885e-8 3.555424830558807e-8 4.915419936573727e-8 3.086785587545369e-7
          3.035334069263918e-7 1.1142610263731752e-8 3.5616068765836635e-8 5.290386956239041e-8 1.0823680771413669e-7 2.2451060628714374e-7
          2.0660382208369488e-7 1.1858112925429448e-7 3.878342092573247e-8 1.210154199486539e-7 1.939412014446338e-7 1.5279992967484737e-7
          7.64306484043859e-8 1.0564115618246257e-7 8.125256721862862e-8 1.0310198931798286e-7 1.8424408072921351e-7 1.2510080029309155e-8
          1.3681689770422965e-7 4.4695529644095226e-8 8.664061762465861e-8 3.7635128095004446e-8 3.96137511725002e-8 1.9718505252928286e-7
          5.536759458118049e-9 6.837459996512875e-8 5.614697212705303e-8 2.689805626075061e-7 1.2294164106156493e-7 1.5695972200114878e-7
          9.359314621727195e-8 9.255628713206924e-8 9.011973237740561e-8 8.546181592843392e-8 8.768317762274197e-8 1.3622488948281522e-7
          1.2993720207481426e-7 1.3947257467163665e-7 1.3223722678369306e-7 1.236495146668133e-7 1.2500187889574947e-7 1.0171514199007491e-7
          9.667867129551547e-8 1.0156531537788433e-7 1.3224090135982596e-7 1.4135180536495223e-7 1.3318820531758316e-7 1.4036770254517786e-7
          1.3147515931360058e-7 1.2502460527021406e-7 1.2258261608202325e-7 1.1122001034819081e-7 1.0564400418983768e-7 1.0735910332642116e-7
          1.4054965824546372e-7 1.8534045724224873e-7 1.8641437205095133e-7 1.8197384602072132e-7 1.6979447766436884e-7 1.3956457693978966e-7
          2.1041499146098565e-8 2.416900764313344e-8 2.4865118088579194e-8 2.8263269586274522e-8 7.673342398753682e-8 8.188653544026155e-8
          2.8945672310936833e-8 2.952866221280657e-8 3.340868298591173e-8 3.4188036082376416e-8 3.906199169017203e-8 8.605420205275605e-8
          8.748817496104511e-8 2.9075785524251458e-8 3.679568128637307e-8 4.626343907910393e-8 4.125939116839267e-8 1.5844590002130258e-7
          1.601448815909791e-7 1.9066170379841789e-7 1.5233910693298457e-7 1.5624400101406184e-7 1.4460852403495333e-7 1.807798189744544e-7
          1.6145838520643938e-7 1.5430382721080237e-7 1.4704701898623463e-7 2.1296508139735137e-7 1.5764372795332687e-8 2.644190630663141e-8
          3.585712446731047e-8 2.328712209521234e-8 1.9610877294146637e-8 3.498414537853941e-8 1.209582277273317e-8 4.4308377162068213e-8
          4.423330070865684e-8 5.367457304959058e-8 1.7008212847676623e-8 2.9454988227647203e-8 3.646628993264166e-8 4.395397892024538e-8
          1.0356184360813106e-7 1.6302092523289495e-7 3.9743939137482294e-8 1.4767964323957552e-7 1.8345071133023576e-7 1.8869866450184522e-7
          2.459728752997303e-7 1.2060367799792324e-7 1.9551775757621524e-7 1.6905076941512143e-7 1.1427794840350816e-7 9.772610705549217e-8
          8.83773292936069e-8 8.225239269792102e-8 1.2395547293030186e-7 9.035381852602652e-8 1.3363299745709556e-7 1.060290401080804e-7
          9.597442232671549e-8 8.435437553918221e-8 8.288260735278665e-8 1.1433197316066863e-7 1.0357151535982408e-7 8.645635838044338e-8
          8.357153531445967e-8 7.905687536738286e-8 5.233543087533621e-8 7.454221542030607e-8 1.3496504202792658e-7 1.2534024258224943e-7
          1.2342143008768795e-7 1.1377792301418321e-7 1.1571544313657229e-7 8.739964266348735e-8 1.113068799713658e-7 1.0467710862373505e-7
          1.2734646537972744e-7 1.2887717417316188e-7 6.43893243629713e-8 5.910895300315425e-8 4.160072476181069e-8 6.045130989795229e-8
          8.822616577933577e-8 1.941154446188794e-8 8.834600245391084e-8 1.4866205939000535e-7 1.0100606951850539e-7 1.0171190904075797e-7
          3.7548522463088365e-8 4.3723002045067924e-8 3.824181687575833e-8 7.468514454657461e-8 8.395948265511052e-8 1.3549299690680194e-7
          4.000149756681642e-8 5.529656538598808e-8 5.991286088974077e-8 5.583535071629966e-8 3.5052551285491597e-8 7.140813360378377e-8
          3.0766259628228745e-8 3.512641330549185e-8 1.1082761617817099e-7 2.4368635974123108e-8 4.542121235088781e-8 5.6884537378588083e-8
          4.756039467627548e-8 8.144463847549367e-8 1.2441056610432593e-7 1.322199396493619e-7 1.3313754271450312e-7 7.74837409853352e-8
          1.2744789674313738e-7 1.3152995966552477e-7 2.0648758799652712e-7 8.357441401990069e-8 8.497150487252168e-8 4.042760140060757e-9
          4.8080840920423754e-8 7.87964755023381e-9 5.8879862084344534e-8 6.222624451845462e-8 6.738105311280715e-8 7.550046415176861e-9
          3.9750595902938236e-8 4.907867775770813e-8 6.200329919886166e-8 3.3705246642614776e-8 6.84601783908753e-8 4.464070505975624e-8
          5.7892542186405674e-8 6.485616660378518e-8 5.198428989787066e-8 2.1058788170695762e-8 6.445861335272253e-8 6.145001689686167e-8
          6.799430309670372e-8 1.6552794558891176e-7 1.329787387713296e-7 2.7315831486937616e-7 1.595205916378778e-7 1.7817272100000988e-7
          1.4567049646632703e-7 2.979046301339464e-7 7.030848990096197e-8 7.771098479507622e-8 2.8063638875246433e-8 2.8926102843583594e-8
          2.9272655995347205e-8 3.050959322359614e-8 3.083576812954328e-8 3.0548952870762756e-8 3.184001021749479e-8 3.3114045636152586e-8
          3.1627693323013826e-8 3.112850126206889e-8 3.1730122653904266e-8 3.2992750749550264e-8 3.366019591109389e-8 3.355528130812361e-8
          3.4294765301861577e-8 3.551597622017881e-8 3.626352599256669e-8 3.4444047240950154e-8 3.563484128016363e-8 3.389944670545218e-8
          3.6436601825599135e-8 3.680251561788849e-8 3.5380400961664416e-8 2.427265879116602e-8 2.4969896236675175e-8 2.7325682229095754e-8
          2.187288171770163e-8 2.5616686645092692e-8 2.633581836614216e-8 2.7081249571337652e-8 2.784462853686358e-8 2.8812587502922248e-8
          3.044096012430859e-8 2.282826249208131e-8 2.3688201498886022e-8 2.5770539484551992e-8 2.607529628522216e-8 3.005984506300856e-8
          3.113545935000994e-8 2.7761840482541193e-8 3.155423100210079e-8 3.313647419582063e-8 3.253823708554871e-8 3.399903564541359e-8
          2.9752028929676228e-8 3.199420835991877e-8 3.296166816676886e-8 2.2837260711152817e-8 2.3732448209274105e-8 2.5172337009805525e-8
          2.623877570438758e-8 2.576044062691971e-8 2.8527535485519977e-8 2.101138477884528e-8 2.249252606089169e-8 2.513431068587289e-8
          2.5812759535011563e-8 2.8358951896996076e-8 3.1180067296709835e-8 3.185601110586568e-8 3.446895855758755e-8 2.8868010118455398e-8
          3.215381210940266e-8 3.116384227138986e-8 2.8643062130132256e-8 2.946602872214571e-8 3.0292124779511766e-8 3.118051181791907e-8
          3.2183922940945886e-8 3.398949438172952e-8 2.7126537478069134e-8 2.8106282746991713e-8 3.0627114972818085e-8 3.072348451941855e-8
          3.195838637890416e-8 3.292127617925714e-8 3.349745075652152e-8 3.456063136474897e-8 3.5775718157716924e-8 3.744624322198542e-8
          3.193820034613943e-8 3.32168097751497e-8 3.5711383765852497e-8 3.6236098937092064e-8 3.4831495249438866e-8 3.64976668255795e-8
          3.558413993114512e-8 3.7085243744026335e-8 3.445822989885623e-8 3.709154219831748e-8 3.75245258841477e-8 3.795583723465926e-8
          3.91470564808923e-8 3.8244404133494786e-8 3.902543849079019e-8 3.980166009512381e-8 4.246714944583905e-8 4.2277425964179684e-8
          2.7786832082089138e-8 2.9070750330725393e-8 3.062944361515741e-8 3.219157486068108e-8 3.168240173127509e-8 3.520208874126912e-8
          2.607034429516102e-8 2.8203362361247476e-8 3.1676983235777885e-8 3.260869310647863e-8 3.359785939313997e-8 3.549992770913214e-8
          3.6539003892836814e-8 3.881754479821485e-8 3.89834760947856e-8 4.2801153001092394e-8 3.2287638133557754e-8 3.546650288193163e-8
          3.941215543235918e-8 4.141517521050367e-8 3.4334170299870445e-8 3.7805177680662495e-8 3.7312080446783154e-8 4.0343640554392896e-8
          3.592099603114716e-8 4.013652306122557e-8 3.756546329574402e-8 4.150186697866623e-8 4.5207455249084754e-8 4.346737919244809e-8
          4.652183916232389e-8 4.467461119178995e-8 4.928895124358328e-8 4.5185660524361e-8 3.544487785675611e-8 3.7214004774638424e-8
          3.580796280240341e-8 3.551335422912638e-8 3.762852285339824e-8 3.713934449406952e-8 3.8929406612970726e-8 3.515442551690179e-8
          3.78216138192889e-8 3.806533500084961e-8 3.888914234295123e-8 4.034218589988738e-8 3.831574458303866e-8 4.141096079310375e-8
          4.190782157252137e-8 3.924272673411536e-8 3.977404689599513e-8 4.1809611883821455e-8 4.058213861497629e-8 4.189182664384862e-8
          4.0703489870222616e-8 4.3659430435942704e-8 4.323703942562818e-8 4.356086223076173e-8 4.481694281173731e-8 4.262574386951284e-8
          4.2498897498404456e-8 4.650924497167254e-8 4.904854132870919e-8 4.781140848750118e-8 1.784574191103563e-8 2.0033466040434396e-8
          1.992386672298467e-8 2.256109037268491e-8 2.4758884655826866e-8 2.8048638935669336e-8 1.41905728275798e-8 1.7124758064446858e-8
          1.9311165488970144e-8 2.3243155261983702e-8 2.9155470240249523e-8 3.277575277592687e-8 3.1764057324062895e-8 3.5156059373342096e-8
          2.8749430791439316e-8 3.242175915342889e-8 3.226111190656267e-8 1.1187196822535617e-8 1.4616136905854993e-8 1.2410461491476388e-8
          1.63036541501953e-8 2.1732676660059963e-8 2.4401936408778284e-8 9.987229139037142e-9 1.355211179961497e-8 1.4954672985876565e-8
          2.1030988597479466e-8 2.8109753852055663e-8 3.1532523729953054e-8 3.219340728824986e-8 3.579129878681049e-8 2.777786408616744e-8
          3.099603111516756e-8 3.205893125434033e-8 2.233514899136695e-8 2.5560128434018143e-8 2.5039945403809898e-8 2.902812339391788e-8
          3.198326153341806e-8 3.6591023862481284e-8 1.7590362972384073e-8 2.1944077548394802e-8 2.5029764493947026e-8 3.0332869391415075e-8
          2.6884290635066887e-8 3.236878812158587e-8 2.6437464942864524e-8 3.417503565251537e-8 4.181712395967702e-8 4.687220196855039e-8
          1.849877939841503e-8 2.6774918004607443e-8 2.435531266665451e-8 4.025256274549831e-8 3.7009713445941806e-8 4.184339037190935e-8
          3.893456806890306e-8 4.3078691715699876e-8 3.675002311008961e-8 4.177167483429792e-8 3.9874954142187507e-8 4.7173954768581664e-8
          5.278230074378533e-8 4.746998283351312e-8 5.188040668489667e-8 4.744769351387536e-8 5.3604993786581526e-8 4.8880229451603525e-8
          1.4299371600215848e-8 1.8640314654941946e-8 1.690426620583709e-8 2.174886779661343e-8 2.7652843189435298e-8 3.1649061840125225e-8
          1.3425838854311043e-8 1.7236876316490133e-8 2.0637679583626668e-8 2.601456884443029e-8 1.657847215100986e-8 2.353759591329231e-8
          1.1061821049907798e-8 2.1051083356283307e-8 3.616798249496293e-8 3.9362206683074346e-8 1.9033500051893715e-8 2.344394922129581e-8
          2.2734910393613808e-8 3.341740163553019e-8 3.5473507863040145e-8 3.999610951700093e-8 3.9845780329439205e-8 4.418810715167209e-8
          3.459522839544639e-8 3.865036732245898e-8 3.965165056658525e-8 4.5138592645686116e-8 5.084249842867853e-8 4.873083761106346e-8
          5.349879759121657e-8 4.325597182800916e-8 4.843391723498564e-8 4.83426840285133e-8 3.458484330996763e-8 3.7603160554239565e-8
          3.6655933310487956e-8 3.9546744064695153e-8 3.3938432426591396e-8 3.7095474223095066e-8 3.61753415283101e-8 4.062637228591734e-8
          3.350204880484677e-8 3.654846445217908e-8 3.6661200821320254e-8 3.9356727721362026e-8 3.3569898944139083e-8 3.651211486022744e-8
          3.6885350752681525e-8 4.0800626911657136e-8 3.886015116259118e-8 4.097488153739693e-8 4.097502330011667e-8 4.4518002504357506e-8
          4.291892216414405e-8 4.639965598019727e-8 4.080316453732096e-8 4.4853493967619773e-8 4.1699209224202e-8 4.7965291330776745e-8
          5.1179775745741263e-8 4.9557564220441396e-8 5.233154203432527e-8 4.871737359885114e-8 5.230816932538846e-8 4.9115606442049185e-8
          4.19419742448691e-8 4.243318672120785e-8 4.0763361521175195e-8 4.0297002820732734e-8 4.462348080288591e-8 4.1801202902808693e-8
          4.4150673967231834e-8 4.018969487565068e-8 4.453415567511741e-8 4.2159741031287215e-8 4.8743583185485286e-8 5.25698335877345e-8
          4.8463431125864805e-8 5.2143001146903044e-8 4.86752755598964e-8 5.2511861409709485e-8 4.819672183842202e-8 4.236860309055379e-8
          4.298625924153241e-8 4.065983241495499e-8 4.1837120668506954e-8 4.279523193623847e-8 4.353933176185696e-8 4.05563033087348e-8
          3.583869544072625e-8 3.6429720907263143e-8 3.682307104204662e-8 3.7736146624717624e-8 3.572509151041288e-8 3.647511485146056e-8
          3.516475180075045e-8 3.7257492310808204e-8 3.670022985882149e-8 3.6100462972673795e-8 3.494891284200777e-8 3.515087595094052e-8
          3.461102997972534e-8 3.301190547277287e-8 1.2429702034755868e-8 1.1651928203456225e-8 1.1349882651521902e-8 1.0562678449305811e-8
          1.0122675020348858e-8 9.021436737063998e-9 6.652524490254329e-9 1.867378484733603e-8 1.805141906669743e-8 1.712565575106607e-8
          3.211261446975184e-8 3.2826431196781563e-8 2.6748088868361628e-8 3.3540247923811286e-8 1.692841057287934e-8 1.6638044290854435e-8
          1.397343137537215e-8 1.39760671202915e-8 1.5847951066990573e-8 1.3307083641783379e-8 2.2985450816379614e-8 2.3106268591211356e-8
          2.001017602961572e-8 2.273574247140013e-8 1.536557190469003e-8 1.1643662298699071e-8 2.2191123491438053e-8 1.3901821719122853e-8
          1.12505519462147e-8 1.0461194930031524e-8 8.256328825016741e-9 2.0270144187800765e-8 1.6717507537425186e-8 1.547575546169885e-8
          3.470590439833742e-8 3.5909423479200294e-8 3.5352692845269914e-8 3.67352104976931e-8 3.88018980464502e-8 3.9590297844257794e-8
          3.610465165055386e-8 3.792830084350099e-8 3.964430496499485e-8 4.1652785588965384e-8 3.529657355960345e-8 3.681061110264292e-8
          3.454648407760693e-8 3.6053557105866394e-8 3.960296426296399e-8 3.8572353777177544e-8 3.8350000080935814e-8 4.058740616241777e-8
          4.0573367073768764e-8 4.500282344713661e-8 3.994631146495017e-8 4.0096586850842496e-8 3.9401769397063086e-8 3.913030616328569e-8
          4.4869024016297884e-8 4.6678665975254194e-8 4.604070002145754e-8 3.943822048969155e-8 3.889189952850121e-8 3.7995161099137516e-8
          3.7187997993721515e-8 4.763313474167934e-8 4.915255042837861e-8 4.5997711405913226e-8 3.9261676360114344e-8 4.192740542279948e-8
          4.155306306357479e-8 4.4577185321985776e-8 4.636727311139643e-8 4.943644499669133e-8 3.820113782908001e-8 4.304353895195109e-8
          4.6045976609078145e-8 5.102759659701533e-8 4.310380570666008e-8 4.643909281540677e-8 4.358096187458992e-8 4.711908818927054e-8
          5.167486927481987e-8 5.2494203530035005e-8 4.214825706698167e-8 4.877013413941466e-8 5.0991806751797825e-8 5.846430771011965e-8
          4.8677044032251965e-8 5.172036580837506e-8 4.916776176459763e-8 5.087062680269974e-8 5.367673909176398e-8 5.748757965989953e-8
          5.2862214561550494e-8 5.424859966063121e-8 5.5300224842041744e-8 5.0992893131350254e-8 5.245313697440763e-8 6.051694743073788e-8
          6.212269484475601e-8 5.732647519870704e-8 3.31633559405926e-8 3.4414664038358456e-8 3.136129807031118e-8 3.245612146854677e-8
          3.566597213612431e-8 3.34449327896639e-8 3.707297781806743e-8 3.932253194763968e-8 3.732627539392664e-8 4.443098047184008e-8
          2.9271190823655247e-8 3.0336307325847205e-8 2.6411163855415982e-8 2.7154434412247033e-8 3.1197885841432636e-8 2.7124714831656574e-8
          3.282728657866494e-8 3.52972337578169e-8 3.284328809254408e-8 3.90094045096928e-8 3.0755782387750485e-8 2.3799876121927956e-8
          4.9814001382923434e-8 4.235860173054075e-8 4.9479233504750514e-8 2.835715089835134e-8 2.3709128011701295e-8 2.177953355837472e-8
          1.786479625279238e-8 3.723359042739438e-8 3.205136833905385e-8 2.9064075044586397e-8 4.2810610822355403e-8 4.617337603031846e-8
          4.058605260206297e-8 4.3612296866364173e-8 5.147504856490388e-8 4.913931969686566e-8 4.6000131504745266e-8 5.1654659377137564e-8
          5.0176667901060755e-8 5.939406244419343e-8 3.7020115084831955e-8 4.013395541596592e-8 3.3330094863657774e-8 3.658818090848617e-8
          4.599026799570432e-8 4.185405791413281e-8 4.2732817292828046e-8 4.645036622397836e-8 4.108121896736224e-8 5.270283608226186e-8
          5.373707363619247e-8 5.04931274245279e-8 5.4060191380858704e-8 4.394528552667103e-8 6.137532278012965e-8 5.861944453435582e-8
          5.879668414640447e-8 4.6323797201778114e-8 4.0709305961774385e-8 3.7494679616098936e-8 3.1840893103507555e-8 5.4407064693692044e-8
          4.8496544206128036e-8 4.6395623345581544e-8 4.1625900688214627e-8 4.033892973784316e-8 3.74985550942829e-8 3.7959172862621376e-8
          3.6493277843063996e-8 3.40960811734734e-8 4.5303379344097285e-8 4.471905144304788e-8 4.148391148619503e-8 3.9865998484460495e-8
          5.09532175590693e-8 5.180321136159208e-8 4.93662310593571e-8 4.275128776092939e-8 4.137073582003366e-8 3.843862995493439e-8
          3.792057497277364e-8 5.104226244481851e-8 5.032806032752452e-8 4.692886514530707e-8 4.7957597947016206e-8 3.9170404344015314e-8
          4.20685592976236e-8 2.4349179812204034e-8 3.429629678380115e-8 2.281462986178987e-8 3.468099251330087e-8 5.1099310452368705e-8
          5.508635256328835e-8 6.209658684017183e-9 1.9838754981093677e-8 1.7462294938980937e-8 4.613456424803621e-8 2.4386125619093874e-8
          3.73462818837805e-8 2.982940706164199e-8 4.280121891341756e-8 5.9239528318978514e-8 6.326483833459458e-8 4.4257019822335025e-9
          1.9005358625673677e-8 2.5488521034223152e-8 5.2180747090164756e-8 5.8288337650334034e-8 6.311662695292389e-8 5.60603397276996e-8
          5.973623761344688e-8 5.988403056098993e-8 6.568795486295066e-8 5.8240989038904016e-8 6.673935494962301e-8 6.857122260176072e-8
          6.239602466807514e-8 6.337473244509499e-8 7.018764362588807e-8 7.271274058123687e-8 6.544262611915692e-8 5.968929849863814e-9
          1.6394807117310927e-8 3.775023207588456e-9 1.3418425028198042e-8 4.04142254035824e-8 4.172791462388848e-8 1.1701789073010878e-8
          1.9004955145869052e-8 1.5695402654201068e-8 3.799937453484399e-8 2.6661077313695166e-9 1.3525653364218468e-8 2.768379729059057e-9
          1.773701850436836e-8 4.535752987817846e-8 5.204501583237971e-8 5.33221546273898e-9 1.5042365625624557e-8 1.8149623905515774e-8
          4.31965346642314e-8 5.69065809054662e-8 6.293698529109379e-8 5.826612695198934e-8 6.248031803854156e-8 5.407673090907963e-8
          5.993226583758793e-8 5.764831263153705e-8 6.822949259835239e-8 7.202219173224263e-8 6.59252995226091e-8 6.845065836323253e-8