<?xml version="1.0"?>
<VTKFile type="UnstructuredGrid" version="0.1" byte_order="LittleEndian" header_type="UInt32" compressor="vtkZLibDataCompressor">
  <UnstructuredGrid>
    <Piece NumberOfPoints="994" NumberOfCells="658">
      <PointData>
        <DataArray type="Int32" Name="libmesh_node_id" format="ascii" RangeMin="833" RangeMax="6711">
          833 841 842 1122 1128 1130
          1136 1137 2006 2008 2009 2010
          2032 2033 2038 2072 2073 2075
          2078 2088 2090 2092 2094 2095
          2096 2097 2100 2101 2102 2134
          2135 2136 2137 2138 2139 2140
          2141 2142 2143 2154 2155 2156
          2157 2158 2159 2160 2883 2897
          2898 2900 2903 2909 2991 2992
          2994 2997 3007 3009 3010 3011
          3012 3025 3026 3028 3031 3040
          3041 3042 3043 3044 3045 3046
          3055 3064 3065 3067 3068 3069
          3071 3072 3073 3074 3075 3076
          3077 3078 3079 3080 3081 3082
          3083 3084 3085 3086 3087 3088
          3089 3090 3091 3092 3093 3094
          3095 3096 3097 3098 3099 3100
          3101 3102 3103 3104 3105 3106
          3108 3135 3139 3140 3141 3142
          3143 3144 3145 3146 3147 3148
          3149 3150 3151 3152 3153 3154
          3155 3156 3157 3158 3159 3160
          3161 3162 3163 3164 3165 3166
          3167 3168 3169 3170 3171 3172
          3173 3174 3175 3176 3177 3178
          3179 3180 3181 3182 3183 3184
          3185 3186 3187 3188 3189 3190
          3191 3192 3193 3194 3195 3196
          3197 3198 3199 3200 3201 3202
          3203 3204 3205 3206 3213 3214
          3216 3229 3231 3233 3241 3242
          3245 3247 3248 3250 3261 3263
          3265 3267 3275 3276 3277 3278
          3279 3280 3281 3282 3283 3284
          3285 3286 3287 3288 3289 3290
          3291 3292 3293 3294 3295 3297
          3301 3303 3305 3307 5142 5144
          5528 5529 5531 5534 5539 5540
          5542 5556 5557 5559 5562 5572
          5574 5576 5602 5612 5614 5616
          5618 5699 5700 5702 5705 5715
          5717 5719 5733 5734 5736 5739
          5749 5751 5753 5811 5813 5815
          5816 5818 5820 5821 5822 5823
          5824 5828 5833 5834 5835 5837
          5838 5840 5842 5844 5846 5847
          5848 5849 5850 5851 5852 5853
          5854 5855 5856 5857 5858 5859
          5860 5861 5862 5863 5864 5865
          5866 5867 5868 5869 5870 5871
          5872 5873 5874 5875 5876 5877
          5878 5879 5880 5881 5882 5884
          5889 5891 5909 5910 5911 5912
          5913 5914 5915 5916 5917 5918
          5919 5920 5921 5922 5923 5924
          5925 5926 5927 5928 5929 5930
          5931 5932 5933 5934 5935 5936
          5937 5938 5939 5940 5941 5942
          5943 5944 5945 5946 5947 5948
          5949 5950 5951 5952 5953 5954
          5955 5956 5957 5958 5959 5960
          5961 5962 5963 5964 5965 5966
          5967 5968 5969 5970 5971 5972
          5973 5974 5975 5976 5977 5978
          5979 5980 5981 5982 5983 5984
          5985 5986 5987 5988 5989 5990
          5991 5992 5993 5994 5995 5996
          5997 5998 5999 6000 6001 6002
          6003 6004 6005 6006 6007 6008
          6009 6010 6011 6012 6013 6014
          6015 6016 6017 6018 6019 6020
          6021 6022 6023 6024 6025 6026
          6027 6028 6029 6030 6031 6032
          6033 6034 6035 6036 6037 6038
          6039 6040 6041 6042 6043 6044
          6045 6046 6047 6048 6049 6050
          6051 6052 6053 6054 6055 6056
          6057 6058 6059 6060 6061 6062
          6063 6064 6065 6066 6067 6068
          6069 6070 6071 6072 6073 6074
          6075 6076 6077 6078 6079 6080
          6081 6082 6083 6084 6085 6086
          6087 6088 6089 6090 6091 6092
          6093 6094 6095 6096 6097 6098
          6099 6100 6101 6102 6103 6104
          6105 6106 6107 6108 6109 6110
          6111 6112 6113 6114 6115 6116
          6117 6118 6119 6120 6121 6122
          6123 6124 6125 6126 6127 6128
          6129 6130 6131 6132 6133 6134
          6135 6136 6137 6138 6139 6140
          6141 6142 6143 6144 6145 6146
          6147 6148 6149 6150 6151 6152
          6153 6154 6155 6156 6157 6158
          6159 6160 6161 6162 6163 6164
          6165 6166 6167 6168 6169 6170
          6171 6172 6173 6174 6175 6176
          6177 6178 6179 6180 6181 6182
          6183 6184 6185 6186 6187 6188
          6189 6190 6191 6192 6193 6194
          6195 6196 6197 6198 6199 6200
          6201 6202 6203 6204 6205 6206
          6207 6208 6209 6210 6211 6212
          6213 6214 6215 6216 6217 6218
          6219 6220 6221 6222 6223 6224
          6225 6226 6227 6228 6229 6230
          6231 6232 6233 6234 6235 6236
          6237 6238 6239 6240 6241 6242
          6243 6244 6245 6246 6247 6248
          6249 6250 6251 6252 6253 6254
          6255 6256 6257 6258 6259 6260
          6261 6262 6263 6264 6265 6266
          6267 6268 6269 6270 6271 6272
          6273 6274 6275 6276 6277 6278
          6279 6280 6281 6282 6283 6284
          6285 6286 6287 6288 6289 6290
          6291 6292 6293 6294 6295 6296
          6297 6298 6299 6300 6301 6302
          6303 6304 6305 6306 6307 6308
          6309 6310 6311 6312 6313 6314
          6315 6316 6317 6318 6319 6320
          6321 6322 6323 6324 6325 6326
          6327 6328 6329 6330 6331 6332
          6333 6334 6335 6336 6337 6338
          6339 6340 6341 6342 6343 6344
          6345 6346 6349 6351 6352 6354
          6365 6367 6369 6371 6379 6380
          6381 6382 6383 6384 6385 6386
          6387 6388 6399 6400 6401 6402
          6403 6404 6405 6481 6482 6483
          6487 6488 6489 6490 6491 6492
          6493 6501 6502 6503 6524 6525
          6526 6527 6528 6529 6530 6531
          6532 6533 6544 6545 6546 6547
          6548 6549 6550 6558 6559 6560
          6561 6562 6563 6564 6565 6566
          6567 6578 6579 6580 6581 6582
          6583 6584 6660 6661 6662 6663
          6664 6665 6666 6674 6675 6676
          6677 6678 6679 6680 6681 6683
          6684 6685 6686 6687 6688 6689
          6690 6698 6699 6700 6701 6702
          6703 6704 6705 6707 6709 6711
          1097 1108 1109 1098 1116 1117
          1104 1125 1134 1367 1359 1139
          1373 1364 2011 2098 2035 2099
          2103 1123 1131 2016 2017 2104
          2105 2019 2108 2111 2113 2121
          2058 2122 2123 2131 2148 2161
          2133 2163 2165 2167 3113 3114
          3107 3115 3116 3117 3118 3119
          3120 3122 3133 3211 3227 3134
          3228 3230 3232 3262 3264 3296
          3302 3304 2153 3306 5883 6347
          6348 6350 3207 6353 3208 5890
          6366 6368 6370 6361 6362 6389
          6390 6364 6393 6395 6396 6398
          6376 6406 6378 6408 6410 6412
          6484 6494 6486 6496 6498 6500
          6534 6535 6538 6540 6541 6543
          6551 6553 6555 6557 6568 6569
          6572 6574 6575 6577 6585 6587
          6589 6591 6667 6669 6671 6673
          6691 6693 6695 6697 6682 6694
          6706 6708 3266 6710
        </DataArray>
        <DataArray type="Float64" Name="bounds" format="ascii" RangeMin="0" RangeMax="0">
          0 0 0 0 0 0
          0 0 0 0 0 0
          0 0 0 0 0 0
          0 0 0 0 0 0
          0 0 0 0 0 0
          0 0 0 0 0 0
          0 0 0 0 0 0
          0 0 0 0 0 0
          0 0 0 0 0 0
          0 0 0 0 0 0
          0 0 0 0 0 0
          0 0 0 0 0 0
          0 0 0 0 0 0
          0 0 0 0 0 0
          0 0 0 0 0 0
          0 0 0 0 0 0
          0 0 0 0 0 0
          0 0 0 0 0 0
          0 0 0 0 0 0
          0 0 0 0 0 0
          0 0 0 0 0 0
          0 0 0 0 0 0
          0 0 0 0 0 0
          0 0 0 0 0 0
          0 0 0 0 0 0
          0 0 0 0 0 0
          0 0 0 0 0 0
          0 0 0 0 0 0
          0 0 0 0 0 0
          0 0 0 0 0 0
          0 0 0 0 0 0
          0 0 0 0 0 0
          0 0 0 0 0 0
          0 0 0 0 0 0
          0 0 0 0 0 0
          0 0 0 0 0 0
          0 0 0 0 0 0
          0 0 0 0 0 0
          0 0 0 0 0 0
          0 0 0 0 0 0
          0 0 0 0 0 0
          0 0 0 0 0 0
          0 0 0 0 0 0
          0 0 0 0 0 0
          0 0 0 0 0 0
          0 0 0 0 0 0
          0 0 0 0 0 0
          0 0 0 0 0 0
          0 0 0 0 0 0
          0 0 0 0 0 0
          0 0 0 0 0 0
          0 0 0 0 0 0
          0 0 0 0 0 0
          0 0 0 0 0 0
          0 0 0 0 0 0
          0 0 0 0 0 0
          0 0 0 0 0 0
          0 0 0 0 0 0
          0 0 0 0 0 0
          0 0 0 0 0 0
          0 0 0 0 0 0
          0 0 0 0 0 0
          0 0 0 0 0 0
          0 0 0 0 0 0
          0 0 0 0 0 0
          0 0 0 0 0 0
          0 0 0 0 0 0
          0 0 0 0 0 0
          0 0 0 0 0 0
          0 0 0 0 0 0
          0 0 0 0 0 0
          0 0 0 0 0 0
          0 0 0 0 0 0
          0 0 0 0 0 0
          0 0 0 0 0 0
          0 0 0 0 0 0
          0 0 0 0 0 0
          0 0 0 0 0 0
          0 0 0 0 0 0
          0 0 0 0 0 0
          0 0 0 0 0 0
          0 0 0 0 0 0
          0 0 0 0 0 0
          0 0 0 0 0 0
          0 0 0 0 0 0
          0 0 0 0 0 0
          0 0 0 0 0 0
          0 0 0 0 0 0
          0 0 0 0 0 0
          0 0 0 0 0 0
          0 0 0 0 0 0
          0 0 0 0 0 0
          0 0 0 0 0 0
          0 0 0 0 0 0
          0 0 0 0 0 0
          0 0 0 0 0 0
          0 0 0 0 0 0
          0 0 0 0 0 0
          0 0 0 0 0 0
          0 0 0 0 0 0
          0 0 0 0 0 0
          0 0 0 0 0 0
          0 0 0 0 0 0
          0 0 0 0 0 0
          0 0 0 0 0 0
          0 0 0 0 0 0
          0 0 0 0 0 0
          0 0 0 0 0 0
          0 0 0 0 0 0
          0 0 0 0 0 0
          0 0 0 0 0 0
          0 0 0 0 0 0
          0 0 0 0 0 0
          0 0 0 0 0 0
          0 0 0 0 0 0
          0 0 0 0 0 0
          0 0 0 0 0 0
          0 0 0 0 0 0
          0 0 0 0 0 0
          0 0 0 0 0 0
          0 0 0 0 0 0
          0 0 0 0 0 0
          0 0 0 0 0 0
          0 0 0 0 0 0
          0 0 0 0 0 0
          0 0 0 0 0 0
          0 0 0 0 0 0
          0 0 0 0 0 0
          0 0 0 0 0 0
          0 0 0 0 0 0
          0 0 0 0 0 0
          0 0 0 0 0 0
          0 0 0 0 0 0
          0 0 0 0 0 0
          0 0 0 0 0 0
          0 0 0 0 0 0
          0 0 0 0 0 0
          0 0 0 0 0 0
          0 0 0 0 0 0
          0 0 0 0 0 0
          0 0 0 0 0 0
          0 0 0 0 0 0
          0 0 0 0 0 0
          0 0 0 0 0 0
          0 0 0 0 0 0
          0 0 0 0 0 0
          0 0 0 0 0 0
          0 0 0 0 0 0
          0 0 0 0 0 0
          0 0 0 0 0 0
          0 0 0 0 0 0
          0 0 0 0 0 0
          0 0 0 0 0 0
          0 0 0 0 0 0
          0 0 0 0 0 0
          0 0 0 0 0 0
          0 0 0 0 0 0
          0 0 0 0 0 0
          0 0 0 0 0 0
          0 0 0 0 0 0
          0 0 0 0 0 0
          0 0 0 0 0 0
          0 0 0 0 0 0
          0 0 0 0 0 0
          0 0 0 0 0 0
          0 0 0 0
        </DataArray>
        <DataArray type="Float64" Name="gradient_error" format="ascii" RangeMin="4.020208927900868e-9" RangeMax="5.065747224115816e-7">
          1.7988987826176874e-7 4.020208927900868e-9 3.7458222687086833e-7 7.761186087333893e-8 1.0206840895075321e-7 9.641640207250386e-8
          8.026065369945964e-9 1.1879566049283085e-7 2.2308874322541666e-7 2.4036607544084897e-7 1.9566308477921746e-7 1.6595755369749574e-7
          1.8055287457724338e-7 3.125741489562986e-7 2.6961969472479064e-7 9.036586116650212e-9 1.4564280218241973e-8 3.1054456932087655e-7
          1.2690601850968252e-8 4.085587820168663e-7 3.489477093155323e-7 2.762239256580158e-7 1.6899897248511683e-7 3.009490545812412e-7
          1.5497488027001127e-7 2.813857032300008e-7 8.631971259979786e-8 2.631057794194531e-7 2.684688196154286e-7 1.1678633857900286e-8
          1.7983886864408803e-8 1.5818035270599158e-8 2.4000202663703748e-8 2.9214867711019263e-7 2.7886482444875443e-7 5.535085877681719e-9
          1.711590791747286e-8 2.401016284579546e-8 1.1274829009454954e-7 3.639666590195425e-7 3.0175301636196883e-7 2.7568599191722823e-7
          1.965573457841972e-7 2.3314041824806754e-7 1.7955553280010679e-7 3.4361328532224987e-7 9.559785794054219e-8 1.1568036040742697e-7
          1.1248878910446918e-7 1.0929721780151138e-7 9.120613846580338e-8 1.512494149651137e-7 1.2796650910668739e-8 3.231515877165885e-8
          7.172990837661918e-8 1.0469251515601505e-8 1.2496910735569053e-7 1.5865785460446642e-7 9.51540546518224e-8 8.031032379851715e-8
          1.6322123973359985e-7 6.032602157511478e-9 8.759490646944998e-9 1.2914211083130686e-8 7.735108994438105e-9 5.673802224193221e-8
          3.964584476475788e-8 1.292969007852528e-7 1.1527783865669525e-7 1.7206719956251817e-8 1.8577448907993146e-8 9.666577570329731e-8
          1.4077811871222114e-7 1.4316360723907007e-7 1.470617802040881e-7 1.2689254511653486e-7 1.4872043361382795e-7 1.5334544169595505e-7
          9.667983663172297e-8 9.692688161152752e-8 9.776749594917406e-8 9.717392659133206e-8 9.800637039237272e-8 9.795418003398619e-8
          9.737966451096785e-8 9.790198967559966e-8 1.1994664741076296e-7 1.1631388890123735e-7 1.242102285225054e-7 1.2006684553984883e-7
          1.1268113039171173e-7 1.1592346255719226e-7 8.184220261958981e-8 7.834295860682026e-8 8.252231620555704e-8 1.0660679156623276e-7
          1.2841358609661717e-7 1.2365372136029372e-7 1.3245841658731712e-7 1.2699287170063951e-7 1.1889385662397026e-7 1.2152732681396191e-7
          9.123445684023004e-8 8.697852226113901e-8 9.173458505523732e-8 1.1913340401224527e-7 1.58661448389587e-7 1.6639652081845602e-7
          1.4746823700606824e-7 1.7400136878761198e-7 1.8065073006804236e-7 1.5609074159719987e-7 9.683281468831162e-8 9.596599851395309e-8
          9.509918233959456e-8 1.5667204727752796e-7 1.3571012128648595e-8 1.6081821228373298e-8 1.4734910923250752e-8 1.7244818420484855e-8
          5.855216794550372e-8 6.240367634629846e-8 1.0235041334553445e-8 1.1954526379254992e-8 1.377800012625289e-8 1.6027419413736055e-8
          1.617122097441533e-8 1.89106720398805e-8 1.817631316316587e-8 2.1123479046357988e-8 6.676573810669229e-8 7.157945016975189e-8
          1.3479278561427702e-8 1.6067663858954566e-8 1.9058815267392015e-8 2.0595595277077184e-8 1.317592675506017e-7 1.3912263074658914e-7
          1.6668977672324353e-7 1.7496814864218776e-7 6.46534423439304e-8 6.919989611198698e-8 1.236637753301572e-7 1.465460059917924e-7
          1.5331249589703146e-7 1.8291199842996537e-7 1.8930582315153494e-7 7.415384292351453e-8 7.920915203214505e-8 1.3449290493821102e-7
          6.864991891663433e-9 1.0074336548603981e-8 7.881338366782481e-9 1.171611198760581e-8 1.4829251055232901e-8 1.7200017538658166e-8
          4.688034052833572e-9 8.991102596854613e-9 1.0580477054592206e-8 1.468354845022957e-8 9.150662171275526e-9 1.3832173867844623e-8
          1.0766647768792785e-8 1.6665549331852163e-8 2.020040537464732e-8 2.4068856523558412e-8 6.630488081487255e-9 1.2651551670114829e-8
          1.5413034088463656e-8 2.0148222269344014e-8 2.1648235612970925e-8 2.39178365996203e-8 9.983848225269213e-8 1.0373764362231925e-7
          2.0250669474964068e-8 2.2509312732163613e-8 1.0759583369589786e-7 2.6792851529593704e-8 3.0403029549622637e-8 1.0660369581959379e-7
          1.0734440693967581e-7 2.5477729722140118e-8 2.9238174952000568e-8 1.16887873388645e-7 1.899244184932924e-8 2.3166479882335852e-8
          2.8462513247701602e-8 1.9274746087009768e-7 1.1584054043027888e-7 1.811186653252181e-7 1.286267396741539e-8 2.0626343053869293e-8
          2.9133221284540543e-8 9.406966426770836e-9 1.8997514588292956e-8 2.8995384744031027e-8 6.624033392471366e-8 1.3723745594158523e-7
          3.405978016084392e-8 1.1677281829736709e-7 1.4290443458438892e-7 1.4335540516675822e-7 1.2632939474416103e-7 1.4142282451421473e-7
          1.361146029638898e-7 1.1889879470708982e-7 1.500467469413593e-7 1.514437667501952e-7 1.261156645620187e-7 1.2325594782615493e-7
          1.5718905929832974e-7 1.5953212833363219e-7 1.259019343798764e-7 1.5043932960767797e-7 1.4593205917302772e-7 1.1783585748817773e-7
          1.0991074756333418e-7 1.594558347011412e-7 1.5574951538216559e-7 1.1677292026926564e-7 1.2696807189207916e-7 1.0204343715542497e-7
          1.3722829671977713e-7 1.0011039544832153e-7 1.474885215474751e-7 9.81773537412181e-8 1.9116440595744872e-8 2.019676504046422e-8
          1.7205843512878597e-8 1.7653414134877677e-8 1.8771276691432024e-8 1.3413049491737792e-8 2.0276981437843355e-8 2.0442102315144155e-8
          1.7359720610796224e-8 9.985898031331509e-9 1.0313636847131473e-8 1.1700909627641373e-8 9.45536698702593e-9 1.4035058995870192e-8
          1.7630617948063213e-8 1.1927031072285724e-8 2.1821858825527488e-8 2.115923378188551e-8 2.2366906067033662e-8 1.8991737075300396e-8
          2.3906094752464133e-8 7.649225307503744e-9 8.229894365610038e-9 9.688354515833831e-9 6.84035855130314e-9 1.1422508810401654e-8
          1.3203789429686261e-8 1.095513095530308e-8 4.61458037898369e-9 5.6600232120006965e-9 8.020351656336973e-9 5.17994646336117e-9
          1.055967328635483e-8 1.2760027657451552e-8 1.040917613149265e-8 1.6627319750370308e-8 2.079220635267381e-8 1.5158106462034857e-8
          1.7984580394413673e-8 2.1818767818176388e-8 2.407190783044374e-8 2.40190619113062e-8 2.2607072546250302e-8 2.3690164364808896e-8
          2.314709885153525e-8 1.7438168571780963e-8 1.4535364858529308e-8 1.8091513084425366e-8 1.8826143260986774e-8 1.4522290881372261e-8
          1.7868928472618176e-8 2.173824898068758e-8 2.240517892707194e-8 2.1657730143198766e-8 2.2486566737548452e-8 2.3265139873842792e-8
          2.3277957646565208e-8 2.421277693292097e-8 2.2366060928846605e-8 2.3113893654683915e-8 2.3408816441595167e-8 1.98362365571527e-8
          1.979848403983784e-8 2.046620634962032e-8 2.0200818980832414e-8 2.1123803136683594e-8 2.116475042926641e-8 2.1923169762521474e-8
          2.1811460635942454e-8 2.0703470660449742e-8 2.16429785645119e-8 2.0766034881757635e-8 2.250255888602049e-8 2.3411658334112068e-8
          2.2587894222005284e-8 2.2691900661512268e-8 2.2765664705979488e-8 2.3718608268588377e-8 2.3601850039945843e-8 2.465284974654934e-8
          2.4754082051506307e-8 2.5819795437520357e-8 2.569213382701408e-8 2.4430477383994622e-8 2.551047575007307e-8 2.4496683438544267e-8
          2.6606058868516997e-8 2.7802836871463745e-8 2.668316443946911e-8 2.6714514175653942e-8 2.6911807766050514e-8 2.811480242873527e-8
          2.9158334515108892e-8 2.9196165529194324e-8 1.7534660903936907e-8 1.8019838074155038e-8 1.7945703419041955e-8 1.8439628930344556e-8
          1.941337883007996e-8 1.9905960040094202e-8 1.3125976361149362e-8 1.3770924886545203e-8 1.4211472863966333e-8 1.576097470190265e-8
          1.845224044656429e-8 1.894456476791262e-8 1.9045843460789447e-8 1.9539774203603972e-8 2.051087911018e-8 2.11861708960638e-8
          1.4115272643529521e-8 1.4742094006732644e-8 1.5375561364463766e-8 1.6600842391566593e-8 2.0703912267440657e-8 2.1521737903668917e-8
          2.108608211909456e-8 2.2165110168796586e-8 1.839609420925785e-8 1.894007055191064e-8 2.0604731596011873e-8 2.2295498584760692e-8
          2.3109322597941557e-8 2.300612803842233e-8 2.3880008350174004e-8 1.956893370650209e-8 2.0269866692919974e-8 2.222731371757885e-8
          1.0632036283585281e-8 1.0965967766491502e-8 1.1320005762152771e-8 1.1672652937960097e-8 1.2200806980253342e-8 1.2824088266029937e-8
          9.609224398083218e-9 1.0064172720317278e-8 1.0731898065474671e-8 1.1176316730878353e-8 1.2052453373714448e-8 1.2436834224424578e-8
          1.2848327040984943e-8 1.3281964036650943e-8 1.3597988399574715e-8 1.4495427491886782e-8 1.092096563904627e-8 1.1468576798466242e-8
          1.2282607519196715e-8 1.2817641659402283e-8 1.4497517506851898e-8 1.5100089103348794e-8 1.8248540217017718e-8 1.89229671574407e-8
          1.2681433219287635e-8 1.354131736556782e-8 1.5246499787693624e-8 1.5846713561235776e-8 1.6708673509600994e-8 1.9670838249571468e-8
          2.053714473124716e-8 1.4508933228793308e-8 1.558739331583916e-8 1.693124016880184e-8 1.969493923991474e-8 2.020985608639675e-8
          2.0379795619509017e-8 2.0945884896640805e-8 2.1949243693794862e-8 2.2804572979810603e-8 1.5414096846609317e-8 1.609648265109796e-8
          1.690559451275384e-8 1.801654341329753e-8 2.1132037071723596e-8 2.1760303904950683e-8 2.2013956790769588e-8 2.2685588556013973e-8
          2.3746933136551792e-8 2.4795099961097133e-8 1.7072784057922704e-8 1.784386155667046e-8 1.896708948992508e-8 1.9933835453901735e-8
          2.4026282468256744e-8 2.502645643717887e-8 2.4878850481802527e-8 2.5955741088509134e-8 2.1095914647139615e-8 2.2065901895759413e-8
          2.3987444482511403e-8 2.608222184163827e-8 2.7255821686103694e-8 2.7059148148350732e-8 2.8278663771271478e-8 2.3192905716110245e-8
          2.4500712212953833e-8 2.6267565782326738e-8 1.3753080519401136e-8 1.4231810200150357e-8 1.4815496254878568e-8 1.5322786454001476e-8
          1.551688545275177e-8 1.66763267036908e-8 1.2524874568018988e-8 1.3193359015501113e-8 1.4224897934301761e-8 1.485264337036867e-8
          1.6048546508492362e-8 1.658163656886635e-8 1.7442966850106567e-8 1.8021229664034652e-8 1.800252815977061e-8 1.953168600658238e-8
          1.4566018884920705e-8 1.5404369412809116e-8 1.6768034224203572e-8 1.7454928369451982e-8 1.7711070160279182e-8 1.8884243263562785e-8
          2.1552932724640977e-8 2.2738433549415584e-8 1.679059068903579e-8 1.8151508216956115e-8 1.920147786010156e-8 2.0263276289548356e-8
          2.1871377006474762e-8 2.411472274613911e-8 2.5689284235208516e-8 1.9709457583426128e-8 2.150808600375787e-8 2.2183357912982117e-8
          2.263128949237962e-8 2.3510002249502797e-8 2.2820609050026495e-8 2.4502782919955924e-8 2.556771260633243e-8 2.493382068678883e-8
          2.1951921246160353e-8 2.280093961277666e-8 2.330008236088011e-8 2.433324669907705e-8 1.972282157673165e-8 2.055297291921142e-8
          2.319038721820189e-8 2.3736405957179426e-8 2.4764709865714828e-8 2.5449800813672742e-8 2.6597223336680702e-8 2.147416302230701e-8
          2.2503369325749732e-8 2.52907695295809e-8 2.4545588356070927e-8 2.569805025039716e-8 2.4484010252428113e-8 2.6708539447665515e-8
          2.7800726917649936e-8 2.6514003913945552e-8 2.666435745569622e-8 2.7849066026129767e-8 2.7241603310399785e-8 2.9173360447717212e-8
          3.060686541887013e-8 2.9810182708124684e-8 2.58780557421044e-8 2.7119073991575665e-8 2.774915533088126e-8 2.900719065718852e-8
          2.3675531783478397e-8 2.5027909732382437e-8 2.7616675211624813e-8 2.8526389945026207e-8 3.007239178083874e-8 3.045955728657003e-8
          3.204508956900794e-8 2.6594444645939255e-8 2.8373184950301918e-8 3.045076488853208e-8 2.9061092447396563e-8 3.0337525897155514e-8
          2.8643851154060997e-8 3.1475656425518694e-8 3.256386605437595e-8 3.074692185456132e-8 8.132936590948805e-9 8.767359612215221e-9
          8.660777995788032e-9 9.356227876930976e-9 1.035035459184958e-8 1.1079796216137189e-8 6.429221513065314e-9 7.305980611684041e-9
          7.820105564479355e-9 9.382861511294029e-9 9.241005058453457e-9 1.0006182653983133e-8 9.883118513438071e-9 1.0729670150603412e-8
          1.1890771009890445e-8 1.2798363565507114e-8 7.3464340618220375e-9 8.391544828237147e-9 9.030827333876281e-9 1.0846790689031078e-8
          1.2223262043526494e-8 1.3112650175165731e-8 1.4047125504041626e-8 1.4994201633714482e-8 1.1743305492784687e-8 1.2615073156553512e-8
          1.3826031859903443e-8 1.410434622487625e-8 1.5208704699524044e-8 1.606531522594872e-8 1.727691161121874e-8 1.3587439349370072e-8
          1.4681011529418083e-8 1.594632860977223e-8 4.950530545323162e-9 6.078472369733909e-9 5.324048728987841e-9 6.5448982559370945e-9
          8.620199190029283e-9 9.288901443744925e-9 4.335247545839825e-9 5.582635168260462e-9 6.033656664884417e-9 8.328354315441863e-9
          5.741507397697048e-9 7.067993889613637e-9 6.2105559135467345e-9 7.658521272355557e-9 1.0039540557597016e-8 1.0888425748477197e-8
          5.08526472737924e-9 6.541969375729462e-9 7.118697128832775e-9 9.736348038542003e-9 1.1345959033749318e-8 1.2218481111664269e-8
          1.3698261726504297e-8 1.4731569004132804e-8 1.1196165200026643e-8 1.2070015875119573e-8 1.3638758884131079e-8 1.3192811071133013e-8
          1.4288336666087549e-8 1.5874143892846782e-8 1.7144349030901092e-8 1.3045567428660034e-8 1.4141873535841777e-8 1.5836667530637208e-8
          1.0599294224970054e-8 1.1541423847128114e-8 1.140559226208594e-8 1.2461145019276142e-8 1.3822525223073335e-8 1.4990252146151315e-8
          8.479045788022864e-9 9.75131279384193e-9 1.0569781469484759e-8 1.2702485769197463e-8 1.2323431627170737e-8 1.3516049940395925e-8
          1.3381928827956783e-8 1.4743537739863856e-8 1.6338434231829926e-8 1.7916245031263488e-8 9.90878165764531e-9 1.1506929378711833e-8
          1.2587776086876874e-8 1.5138803317556537e-8 1.6446877736588618e-8 1.7850561163115263e-8 1.8639798436327237e-8 2.017544322658509e-8
          1.5919911499688143e-8 1.733361773247952e-8 1.861009606527063e-8 1.9461272484546397e-8 2.132830464139976e-8 2.1916913703659362e-8
          2.3909932341079398e-8 1.896011645992378e-8 2.0846612126823385e-8 2.2004990917811706e-8 6.740119403635366e-9 8.329577310813069e-9
          7.339577551187885e-9 9.096464246367803e-9 1.185590113477523e-8 1.2967024689922797e-8 6.0469317090279775e-9 7.777361262115093e-9
          8.53340513090336e-9 1.1543915863117234e-8 8.0161504621356e-9 9.975096677587605e-9 8.76795926993301e-9 1.0976845718191336e-8
          1.4251704334965084e-8 1.5742875300972717e-8 7.292312391517807e-9 9.40177143571201e-9 1.0388808316676227e-8 1.3931931617400239e-8
          1.5528856919219252e-8 1.694375383486381e-8 1.856614126710786e-8 2.0166726699920248e-8 1.538286351296588e-8 1.67974979569783e-8
          1.8543939044171062e-8 1.856863342825361e-8 2.0445391886863783e-8 2.197831149154966e-8 2.4038703583459467e-8 1.841978970053597e-8
          2.028813288315006e-8 2.1959415476234678e-8 1.7298488510897356e-8 1.8139752201814513e-8 2.2176098333818117e-8 2.3122617781532103e-8
          1.597939642559811e-8 1.6939728211269493e-8 2.0720756620655305e-8 1.9144657434539903e-8 2.0270887679965933e-8 2.417630624550764e-8
          2.5326706081562405e-8 1.8048982094089392e-8 1.929574295482456e-8 2.2716701407756693e-8 2.463435226698196e-8 2.5717460136473722e-8
          2.4566831416874617e-8 2.559817152221431e-8 2.4487703271403897e-8 2.545897982267932e-8 2.4744250106170597e-8 2.6765639944059076e-8
          2.789849269582675e-8 2.6535862493769657e-8 2.7528429421825698e-8 2.6526613146000527e-8 2.7688904276358114e-8 2.674308336045223e-8
          1.55449610568389e-8 1.66537052445024e-8 1.967060015365182e-8 2.061065669891154e-8 1.5555016130754082e-8 1.6693389607722526e-8
          1.935608074219328e-8 1.7862402988859747e-8 1.9194748582605494e-8 2.1665150012886244e-8 2.2874591548061723e-8 1.7937859608409416e-8
          1.9294755089091498e-8 2.1296245877181354e-8 2.4090577928413287e-8 2.5005553305526596e-8 2.5191288091776863e-8 2.625897281269435e-8
          2.392886549191178e-8 2.4830016988244834e-8 2.554372855253366e-8 2.603277597312068e-8 2.7174701157938065e-8 2.7412791521097017e-8
          2.860732678954657e-8 2.5835066094692934e-8 2.6967852237163474e-8 2.7897137394883324e-8 2.1548115286056598e-8 2.3012872773754067e-8
          2.661155108870088e-8 2.803893774288677e-8 2.0693232496452234e-8 2.226243030614142e-8 2.5268745103114215e-8 2.4702481806650893e-8
          2.6659906358960425e-8 2.961224557287263e-8 3.1318544051658995e-8 2.4028102271832796e-8 2.6032065614734498e-8 2.8509128713279412e-8
          2.9165478777305606e-8 3.0482169768129524e-8 2.8656747572984925e-8 2.97986389552177e-8 2.8948299449308245e-8 3.031722730562241e-8
          2.8983812815393626e-8 3.176038913659568e-8 3.3059970045104805e-8 3.0821768092483215e-8 3.191206589469716e-8 3.180021948635012e-8
          3.342202700931004e-8 3.1376107638696426e-8 2.0667606338180628e-8 2.2301698857354434e-8 2.4256167904258122e-8 2.5821720209318234e-8
          2.0785668717125776e-8 2.2437545142190878e-8 2.3901288637933728e-8 2.411792648962887e-8 2.6134497456849527e-8 2.7582297243429342e-8
          2.9542782294479897e-8 2.4275142199350633e-8 2.631622464435442e-8 2.7249146805754694e-8 2.843073913547569e-8 2.9825219633273963e-8
          2.9817019391459484e-8 3.1083752394209586e-8 2.823474447954954e-8 2.9642798294406647e-8 3.0336057144040556e-8 3.1374816923471565e-8
          3.3085355741865375e-8 3.2432170435859534e-8 3.386749997978286e-8 3.119431672191557e-8 3.288273150094433e-8 3.3008739924731327e-8
          2.3062589090502e-8 2.3751760081967963e-8 2.598379521166358e-8 1.9496990734236335e-8 2.030604417490514e-8 2.2526252178539044e-8
          2.8601397921271825e-8 2.9676136492650414e-8 2.6014972225997972e-8 2.9210324810094762e-8 1.9010544161377942e-8 1.9662791062862436e-8
          2.079234982590725e-8 2.155021413810599e-8 2.130328108853114e-8 2.3363894967512286e-8 1.7277266252926733e-8 1.8364942338736536e-8
          2.0253114825211413e-8 2.093941901290031e-8 2.3729362344350594e-8 2.5879344260009386e-8 2.747540938515043e-8 2.9520181853250305e-8
          2.359750965369137e-8 2.6032445504746292e-8 2.6084770743461624e-8 3.2105098544620645e-8 3.371238997249141e-8 3.276429807994063e-8
          3.172321228511914e-8 3.352868401368002e-8 3.366280627592326e-8 3.535598135615836e-8 3.039456257873214e-8 3.2685347449604406e-8
          3.369698922476237e-8 3.359878473050973e-8 3.407288982270159e-8 3.2883368540071306e-8 1.4621391097240777e-8 1.6194508551990787e-8
          1.609191939299513e-8 1.7933745086030233e-8 1.978857809183588e-8 2.2037658256481794e-8 1.1739584315877035e-8 1.3844246236802004e-8
          1.5329637970449273e-8 1.846899539246758e-8 2.3513266725970597e-8 2.6094448775980177e-8 2.6187412806188854e-8 2.878157902708881e-8
          2.3052952495631624e-8 2.565721039258067e-8 2.6430542422120193e-8 9.567749866157617e-9 1.20957818419316e-8 1.0349830017575717e-8
          1.3295245641930903e-8 1.7471204729924568e-8 1.9457820898073e-8 8.782351648822514e-9 1.1467409810567687e-8 1.252329430351354e-8