<?xml version="1.0"?>
<VTKFile type="UnstructuredGrid" version="0.1" byte_order="LittleEndian" header_type="UInt32" compressor="vtkZLibDataCompressor">
  <UnstructuredGrid>
    <Piece NumberOfPoints="992" NumberOfCells="637">
      <PointData>
        <DataArray type="Int32" Name="libmesh_node_id" format="ascii" RangeMin="822" RangeMax="5845">
          1102 1103 1120 1121 1124 1126
          1127 1129 2000 2001 2002 2003
          2004 2005 2007 2020 2021 2022
          2023 2024 2025 2026 2027 2028
          2029 2030 2031 2034 2036 2037
          2039 2040 2041 2042 2043 2044
          2045 2046 2047 2048 2049 2050
          2051 2054 2055 2057 2059 2060
          2062 2063 2065 2066 2068 2070
          2071 2074 2076 2077 2079 2081
          2083 2085 2087 2089 2091 2093
          2859 2860 2861 2862 2863 2864
          2865 2866 2867 2868 2869 2870
          2871 2872 2873 2874 2875 2876
          2877 2878 2879 2880 2881 2882
          2884 2885 2886 2887 2888 2889
          2890 2891 2892 2893 2894 2895
          2896 2899 2901 2902 2904 2905
          2906 2907 2908 2910 2911 2912
          2913 2914 2916 2919 2921 2922
          2923 2924 2925 2926 2927 2928
          2929 2930 2932 2933 2934 2938
          2939 2940 2941 2942 2943 2944
          2947 2948 2953 2955 2956 2957
          2958 2959 2960 2961 2962 2963
          2964 2972 2973 2974 2975 2976
          2977 2978 2979 2980 2981 2982
          2983 2984 2985 2986 2987 2988
          2989 2990 2993 2995 2996 2998
          2999 3000 3001 3002 3003 3004
          3005 3006 3008 3013 3014 3015
          3016 3017 3018 3019 3020 3021
          3022 3023 3024 3027 3029 3030
          3032 3033 3034 3035 3036 3037
          3038 3039 3047 3048 3049 3050
          3051 3052 3053 3054 3056 3057
          3058 3059 3060 3061 3062 3063
          3066 3070 5131 5132 5133 5134
          5135 5136 5137 5138 5139 5140
          5141 5143 5147 5149 5150 5151
          5152 5154 5156 5157 5158 5169
          5170 5171 5172 5173 5174 5177
          5186 5187 5188 5189 5191 5193
          5194 5195 5196 5197 5198 5199
          5200 5201 5202 5203 5204 5205
          5206 5207 5208 5209 5210 5211
          5212 5213 5214 5215 5216 5217
          5218 5219 5220 5221 5222 5223
          5224 5225 5226 5227 5228 5229
          5230 5231 5232 5233 5234 5235
          5236 5237 5238 5239 5240 5247
          5248 5249 5250 5251 5252 5253
          5254 5255 5256 5257 5258 5259
          5260 5261 5262 5275 5276 5278
          5281 5291 5295 5309 5310 5312
          5315 5325 5329 5331 5332 5333
          5334 5335 5336 5337 5338 5339
          5340 5341 5342 5343 5344 5345
          5346 5347 5348 5349 5350 5351
          5352 5353 5354 5355 5356 5357
          5358 5359 5360 5361 5362 5363
          5364 5365 5366 5367 5368 5369
          5370 5371 5372 5373 5374 5375
          5376 5377 5378 5379 5380 5381
          5382 5383 5384 5385 5386 5387
          5388 5389 5390 5391 5392 5393
          5394 5395 5396 5397 5398 5427
          5428 5429 5430 5431 5432 5433
          5434 5435 5436 5437 5438 5439
          5440 5441 5442 5443 5444 5445
          5446 5447 5448 5449 5450 5451
          5452 5453 5454 5455 5456 5457
          5458 5459 5460 5461 5462 5463
          5464 5465 5466 5467 5468 5469
          5470 5471 5472 5473 5474 5475
          5476 5477 5478 5479 5480 5481
          5482 5483 5484 5485 5486 5487
          5488 5489 5490 5491 5492 5493
          5494 5495 5496 5497 5498 5499
          5500 5501 5502 5503 5504 5505
          5506 5507 5508 5509 5510 5511
          5512 5513 5514 5515 5516 5517
          5518 5519 5520 5521 5522 5523
          5524 5525 5526 5527 5530 5532
          5533 5535 5536 5537 5538 5541
          5543 5544 5545 5546 5547 5548
          5549 5550 5551 5552 5553 5554
          5555 5558 5560 5561 5563 5564
          5565 5566 5567 5568 5569 5570
          5571 5573 5575 5577 5578 5579
          5580 5581 5582 5583 5584 5585
          5586 5587 5588 5589 5590 5591
          5592 5593 5594 5595 5596 5597
          5598 5599 5600 5601 5603 5604
          5605 5606 5607 5608 5609 5610
          5611 5613 5615 5617 5619 5620
          5621 5622 5623 5624 5625 5626
          5627 5628 5629 5630 5631 5632
          5633 5634 5635 5636 5637 5638
          5639 5640 5641 5642 5643 5644
          5645 5646 5647 5648 5649 5650
          5651 5652 5653 5654 5655 5656
          5657 5658 5659 5660 5661 5662
          5663 5664 5665 5666 5667 5668
          5669 5670 5671 5672 5673 5674
          5675 5676 5677 5678 5679 5680
          5681 5682 5683 5684 5685 5686
          5687 5688 5689 5690 5691 5692
          5693 5694 5695 5696 5697 5698
          5701 5703 5704 5706 5707 5708
          5709 5710 5711 5712 5713 5714
          5716 5718 5720 5721 5722 5723
          5724 5725 5726 5727 5728 5729
          5730 5731 5732 5735 5737 5738
          5740 5741 5742 5743 5744 5745
          5746 5747 5748 5750 5752 5754
          5755 5756 5757 5758 5759 5760
          5761 5762 5763 5764 5765 5766
          5767 5768 5769 5770 5771 5772
          5773 5774 5775 5776 5777 5778
          5779 5780 5781 5782 5783 5784
          5785 5786 5787 5788 5789 5790
          5791 5792 5793 5794 5795 5796
          5797 5798 5799 5800 5801 5802
          5803 5804 5805 5806 5807 5808
          5809 5810 5812 5814 5817 5819
          5825 5826 5827 5829 5830 5831
          5832 5836 5839 5841 5843 5845
          1063 1094 1095 1064 822 1070
          1097 1098 833 1104 1100 1067
          1105 823 1101 834 1356 1348
          1087 1357 1349 1358 1125 1359
          842 1364 1363 1850 1938 1939
          1941 1084 1944 1085 2006 2032
          2033 2035 2038 1123 1958 1959
          1962 1964 2052 2053 2056 2058
          1981 2064 2080 1994 2082 1996
          2069 2084 2086 2075 2088 2090
          2092 2553 2545 2554 2546 2555
          2556 2561 2560 2883 2897 2898
          2900 1122 2903 2721 2803 2804
          2915 2806 2727 2931 2819 2821
          2920 2061 2936 2935 2823 2937
          2966 2968 2970 2992 2994 2909
          3007 3009 3010 3012 3011 3040
          3042 3064 3055 3043 3065 3067
          3046 3068 3069 5145 5146 5159
          5161 5162 5160 5148 5164 5163
          2917 5175 5176 5167 5178 2918
          5153 5180 5179 5155 5182 5181
          5190 5184 5192 5273 5274 5277
          5279 5280 5282 5290 5293 5292
          5294 2950 5296 5307 5308 5311
          5313 5314 5316 5324 5327 5326
          5328 2067 5330 5245 5407 5409
          5411 5421 5423 5425 5142 5528
          5529 5531 2991 5534 5556 5557
          5559 2072 5562 2997 5542 5572
          5574 5576 2073 5602 5612 5614
          5616 5699 5700 5702 3025 5705
          3026 5715 5717 5719 3028 5733
          5734 5736 841 5739 3031 5749
          5751 5753 2078 5811 5813 5815
          5816 3041 5828 3044 5833 5834
          5835 5837 5838 3045 5818 5840
          5842 5844
        </DataArray>
        <DataArray type="Float64" Name="bounds" format="ascii" RangeMin="0" RangeMax="0">
          0 0 0 0 0 0
          0 0 0 0 0 0
          0 0 0 0 0 0
          0 0 0 0 0 0
          0 0 0 0 0 0
          0 0 0 0 0 0
          0 0 0 0 0 0
          0 0 0 0 0 0
          0 0 0 0 0 0
          0 0 0 0 0 0
          0 0 0 0 0 0
          0 0 0 0 0 0
          0 0 0 0 0 0
          0 0 0 0 0 0
          0 0 0 0 0 0
          0 0 0 0 0 0
          0 0 0 0 0 0
          0 0 0 0 0 0
          0 0 0 0 0 0
          0 0 0 0 0 0
          0 0 0 0 0 0
          0 0 0 0 0 0
          0 0 0 0 0 0
          0 0 0 0 0 0
          0 0 0 0 0 0
          0 0 0 0 0 0
          0 0 0 0 0 0
          0 0 0 0 0 0
          0 0 0 0 0 0
          0 0 0 0 0 0
          0 0 0 0 0 0
          0 0 0 0 0 0
          0 0 0 0 0 0
          0 0 0 0 0 0
          0 0 0 0 0 0
          0 0 0 0 0 0
          0 0 0 0 0 0
          0 0 0 0 0 0
          0 0 0 0 0 0
          0 0 0 0 0 0
          0 0 0 0 0 0
          0 0 0 0 0 0
          0 0 0 0 0 0
          0 0 0 0 0 0
          0 0 0 0 0 0
          0 0 0 0 0 0
          0 0 0 0 0 0
          0 0 0 0 0 0
          0 0 0 0 0 0
          0 0 0 0 0 0
          0 0 0 0 0 0
          0 0 0 0 0 0
          0 0 0 0 0 0
          0 0 0 0 0 0
          0 0 0 0 0 0
          0 0 0 0 0 0
          0 0 0 0 0 0
          0 0 0 0 0 0
          0 0 0 0 0 0
          0 0 0 0 0 0
          0 0 0 0 0 0
          0 0 0 0 0 0
          0 0 0 0 0 0
          0 0 0 0 0 0
          0 0 0 0 0 0
          0 0 0 0 0 0
          0 0 0 0 0 0
          0 0 0 0 0 0
          0 0 0 0 0 0
          0 0 0 0 0 0
          0 0 0 0 0 0
          0 0 0 0 0 0
          0 0 0 0 0 0
          0 0 0 0 0 0
          0 0 0 0 0 0
          0 0 0 0 0 0
          0 0 0 0 0 0
          0 0 0 0 0 0
          0 0 0 0 0 0
          0 0 0 0 0 0
          0 0 0 0 0 0
          0 0 0 0 0 0
          0 0 0 0 0 0
          0 0 0 0 0 0
          0 0 0 0 0 0
          0 0 0 0 0 0
          0 0 0 0 0 0
          0 0 0 0 0 0
          0 0 0 0 0 0
          0 0 0 0 0 0
          0 0 0 0 0 0
          0 0 0 0 0 0
          0 0 0 0 0 0
          0 0 0 0 0 0
          0 0 0 0 0 0
          0 0 0 0 0 0
          0 0 0 0 0 0
          0 0 0 0 0 0
          0 0 0 0 0 0
          0 0 0 0 0 0
          0 0 0 0 0 0
          0 0 0 0 0 0
          0 0 0 0 0 0
          0 0 0 0 0 0
          0 0 0 0 0 0
          0 0 0 0 0 0
          0 0 0 0 0 0
          0 0 0 0 0 0
          0 0 0 0 0 0
          0 0 0 0 0 0
          0 0 0 0 0 0
          0 0 0 0 0 0
          0 0 0 0 0 0
          0 0 0 0 0 0
          0 0 0 0 0 0
          0 0 0 0 0 0
          0 0 0 0 0 0
          0 0 0 0 0 0
          0 0 0 0 0 0
          0 0 0 0 0 0
          0 0 0 0 0 0
          0 0 0 0 0 0
          0 0 0 0 0 0
          0 0 0 0 0 0
          0 0 0 0 0 0
          0 0 0 0 0 0
          0 0 0 0 0 0
          0 0 0 0 0 0
          0 0 0 0 0 0
          0 0 0 0 0 0
          0 0 0 0 0 0
          0 0 0 0 0 0
          0 0 0 0 0 0
          0 0 0 0 0 0
          0 0 0 0 0 0
          0 0 0 0 0 0
          0 0 0 0 0 0
          0 0 0 0 0 0
          0 0 0 0 0 0
          0 0 0 0 0 0
          0 0 0 0 0 0
          0 0 0 0 0 0
          0 0 0 0 0 0
          0 0 0 0 0 0
          0 0 0 0 0 0
          0 0 0 0 0 0
          0 0 0 0 0 0
          0 0 0 0 0 0
          0 0 0 0 0 0
          0 0 0 0 0 0
          0 0 0 0 0 0
          0 0 0 0 0 0
          0 0 0 0 0 0
          0 0 0 0 0 0
          0 0 0 0 0 0
          0 0 0 0 0 0
          0 0 0 0 0 0
          0 0 0 0 0 0
          0 0 0 0 0 0
          0 0 0 0 0 0
          0 0 0 0 0 0
          0 0 0 0 0 0
          0 0 0 0 0 0
          0 0 0 0 0 0
          0 0 0 0 0 0
          0 0
        </DataArray>
        <DataArray type="Float64" Name="gradient_error" format="ascii" RangeMin="1.6814600228885192e-9" RangeMax="7.514855870498775e-7">
          2.326341009199258e-7 1.5283553747173424e-7 2.7655045331940953e-7 5.006683251740028e-7 2.4679252687132305e-7 2.34182132120798e-9
          3.237674603406162e-7 4.018518279460299e-7 3.0536900837227446e-7 2.7491065652703276e-7 2.613816603357944e-7 1.9494829631474195e-7
          2.840109029334603e-7 2.4509426544306265e-7 1.5737370621269565e-7 5.18068291533656e-7 4.820152369956359e-7 3.597963164852654e-7
          4.043167096586562e-7 3.6621599065364476e-7 3.6118064046158346e-7 4.2130321971647047e-7 4.021678006621175e-7 3.384311004695039e-7
          4.880696231853282e-7 1.881962792055534e-7 3.1865657254117764e-7 3.5118618758692045e-7 6.960172481070309e-8 2.7205648218526274e-7
          5.072666195408887e-7 1.0530313984779746e-7 2.0793798076848713e-7 9.044896984649028e-8 1.9171877489194938e-7 6.516199174790204e-8
          1.2940616268730042e-7 1.1106824676643046e-7 4.4673319418272816e-7 4.381576745810005e-7 2.2899115695992478e-7 7.486286287421949e-8
          1.722830948919159e-7 4.115594127571276e-8 9.11744570325711e-8 4.194799076311788e-7 2.3572275752664344e-7 4.495753442408424e-9
          5.544264560268424e-9 1.1959303750046448e-8 4.0891493427865095e-7 1.8018599763317606e-9 7.557508284420329e-9 7.049981028923686e-9
          1.2734017585500855e-8 3.175393696861314e-7 3.039583746784815e-9 9.705274543141515e-9 9.153160042998984e-8 5.636456971958705e-7
          3.3365375413845906e-7 5.457206802957018e-7 4.3838888041188026e-7 4.1056692923120583e-7 3.082419589467711e-7 4.908813161985543e-7
          9.370846457948949e-8 1.0665168433109384e-7 1.0741352579700652e-7 1.1268152758306257e-7 1.099464199055833e-7 1.023365132883542e-7
          9.921886391598163e-8 9.610121454360905e-8 1.1775149340907641e-7 1.1868076237063978e-7 1.176580643510758e-7 1.2101418596966565e-7
          1.093997898747672e-7 1.1414789350811559e-7 1.0708210720128701e-7 1.192134596691935e-7 1.2473603484782665e-7 1.1600857873125889e-7
          9.400836657903991e-8 9.283454424031428e-8 9.251787893186812e-8 9.166072190158863e-8 9.364601895220773e-8 9.395869919778145e-8
          9.427137944335519e-8 1.0392186873724813e-7 1.0121284556956352e-7 1.0745323364687059e-7 1.0501341857319014e-7 9.850382240187891e-8
          1.0257360349950968e-7 9.183498851476843e-8 1.0533547264830762e-7 9.7997917556957e-8 1.2451672837506176e-7 1.1147782582571918e-7
          1.0869508480680702e-7 1.0591234378789484e-7 7.354597433291563e-8 1.0346291250117373e-7 1.3958036410309032e-7 1.3077712806390548e-7
          1.3726424963315303e-7 1.2571718855438638e-7 1.4411316463899994e-7 1.3623687060609406e-7 5.883478758505211e-8 5.966835505250015e-8
          6.128793410391875e-8 6.238269057918393e-8 9.029808370245647e-8 6.112564805285752e-9 6.396759740870015e-8 6.536482631260476e-8
          6.598681498118607e-8 6.799043353717756e-8 8.108196824256387e-8 7.155508680161232e-8 4.936471230710194e-9 6.269876676310493e-9
          6.689500585444651e-9 2.5107317907020627e-8 1.173561844482414e-7 1.127686499797197e-7 1.1775505949007051e-7 1.0909331321627378e-7
          1.0090012863774329e-7 1.2310303659295884e-7 1.2911667970864185e-7 8.75327732388483e-8 7.875847116080069e-8 1.3336749499565266e-7
          2.8979521685237753e-9 4.058515435584909e-9 3.5197969383673864e-9 3.300674358668473e-9 4.639535348315085e-9 3.731657408414435e-9
          5.268543129231591e-9 7.3837193947486265e-9 8.016037676236606e-9 2.0576799973556002e-9 4.006002870606112e-9 4.544398747914647e-9
          6.760008520385876e-9 7.518775347254921e-8 6.292259046259165e-8 1.3656212205299707e-7 1.205182849919831e-7 7.425001746230855e-8
          4.559983379093557e-8 1.3658674856934758e-7 3.9501780899101784e-8 5.652247002298631e-8 1.2165385423886869e-8 4.509096577246123e-8
          7.536326303865872e-8 7.970698435054074e-8 6.2057044254867494e-9 7.319705075333101e-9 8.165108861034207e-9 1.224424034099144e-8
          1.2379098412965341e-8 4.755567142981743e-8 8.448606682381008e-8 8.010819598608403e-9 9.213947116952521e-9 1.348950623276423e-8
          1.0640675591826562e-7 1.1238879122856382e-7 1.3598694587333186e-7 1.433882191270402e-7 8.338688570958241e-8 8.897244152398625e-8
          1.4462717656245142e-7 1.1855565094878506e-7 1.509179080789276e-7 4.204975152754448e-9 5.967061785604832e-9 4.7341645793205094e-9
          6.759561951187354e-9 8.87627882008527e-9 9.96866620527571e-9 2.664968129297113e-9 5.159527545938535e-9 5.8742402920546265e-9
          8.52223435266922e-9 5.33491779797871e-9 7.676145735591901e-9 1.1310260063381401e-8 3.482555354228373e-9 6.717482107545957e-9
          1.105706209120905e-8 4.975074814688066e-8 5.288091051496256e-8 1.1450741626270049e-7 1.222028106816766e-7 1.5127743568581373e-8
          1.6022834894761557e-8 8.51651116091539e-8 1.2653601406711758e-7 1.3155041756950108e-7 1.257996543542572e-7 1.3656482107188458e-7
          1.293222093175536e-7 1.339676813013012e-7 1.227462464695292e-7 1.3760678086431217e-7 1.2588492270021355e-7 1.341573056917486e-7
          1.389088273019923e-7 1.2496792286427565e-7 1.2488191521923222e-7 1.3899240206594356e-7 1.4384997330268343e-7 1.2718959925902208e-7
          1.262518892028288e-7 1.2661885570544407e-7 1.5825847711599486e-8 1.6150131805316407e-8 1.6148836310509853e-8 1.6711508917582066e-8
          1.6147540815703302e-8 1.7197702484759626e-8 1.7219480016780405e-8 1.7786349817349902e-8 1.7241257548801188e-8 1.8448463145770293e-8
          1.8425461407088117e-8 1.840245966840594e-8 1.1132224352667424e-8 1.091235683961361e-8 1.1080045954448334e-8 1.0969159146763595e-8
          1.2016495260393372e-8 1.2870304118083703e-8 1.3110388415669393e-8 1.3359958947898501e-8 1.3435521379835097e-8 8.02226637823074e-9
          8.430026735481309e-9 7.88610365605899e-9 8.293904582540784e-9 9.84897117679662e-9 9.76861570761491e-9 4.873081455440427e-9
          1.1883944336098732e-8 1.1958709519529142e-8 1.29077334113361e-8 1.3081893132851045e-8 8.551852168607207e-9 1.048608839878343e-8
          1.0780638948311525e-8 1.0529133083961091e-8 1.209686940936015e-8 9.870918971419735e-9 1.0242612009706217e-8 1.001907939032573e-8
          1.1941576133466104e-8 1.361916383518342e-8 1.3862781126748335e-8 1.411977834948616e-8 1.4057605145773013e-8 1.4232465077896552e-8
          1.5409709187644308e-8 7.785515350047425e-9 8.179666534542818e-9 7.728168342709255e-9 8.099416494404415e-9 9.686817004673286e-9
          9.612664201362378e-9 4.685678458078721e-9 5.018697698854877e-9 5.2313569210846835e-9 6.159548606649841e-9 7.712936861736907e-9
          8.059057282555062e-9 7.749475722114273e-9 8.087583473582747e-9 9.561421306832986e-9 9.5709536544349e-9 5.2294181766474135e-9
          5.501218859095728e-9 5.810487938548486e-9 6.448621163309941e-9 1.2035658475835356e-8 1.2078746872594016e-8 1.3271500661362352e-8
          1.413597419252797e-8 8.521614852716419e-9 8.515455864776956e-9 1.095055387322156e-8 1.2077212899711671e-8 1.211085002769935e-8
          1.4574682974841578e-8 1.4760615463553284e-8 8.537284427479395e-9 8.625501470352837e-9 1.1965947308815829e-8 1.560834792844606e-8
          1.5994993617487908e-8 1.664158024296175e-8 1.6016931932293714e-8 1.5701126941574384e-8 1.5799991282690562e-8 1.3819672245813066e-8
          1.4617642314938082e-8 1.493938173548983e-8 1.5970351266860198e-8 1.6472246429101742e-8 1.622809747316782e-8 1.6928745902677037e-8
          1.5078095939452426e-8 1.5362202993894865e-8 1.617464333115615e-8 3.6346345657693237e-9 3.862594007128729e-9 4.5237384256403125e-9
          3.2428932333860976e-9 5.887881182645952e-9 5.064357767609421e-9 2.1423991122368303e-9 2.614245414199208e-9 3.6805513644517834e-9
          2.3403794833208012e-9 4.819338212329286e-9 4.739479008677002e-9 3.914979712941522e-9 4.153442359822407e-9 4.18929544238136e-9
          4.448468741003667e-9 4.814301552984456e-9 5.1338269151386825e-9 3.0969297450362127e-9 3.4658547509465364e-9 3.6950185927903797e-9
          4.344336589511964e-9 4.462283457224298e-9 4.747678741303761e-9 4.742880747671136e-9 5.054851144052527e-9 5.474623411738393e-9
          5.835961078182989e-9 3.5116900841010757e-9 3.9330242515592676e-9 4.182289895824538e-9 4.946658337953625e-9 6.065106599983356e-9
          6.312768614049867e-9 8.955847692772478e-9 9.008196985046084e-9 5.388905638009654e-9 5.743137741139283e-9 7.172872539718366e-9
          6.623150308284329e-9 6.971432028875577e-9 9.112155581746757e-9 9.281786415565099e-9 6.1202992842847056e-9 6.522168700176512e-9
          7.666941976306551e-9 2.2885892568715536e-9 2.791618270403627e-9 2.4403725071277883e-9 2.976355246383184e-9 3.929912567683553e-9
          4.190367470712429e-9 1.926863834707701e-9 2.4997104816233526e-9 2.666596851871315e-9 3.75742244899883e-9 2.5991296190899676e-9
          3.1701098796417045e-9 2.7663287852527233e-9 3.3746179148225334e-9 4.4636678926861165e-9 4.75252944300483e-9 2.1955643831856304e-9
          2.842593575984844e-9 3.0294700058438353e-9 4.267290086521752e-9 5.153292856525296e-9 5.503217931781746e-9 6.521016693200447e-9
          6.8513277726082e-9 5.067911048052453e-9 5.409498498270444e-9 6.393764369296053e-9 5.867369635138685e-9 6.247945329355702e-9
          7.2253330625355066e-9 7.637184540097905e-9 5.7626931169681485e-9 6.132649352906012e-9 7.14885548035862e-9 1.2872474248045052e-8
          1.3011401133772243e-8 1.4726768211246236e-8 1.5071933734900664e-8 1.1071146539689357e-8 1.1142128034518972e-8 1.3720465853794221e-8
          1.3141775614959398e-8 1.331716317680054e-8 1.538936788490038e-8 1.5708516964289975e-8 1.1237494791754277e-8 1.1387938515326483e-8
          1.3842745942575071e-8 1.8944405116706907e-8 9.883607261321493e-9 9.983181756856005e-9 1.2466588997861278e-8 1.2401746876272823e-8
          9.550197693541306e-9 9.675399217162784e-9 1.2006400975136755e-8 1.0134320448941634e-8 1.0328264731650233e-8 1.2366468397910835e-8
          1.4258938602654772e-8 9.86671958162115e-9 1.0093485413700595e-8 1.191615703220191e-8 1.8387873883746407e-8 1.8710730359926e-8
          1.7831342650785908e-8 1.5664621119242314e-8 1.568323923848844e-8 1.5701857357734566e-8 9.509056534579582e-9 9.970231910168173e-9
          1.1798623296186419e-8 1.1916209613299185e-8 1.5784430468657515e-8 1.5883524855524667e-8 1.605569680329939e-8 1.6257185201546693e-8
          1.5982619242391815e-8 1.645867359979399e-8 1.2254228363719468e-8 1.2672503016262555e-8 1.26867396591337e-8 1.326882963176403e-8
          1.4422107551743801e-8 1.460686076134744e-8 1.6241146146234547e-8 1.4769011928218086e-8 1.493231184023313e-8 1.7023799846953312e-8
          7.849169758322153e-9 8.215566915356272e-9 7.94657567097689e-9 8.362297426319153e-9 9.684744029020756e-9 9.850492858667756e-9
          5.8652753791314235e-9 6.139348707724559e-9 6.4936604916511075e-9 6.979047883364695e-9 8.01758285223884e-9 8.47064168406853e-9
          8.177453337059129e-9 8.638256192533737e-9 1.0009837538156248e-8 1.0207437128162258e-8 6.600655712727355e-9 6.897339680613424e-9
          7.349097874387821e-9 7.717866262719968e-9 1.2209632031264542e-8 1.2338591068533741e-8 1.501504153567025e-8 1.5273547059685468e-8
          8.796912138836793e-9 9.038246257940952e-9 1.2081688854574614e-8 1.2494128729395776e-8 1.269502825829794e-8 1.5552052043036086e-8
          1.5860431252739672e-8 9.347193981805458e-9 9.727174344517192e-9 1.245640847117698e-8 1.6357046090503247e-8 1.6605451778698042e-8
          1.6648568456215704e-8 1.6954100448001976e-8 1.6853857466892836e-8 1.725963243978825e-8 1.2238413889381818e-8 1.2792365587127154e-8
          1.2946367003546592e-8 1.3509598738244096e-8 1.6924699922412948e-8 1.7303007854510116e-8 1.7681315786607287e-8 1.2562004973850804e-8
          1.3147204199705098e-8 1.390011435040527e-8 1.511544885962037e-8 1.532582625329788e-8 1.7885421592322573e-8 1.560034167274948e-8
          1.8929393651966937e-8 8.478819607584503e-9 8.916621198841376e-9 8.888634324789673e-9 9.286744773284662e-9 1.0474505357807774e-8
          1.0815217864488234e-8 7.525409839625461e-9 7.835086488446743e-9 8.348346485468792e-9 8.661060718643392e-9 9.395894734323105e-9
          9.749984680760042e-9 1.1238020782317585e-8 8.508959389460207e-9 8.887051148326087e-9 9.8183804035241e-9 1.2947909201975154e-8
          1.3250553742364117e-8 1.6208543045266698e-8 1.6608692758215476e-8 1.017698903740271e-8 1.0692263085646463e-8 1.3078745797612544e-8
          1.3620872743668333e-8 1.707986745265293e-8 1.127106521447362e-8 1.397920758454223e-8 1.715585423395204e-8 1.7690674772700858e-8
          1.7272619338080978e-8 1.8274947361369193e-8 1.8895690605851816e-8 1.8415385327587124e-8 1.6932115680405105e-8 1.740846013996994e-8
          1.746588836634768e-8 1.8024041761962328e-8 1.5688203984242702e-8 1.6025937208614206e-8 1.7262180806598063e-8 1.792545156578812e-8
          1.8472740952175365e-8 1.8639081943881333e-8 1.929886070715109e-8 1.6390937487888044e-8 1.6789558655136443e-8 1.83217371200926e-8
          1.9545576412012313e-8 2.024962430163536e-8 1.9715045713632907e-8 2.1020904863810998e-8 2.114816956909004e-8 1.9050864077782036e-8
          1.968885307521714e-8 1.9985872543463688e-8 2.0715847611534745e-8 1.7231551126633733e-8 1.773853818663091e-8 1.9482230432829054e-8
          2.039969578840961e-8 2.1509435221411855e-8 1.8330662277950188e-8 2.087342191590692e-8 5.038296318273204e-9 5.376565008222309e-9
          5.350430583339326e-9 5.71595549470898e-9 6.220326454447989e-9 6.629207283047753e-9 3.9621872487925466e-9 4.4448016478732565e-9
          4.722315586018887e-9 5.607867002849652e-9 5.679024793434426e-9 6.072863990227341e-9 6.026342562134319e-9 6.450514627369118e-9
          7.06237517909725e-9 7.519373271012062e-9 4.46176025400211e-9 5.01685660753021e-9 5.330344307344558e-9 6.349767185687775e-9
          7.3618653147078066e-9 7.804345521329495e-9 9.518563876630421e-9 9.82080467265136e-9 6.9515983988030574e-9 7.4096893425614965e-9
          8.419735211628224e-9 8.291410242397809e-9 8.818875556457965e-9 1.0195278186458301e-8 1.064791251805102e-8 7.89825079949833e-9
          8.419116479442115e-9 9.391906077666733e-9 2.9434230668740675e-9 3.591692896719597e-9 3.131850510847214e-9 3.8232252201366155e-9
          5.060359511421952e-9 5.3900979077262156e-9 2.497796496511328e-9 3.2291170192325547e-9 3.4433845653985767e-9 4.840820604053516e-9
          3.3331461942959766e-9 4.071193202349072e-9 3.5491491056864e-9 4.337920789939218e-9 5.744125921250702e-9 6.125361096864183e-9
          2.8449481510392433e-9 3.6742125450169886e-9 3.923881023463296e-9 5.5030147670870305e-9 6.6529522522539685e-9 7.088661528946325e-9
          8.09269327214877e-9 8.599732087979173e-9 6.529770569429134e-9 6.960464275266787e-9 8.008603090258658e-9 7.557129081357211e-9
          8.061156458088974e-9 9.159629156069943e-9 9.766669833190888e-9 7.425434615475931e-9 7.925227057538014e-9 9.093489826487926e-9
          6.394584434132784e-9 6.851918319154099e-9 6.7853058050091054e-9 7.27912045337015e-9 8.002880269087857e-9 8.520427899780394e-9
          5.024279938430078e-9 5.665411198464717e-9 6.025731602875647e-9 7.200039698069561e-9 7.202028291100521e-9 7.73639067043426e-9
          9.08068186066477e-9 5.669536399258415e-9 6.415650188783502e-9 8.19358577421454e-9 9.389946505367351e-9 1.0011900300167741e-8
          1.1177938712135965e-8 1.1781190013976068e-8 8.976879623322921e-9 9.580067803953446e-9 1.060717050819095e-8 1.0688957078208208e-8
          1.2453517376344694e-8 1.0237179620669151e-8 1.2078453660232905e-8 3.782070021902457e-9 4.626222282502781e-9 4.034762883952487e-9
          4.939596470155516e-9 6.537952574698173e-9 6.987057892764211e-9 3.251130488611645e-9 4.195220593534957e-9 4.491884288492642e-9
          6.277306154887801e-9 4.310868731478207e-9 5.2824397370119385e-9 7.478806450881555e-9 3.737518687720415e-9 4.818373404715226e-9
          7.201000259046941e-9 8.606077516293148e-9 9.198947030244534e-9 1.0419206303683811e-8 1.1127535349159575e-8 8.464680266199667e-9
          9.052314113055089e-9 1.0354121918243386e-8 9.847370609473444e-9 1.1905164920909231e-8 9.697569519664946e-9 1.18323833582965e-8
          1.3570281573150128e-8 1.3863774468340125e-8 1.6101346811730468e-8 1.6517696474019647e-8 1.1638009507729425e-8 1.1964860867962408e-8
          1.5549378453568862e-8 1.417157478908055e-8 1.4522913687363563e-8 1.687736651886587e-8 1.722369360212081e-8 1.2315066215216816e-8
          1.2711979596517869e-8 1.6079228506861317e-8 1.8964253768030173e-8 1.9140910741490912e-8 1.9383227037480124e-8 1.9642495672417536e-8
          2.0344265144845984e-8 2.0077786751810285e-8 1.0565825430367209e-8 1.086957986305962e-8 1.5251209139676133e-8 1.5457149648187548e-8
          1.032816414994859e-8 1.061135801688528e-8 1.4847095301438563e-8 1.1241201740075092e-8 1.1691200742178675e-8 1.5833557424085477e-8
          1.6298703521797575e-8 1.0989501422308612e-8 1.147494365427477e-8 1.5535290766740027e-8 1.8572363394660697e-8 1.901760129424967e-8
          1.9013721034635165e-8 1.957232601415138e-8 1.818047302129123e-8 1.889429184700843e-8 1.864421503179021e-8 1.962086584511799e-8
          2.0312641493860203e-8 2.0173008540690512e-8 2.0875220958742455e-8 1.959923601781844e-8 2.028101784287443e-8 2.0268230329570733e-8
          1.4942353153221877e-8 1.543412310014603e-8 1.761221355890623e-8 1.8061746074845815e-8 1.3196027489477422e-8 1.3767874461260969e-8
          1.6897718158790126e-8 1.6010287821131273e-8 1.860084437442804e-8 1.4425651560192913e-8 2.106726921625505e-8 2.1517256499297777e-8
          1.2242380011039428e-8 1.2895940238129336e-8 1.6837661525492593e-8 1.2070460839852053e-8 1.2775383229565907e-8 1.65870786255244e-8
          1.3653520561204022e-8 1.3593475801392627e-8 2.101609541630795e-8 2.1609839622635005e-8 2.0964921616360853e-8 2.1702422745972236e-8
          1.445117350518216e-7 9.663072626028935e-8 7.231324349134761e-8 1.1014015918686706e-7 2.858554967960527e-7 2.0283871321113575e-7
          5.355994174929669e-8 4.0296573929288336e-8 1.7988987826176874e-7 1.02654186012601e-7 2.5665771868143062e-8 4.149606790295204e-8
          8.350099358873814e-8 1.3132655956665497e-7 1.4306052874015515e-8 4.620489255529767e-8 5.0814302674777724e-8 8.067814805380174e-8
          2.6240251406796384e-7 1.1488473553567226e-7 9.947686478237536e-8 2.7884404625732712e-8 2.0291878527556608e-7 1.1260399721657879e-7
          3.7458222687086833e-7 1.7138290129604601e-7 1.3788253877381752e-7 2.8596677153186215e-7 5.011699974789636e-7 4.6962685016671494e-7
          3.6727148425456375e-7 3.948123989408449e-7 3.791565295471073e-7 4.715231652534296e-7 2.2308874322541666e-7 1.8055287457724338e-7
          3.125741489562986e-7 3.358836518954301e-7 2.6961969472479064e-7 5.065747224115816e-7 1.1904554681786363e-7 2.210710039899806e-7
          1.456827423252999e-7 4.482025593503699e-7 5.932988202328969e-8 1.4912296039750742e-7 7.077238863097576e-8 3.8994764167421555e-7
          4.639806548642601e-7 4.944990815473216e-7 6.671895768630784e-7 6.462241383666969e-7 2.9453330088689367e-7 3.166558976502559e-7
          5.438752943416661e-7 7.514855870498775e-7 3.4240503314724957e-7 3.1054456932087655e-7 4.085587820168663e-7 3.489477093155323e-7