<?xml version="1.0"?>
<VTKFile type="UnstructuredGrid" version="0.1" byte_order="LittleEndian" header_type="UInt32" compressor="vtkZLibDataCompressor">
  <UnstructuredGrid>
    <Piece NumberOfPoints="1204" NumberOfCells="658">
      <PointData>
        <DataArray type="Int32" Name="libmesh_node_id" format="ascii" RangeMin="44" RangeMax="10419">
          48 49 50 51 52 53
          54 55 56 57 58 59
          60 61 62 63 64 65
          66 67 68 69 70 71
          72 73 74 75 76 77
          78 79 80 81 82 83
          84 85 86 87 88 89
          90 91 92 93 94 95
          96 97 98 99 100 101
          102 103 104 105 106 107
          132 133 134 135 136 137
          138 139 140 141 142 143
          144 145 146 147 148 149
          150 151 152 153 154 155
          156 157 158 159 160 161
          186 187 188 189 190 191
          192 193 194 195 196 197
          198 199 200 201 202 203
          204 205 206 207 208 209
          210 211 212 213 214 215
          240 241 242 243 244 245
          246 248 250 251 252 253
          254 255 256 257 258 259
          260 261 262 263 264 265
          266 267 268 269 282 283
          284 287 288 289 290 291
          292 293 294 295 296 309
          310 311 312 313 314 315
          316 317 318 319 320 321
          322 323 350 351 352 353
          360 361 362 363 364 365
          366 367 368 369 370 371
          372 373 374 375 376 377
          391 392 396 397 398 399
          400 401 402 403 404 418
          419 420 421 422 423 424
          425 426 427 428 429 430
          431 458 459 460 461 468
          469 470 471 472 473 474
          475 476 477 478 479 480
          481 482 483 484 485 499
          500 504 505 506 507 508
          509 510 511 512 526 527
          531 532 533 534 535 536
          537 538 539 566 567 568
          569 577 578 580 581 582
          583 584 585 586 587 588
          589 590 591 592 593 607
          612 613 614 615 616 617
          618 619 620 634 639 640
          641 642 643 644 645 646
          647 674 675 676 677 688
          689 690 691 692 693 694
          695 696 697 698 699 700
          701 715 720 721 722 723
          724 725 726 727 728 742
          747 748 749 750 751 752
          753 754 755 756 757 760
          761 763 764 765 766 767
          769 770 771 773 774 775
          776 777 778 779 780 781
          782 783 784 785 786 787
          788 831 832 838 883 885
          887 888 889 892 893 894
          895 896 897 898 899 900
          901 902 903 905 907 908
          909 912 913 915 917 918
          919 920 921 922 923 924
          925 926 927 928 929 930
          931 932 933 934 935 936
          937 938 939 940 941 942
          943 944 945 946 947 948
          949 950 951 952 953 954
          955 956 957 958 959 960
          961 962 963 964 965 966
          967 971 972 974 975 977
          1096 1097 1105 1113 1178 1179
          1180 1181 1182 1183 1184 1185
          1186 1187 1188 1189 1190 1191
          1199 1201 1206 1209 1232 1234
          1236 1237 1238 1241 1246 1247
          1248 1251 1252 1253 1254 1255
          1256 1257 1258 1259 1260 1261
          1262 1263 1264 1265 1266 1267
          1268 1269 1270 1271 1272 1273
          1274 1275 1276 1277 1278 1279
          1283 1284 1292 1293 1294 1295
          1298 1299 1300 1302 1303 1305
          1356 1357 1360 1361 1363 1365
          1380 1406 1407 1408 1409 1410
          1411 1412 1413 1414 1415 1416
          1417 1418 1419 1420 1421 1422
          1423 1424 1425 1426 1427 1428
          1429 1430 1431 1432 1433 1434
          1435 1436 1437 1438 1439 1440
          1441 1442 1443 1444 1445 1446
          1447 1448 1449 1450 1451 1452
          1453 1454 1455 1456 1457 1458
          1459 1460 1461 1462 1463 1464
          1465 1466 1467 1468 1469 1470
          1471 1472 1473 1474 1475 1476
          1477 1478 1479 1480 1481 1482
          1483 1484 1485 1486 1487 1488
          1489 1490 1491 1492 1493 1494
          1495 1496 1497 1498 1499 1500
          1501 1502 1503 1504 1505 1506
          1507 1508 1509 1510 1511 1512
          1513 1514 1515 1516 1517 1518
          1519 1520 1521 1522 1523 1524
          1525 1526 1527 1528 1543 1544
          1545 1546 1547 1548 1549 1550
          1551 1552 1563 1564 1565 1566
          1567 1568 1569 1570 1571 1572
          1573 1574 1575 1576 1577 1578
          1581 1582 1584 1586 2311 2312
          2313 2314 2315 2316 2317 2318
          2319 2320 2321 2322 2323 2324
          2325 2326 2327 2328 2329 2330
          2331 2332 2333 2334 2335 2336
          2337 2338 2339 2340 2365 2366
          2367 2368 2369 2370 2371 2372
          2373 2374 2376 2377 2378 2379
          2383 2384 2390 2391 2392 2395
          2398 2400 2401 2402 2403 2404
          2405 2406 2407 2408 2409 2410
          2411 2412 2413 2414 2415 2416
          2417 2418 2419 2420 2421 2422
          2423 2424 2425 2426 2427 2428
          2429 2430 2431 2432 2433 2434
          2435 2436 2437 2438 2439 2440
          2441 2442 2443 2444 2445 2446
          2447 2448 2449 2450 2451 2452
          2453 2454 2455 2456 2457 2458
          2459 2460 2461 2462 2463 2464
          2465 2466 2467 2468 2469 2470
          2471 2472 2473 2474 2475 2476
          2477 3973 3974 3977 3978 3980
          3981 3997 3999 4001 4002 4004
          4006 4007 4008 4009 4010 4011
          4012 4013 4014 4015 4016 4017
          4018 4021 4022 4024 4025 4027
          4028 4030 4031 4032 4033 4034
          4035 4036 4037 4038 4039 4040
          4076 4077 4080 4081 4082 4083
          4085 4086 4087 4088 4089 4090
          4093 4094 4095 4096 4097 4100
          4103 4104 4105 4106 4107 4108
          4109 4110 4111 4112 4113 4114
          4115 4116 4117 4118 4119 4120
          4121 4122 4123 4124 4125 4126
          4127 4128 4129 4130 4131 4132
          4133 4134 4135 4136 4137 4138
          4139 4140 4141 4142 4143 4144
          4145 4146 10400 10401 10404 10405
          10407 10408 10410 10412 10414 10415
          10417 10419 44 45 46 47
          130 131 184 185 238 239
          247 249 281 285 286 308
          346 348 349 347 354 355
          356 357 358 359 390 389
          393 395 394 417 416 456
          457 462 463 466 467 498
          501 503 525 528 502 529
          530 579 565 606 608 571
          609 575 611 633 635 636
          638 687 714 741 716 743
          719 746 758 762 768 790
          796 792 797 884 877 878
          886 879 890 891 882 821
          835 845 849 846 852 904
          850 906 851 910 911 914
          916 1092 1093 1094 1098 1095
          1099 1101 1100 1106 1107 1108
          1109 1114 1110 1112 1115 1192
          1193 1194 1195 1196 1197 789
          1198 1200 1204 1205 802 1208
          1211 1224 826 839 1233 1225
          840 1235 1228 683 844 1239
          1230 1240 1242 853 1243 1244
          1245 1249 1250 1280 1281 1282
          1285 791 968 1296 973 1297
          1301 800 1304 1348 1349 1352
          1358 1359 1362 1364 1376 1377
          1378 1381 1382 1379 1383 1385
          1384 1529 1530 1531 1532 1536
          1537 1539 1540 1542 1553 1554
          1557 1559 1560 1562 970 1579
          1558 1580 1583 976 1585 2360
          1067 2361 2364 823 834 2375
          1119 1366 837 1368 1370 1147
          1148 2380 2381 1149 2382 2385
          1386 1390 1388 2386 2387 2388
          2389 2393 2394 2396 2397 2399
          1616 1538 1618 1623 3975 3976
          3979 3982 564 3998 4000 4003
          673 4005 759 4019 4020 4023
          4026 672 4029 772 4069 4070
          4078 4079 4071 4084 4075 4091
          4092 576 4098 4099 4101 4102
          1141 1144 10402 10403 10406 10409
          10411 10413 10416 10418
        </DataArray>
        <DataArray type="Float64" Name="bounds" format="ascii" RangeMin="0" RangeMax="0">
          0 0 0 0 0 0
          0 0 0 0 0 0
          0 0 0 0 0 0
          0 0 0 0 0 0
          0 0 0 0 0 0
          0 0 0 0 0 0
          0 0 0 0 0 0
          0 0 0 0 0 0
          0 0 0 0 0 0
          0 0 0 0 0 0
          0 0 0 0 0 0
          0 0 0 0 0 0
          0 0 0 0 0 0
          0 0 0 0 0 0
          0 0 0 0 0 0
          0 0 0 0 0 0
          0 0 0 0 0 0
          0 0 0 0 0 0
          0 0 0 0 0 0
          0 0 0 0 0 0
          0 0 0 0 0 0
          0 0 0 0 0 0
          0 0 0 0 0 0
          0 0 0 0 0 0
          0 0 0 0 0 0
          0 0 0 0 0 0
          0 0 0 0 0 0
          0 0 0 0 0 0
          0 0 0 0 0 0
          0 0 0 0 0 0
          0 0 0 0 0 0
          0 0 0 0 0 0
          0 0 0 0 0 0
          0 0 0 0 0 0
          0 0 0 0 0 0
          0 0 0 0 0 0
          0 0 0 0 0 0
          0 0 0 0 0 0
          0 0 0 0 0 0
          0 0 0 0 0 0
          0 0 0 0 0 0
          0 0 0 0 0 0
          0 0 0 0 0 0
          0 0 0 0 0 0
          0 0 0 0 0 0
          0 0 0 0 0 0
          0 0 0 0 0 0
          0 0 0 0 0 0
          0 0 0 0 0 0
          0 0 0 0 0 0
          0 0 0 0 0 0
          0 0 0 0 0 0
          0 0 0 0 0 0
          0 0 0 0 0 0
          0 0 0 0 0 0
          0 0 0 0 0 0
          0 0 0 0 0 0
          0 0 0 0 0 0
          0 0 0 0 0 0
          0 0 0 0 0 0
          0 0 0 0 0 0
          0 0 0 0 0 0
          0 0 0 0 0 0
          0 0 0 0 0 0
          0 0 0 0 0 0
          0 0 0 0 0 0
          0 0 0 0 0 0
          0 0 0 0 0 0
          0 0 0 0 0 0
          0 0 0 0 0 0
          0 0 0 0 0 0
          0 0 0 0 0 0
          0 0 0 0 0 0
          0 0 0 0 0 0
          0 0 0 0 0 0
          0 0 0 0 0 0
          0 0 0 0 0 0
          0 0 0 0 0 0
          0 0 0 0 0 0
          0 0 0 0 0 0
          0 0 0 0 0 0
          0 0 0 0 0 0
          0 0 0 0 0 0
          0 0 0 0 0 0
          0 0 0 0 0 0
          0 0 0 0 0 0
          0 0 0 0 0 0
          0 0 0 0 0 0
          0 0 0 0 0 0
          0 0 0 0 0 0
          0 0 0 0 0 0
          0 0 0 0 0 0
          0 0 0 0 0 0
          0 0 0 0 0 0
          0 0 0 0 0 0
          0 0 0 0 0 0
          0 0 0 0 0 0
          0 0 0 0 0 0
          0 0 0 0 0 0
          0 0 0 0 0 0
          0 0 0 0 0 0
          0 0 0 0 0 0
          0 0 0 0 0 0
          0 0 0 0 0 0
          0 0 0 0 0 0
          0 0 0 0 0 0
          0 0 0 0 0 0
          0 0 0 0 0 0
          0 0 0 0 0 0
          0 0 0 0 0 0
          0 0 0 0 0 0
          0 0 0 0 0 0
          0 0 0 0 0 0
          0 0 0 0 0 0
          0 0 0 0 0 0
          0 0 0 0 0 0
          0 0 0 0 0 0
          0 0 0 0 0 0
          0 0 0 0 0 0
          0 0 0 0 0 0
          0 0 0 0 0 0
          0 0 0 0 0 0
          0 0 0 0 0 0
          0 0 0 0 0 0
          0 0 0 0 0 0
          0 0 0 0 0 0
          0 0 0 0 0 0
          0 0 0 0 0 0
          0 0 0 0 0 0
          0 0 0 0 0 0
          0 0 0 0 0 0
          0 0 0 0 0 0
          0 0 0 0 0 0
          0 0 0 0 0 0
          0 0 0 0 0 0
          0 0 0 0 0 0
          0 0 0 0 0 0
          0 0 0 0 0 0
          0 0 0 0 0 0
          0 0 0 0 0 0
          0 0 0 0 0 0
          0 0 0 0 0 0
          0 0 0 0 0 0
          0 0 0 0 0 0
          0 0 0 0 0 0
          0 0 0 0 0 0
          0 0 0 0 0 0
          0 0 0 0 0 0
          0 0 0 0 0 0
          0 0 0 0 0 0
          0 0 0 0 0 0
          0 0 0 0 0 0
          0 0 0 0 0 0
          0 0 0 0 0 0
          0 0 0 0 0 0
          0 0 0 0 0 0
          0 0 0 0 0 0
          0 0 0 0 0 0
          0 0 0 0 0 0
          0 0 0 0 0 0
          0 0 0 0 0 0
          0 0 0 0 0 0
          0 0 0 0 0 0
          0 0 0 0 0 0
          0 0 0 0 0 0
          0 0 0 0 0 0
          0 0 0 0 0 0
          0 0 0 0 0 0
          0 0 0 0 0 0
          0 0 0 0 0 0
          0 0 0 0 0 0
          0 0 0 0 0 0
          0 0 0 0 0 0
          0 0 0 0 0 0
          0 0 0 0 0 0
          0 0 0 0 0 0
          0 0 0 0 0 0
          0 0 0 0 0 0
          0 0 0 0 0 0
          0 0 0 0 0 0
          0 0 0 0 0 0
          0 0 0 0 0 0
          0 0 0 0 0 0
          0 0 0 0 0 0
          0 0 0 0 0 0
          0 0 0 0 0 0
          0 0 0 0 0 0
          0 0 0 0 0 0
          0 0 0 0 0 0
          0 0 0 0 0 0
          0 0 0 0 0 0
          0 0 0 0 0 0
          0 0 0 0 0 0
          0 0 0 0 0 0
          0 0 0 0 0 0
          0 0 0 0 0 0
          0 0 0 0 0 0
          0 0 0 0 0 0
          0 0 0 0 0 0
          0 0 0 0 0 0
          0 0 0 0
        </DataArray>
        <DataArray type="Float64" Name="gradient_error" format="ascii" RangeMin="8.335554852267287e-15" RangeMax="0.0000013241631338275583">
          1.6143078825497144e-10 9.423232012581788e-11 4.30204959890409e-10 2.4608265366351144e-10 7.909060346094076e-11 5.207224590267371e-11
          2.0712074410702132e-10 1.3265369265638722e-10 7.097225796264598e-11 4.7139842945002814e-11 1.9382569339952183e-10 1.254922131655989e-10
          6.621981082847467e-11 4.089545169614825e-11 1.8437587948794112e-10 1.1183270307757297e-10 3.052381482907463e-11 1.6942140963498678e-11
          8.145658841266818e-11 4.4973966903254374e-11 6.7440895409542965e-12 3.923977535904869e-12 1.6806844051952663e-11 9.693628471855046e-12
          2.3947806566468005e-12 1.694857569228237e-12 5.456415470624588e-12 4.012873455727443e-12 5.355632704517632e-13 5.075244034870591e-13
          1.2929033643343491e-12 1.2285991570563985e-12 2.1366671948456183e-14 2.0102177454118e-14 6.51797660662975e-14 5.2196038005395444e-14
          8.335554852267287e-15 9.440079067803763e-15 2.021516437333493e-14 1.8424096987656128e-14 1.0338431971134786e-14 1.0584535972412977e-14
          1.2969645524813665e-14 1.2594315596504662e-14 1.1075021892159608e-14 1.1124384628933399e-14 1.1608757032248999e-14 1.1532725576047838e-14
          1.1234126603960288e-14 1.1245688284195004e-14 1.132438383272528e-14 1.131969515377811e-14 1.1266120034398968e-14 1.127029403366937e-14
          1.1264687088009776e-14 1.1275618935038775e-14 1.127114365782598e-14 1.1274170253151128e-14 1.1254857310414755e-14 1.1268371414448876e-14
          1.944476106616162e-11 4.5114088469938025e-11 1.7214220560126102e-11 4.022652713356921e-11 1.7219277940114608e-11 4.2281693702690024e-11
          1.2161839146878288e-11 3.046598771329354e-11 2.9583177758384338e-12 7.359891237385078e-12 8.983236293677073e-13 2.060018630335569e-12
          7.383019016929711e-13 1.8431069882088074e-12 3.309673155248342e-13 7.995235850081865e-13 1.5426511443251193e-14 3.0678799924976093e-14
          1.09311682737037e-14 1.4184435311495257e-14 1.1081460418286876e-14 1.174487018657011e-14 1.1237615765852169e-14 1.1369403830541914e-14
          1.127366265377114e-14 1.1305894389495385e-14 1.1280813064402648e-14 1.1294013589008298e-14 1.1281923522067981e-14 1.1292132711546516e-14
          1.1855670135658929e-11 2.8267829503262116e-11 9.374552775845533e-12 2.2266413061385272e-11 1.1131127952869555e-11 2.7404654473704056e-11
          8.752585729934747e-12 2.1642448759382272e-11 2.55616845375414e-12 6.2284370809296006e-12 6.927817278799729e-13 1.5396243689137118e-12
          4.816693215762689e-13 1.116882535587319e-12 1.8244909452731347e-13 4.3475222023792506e-13 1.2015339926722572e-14 2.214528990545879e-14
          1.1317733264067162e-14 1.1735841021013185e-14 1.133228086288258e-14 1.1270754704944557e-14 1.1301484165997149e-14 1.128211354123715e-14
          1.1290075343112562e-14 1.1296782304159831e-14 1.1287158095865524e-14 1.1301476395948826e-14 1.1286650195659683e-14 1.1302379904610034e-14
          1.7273998178655664e-9 9.76160774006606e-10 8.308463804911967e-10 5.228594474220292e-10 8.221519975630026e-10 5.262267000678274e-10
          7.827584014109348e-10 3.452986816906622e-10 7.014304225448415e-11 3.998171996753152e-11 1.926387758441813e-11 1.505033164203201e-11
          4.987436170477357e-12 4.852647833512668e-12 1.9869080501470375e-13 1.6558277350953976e-13 3.9603358970817685e-14 3.16399789840356e-14
          1.2983243485585938e-14 1.225896475696534e-14 1.058633741715771e-14 1.0877339230660754e-14 1.0860996667473625e-14 1.1030622743518507e-14
          1.0951379837467218e-14 1.1083310414123264e-14 1.0968253754290783e-14 1.1093410000627168e-14 1.666042639195052e-10 1.50549922334351e-10
          1.7065369583244936e-10 7.600226527420598e-12 7.514440576605278e-12 3.1974162798366702e-12 1.0543982408285899e-13 1.9069910534944144e-14
          1.1418223938043219e-14 1.1322339870010976e-14 1.1336540204491162e-14 1.1339418906130348e-14 1.1339886224068667e-14 1.0828679769136456e-10
          8.62273303158402e-11 1.1100598909224651e-10 8.746749574179145e-11 2.493696425312922e-11 5.3800553742622984e-12 4.192095453564673e-12
          1.6769730631253623e-12 7.840490616134224e-14 1.4463222072634762e-14 1.1301761847741702e-14 1.1476338695858152e-14 1.147283158941894e-14
          1.1463596821481388e-14 1.1461206201173782e-14 3.2798061964722175e-9 2.0356886898907714e-9 3.4569970049702436e-9 2.201761497014975e-9
          6.747490765077172e-11 5.6907615087588695e-11 1.9595275064326393e-11 1.975171183737663e-11 9.352402677956795e-13 9.804503661568816e-13
          1.6169786722230206e-13 1.673869015764165e-13 3.021330182609603e-14 3.2392217004264664e-14 1.1048720200647997e-14 1.207255565969458e-14
          1.0794679964389652e-14 1.1117347041745352e-14 1.135436333517457e-14 1.154197978969905e-14 1.14624382962917e-14 1.1632591989612242e-14
          5.643737453241906e-10 6.998893772181955e-10 3.1074192099486943e-11 1.3221144809830023e-11 6.999384642975098e-13 1.108978578575242e-13
          2.4864509904311838e-14 1.2816013347148693e-14 1.1860200886358296e-14 1.1998845474434762e-14 1.2037058154200687e-14 3.371763073390559e-10
          4.5325276537668525e-10 3.551725980015393e-10 1.0100548237413597e-10 1.8913178497426094e-11 1.5808061674568194e-11 6.534141009233166e-12
          3.7421646407693545e-13 4.87197797845174e-14 1.5157887626190375e-14 1.2535635575556223e-14 1.2280387653615541e-14 1.2268094704645995e-14
          1.2271370625468592e-14 1.858034520663284e-8 1.384029571344592e-8 1.896230455651756e-8 1.2371481395676143e-8 7.918319011430731e-11
          1.28758419576573e-10 1.809089724050907e-11 4.877102256415739e-11 1.8176680301860682e-12 2.150901943826882e-12 3.1265582599893905e-13
          3.6011785785107937e-13 6.489662138042436e-14 6.964672650077214e-14 2.0674884987544615e-14 2.0589160893633946e-14 1.4902174802380862e-14
          1.489591464152758e-14 1.438147061912833e-14 1.453889248046455e-14 1.431711377193742e-14 1.4504209708079615e-14 7.018325191498353e-9
          4.083130993572495e-9 1.2109855104646576e-10 5.266376433595995e-11 1.978979705658505e-12 3.15273158007463e-13 5.6383901405479106e-14
          1.768482571661213e-14 1.4656161667780366e-14 1.4722014438254263e-14 1.474583649545376e-14 2.2528433073059897e-9 1.2333818652310457e-9
          7.024471712365949e-11 2.783897876183075e-11 1.4738235538493144e-12 2.2296642631170632e-13 3.837097118983828e-14 1.486621463350099e-14
          1.442266885488643e-14 1.4747714534707758e-14 1.4800367346685704e-14 1.6897655724680314e-7 4.955437239834062e-7 1.2563715978913454e-7
          3.639696226691067e-7 2.521455311983082e-10 3.078805333759019e-12 1.149754903502389e-12 3.891958773636955e-12 2.5345411910348744e-13
          7.1657370148001e-13 6.373276783226375e-14 1.472196325137106e-13 2.3996219661117082e-14 3.8913730962614644e-14 1.519836158912005e-14
          1.853106331837807e-14 1.341089469173621e-14 1.4791194367923722e-14 1.3123027789011495e-14 1.4230889512136588e-14 1.192599808607957e-8
          2.308980877582898e-10 7.576167849000532e-11 6.537323254545272e-12 1.1699454830232041e-12 2.2644798101085153e-13 5.198860873395597e-14
          2.1380784234408497e-14 1.6096954557036914e-14 1.5347996971748613e-14 7.557695679002261e-9 2.7468336466391964e-10 8.158943206205357e-11
          6.456641530011057e-12 1.1601976821898758e-12 2.221894648265456e-13 5.0145975203799714e-14 2.08978034211809e-14 1.6022415069962595e-14
          1.5357242708235542e-14 6.813273544504028e-8 7.803160450831447e-7 9.159414182848343e-8 5.643246574245954e-7 2.7548716543290856e-13
          5.289420185733376e-12 1.5788037660646815e-13 1.0118136473501313e-12 4.773326866319152e-14 2.100164117410719e-13 1.97099270864639e-14
          5.098063951919132e-14 1.1874381228800694e-14 1.8837447973515886e-14 1.0128069282251047e-14 1.2702886362478099e-14 9.838768081153516e-15
          1.1794296161830716e-14 3.947345649204038e-8 4.861626813460283e-10 7.101360946024796e-11 1.0351615466609535e-11 1.910438247025929e-12
          3.794290110981354e-13 8.309610488419475e-14 2.5834692622210154e-14 1.5375947487788087e-14 1.39010067138788e-14 1.1146760970785899e-8
          4.338613232721257e-10 1.179022978386098e-10 1.0589534308038868e-11 1.955129575958063e-12 3.865584673773185e-13 8.394085781647076e-14
          2.5868870526189235e-14 1.5474191532871022e-14 1.4052189185249684e-14 1.8548806218800903e-7 5.855739170579869e-7 0.0000010681826148073948
          0.0000011592640607282458 5.429493158913159e-7 4.978042271854785e-7 0.000001146498102722684 7.245921596109229e-7 8.917533098865938e-7
          7.857107228968022e-7 4.911075494002786e-7 0.0000013241631338275583 7.803505857624807e-7 8.741561483412669e-7 1.4980477090152117e-7
          4.894011194109023e-7 5.12567883490499e-7 7.970233400612722e-7 4.2358243328095566e-7 5.220897584347677e-7 7.473961271395585e-7
          5.718786850019272e-7 6.705949244123875e-7 5.488872980585361e-7 7.79953947644456e-8 8.391598888459882e-7 9.00710908860882e-7
          6.764538248742615e-7 7.572027440173775e-9 2.134030391873353e-9 5.774939116846793e-10 1.0811065231140679e-10 2.143265463394081e-10
          5.980753388087176e-11 6.690246551223201e-11 1.1289629304373637e-10 1.7903127795091058e-10 1.4911362781269828e-11 2.1919667325385115e-11
          1.0220473132860913e-11 3.779500331087154e-11 1.0225545558863879e-11 6.550505421757805e-12 1.6336715125806457e-11 2.8927971869500403e-11
          6.441733098249124e-11 2.6122924829855108e-11 7.901365908093715e-13 5.078743926442993e-13 2.784637160563086e-13 2.7537001972641177e-13
          3.8635597484526894e-13 4.973419299641262e-13 3.0034440293432985e-13 4.942482336342294e-13 7.881356425812667e-7 8.82714975790988e-7
          0.0000010133784916482918 9.257219388044507e-7 4.589271167562034e-7 7.75257730865199e-7 0.000001142450803941954 7.457293665880663e-7
          1.6839577396240494e-7 4.900733700742342e-7 9.659442593054984e-7 0.0000011048354314231398 0.0000012262917710435599 9.76649993144927e-7
          6.486472076927798e-8 4.669432762142034e-7 9.436954607177146e-7 1.5915151872397883e-7 0.000001057774841025149 5.057487796696069e-7
          5.989015064745856e-7 1.7861256539618653e-7 3.515236778726792e-7 4.47065259467947e-7 1.8995447604031344e-7 2.1142859717507258e-7
          7.826475138486401e-7 8.440489206548642e-7 7.090035102158699e-7 7.258960627287234e-8 1.6914643452738483e-7 1.815556099327736e-7
          8.093204626430391e-7 5.180997186195464e-7 4.5036013288890276e-7 2.0281883289801878e-7 2.2479424843527239e-7 4.520810055878439e-7
          2.1738643776614883e-7 2.3965236966467265e-7 5.809197608344761e-7 7.2777181807492e-7 7.460032564651027e-7 8.431166087383135e-8
          1.9568139713600504e-7 2.1196124620943365e-7 8.697317182224526e-7 5.242784058082665e-7 4.522284739195575e-7 2.3393895299229063e-7
          2.562973707042066e-7 5.816103112077006e-7 7.628914740642976e-7 1.0020713596641303e-7 2.307318079385039e-7 9.31393735841112e-7
          5.5105204592647445e-9 5.355994174929669e-8 8.350099358873814e-8 1.421416063638796e-9 3.2651974176320726e-8 3.102799359814092e-8
          2.9244059041118827e-8 9.6743831937518e-8 9.608918517291056e-8 9.471815008625785e-8 9.377954539294858e-8 3.1186018082305025e-8
          9.102691753406857e-8 9.022646596712526e-8 2.9404013019961116e-8 9.334711499960514e-8 9.081525884837919e-8 8.942601440018194e-8
          2.7943972945018317e-8 1.4946575554232373e-7 2.988473774079098e-8 2.709875381396292e-7 5.462282686988286e-10 2.396256883217752e-10
          2.105893886816104e-10 7.615475453926243e-10 3.219678466180386e-10 1.3125057021036385e-9 3.070012523991545e-11 4.755747903806896e-11
          2.413456242171384e-11 6.441483283622247e-11 1.585877831149799e-7 1.797157732604385e-7 1.9588575145033783e-7 4.961622298215816e-7
          4.913398048841526e-7 4.4348264160105405e-7 4.490942117149529e-7 1.6275455707749376e-7 4.845782447324237e-7 4.3640524236151877e-7
          2.0084376340589714e-7 3.9562547831795553e-7 4.020261936083242e-7 3.8823223999061387e-7 1.209415578125973e-7 1.4516042036898793e-7
          4.7598591753227765e-7 4.2753199418811797e-7 1.2725900779701577e-7 4.6542765307082134e-7 4.1675907773515855e-7 1.6937928292537859e-7
          3.790780708439582e-7 3.6809050239949576e-7 8.256337181513873e-8 1.0945125690962578e-7 4.5295009001176746e-7 4.045151221617244e-7
          1.3633914200411285e-7 3.5608015431168136e-7 6.886128074588527e-7 7.029402208321877e-7 8.911485568326682e-7 8.963787766479422e-7
          3.840642884320238e-7 4.958707533583089e-7 5.28528071067724e-7 0.0000010936843062064836 0.0000010898173324636967 6.076772182845939e-7
          5.0814302674777724e-8 1.1488473553567226e-7 3.931074931329298e-9 1.4358594255455619e-8 1.3788253877381752e-7 2.3711463085719276e-8
          8.132757567196881e-13 1.6467466846207346e-7 1.6890659358174982e-7 1.5957273765521868e-7 1.0369264328050841e-7 1.0549100461483004e-7
          1.2700605209215977e-7 1.2400193201295163e-7 1.7468660594361152e-7 1.0777835492651758e-7 1.3034243053640017e-7 1.7766980317760804e-7
          1.672895367970211e-7 1.576971823049893e-7 1.7179291111024147e-7 6.566638362123919e-8 9.873508375791073e-8 9.80807450043103e-8
          1.0051867156210076e-7 1.5859367990685796e-7 1.9166891146450412e-7 1.8838957335863703e-7 1.848802884999885e-7 1.942128919377268e-7
          1.9926374617134172e-7 1.9822180086888478e-7 1.9299866050645085e-7 1.9211551186142538e-7 2.0454605202667433e-7 2.0348981834208882e-7
          1.8192040109042043e-7 1.9507393250397794e-7 1.9167964331940197e-7 1.994708642442181e-7 1.8411194186776802e-7 1.9177914537903598e-7
          1.858211926465808e-7 1.9797768634596018e-7 2.0510338570903233e-7 1.733383482887407e-7 1.802846107858592e-7 1.1086790604382877e-7
          1.3448032674164642e-7 1.1439734293784021e-7 1.3868760816627718e-7 1.9237867810322523e-7 1.7742856486693502e-7 1.829276044419023e-7
          7.02507996127705e-8 1.0337202743211774e-7 1.0684986355230601e-7 1.6367386604827834e-7 1.1826870208773947e-7 1.4312378171353892e-7
          1.224373329707082e-7 1.4801808485299324e-7 1.885637127991892e-7 1.9477283354241634e-7 7.517210131812226e-8 1.107433010481384e-7
          1.1494492183681838e-7 1.7514811809784928e-7 2.005443909115384e-7 1.962018453047852e-7 2.1008190172533946e-7 2.0881413934180626e-7
          2.0050793254032544e-7 2.1585298254353208e-7 2.1436588722761204e-7 1.8731463792240246e-7 2.0413277701584998e-7 2.0898971680069524e-7
          1.961895330816622e-7 2.0441204460710707e-7 2.11218460884666e-7 2.1794862842235357e-7 2.099493082611052e-7 2.0494324587371787e-7
          2.2188637386807632e-7 2.2015150100582252e-7 2.094815473121699e-7 2.2820149831748333e-7 2.2618016109388e-7 1.9435671589107363e-7
          2.1399206479426888e-7 2.1913582205636276e-7 2.0987307871801308e-7 2.1845097081039975e-7 2.2614779143550027e-7 2.3201742362050958e-7
          1.2690398692235433e-7 1.5341820841086674e-7 1.317062607849697e-7 1.5924397727892908e-7 2.0165751167749323e-7 2.0905357908785846e-7
          8.104832022052478e-8 1.1943876098634662e-7 1.2427487470342482e-7 1.883686826195768e-7 1.3686766972001366e-7 1.655094092688505e-7
          1.4242347796661162e-7 1.722487014768704e-7 2.1697006772440817e-7 2.254486024642199e-7 8.78126214790486e-8 1.2947663305482858e-7
          1.3508059495833027e-7 2.0353270190526128e-7 2.1996845498559418e-7 2.1409722163338924e-7 2.348183840771674e-7 2.324620639821602e-7
          2.1879395402833125e-7 2.4176270502125966e-7 2.390215527482359e-7 2.0142267350007784e-7 2.2441198686588368e-7 2.2981110511515006e-7
          2.2539529482061168e-7 2.3434977380633953e-7 2.4310149915286196e-7 2.477332884165072e-7 1.4841507399202833e-7 1.795057488869836e-7
          1.548898176583059e-7 1.8733335743759474e-7 2.3453867852517515e-7 2.4429114977095447e-7 9.570787151157387e-8 1.4113885649221917e-7
          1.477128680376062e-7 2.2101208044902547e-7 2.428216823211888e-7 2.3608631246326925e-7 2.610613565432168e-7 2.5208998940013984e-7
          2.498436419582738e-7 2.70613610618455e-7 2.3348104060143065e-7 2.636417798180221e-7 2.5535669885896893e-7 2.724218189118846e-7
          2.644019941936429e-7 2.547898540097467e-7 2.746705466610296e-7 2.7334966896209926e-7 2.571631734352366e-7 2.808103093233075e-7
          2.453994400976685e-7 2.817848294970465e-7 2.8564490144660924e-7 2.9356422513944033e-7 5.498007576417865e-8 8.762945743995582e-8
          2.0860094010904908e-7 2.7038662200157517e-7 6.976209475239018e-9 3.57575704537632e-8 3.90329277901036e-8 3.6222180445391956e-7
          4.5314378656319445e-7 6.453893143228739e-8 7.254684991149346e-7 7.273623888863778e-7 8.901019122350983e-7 8.828084511621557e-7
          7.206687588933558e-7 8.950319088163638e-7 4.833452041506964e-7 5.96661343813377e-7 6.108590802620789e-7 5.785660772102186e-7
          0.000001054735325355262 0.0000010382545134379338 0.000001069395058739372 7.099774834760576e-7 7.13343457587439e-7 8.973428111438686e-7
          4.412971663376302e-7 5.560127098541526e-7 0.0000010813421647002982 6.70728253370675e-7 8.947409164827852e-10 2.500739632885979e-9
          6.552280473671071e-10 1.2994720808604804e-9 4.749680663168455e-10 1.665696251891739e-9 1.0200445229699039e-9 3.839752471561825e-10
          6.757003432535268e-10 1.7908408940922568e-10 1.292411461915252e-10 4.917560070926622e-10 1.975578233256422e-10 5.8004707736794086e-11
          3.343364046687149e-11 5.5760174265200186e-11 2.0560228950503008e-13 2.2136494463296818e-13 2.6825885109450056e-13 3.15152757556033e-13