<?xml version="1.0"?>
<VTKFile type="UnstructuredGrid" version="0.1" byte_order="LittleEndian" header_type="UInt32" compressor="vtkZLibDataCompressor">
  <UnstructuredGrid>
    <Piece NumberOfPoints="1245" NumberOfCells="879">
      <PointData>
        <DataArray type="Int32" Name="libmesh_node_id" format="ascii" RangeMin="2438" RangeMax="11919">
          2438 2626 2656 2657 2658 2659
          2666 2667 2811 2812 2818 2819
          3192 3194 3197 3214 3215 3296
          3297 3298 3299 3300 3301 3302
          3303 3304 3305 3306 3307 3308
          3309 3310 3311 3312 3313 3314
          3315 3316 3317 3318 3319 3334
          3336 3344 3682 3683 3684 3685
          3689 3690 4779 4780 4781 4782
          4783 4784 4787 4788 4789 4790
          4791 4792 4793 4794 4795 4796
          4797 4798 4799 4800 4801 4802
          4803 4804 4805 4806 4807 4808
          4809 4810 4811 4812 4815 4816
          4817 4818 4821 4823 4824 4825
          4826 4827 4828 4829 4830 4831
          4832 4833 4834 4835 4836 4838
          4840 4841 4842 4843 4844 4845
          4846 4847 4848 4849 4852 4853
          4855 4858 4860 4861 4862 4863
          4864 4865 4866 4867 4868 4869
          4871 4873 4875 4877 4878 4879
          4880 4881 4882 4883 4884 4885
          4886 4887 4891 4892 4894 4895
          4897 4912 4913 4916 4917 4919
          4921 4932 4933 4936 4938 4939
          4941 4952 4954 4956 4958 4966
          4967 4968 4969 4970 4971 4972
          4976 4977 4978 4979 4980 4981
          4982 4983 4984 5013 5014 5017
          5018 5034 5035 5038 5039 5040
          5041 5042 5074 5075 5078 5079
          5581 5582 5583 5584 5585 5586
          5587 5690 5691 5692 5693 5697
          5698 5710 5711 5714 5715 5724
          5725 5726 5727 5728 5729 5730
          5731 5732 5733 5734 5735 5736
          5737 5752 5753 5754 5756 5757
          5758 10106 10107 10108 10109 10110
          10111 10112 10113 10114 10115 10116
          10117 10118 10119 10126 10130 10131
          10132 10133 10134 10135 10136 10137
          10138 10139 10140 10141 10142 10143
          10144 10145 10146 10147 10148 10149
          10150 10151 10152 10153 10154 10155
          10156 10157 10158 10159 10160 10161
          10162 10163 10166 10167 10170 10172
          10174 10175 10176 10177 10178 10179
          10180 10181 10182 10183 10194 10195
          10196 10197 10198 10199 10200 10201
          10202 10203 10207 10211 10212 10213
          10214 10215 10216 10217 10228 10229
          10230 10231 10232 10233 10234 10235
          10236 10237 10241 10245 10246 10247
          10248 10249 10250 10251 10252 10253
          10254 10255 10256 10257 10258 10259
          10260 10261 10262 10263 10264 10265
          10266 10267 10268 10269 10270 10271
          10272 10273 10274 10275 10276 10277
          10278 10279 10280 10281 10282 10283
          10284 10285 10286 10287 10288 10289
          10290 10291 10292 10293 10294 10295
          10296 10297 10298 10299 10300 10301
          10302 10303 10304 10305 10306 10307
          10308 10309 10310 10311 10312 10313
          10314 10315 10316 10317 10318 10319
          10320 10321 10322 10323 10324 10325
          10326 10328 10330 10332 10334 10335
          10336 10337 10338 10339 10340 10343
          10344 10347 10349 10351 10352 10353
          10354 10355 10356 10357 10358 10359
          10360 10362 10364 10368 10369 10370
          10371 10372 10373 10374 10376 10378
          10382 10383 10384 10385 10386 10387
          10388 10389 10390 10391 10392 10393
          10394 10395 10396 10397 10398 10399
          10400 10401 10402 10403 10404 10405
          10406 10407 10408 10409 10410 10411
          10412 10413 10414 10415 10416 10417
          10418 10419 10420 10421 10422 10423
          10424 10425 10426 10427 10428 10429
          10430 10431 10432 10433 10434 10435
          10436 10437 10438 10439 10440 10441
          10442 10443 10444 10445 10446 10447
          10448 10449 10450 10451 10452 10453
          10454 10455 10456 10467 10468 10469
          10470 10471 10472 10473 10474 10475
          10476 10484 10485 10486 10487 10488
          10489 10490 10501 10502 10503 10504
          10505 10506 10507 10508 10509 10510
          10518 10519 10520 10521 10522 10523
          10524 10525 10526 10527 10528 10529
          10530 10531 10532 10533 10534 10535
          10536 10537 10538 10539 10540 10541
          10542 10543 10544 10545 10546 10547
          10548 10549 10550 10551 10552 10553
          10554 10555 10556 10557 10558 10559
          10560 10561 10562 10563 10564 10565
          10566 10567 10568 10569 10570 10571
          10572 10573 10574 10575 10576 10577
          10578 10579 10580 10581 10582 10583
          10584 10585 10586 10587 10588 10589
          10590 10591 10592 10600 10601 10602
          10603 10604 10605 10606 10614 10615
          10616 10617 10618 10619 10620 10628
          10629 10630 10631 10632 10633 10634
          10642 10643 10644 10645 10646 10647
          10648 10649 10650 10651 10652 10653
          10654 10655 10656 10657 10658 10659
          10660 10661 10662 10663 10664 10665
          10666 10667 10668 10669 10670 10671
          10672 10673 10674 10675 10676 10677
          10678 10679 10680 10681 10682 10683
          10684 10685 10686 10687 10688 10689
          10690 10691 10692 10693 10694 10695
          10696 10697 10698 10699 10700 10701
          10702 10703 10704 10705 10706 10707
          10708 10709 10710 10711 10712 10713
          10714 10715 10716 10717 10718 10719
          10720 10721 10722 10726 10727 10729
          10730 10732 10733 10734 10735 10736
          10737 10738 10739 10740 10741 10742
          10743 10744 10747 10748 10750 10752
          10753 10754 10755 10756 10757 10758
          10759 10760 10761 10762 10763 10764
          10767 10769 10770 10772 10773 10774
          10775 10776 10777 10778 10779 10780
          10782 10784 10786 10869 10870 10871
          10872 10873 10874 10875 10876 10877
          10878 10879 10880 10883 10884 10886
          10888 10889 10890 10891 10892 10893
          10894 10895 10896 10897 10898 10899
          10900 10903 10904 10906 10908 10909
          10910 10911 10912 10913 10914 10915
          10916 10918 10920 10922 10923 10924
          10925 10926 10927 10928 10929 10930
          10932 10934 10936 11005 11006 11007
          11008 11009 11010 11011 11012 11013
          11014 11015 11016 11019 11021 11022
          11024 11025 11026 11027 11028 11029
          11030 11031 11032 11034 11036 11038
          11039 11040 11041 11042 11043 11044
          11045 11046 11047 11048 11049 11050
          11053 11055 11056 11058 11059 11060
          11061 11062 11063 11064 11065 11066
          11068 11070 11072 11141 11142 11143
          11144 11145 11146 11147 11148 11150
          11152 11154 11155 11156 11157 11158
          11159 11160 11161 11162 11164 11166
          11168 11169 11170 11171 11172 11173
          11174 11175 11176 11178 11180 11182
          11183 11184 11185 11186 11187 11188
          11189 11190 11192 11194 11196 11255
          11256 11259 11261 11263 11264 11265
          11266 11267 11268 11269 11270 11271
          11272 11275 11276 11279 11281 11283
          11284 11285 11286 11287 11288 11289
          11290 11291 11292 11294 11296 11300
          11301 11302 11303 11304 11305 11308
          11314 11315 11321 11322 11323 11324
          11325 11326 11327 11328 11329 11330
          11331 11332 11333 11334 11335 11336
          11337 11338 11339 11340 11341 11342
          11343 11344 11345 11346 11347 11348
          11349 11350 11351 11352 11353 11354
          11355 11356 11357 11358 11359 11360
          11361 11362 11363 11364 11365 11366
          11367 11368 11369 11370 11371 11372
          11373 11374 11375 11376 11382 11383
          11386 11387 11497 11498 11501 11502
          11525 11526 11529 11530 11546 11547
          11548 11549 11550 11551 11552 11553
          11554 11555 11556 11557 11558 11559
          11567 11568 11571 11572 11574 11575
          11576 11577 11578 11579 11580 11581
          11582 11583 11584 11585 11586 11587
          11595 11596 11599 11600 11714 11715
          11716 11717 11718 11719 11720 11721
          11722 11723 11724 11725 11728 11729
          11731 11733 11734 11735 11736 11737
          11738 11739 11740 11741 11742 11743
          11744 11745 11746 11747 11748 11749
          11750 11751 11753 11754 11755 11757
          11758 11759 11762 11763 11872 11873
          11874 11875 11876 11877 11878 11879
          11880 11881 11882 11883 11884 11885
          11886 11887 11890 11891 11900 11901
          11902 11903 11904 11905 11906 11907
          11908 11909 11910 11911 11912 11913
          11914 11915 11918 11919 2821 2822
          2449 2660 3672 3673 3674 3675
          3679 3680 5036 5037 5694 5695
          5696 5699 3320 4888 3321 5712
          5713 5716 4914 3327 5755 10723
          10724 10725 10728 4889 10731 4890
          10745 10746 10749 10751 4893 10765
          10766 10768 3322 10771 4896 10781
          10783 10785 3323 10881 10882 10885
          10887 4915 10901 10902 10905 10907
          4918 10917 10919 10921 4920 10931
          10933 10935 3328 11017 11018 11020
          4934 11023 4935 11033 11035 11037
          4937 11051 11052 11054 3330 11057
          4940 11067 11069 11071 3331 11149
          11151 11153 4953 11163 11165 11167
          4955 11177 11179 11181 4957 11191
          11193 11195 3333 11726 11727 11730
          11732 11752 11756
        </DataArray>
        <DataArray type="Float64" Name="bounds" format="ascii" RangeMin="0" RangeMax="0">
          0 0 0 0 0 0
          0 0 0 0 0 0
          0 0 0 0 0 0
          0 0 0 0 0 0
          0 0 0 0 0 0
          0 0 0 0 0 0
          0 0 0 0 0 0
          0 0 0 0 0 0
          0 0 0 0 0 0
          0 0 0 0 0 0
          0 0 0 0 0 0
          0 0 0 0 0 0
          0 0 0 0 0 0
          0 0 0 0 0 0
          0 0 0 0 0 0
          0 0 0 0 0 0
          0 0 0 0 0 0
          0 0 0 0 0 0
          0 0 0 0 0 0
          0 0 0 0 0 0
          0 0 0 0 0 0
          0 0 0 0 0 0
          0 0 0 0 0 0
          0 0 0 0 0 0
          0 0 0 0 0 0
          0 0 0 0 0 0
          0 0 0 0 0 0
          0 0 0 0 0 0
          0 0 0 0 0 0
          0 0 0 0 0 0
          0 0 0 0 0 0
          0 0 0 0 0 0
          0 0 0 0 0 0
          0 0 0 0 0 0
          0 0 0 0 0 0
          0 0 0 0 0 0
          0 0 0 0 0 0
          0 0 0 0 0 0
          0 0 0 0 0 0
          0 0 0 0 0 0
          0 0 0 0 0 0
          0 0 0 0 0 0
          0 0 0 0 0 0
          0 0 0 0 0 0
          0 0 0 0 0 0
          0 0 0 0 0 0
          0 0 0 0 0 0
          0 0 0 0 0 0
          0 0 0 0 0 0
          0 0 0 0 0 0
          0 0 0 0 0 0
          0 0 0 0 0 0
          0 0 0 0 0 0
          0 0 0 0 0 0
          0 0 0 0 0 0
          0 0 0 0 0 0
          0 0 0 0 0 0
          0 0 0 0 0 0
          0 0 0 0 0 0
          0 0 0 0 0 0
          0 0 0 0 0 0
          0 0 0 0 0 0
          0 0 0 0 0 0
          0 0 0 0 0 0
          0 0 0 0 0 0
          0 0 0 0 0 0
          0 0 0 0 0 0
          0 0 0 0 0 0
          0 0 0 0 0 0
          0 0 0 0 0 0
          0 0 0 0 0 0
          0 0 0 0 0 0
          0 0 0 0 0 0
          0 0 0 0 0 0
          0 0 0 0 0 0
          0 0 0 0 0 0
          0 0 0 0 0 0
          0 0 0 0 0 0
          0 0 0 0 0 0
          0 0 0 0 0 0
          0 0 0 0 0 0
          0 0 0 0 0 0
          0 0 0 0 0 0
          0 0 0 0 0 0
          0 0 0 0 0 0
          0 0 0 0 0 0
          0 0 0 0 0 0
          0 0 0 0 0 0
          0 0 0 0 0 0
          0 0 0 0 0 0
          0 0 0 0 0 0
          0 0 0 0 0 0
          0 0 0 0 0 0
          0 0 0 0 0 0
          0 0 0 0 0 0
          0 0 0 0 0 0
          0 0 0 0 0 0
          0 0 0 0 0 0
          0 0 0 0 0 0
          0 0 0 0 0 0
          0 0 0 0 0 0
          0 0 0 0 0 0
          0 0 0 0 0 0
          0 0 0 0 0 0
          0 0 0 0 0 0
          0 0 0 0 0 0
          0 0 0 0 0 0
          0 0 0 0 0 0
          0 0 0 0 0 0
          0 0 0 0 0 0
          0 0 0 0 0 0
          0 0 0 0 0 0
          0 0 0 0 0 0
          0 0 0 0 0 0
          0 0 0 0 0 0
          0 0 0 0 0 0
          0 0 0 0 0 0
          0 0 0 0 0 0
          0 0 0 0 0 0
          0 0 0 0 0 0
          0 0 0 0 0 0
          0 0 0 0 0 0
          0 0 0 0 0 0
          0 0 0 0 0 0
          0 0 0 0 0 0
          0 0 0 0 0 0
          0 0 0 0 0 0
          0 0 0 0 0 0
          0 0 0 0 0 0
          0 0 0 0 0 0
          0 0 0 0 0 0
          0 0 0 0 0 0
          0 0 0 0 0 0
          0 0 0 0 0 0
          0 0 0 0 0 0
          0 0 0 0 0 0
          0 0 0 0 0 0
          0 0 0 0 0 0
          0 0 0 0 0 0
          0 0 0 0 0 0
          0 0 0 0 0 0
          0 0 0 0 0 0
          0 0 0 0 0 0
          0 0 0 0 0 0
          0 0 0 0 0 0
          0 0 0 0 0 0
          0 0 0 0 0 0
          0 0 0 0 0 0
          0 0 0 0 0 0
          0 0 0 0 0 0
          0 0 0 0 0 0
          0 0 0 0 0 0
          0 0 0 0 0 0
          0 0 0 0 0 0
          0 0 0 0 0 0
          0 0 0 0 0 0
          0 0 0 0 0 0
          0 0 0 0 0 0
          0 0 0 0 0 0
          0 0 0 0 0 0
          0 0 0 0 0 0
          0 0 0 0 0 0
          0 0 0 0 0 0
          0 0 0 0 0 0
          0 0 0 0 0 0
          0 0 0 0 0 0
          0 0 0 0 0 0
          0 0 0 0 0 0
          0 0 0 0 0 0
          0 0 0 0 0 0
          0 0 0 0 0 0
          0 0 0 0 0 0
          0 0 0 0 0 0
          0 0 0 0 0 0
          0 0 0 0 0 0
          0 0 0 0 0 0
          0 0 0 0 0 0
          0 0 0 0 0 0
          0 0 0 0 0 0
          0 0 0 0 0 0
          0 0 0 0 0 0
          0 0 0 0 0 0
          0 0 0 0 0 0
          0 0 0 0 0 0
          0 0 0 0 0 0
          0 0 0 0 0 0
          0 0 0 0 0 0
          0 0 0 0 0 0
          0 0 0 0 0 0
          0 0 0 0 0 0
          0 0 0 0 0 0
          0 0 0 0 0 0
          0 0 0 0 0 0
          0 0 0 0 0 0
          0 0 0 0 0 0
          0 0 0 0 0 0
          0 0 0 0 0 0
          0 0 0 0 0 0
          0 0 0 0 0 0
          0 0 0 0 0 0
          0 0 0 0 0 0
          0 0 0 0 0 0
          0 0 0 0 0 0
          0 0 0 0 0 0
          0 0 0 0 0 0
          0 0 0 0 0 0
          0 0 0 0 0 0
          0 0 0
        </DataArray>
        <DataArray type="Float64" Name="gradient_error" format="ascii" RangeMin="3.678408087811525e-13" RangeMax="2.425265933198955e-10">
          9.655622395906989e-11 6.945894912449055e-11 2.0203674277967318e-11 1.5304507942931e-11 8.344291899105685e-12 3.6127356781685433e-12
          7.255510861913285e-11 2.726667777804145e-11 7.534125814828805e-11 6.008772044103209e-11 2.012455650533128e-11 1.6282265014659013e-11
          5.790746022972906e-11 4.094107184679775e-11 2.616819563488277e-11 2.0944653152768005e-11 1.35264324010758e-11 2.634937396627565e-11
          2.3208649676586687e-11 1.8709961984327906e-11 1.6093929842258948e-11 8.813028515089115e-12 6.770510081153055e-12 6.0064856477861425e-12
          1.59235164648601e-11 1.0706052199154967e-11 4.166102950441566e-12 8.198715228803905e-12 8.332506582920481e-12 6.758483575273655e-12
          9.937323371420111e-12 8.666370383203786e-11 6.416967831586025e-11 3.338896073130584e-11 2.4590269433162378e-11 2.6431022319557505e-11
          9.9931385338832e-12 1.6705252743259238e-10 1.4315338004118414e-10 5.983384351454897e-11 6.861292601059368e-11 3.5692206909578755e-12
          2.3812694073315135e-12 1.7490608967020434e-12 8.832629099389617e-12 5.653379047954021e-12 3.628509220994598e-12 2.7228728417475657e-12
          1.4039536448172934e-12 1.5096706841912171e-12 1.0514351984072246e-11 7.116330313327536e-12 6.753777367091082e-12 1.4914947711544656e-11
          9.550244041042602e-12 8.010849115088565e-12 7.715055696004534e-12 1.0393532533138495e-11 6.2916165792423915e-12 5.984463710616894e-12
          7.735931283354329e-12 7.356319912510958e-12 3.5186313611039452e-12 8.277017778990075e-12 7.89738057475308e-12 5.200355878431949e-12
          8.578940516062062e-12 6.888704285329585e-12 8.186579334874779e-12 7.743712343945105e-12 7.909163982461335e-12 8.60099029100297e-12
          1.1514922773520445e-11 1.4285862031918296e-11 7.138351085346224e-12 1.1079667021211427e-11 8.432077831856524e-12 1.6822829103971305e-11
          1.0687659581156288e-11 1.3901830007561332e-11 1.07149958139433e-11 1.582963102901999e-11 2.7088329091334933e-11 2.533016322709776e-11
          3.277820217068819e-11 2.072787217872736e-11 8.03771170806574e-11 1.6699018622595124e-11 1.5605538089470832e-11 1.0003853117085806e-11
          9.346618869603221e-12 1.2748472952199187e-11 7.629052897137173e-12 5.460766185654093e-11 5.0606659352727647e-11 3.092358510133661e-11
          4.031222579003756e-11 2.359816051617473e-11 1.487403688865129e-11 1.498023159241436e-11 9.413378583454234e-12 4.421155421575966e-11
          8.631492445015762e-12 9.129007320933473e-12 5.215299042608728e-12 5.4583275589835575e-12 6.047045146581237e-12 5.766841969146108e-12
          3.442961564467319e-12 2.7682015315731924e-11 1.6841209495499724e-11 1.6481558147364092e-11 1.9778230692203436e-10 1.8362640642992384e-10
          1.4661407752152196e-10 1.6212560497360772e-10 1.2809549848722228e-10 1.1871009666908797e-10 8.015917109952891e-11 7.417972247614277e-11
          9.431754584276026e-11 5.870937263969886e-11 1.1218090050007114e-10 1.0817380743322668e-10 6.957825295651581e-11 9.416346581408975e-11
          1.001978854139946e-10 5.848736952426959e-11 1.0857699837073849e-10 6.402986960798415e-11 3.964289750627649e-11 3.710535016615562e-11
          2.283852532553863e-11 7.037190777536495e-11 4.4154396140207006e-11 4.3924589554435475e-11 4.9714920367369516e-12 4.704295921341898e-12
          5.836241461802819e-12 5.451930360381375e-12 3.988024705685326e-12 4.448726412847663e-12 1.981835937049694e-11 1.8346203045980455e-11
          1.4568673671904505e-11 3.037587231675005e-12 3.1803731121298212e-12 2.085864331304616e-12 2.000785054362531e-12 9.956175979396285e-12
          5.8907692425909755e-12 4.851741213164683e-11 4.484692594721536e-11 3.538412892797712e-11 4.5263988782052174e-11 4.320421629781165e-11
          3.6764554375992314e-11 2.3790857407987692e-11 1.36407566582904e-11 2.6832777122824553e-11 1.6417830638663858e-11 1.0058160673509438e-11
          8.46855415876194e-12 6.2906473157682505e-12 5.307204397949089e-12 5.810848425633704e-12 4.302748962775516e-12 2.6833552530991724e-12
          3.805564752197204e-12 3.240913135510695e-12 2.2272995439195643e-12 1.9261849623780965e-12 2.6042216363037217e-12 2.0635738596299968e-12
          1.671102343350327e-12 8.589037736229134e-12 5.185957667118272e-12 1.84530771431258e-11 1.1289904059215871e-11 2.2847294856729558e-11
          1.4061288184294086e-11 1.5844885893889148e-12 1.3948644107005997e-12 1.6820392395863092e-12 1.270761082342328e-12 1.0382375774741108e-12
          3.04413539471812e-12 1.7371777835205658e-12 6.708874492589596e-12 3.871791945183863e-12 8.40317876876667e-12 4.876089281491551e-12
          4.317881439619298e-12 8.95830880257145e-12 2.7097728694870142e-12 5.486826407172594e-12 3.4008419880189365e-12 6.539113838862826e-12
          3.93302412672944e-12 2.3981934627204088e-12 2.303738477605052e-12 5.089188457419132e-12 4.839522015714864e-12 2.0380534504172562e-12
          4.161628287531099e-12 1.6567008659506258e-12 3.2420843371345977e-12 1.2291345719190035e-12 2.2895105923883284e-12 6.057385035513934e-12
          1.1167358799405484e-11 3.912680325811064e-12 7.0561423199951554e-12 3.926290506867905e-12 6.735149626385004e-12 4.1627306217868964e-12
          2.397539898065958e-12 4.284929115345948e-12 1.4314937173498449e-12 2.5169942588437605e-12 1.5158573755607908e-12 2.481671552090936e-12
          1.6642676825956922e-12 8.525463611144809e-13 1.4423284736359597e-12 5.03602129446659e-13 6.934019019473884e-13 1.0564034357128555e-12
          5.999182965745368e-13 4.0129682017455734e-12 3.949587533391641e-12 5.707696421153411e-12 5.62324047479308e-12 3.1079640679620706e-12
          4.45730153307292e-12 4.389180366049559e-12 3.8000921240800974e-12 5.3918680710401e-12 4.213473141207888e-12 1.0450653780528623e-11
          1.0295172650211473e-11 8.076698980794167e-12 9.8376035675719e-12 5.805727561089961e-12 3.6243728356958398e-12 5.022620011399739e-12
          2.9329513881136496e-12 3.912712331475629e-12 3.406258962054248e-12 4.533544140593386e-12 3.712403669524524e-12 9.113670754105106e-12
          7.106177608187212e-12 8.176301038726304e-12 2.6098122842740658e-12 2.567426765065313e-12 3.436433180668835e-12 3.385010726035389e-12
          2.3848500281057687e-12 2.9733274940382068e-12 2.930196125120004e-12 2.466585882717394e-12 3.249158348305505e-12 2.8099592061288754e-12
          6.358736583946984e-12 6.265279116215144e-12 5.521709617430619e-12 5.9841666811560555e-12 2.428244741627449e-12 3.026463890769367e-12
          2.224192287470502e-12 2.636223949606273e-12 2.4483589636766718e-12 2.888199356329666e-12 2.539594243156597e-12 5.485527131275537e-12
          4.834948762282484e-12 5.515652392160259e-12 3.9428944189461956e-12 5.10461931442983e-12 4.722308411603655e-12 8.975490877774189e-12
          3.2057889443215174e-12 3.985352609991912e-12 2.9221808054484953e-12 3.4801000589172697e-12 3.133828252803732e-12 3.7039053479490774e-12
          3.2620642683843266e-12 7.053038245450014e-12 6.2862891077031414e-12 6.664864872504648e-12 1.894779617695471e-11 1.8649743044522223e-11
          1.4980688730973432e-11 1.47441178260861e-11 1.7784583079880898e-11 1.4052142105579693e-11 3.413080341145672e-11 3.3564336808796175e-11
          2.6636607983578227e-11 3.192509889377204e-11 1.8554064058432035e-11 1.646407903166944e-11 1.301368646965329e-11 1.479197723253162e-11
          1.1709870136390729e-11 2.937656840326322e-11 2.3297519520920182e-11 2.6155363876633294e-11 6.116594901527186e-11 6.009083198609742e-11
          4.8792093944047184e-11 4.7930401883869744e-11 5.698050507952568e-11 4.543787624564909e-11 1.0793544407049657e-10 1.0593391110772252e-10
          8.504650791980849e-11 1.0015281814904765e-10 5.746455131181869e-11 5.2159353343751595e-11 4.1576081238978165e-11 4.610426139597417e-11
          3.6729056518037766e-11 9.122169712958207e-11 7.316815069206355e-11 8.006336159284085e-11 1.1818273415712294e-11 1.163212236516261e-11
          9.239258723459059e-12 9.094560177510248e-12 1.1081122465209626e-11 8.66144904937623e-12 2.1346982507350006e-11 2.0989467074781886e-11
          1.6418357334740528e-11 1.9954770277314233e-11 5.030228694119969e-12 4.955382958231559e-12 7.095916986906347e-12 6.9840338934704425e-12
          3.712537550124155e-12 5.4043795347309626e-12 5.318162648679958e-12 4.723871917725595e-12 6.652127553570124e-12 5.067100392513092e-12
          1.2970737481075895e-11 1.2752340619953244e-11 9.835262490558774e-12 1.2119482096737009e-11 1.0232165398745911e-11 7.973685986783068e-12
          9.160917118099048e-12 7.102816521297425e-12 1.8345803760347228e-11 1.4342345707055007e-11 1.631383188154625e-11 4.347879121720418e-12
          6.127045214787895e-12 3.276568464873602e-12 4.675438109919255e-12 3.872632071958489e-12 5.4626797354148e-12 4.1794183906537766e-12
          1.1135539093328475e-11 8.586856956056378e-12 9.894629086220565e-12 3.864262447203581e-11 3.795725914155473e-11 3.038608081949013e-11
          2.984515652840331e-11 3.59752279803571e-11 2.8281139458090322e-11 6.905426893540523e-11 6.775858418574845e-11 5.3578028944726864e-11
          6.401852723436565e-11 2.3724012163767437e-11 2.3300338166897506e-11 1.8392496939691813e-11 1.8063130081395633e-11 2.2075510305695377e-11
          1.7111059016351946e-11 4.285971984028313e-11 4.2048103868527956e-11 3.275430842519623e-11 3.9706443225534975e-11 3.290543021037972e-11
          2.5859506551793847e-11 2.9054569837035206e-11 2.282323276952581e-11 5.824746855633957e-11 4.602395139118471e-11 5.1049470602253756e-11
          2.017963981161126e-11 1.563773430190646e-11 1.7803588982588753e-11 1.379188154655595e-11 3.60965350624044e-11 2.8102410187721335e-11
          3.16001038999617e-11 1.613805853127717e-11 1.3609634079380849e-11 2.826419469728656e-11 1.285387927907256e-11 1.0163808864150668e-11
          1.0797077158230325e-11 8.511997474205353e-12 2.253599526060705e-11 1.7845596084454497e-11 1.879785087613442e-11 8.116630899521147e-12
          1.1104173098799059e-11 8.794758474111754e-12 1.9090218360056307e-11 6.399143475684911e-12 8.786750258883299e-12 5.030292470749653e-12
          6.918111715747267e-12 5.075586504479912e-12 6.953651724603286e-12 5.472933202233801e-12 1.519232434298611e-11 1.2012591862567177e-11
          1.191226781033149e-11 4.91045718571043e-11 4.056163205351843e-11 3.936638681069606e-11 3.133967397557864e-11 3.248861982950423e-11
          2.5843801340918174e-11 6.773659098928643e-11 5.424008423852063e-11 5.527083963278538e-11 3.241190110958532e-11 2.5079566057518156e-11
          2.5935612310997754e-11 2.0613135897790495e-11 2.004746690646287e-11 1.591834728379176e-11 4.352885522913973e-11 3.477895837252206e-11
          3.3121418170770263e-11 5.719405893726456e-12 7.923489346360344e-12 4.3747903594482076e-12 6.128382605807303e-12 4.778282151226291e-12
          6.631786823926593e-12 5.133629276714469e-12 1.4036421498475011e-11 1.0963695967515258e-11 1.169189874069734e-11 3.3489272773263295e-12
          4.721636382262655e-12 2.5609635855367927e-12 3.6224363893354524e-12 2.819824237611344e-12 3.963010032475608e-12 3.04584578497282e-12
          8.50679933642271e-12 6.558130942809349e-12 7.0816293243905165e-12 3.9013117105041285e-12 5.399409532998991e-12 3.0136127305462703e-12
          4.190604392792076e-12 3.1100916968555197e-12 4.279489030943732e-12 3.3281545211274347e-12 9.437751716724693e-12 7.36641977934961e-12
          7.391811028032224e-12 2.324308842984702e-12 3.2379510388198177e-12 1.7849236771687433e-12 2.4879804130076174e-12 1.8625288181718234e-12
          2.570675340724892e-12 1.973469419071367e-12 5.712847687225213e-12 4.4018070304116394e-12 4.4705221469208705e-12 2.477620360113861e-11
          1.945209402829769e-11 2.041715054708887e-11 1.6019853984116426e-11 4.311457723808709e-11 3.40214606637732e-11 3.5110065297531904e-11
          1.5166826954514354e-11 1.1744388496157594e-11 1.2483830412727695e-11 9.661999690603958e-12 2.6651653704766533e-11 2.0727559744239573e-11
          2.1669228617353437e-11 1.627222775363881e-11 1.2758785514755508e-11 1.2555412687948434e-11 9.83685752631459e-12 2.7590815186769463e-11
          2.1733370963618167e-11 2.0944847181411075e-11 9.936260277445106e-12 7.685670983569044e-12 7.655301484399178e-12 5.917573165284604e-12
          1.699834825365866e-11 1.3200856191779083e-11 1.2878798835840963e-11 1.7817442193603257e-10 1.7477816249398508e-10 1.4413292235800172e-10
          1.4136004121619565e-10 1.6496966330969055e-10 1.3335638145407655e-10 2.425265933198955e-10 2.3814029872732313e-10 1.9415210918033552e-10
          2.2541005198105152e-10 1.4982278169523572e-10 1.2100999081268004e-10 1.3091863687153795e-10 1.0562468496526771e-10 2.0556948634396542e-10
          1.672516969744946e-10 1.805000725785618e-10 2.335177564262776e-10 2.3064715471286764e-10 1.9247736753654944e-10 1.9000341623830582e-10
          2.2195240429573246e-10 1.8254827334902915e-10 2.009272825848799e-10 1.9976123930303264e-10 1.6592250286401886e-10 1.95706810364773e-10
          2.0738291457777956e-10 1.701592350210756e-10 1.8733805568578346e-10 1.5327131180947054e-10 1.875162792221446e-10 1.547633707682807e-10
          1.7417649351726248e-10 1.1563329820498961e-10 1.1339070320605507e-10 9.201534097302397e-11 9.021834105771262e-11 1.0692089656126062e-10
          8.50362552256455e-11 1.5986708919978987e-10 1.5689412759832985e-10 1.2568573671595067e-10 1.482815278659048e-10 7.263511206900082e-11
          7.120794368307045e-11 5.688217037513473e-11 5.5758459799268145e-11 6.709377882170496e-11 5.25201009745634e-11 1.0175976848978493e-10
          9.982606700345193e-11 7.862245808351124e-11 9.423239337976586e-11 9.695023972509227e-11 7.705651911130496e-11 8.454206716883068e-11
          6.713692912118816e-11 1.3490510624180142e-10 1.0789218673495499e-10 1.180851484093792e-10 6.076272339503939e-11 4.7539824761795856e-11
          5.290008919624727e-11 4.136015550448981e-11 8.556894444015871e-11 6.730631763290694e-11 7.471680022112836e-11 1.5717536449185085e-10
          1.5507380618439813e-10 1.2717283722826312e-10 1.2541176888635191e-10 1.487688438809644e-10 1.2014838570046439e-10 1.3754802079325657e-10
          1.3649546053119588e-10 1.1123061399404127e-10 1.3304592847199572e-10 1.0196863739753377e-10 1.0051175194873641e-10 8.103588141335493e-11
          7.98458528269125e-11 9.617239469069748e-11 7.631189163017228e-11 9.063667691800887e-11 8.979972944225176e-11 7.183461516385581e-11
          8.714711342153456e-11 1.3836693534563802e-10 1.1151986317335141e-10 1.2430315169013588e-10 9.993991450232794e-11 1.2656641302009558e-10
          1.0257388664252445e-10 1.1661505112809411e-10 8.909977833545372e-11 7.05806334598903e-11 7.967127268979639e-11 6.298391196575902e-11
          8.238845720028096e-11 6.559952324878081e-11 7.537956272151467e-11 1.1008094265356035e-10 8.869759139421622e-11 8.909027343369198e-11
          7.168106211325678e-11 1.524763603653419e-10 1.2361531683323265e-10 1.2384509096467394e-10 6.943695427504979e-11 5.578185681534221e-11
          5.2163240620738304e-11 4.183737026259164e-11 9.669622501491082e-11 7.806894498589758e-11 7.259538407962131e-11 1.629567627145276e-10
          1.329095776014971e-10 1.3607033528643623e-10 1.10632205167445e-10 1.5567688947000465e-10 1.2740888535310805e-10 1.3320474238132832e-10
          1.0885890080347779e-10 8.82428519294621e-11 8.338332391773401e-11 6.74035404409497e-11 1.08802482647059e-10 8.836062980396084e-11