<?xml version="1.0"?>
<VTKFile type="UnstructuredGrid" version="0.1" byte_order="LittleEndian" header_type="UInt32" compressor="vtkZLibDataCompressor">
  <UnstructuredGrid>
    <Piece NumberOfPoints="1345" NumberOfCells="903">
      <PointData>
        <DataArray type="Int32" Name="libmesh_node_id" format="ascii" RangeMin="2439" RangeMax="13237">
          2445 2630 2631 2635 2653 2654
          3204 3205 3210 3212 3213 3216
          3217 3219 3220 3221 3243 3245
          3247 3249 3251 3252 3253 3255
          3279 3284 3286 3287 3289 3293
          3294 3295 3655 3656 3659 3660
          4343 4344 4345 4353 4354 4355
          4358 4505 4519 4520 4521 4522
          4523 4524 4525 4526 4527 4528
          4539 4550 4551 4552 4553 4554
          4555 4556 4559 4560 4561 4562
          4563 4568 4569 4570 4571 4573
          4574 4575 4576 4577 4578 4579
          4580 4581 4582 4583 4584 4585
          4586 4587 4588 4589 4590 4591
          4592 4593 4594 4595 4596 4597
          4598 4599 4600 4601 4603 4605
          4607 4608 4609 4610 4611 4612
          4613 4614 4615 4616 4617 4618
          4619 4620 4621 4697 4698 4699
          4700 4704 4705 4706 4714 4715
          4716 4717 4718 4719 4720 4732
          4734 4736 4737 4738 4739 4740
          4741 4742 4743 4744 4745 4746
          4747 4748 4749 4750 4751 4752
          4753 4754 4755 4756 4757 4758
          4759 4760 4761 4762 4763 4764
          4765 4766 4767 4768 4769 4770
          4771 4772 4773 4774 4986 4987
          4990 4991 4993 4995 5020 5022
          5024 5026 5313 5314 5317 5318
          5320 5322 5323 5325 5327 5329
          5502 5503 5504 5505 5506 5507
          5508 5513 5514 5515 5516 5517
          5518 5519 5520 5521 5522 5523
          5524 5525 5526 5527 5528 5529
          5561 5562 5563 5564 5565 5566
          5567 5568 5569 5570 5571 5572
          5573 5574 5575 5576 5577 5578
          5579 5580 5653 5654 5655 5656
          5657 5658 5659 5660 5661 5662
          5738 5739 5742 5743 8620 8648
          8724 8725 8726 8729 8732 8733
          8734 8735 8736 8738 8739 8740
          8741 8742 8743 8744 8745 8746
          8747 8748 8749 8750 8751 8752
          8753 8754 8755 8756 8757 8758
          8759 8762 8763 8766 8768 8769
          8770 8772 8773 8774 8775 8776
          8777 8778 8779 8780 8781 8782
          8783 8784 8785 8786 8787 8868
          8896 8958 8959 8962 8964 8965
          8966 8968 8969 8970 8971 8972
          8973 8974 8975 8976 8977 8978
          8979 8980 8981 8982 8983 8986
          8987 8990 8992 8993 8994 8996
          8997 8998 8999 9000 9001 9002
          9003 9004 9005 9006 9007 9008
          9009 9010 9011 9030 9031 9032
          9035 9040 9041 9042 9045 9059
          9061 9062 9063 9065 9066 9067
          9068 9069 9070 9071 9072 9073
          9098 9099 9100 9103 9108 9109
          9110 9113 9120 9127 9128 9129
          9130 9131 9132 9133 9134 9135
          9136 9137 9138 9139 9141 9142
          9143 9144 9145 9146 9147 9148
          9149 9150 9151 9152 9153 9154
          9155 9156 9157 9158 9159 9160
          9161 9162 9163 9164 9165 9166
          9167 9168 9169 9170 9171 9172
          9173 9174 9175 9176 9177 9178
          9179 9180 9181 9182 9183 9184
          9185 9186 9187 9188 9189 9190
          9191 9192 9193 9194 9195 9196
          9197 9198 9199 9200 9201 9202
          9203 9204 9205 9206 9207 9208
          9209 9210 9211 9212 9213 9214
          9215 9216 9217 9218 9219 9220
          9221 9222 9223 9224 9225 9226
          9227 9228 9229 9230 9231 9232
          9233 9234 9235 9236 9237 9238
          9239 9240 9241 9242 9243 9244
          9245 9246 9247 9248 9249 9250
          9251 9252 9253 9254 9255 9256
          9257 9258 9259 9260 9261 9262
          9263 9267 9273 9274 9277 9279
          9280 9281 9283 9284 9285 9286
          9287 9288 9289 9290 9291 9295
          9301 9302 9305 9307 9308 9309
          9311 9312 9313 9314 9315 9316
          9317 9318 9319 9322 9323 9326
          9329 9333 9334 9335 9336 9337
          9338 9339 9340 9341 9343 9345
          9347 9350 9351 9354 9357 9361
          9362 9363 9364 9365 9366 9367
          9368 9369 9371 9373 9375 9376
          9377 9378 9379 9380 9381 9382
          9383 9384 9385 9386 9387 9388
          9389 9390 9391 9392 9393 9394
          9395 9396 9397 9398 9399 9400
          9401 9402 9403 9404 9405 9406
          9407 9408 9409 9410 9411 9412
          9413 9414 9415 9416 9417 9418
          9419 9420 9421 9422 9423 9424
          9425 9426 9427 9428 9429 9430
          9431 9432 9433 9434 9435 9436
          9437 9438 9439 9440 9441 9442
          9443 9444 9445 9446 9447 9448
          9449 9450 9451 9452 9453 9454
          9455 9456 9457 9458 9459 9460
          9461 9462 9463 9464 9465 9466
          9467 9468 9469 9470 9471 9472
          9473 9474 9475 9476 9477 9478
          9479 9480 9481 9482 9483 9484
          9485 9486 9487 9743 9744 9745
          9746 9747 9748 9749 9750 9751
          9752 9753 9754 9755 9756 9757
          9758 9759 9760 9761 9762 9763
          9764 9765 9766 9767 9768 9769
          9770 9771 9772 9829 9830 9831
          9832 9833 9834 9835 9836 9837
          9838 9839 9840 9841 9842 9843
          9844 9845 9846 9847 9848 9849
          9850 9851 9852 9853 9854 9855
          9856 9857 9858 9859 9860 9861
          9862 9863 9864 9865 9866 9867
          9868 9869 9870 9871 9872 9873
          9874 9875 9876 9877 9878 9879
          9880 9881 9882 9883 9884 9885
          9886 9887 9908 9909 9910 9911
          9912 9913 9914 9915 9916 9917
          9918 9919 9920 9921 9922 9923
          9924 9925 9926 9927 9928 9929
          9930 9931 9932 9933 9934 9935
          9936 9937 9938 9939 9940 9941
          9942 9943 9944 9945 9946 9947
          9948 9949 9950 9951 9952 9953
          9954 9955 9956 9957 9958 9959
          9960 9961 9962 9963 9964 9965
          9966 9967 9968 9969 9970 9971
          9972 9973 9974 9975 9976 9977
          9978 9979 9980 9981 9982 9983
          9984 9985 9986 9987 9988 9989
          9990 9991 9992 9993 9994 9995
          9996 9997 9998 9999 10000 10001
          10002 10003 10004 10005 10006 10007
          10008 10009 10010 10011 10012 10013
          10014 10015 10016 10017 10018 10019
          10020 10021 10022 10023 10024 10025
          10026 10027 10028 10029 10030 10031
          10032 10033 10034 10035 10036 10037
          10038 10039 10040 10041 10042 10043
          10044 10045 10046 10047 10048 10049
          10050 10051 10052 10053 10054 10055
          10056 10057 10058 10059 10060 10061
          10062 10063 10064 10065 10066 10067
          10068 10069 10070 10071 10072 10073
          10074 10075 10076 10077 10078 10079
          10080 10081 10082 10083 10084 10085
          10086 10087 10088 10089 10090 10091
          11277 11278 11282 11309 11389 11390
          11391 11392 11393 11394 11395 11396
          11397 11398 11399 11400 11403 11404
          11409 11410 11411 11412 11413 11415
          11423 11424 11425 11426 11427 11428
          11429 11430 11431 11432 11433 11434
          11437 11438 11440 11442 11602 11604
          11605 11606 11608 11616 11617 11618
          11619 11620 11621 11622 11623 11625
          11627 11629 11630 11632 11633 11634
          11636 11644 11645 11646 11647 11648
          11649 11650 11651 11653 11655 11657
          13163 13164 13165 13166 13167 13168
          13169 13170 13171 13172 13173 13174
          13175 13176 13177 13178 13179 13180
          13182 13183 13184 13185 13186 13187
          13188 13189 13190 13192 13194 13196
          13197 13198 13199 13200 13201 13202
          13203 13204 13205 13206 13207 13208
          13209 13210 13211 13212 13213 13214
          13216 13218 13220 13221 13222 13223
          13224 13225 13226 13227 13228 13229
          13230 13231 13232 13233 13234 13235
          13236 13237 2809 2812 2815 2814
          2623 2626 2439 2629 3202 3206
          3203 3208 3207 3214 3215 3218
          3278 3290 2647 3291 3282 3288
          2649 3292 3402 3406 3403 3407
          3483 3481 2648 2646 3651 3649
          3211 3276 3650 3657 3658 3654
          3661 3281 3665 3663 3285 3670
          3669 3682 3686 3683 3687 3724
          3338 4689 4515 4690 4701 4702
          4693 4703 3277 4731 4723 4710
          4724 4733 4735 4727 4729 4988
          4989 4992 5315 5316 5319 5321
          5324 5326 5425 5431 5427 5432
          5449 3411 5455 5497 4335 5498
          5501 4511 5555 5550 5557 3409
          5728 5729 5740 5730 5741 5744
          4970 3334 8684 8668 8685 8688
          4512 8690 8702 8714 8716 4517
          8718 3244 8910 8922 8924 4544
          8926 4546 8938 8950 8952 4548
          8954 3248 9140 3250 4572 9330
          9342 9344 4602 9346 4604 9358
          9370 9372 4606 9374 3254 9715
          9716 9719 9721 4695 9735 9736
          9739 9741 9781 9783 9785 4708
          9795 9797 9799 9809 9811 9813
          4712 9823 9825 9827 3283 9900
          9901 9904 9906 11279 4971 11287
          11288 11401 11289 11402 11405 11292
          11406 4972 11407 11408 11310 11313
          4975 11414 11316 11416 11418 11320
          11420 11422 11435 11419 11436 11439
          4994 11441 3339 11506 11507 11603
          11510 5008 11607 11609 11611 11613
          11615 11612 11624 11626 5021 11628
          5023 11534 11535 11631 11538 5012
          11635 11637 11639 11641 11643 11640
          11652 11654 5025 11656 3343 13181
          13191 13193 13195 13215 13217 13219
          5328
        </DataArray>
        <DataArray type="Float64" Name="bounds" format="ascii" RangeMin="0" RangeMax="0">
          0 0 0 0 0 0
          0 0 0 0 0 0
          0 0 0 0 0 0
          0 0 0 0 0 0
          0 0 0 0 0 0
          0 0 0 0 0 0
          0 0 0 0 0 0
          0 0 0 0 0 0
          0 0 0 0 0 0
          0 0 0 0 0 0
          0 0 0 0 0 0
          0 0 0 0 0 0
          0 0 0 0 0 0
          0 0 0 0 0 0
          0 0 0 0 0 0
          0 0 0 0 0 0
          0 0 0 0 0 0
          0 0 0 0 0 0
          0 0 0 0 0 0
          0 0 0 0 0 0
          0 0 0 0 0 0
          0 0 0 0 0 0
          0 0 0 0 0 0
          0 0 0 0 0 0
          0 0 0 0 0 0
          0 0 0 0 0 0
          0 0 0 0 0 0
          0 0 0 0 0 0
          0 0 0 0 0 0
          0 0 0 0 0 0
          0 0 0 0 0 0
          0 0 0 0 0 0
          0 0 0 0 0 0
          0 0 0 0 0 0
          0 0 0 0 0 0
          0 0 0 0 0 0
          0 0 0 0 0 0
          0 0 0 0 0 0
          0 0 0 0 0 0
          0 0 0 0 0 0
          0 0 0 0 0 0
          0 0 0 0 0 0
          0 0 0 0 0 0
          0 0 0 0 0 0
          0 0 0 0 0 0
          0 0 0 0 0 0
          0 0 0 0 0 0
          0 0 0 0 0 0
          0 0 0 0 0 0
          0 0 0 0 0 0
          0 0 0 0 0 0
          0 0 0 0 0 0
          0 0 0 0 0 0
          0 0 0 0 0 0
          0 0 0 0 0 0
          0 0 0 0 0 0
          0 0 0 0 0 0
          0 0 0 0 0 0
          0 0 0 0 0 0
          0 0 0 0 0 0
          0 0 0 0 0 0
          0 0 0 0 0 0
          0 0 0 0 0 0
          0 0 0 0 0 0
          0 0 0 0 0 0
          0 0 0 0 0 0
          0 0 0 0 0 0
          0 0 0 0 0 0
          0 0 0 0 0 0
          0 0 0 0 0 0
          0 0 0 0 0 0
          0 0 0 0 0 0
          0 0 0 0 0 0
          0 0 0 0 0 0
          0 0 0 0 0 0
          0 0 0 0 0 0
          0 0 0 0 0 0
          0 0 0 0 0 0
          0 0 0 0 0 0
          0 0 0 0 0 0
          0 0 0 0 0 0
          0 0 0 0 0 0
          0 0 0 0 0 0
          0 0 0 0 0 0
          0 0 0 0 0 0
          0 0 0 0 0 0
          0 0 0 0 0 0
          0 0 0 0 0 0
          0 0 0 0 0 0
          0 0 0 0 0 0
          0 0 0 0 0 0
          0 0 0 0 0 0
          0 0 0 0 0 0
          0 0 0 0 0 0
          0 0 0 0 0 0
          0 0 0 0 0 0
          0 0 0 0 0 0
          0 0 0 0 0 0
          0 0 0 0 0 0
          0 0 0 0 0 0
          0 0 0 0 0 0
          0 0 0 0 0 0
          0 0 0 0 0 0
          0 0 0 0 0 0
          0 0 0 0 0 0
          0 0 0 0 0 0
          0 0 0 0 0 0
          0 0 0 0 0 0
          0 0 0 0 0 0
          0 0 0 0 0 0
          0 0 0 0 0 0
          0 0 0 0 0 0
          0 0 0 0 0 0
          0 0 0 0 0 0
          0 0 0 0 0 0
          0 0 0 0 0 0
          0 0 0 0 0 0
          0 0 0 0 0 0
          0 0 0 0 0 0
          0 0 0 0 0 0
          0 0 0 0 0 0
          0 0 0 0 0 0
          0 0 0 0 0 0
          0 0 0 0 0 0
          0 0 0 0 0 0
          0 0 0 0 0 0
          0 0 0 0 0 0
          0 0 0 0 0 0
          0 0 0 0 0 0
          0 0 0 0 0 0
          0 0 0 0 0 0
          0 0 0 0 0 0
          0 0 0 0 0 0
          0 0 0 0 0 0
          0 0 0 0 0 0
          0 0 0 0 0 0
          0 0 0 0 0 0
          0 0 0 0 0 0
          0 0 0 0 0 0
          0 0 0 0 0 0
          0 0 0 0 0 0
          0 0 0 0 0 0
          0 0 0 0 0 0
          0 0 0 0 0 0
          0 0 0 0 0 0
          0 0 0 0 0 0
          0 0 0 0 0 0
          0 0 0 0 0 0
          0 0 0 0 0 0
          0 0 0 0 0 0
          0 0 0 0 0 0
          0 0 0 0 0 0
          0 0 0 0 0 0
          0 0 0 0 0 0
          0 0 0 0 0 0
          0 0 0 0 0 0
          0 0 0 0 0 0
          0 0 0 0 0 0
          0 0 0 0 0 0
          0 0 0 0 0 0
          0 0 0 0 0 0
          0 0 0 0 0 0
          0 0 0 0 0 0
          0 0 0 0 0 0
          0 0 0 0 0 0
          0 0 0 0 0 0
          0 0 0 0 0 0
          0 0 0 0 0 0
          0 0 0 0 0 0
          0 0 0 0 0 0
          0 0 0 0 0 0
          0 0 0 0 0 0
          0 0 0 0 0 0
          0 0 0 0 0 0
          0 0 0 0 0 0
          0 0 0 0 0 0
          0 0 0 0 0 0
          0 0 0 0 0 0
          0 0 0 0 0 0
          0 0 0 0 0 0
          0 0 0 0 0 0
          0 0 0 0 0 0
          0 0 0 0 0 0
          0 0 0 0 0 0
          0 0 0 0 0 0
          0 0 0 0 0 0
          0 0 0 0 0 0
          0 0 0 0 0 0
          0 0 0 0 0 0
          0 0 0 0 0 0
          0 0 0 0 0 0
          0 0 0 0 0 0
          0 0 0 0 0 0
          0 0 0 0 0 0
          0 0 0 0 0 0
          0 0 0 0 0 0
          0 0 0 0 0 0
          0 0 0 0 0 0
          0 0 0 0 0 0
          0 0 0 0 0 0
          0 0 0 0 0 0
          0 0 0 0 0 0
          0 0 0 0 0 0
          0 0 0 0 0 0
          0 0 0 0 0 0
          0 0 0 0 0 0
          0 0 0 0 0 0
          0 0 0 0 0 0
          0 0 0 0 0 0
          0 0 0 0 0 0
          0 0 0 0 0 0
          0 0 0 0 0 0
          0 0 0 0 0 0
          0 0 0 0 0 0
          0 0 0 0 0 0
          0 0 0 0 0 0
          0 0 0 0 0 0
          0 0 0 0 0 0
          0 0 0 0 0 0
          0 0 0 0 0 0
          0 0 0 0 0 0
          0 0 0 0 0 0
          0 0 0 0 0 0
          0 0 0 0 0 0
          0
        </DataArray>
        <DataArray type="Float64" Name="gradient_error" format="ascii" RangeMin="3.5986195862662365e-13" RangeMax="2.7568083551543063e-10">
          5.182948535103414e-12 3.3170969776288814e-11 9.27825662813513e-12 2.267363210708288e-11 7.470538147755618e-12 1.566847783609814e-12
          1.0179490757022215e-10 6.638386239225445e-11 4.6241451199756593e-11 4.7335982849703405e-11 3.0689946042683464e-11 2.0428045675335468e-11
          2.0410218310516752e-11 2.1241419262252644e-11 9.191219473984325e-12 1.753101989913743e-11 6.74482504103719e-11 1.2390392534219429e-11
          1.4433471265319683e-10 3.4161679272698657e-11 5.954130471287241e-12 2.6092585176053063e-12 7.74847245784117e-11 1.137845140638962e-11
          1.2089535709357454e-11 4.8631421666222835e-12 1.686253044739275e-11 8.291491460676093e-12 3.65399398310738e-12 3.81618370607053e-12
          1.6088431740537983e-12 3.499792266379254e-12 8.132092305089513e-12 1.490229079666469e-11 5.392675321976245e-12 7.143088126044558e-12
          4.4980170263835516e-11 7.670926074637566e-11 5.348250385114951e-11 2.0988479935948237e-11 3.650522332032379e-11 2.4422945745313247e-11
          3.1704006940602794e-11 3.175898229576986e-11 3.5395261526416126e-11 2.141893256936235e-11 2.4728033135069443e-11 1.527091975749671e-11
          2.757833468861029e-11 1.7059230934093418e-11 1.1946675235429672e-11 4.128066289066806e-11 3.00731485698944e-11 1.728008809277168e-11
          1.1972013797158202e-10 6.740447046309664e-11 5.008602085587293e-11 2.6376425657917098e-11 1.9229309587282567e-11 8.048939743406014e-11
          6.024286290546945e-11 3.089625064359696e-11 2.2352687352084335e-11 1.5348319695473826e-11 1.0011797164647379e-10 7.115980896409737e-11
          4.862305583249064e-11 1.40687898418185e-11 1.0283904513938737e-11 6.7309270787307374e-12 4.9213671575367664e-11 2.3389527383655074e-11
          1.6891158949845764e-11 1.0636228122791615e-11 1.3690306834342773e-11 9.404143944287457e-12 1.2990973895936076e-11 8.168962305514344e-12
          7.850941126467131e-12 2.139457951230066e-11 1.4848275028895072e-11 8.688452868126264e-12 1.145872453084915e-11 8.526515679368696e-12
          7.4523183959663e-12 5.571296316153947e-12 1.1177602344364108e-11 7.633519057145858e-12 5.005591187500297e-12 1.0054531916179859e-11
          6.6454839436257025e-12 3.986620617081974e-12 1.9081011135309552e-10 1.3911271698009078e-10 8.827133120410689e-11 6.333467129907448e-11
          2.2593247497054317e-10 1.66178918486221e-10 1.0723074496488415e-10 9.846258873674945e-11 4.42196369636552e-11 1.1858933069836537e-10
          5.4459308971468505e-11 3.629978543273054e-11 2.565383570025352e-11 1.3699284555080331e-11 9.533631955891337e-12 4.3960501367349005e-11
          3.1268071493641424e-11 1.625432179238444e-11 1.7674752331850844e-11 1.186782638984294e-11 6.478491112834198e-12 4.298022571746072e-12
          2.1672624396319625e-11 1.463374246103691e-11 7.774695482238147e-12 2.7212165448729968e-11 1.8449364043562374e-11 1.895917562901912e-11
          1.540652575216266e-11 9.12819135234219e-12 8.834388329255427e-12 1.0400078050073697e-11 9.775029673658631e-12 6.988496668166e-12
          6.480597034523931e-12 5.507260220404745e-12 1.116606183352254e-11 8.03291419098662e-12 3.887351981760382e-12 7.202322745951624e-12
          6.082306337762272e-12 6.152048120305055e-12 4.354480640635021e-12 4.065623276684885e-12 5.07248055608041e-12 6.395477842233229e-12
          1.2831585006075743e-11 1.0489586912196529e-11 8.44605809935784e-12 6.9091339359705494e-12 8.393264744469122e-12 1.0922387437187822e-11
          7.232187076981119e-12 6.088700284691379e-12 4.062485080808298e-12 7.294833069741715e-12 5.5139634849449195e-12 4.521398460903074e-12
          3.6221357735973292e-12 2.9418161615090626e-12 3.638821413025968e-12 4.726129187151339e-12 3.039294113163709e-12 2.6724820726780038e-12
          1.7198677754130042e-12 3.1969315349805923e-12 4.882647010151248e-12 3.338584941644881e-12 4.887601085976117e-12 3.336730282437222e-12
          5.644746765836654e-12 3.8799410285016085e-12 5.581276867204977e-12 2.233946800914213e-12 1.4600535532336506e-12 2.200984612662129e-12
          1.4108400956904449e-12 2.6093388377055047e-12 1.7142659729513566e-12 2.513053127984229e-12 4.692598210574066e-12 3.5221213608455236e-12
          4.619840157204233e-12 3.1535119757800546e-12 4.287057125137126e-12 1.6643257169464431e-12 7.76315172404306e-12 2.7796996312387526e-12
          9.622144244285001e-12 3.369972958292377e-12 2.2800825697514687e-12 1.8443776771154564e-12 1.4835345661251597e-12 1.8963958278086404e-12
          1.3782453067808896e-12 1.6733894255482609e-12 1.208527547528237e-12 1.1743045492218795e-12 1.0989280086904404e-12 9.725155955214986e-13
          2.7066258089634152e-11 4.292919614773679e-11 1.869023564783011e-11 2.985877186496267e-11 2.0006327426802103e-11 2.956901148160782e-11
          2.0517812124276815e-11 9.27779764196886e-12 1.6163056645786592e-11 1.059794391026967e-11 1.2723372674363317e-11 2.0359709263563675e-11
          8.575416517496931e-12 1.3631998255853116e-11 9.39362585617934e-12 1.389755825518246e-11 9.218849219127372e-12 5.5910512463595285e-12
          8.923161857168473e-12 3.592012856867934e-12 5.761860184033088e-12 4.11578605078477e-12 6.004964897079948e-12 3.914745301195336e-12
          4.945467655745368e-12 5.387736557273256e-12 3.41471631726463e-12 3.7260572692448166e-12 3.329539410706452e-12 3.1123010416003813e-12
          2.197185556855972e-12 5.830005458801144e-12 4.037398221225004e-12 2.895062672494311e-12 2.268439598748751e-12 2.469396916404837e-12
          1.4558880978084648e-12 1.5857746709045402e-12 1.5572073876442674e-12 1.4712336377287256e-12 9.579942665775372e-13 2.6703542340609233e-12
          1.7156612440006152e-12 1.3852598878131844e-12 8.87878285663353e-13 9.740093682652193e-13 6.835718159227089e-13 7.364847716997532e-13
          6.594575837594137e-13 6.408667441711584e-13 5.358351261826579e-13 1.0601404508670856e-12 7.893977274767972e-13 6.222759045829032e-13
          2.2929148548520114e-12 3.64439994597481e-12 1.6924643058625676e-12 2.4712574480060705e-12 2.0949058163143726e-11 4.692550767524967e-11
          1.4218969418203591e-11 1.7483671879350606e-11 1.4805064472894037e-11 2.51542770753364e-11 1.1857610758105747e-11 1.4923269567423245e-11
          1.0079310800143695e-11 1.2473229323795779e-11 1.0453013508734702e-11 2.2254966961043243e-11 1.8137327946146914e-11 9.94474768198919e-12
          1.2045403156134685e-11 8.320706920632002e-12 1.0140284097973226e-11 8.372585049146692e-12 9.837651657923035e-12 8.240273965706916e-12
          1.705615690277639e-11 1.4476700938367748e-11 1.243253470437354e-11 7.025958475413353e-12 8.549895762990088e-12 5.9023649796220505e-12
          7.171576837197448e-12 5.911476612521328e-12 6.961333689265497e-12 5.850777980843896e-12 1.222112936022017e-11 1.0261115868299246e-11
          8.85807406818353e-12 3.5257816476777026e-11 3.0188522093860024e-11 4.793771121302643e-11 3.22972397113088e-11 2.5700561015857175e-11
          2.1754446197624745e-11 4.554008944871847e-11 3.5338580778851796e-11 2.3534097584824146e-11 2.0083297150114747e-11 1.5322675039105805e-11
          1.303321523612856e-11 3.1397419641326654e-11 2.6926139161028634e-11 2.0236012844846348e-11 1.703522090356217e-11 1.4369194568417661e-11
          1.1004666098169866e-11 9.242421103532898e-12 2.2959879959964716e-11 1.946620109217876e-11 1.4673762479967014e-11 9.315211633023509e-11
          1.3831340079144414e-10 6.271056819256214e-11 5.4304985122449664e-11 7.747281227042011e-11 6.174797728038698e-11 4.6742272695576996e-11
          3.998861946987889e-11 7.843642959650135e-11 5.828418409211665e-11 4.034713636854033e-11 3.477567078234896e-11 2.5538422425928943e-11
          2.1909796003280085e-11 4.9134084710021854e-11 4.2529926933101106e-11 3.062658031393289e-11 2.979945318696794e-11 2.5386169642757872e-11
          1.8689026533688897e-11 1.5850857567960167e-11 3.659654060857388e-11 3.130402684126845e-11 2.2586019751462317e-11 8.830536028815089e-11
          7.70493873744498e-11 9.216626313791187e-11 9.055745981999346e-11 6.68105773648956e-11 5.7569820553782254e-11 9.47313099875931e-11
          6.985378436587668e-11 5.5628112743026173e-11 4.8280962798038516e-11 3.437799099735754e-11 2.968075505634515e-11 5.798942951481168e-11
          5.037418867132392e-11 3.5755547684015465e-11 4.165482860087886e-11 3.5722534528880106e-11 2.5479081172385265e-11 2.1746064031883682e-11
          4.3497738575867256e-11 3.7333898571391206e-11 2.6544467426358928e-11 1.3739228296713912e-11 1.7521931159577698e-11 1.4572477098410575e-11
          2.6723411404028225e-11 9.371923680242781e-12 1.204322699477376e-11 9.899093222669196e-12 1.8580898849685014e-11 8.469655641943421e-11
          4.767631123910816e-11 3.9720625435572326e-11 3.3415280861939054e-11 7.072368771322367e-11 5.7451567991330255e-11 3.995271957469521e-11
          3.3266501283371923e-11 2.7934129360853354e-11 2.3203663517187175e-11 5.964945762660512e-11 4.9976159094043615e-11 4.0887582743007076e-11
          6.262138646682781e-12 8.09016994468238e-12 6.578674512217683e-12 1.2601699018714844e-11 4.10704752112245e-12 5.317492771511697e-12
          4.273318015219294e-12 8.34410072416208e-12 5.937955179229798e-11 4.051281961873136e-11 2.7523004528579728e-11 2.262752432134358e-11
          1.9153876174088892e-11 1.571313413618768e-11 4.159539464150027e-11 3.439239958490946e-11 2.8358094103266492e-11 1.8485842991017704e-11
          1.5007451884073824e-11 1.28114562477513e-11 1.0382066166612203e-11 2.825019688520544e-11 1.9168559434653367e-11 9.870826658241156e-12
          1.2460961957457396e-11 8.187373950586099e-12 1.0352934929831747e-11 6.994071276217284e-12 8.703532228012315e-12 7.205890785954059e-12
          1.8681925324964518e-11 1.5595253868052256e-11 1.2784705656217132e-11 6.756203028281158e-12 8.555943057049369e-12 5.543652663171226e-12
          7.011175226901749e-12 4.7892950675631905e-12 5.90719709681321e-12 5.258159739409832e-12 1.296642838093618e-11 1.0698423656355383e-11
          8.780444157219806e-12 4.845139620086582e-12 5.931009079501224e-12 3.9701549222209236e-12 4.88213420034358e-12 4.054440077676047e-12
          4.809088309093754e-12 3.9487578775486414e-12 8.564677684906778e-12 7.1090741993177324e-12 6.179210828472869e-12 3.330034983987347e-12
          4.018791085385887e-12 3.0811186014408667e-12 3.633590742600672e-12 2.81771449240932e-12 3.3316412581876393e-12 3.0968551111400967e-12
          5.843265703108829e-12 5.198540746530666e-12 4.2713937592209565e-12 2.7261844900609383e-11 2.288031845889747e-11 1.8308476975665764e-11
          1.532184002371238e-11 3.865807600492991e-11 3.2614300350438186e-11 2.5441035667197986e-11 1.910698836688302e-11 1.5856045144084315e-11
          1.2764922483537406e-11 1.055133267659143e-11 2.734202299974754e-11 2.2776084573496793e-11 1.787914160498995e-11 1.2058111913289567e-11
          1.0064910895737548e-11 7.732732949830024e-12 6.442384322310352e-12 1.6409752316067587e-11 1.3752762788542601e-11 1.0404322940795658e-11
          8.351385640339499e-12 6.866876655174342e-12 5.339649167144607e-12 4.398472400729652e-12 1.1456153756198568e-11 9.485842896401135e-12
          7.213981967024482e-12 4.50654896064052e-12 5.692951008132083e-12 3.643669121684574e-12 4.605284794865922e-12 3.815778715209471e-12
          4.673967442678671e-12 3.762733029661641e-12 8.734660851490406e-12 7.090068043189716e-12 6.547624832903139e-12 2.928844470064578e-12
          3.7117019010742616e-12 2.3444303564577426e-12 2.9780453183756775e-12 2.46765937891526e-12 3.0275844552891855e-12 2.4276435642492022e-12
          5.737792610028667e-12 4.6221552420624656e-12 4.269596925329669e-12 1.3048905717710823e-11 1.0665616148488881e-11 8.635151409909173e-12
          7.0284449283833726e-12 1.885429017236351e-11 1.5510589097033437e-11 1.2256290873131365e-11 8.673761189549126e-12 7.015868776138661e-12
          5.701482284308392e-12 4.603300671575368e-12 1.2680539120973613e-11 1.0302614476879898e-11 8.198733119088216e-12 4.618138229766009e-12
          5.603037504465556e-12 3.7357393400139404e-12 4.55409707445579e-12 3.0190274721066794e-12 3.59614564697142e-12 2.922066645633162e-12
          7.806534571481893e-12 6.385839390862976e-12 4.8860581606843e-12 3.0154420559531667e-12 3.686624219413472e-12 2.422949193838007e-12
          2.969125039399039e-12 1.971260607127887e-12 2.360357779032742e-12 1.896151677401491e-12 5.193750812930454e-12 4.199621728418664e-12
          3.234554696528555e-12 1.4474514014531964e-10 1.233190340815569e-10 1.0431265040539831e-10 1.6353135354786853e-10 1.0066995634988052e-10
          7.98443408127792e-11 6.798492497122688e-11 1.3195274880153672e-10 1.0315090043913964e-10 8.54544070705018e-11 7.204068786375485e-11
          5.750378724626934e-11 4.8316464875740065e-11 1.126060880638331e-10 9.541568112434836e-11 7.502561224790739e-11 2.1900208963558747e-10
          1.88343993019863e-10 1.6075610361092293e-10 1.9450272148785682e-10 1.5280586250304008e-10 1.195286082299397e-10 1.0258278752780051e-10
          1.5893372670313336e-10 1.2484002331002768e-10 1.3080229446188488e-10 1.1116107123720044e-10 8.743316850112307e-11 7.400823907562754e-11
          1.3616859181650965e-10 1.1582112192278512e-10 9.146851284459734e-11 8.760811010219532e-11 7.305797934138386e-11 1.1746742862392243e-10
          6.049471816490669e-11 8.19301833425331e-11 6.031656420758554e-11 5.015509577747945e-11 4.032838005235132e-11 3.343825761377576e-11
          8.02789893889619e-11 6.706768008128821e-11 5.31020692533446e-11 4.1420564385385586e-11 2.7541717702716812e-11 5.5635787643456166e-11
          3.657207147032639e-11 1.3617930217036435e-10 1.1449826066835852e-10 1.409108253040658e-10 9.555401892260358e-11 9.905973945599926e-11
          9.379148153261907e-11 7.857022290449068e-11 6.221334947762143e-11 5.193728910181847e-11 9.780468522587744e-11 8.199846127142553e-11
          6.518568790015338e-11 6.534931042177986e-11 4.305877536046113e-11 6.825485682445836e-11 4.5182373385475755e-11 5.271390102949256e-11
          4.4714759120619923e-11 3.400208482889941e-11 2.8734075720270763e-11 6.727911080876757e-11 5.733354524033671e-11 4.2773173641236926e-11
          3.768732515115282e-11 3.1561335818463125e-11 2.4132581518396073e-11 2.0142323659899442e-11 4.853938135394012e-11 4.082529471458722e-11
          3.0612710970062e-11 2.149934165590805e-11 1.8099645496385285e-11 1.3367724842948665e-11 1.1209822229406437e-11 2.661695403234642e-11
          2.2495605627499758e-11 1.627756288853184e-11 1.5146592341553516e-11 1.2598989030770434e-11 9.346307984415471e-12 7.747295209690542e-12
          1.8897296175656573e-11 1.5777804787006168e-11 1.1462045088872908e-11 7.789313534296636e-11 6.655894609741636e-11 4.9294817319586503e-11
          4.194217324502386e-11 8.155063552548622e-11 6.974034434529057e-11 5.162592149880662e-11 5.6498302426172616e-11 4.764041012234725e-11
          3.545945691024195e-11 2.978735216297418e-11 5.92452495049868e-11 4.999467407154287e-11 3.719442748587058e-11 3.045014668866904e-11
          2.5798170670307694e-11 1.8452019485756296e-11 1.5565180258986534e-11 3.184931098800762e-11 2.70046823726071e-11 1.925423492596139e-11