<?xml version="1.0"?>
<VTKFile type="UnstructuredGrid" version="0.1" byte_order="LittleEndian" header_type="UInt32" compressor="vtkZLibDataCompressor">
  <UnstructuredGrid>
    <Piece NumberOfPoints="1276" NumberOfCells="903">
      <PointData>
        <DataArray type="Int32" Name="libmesh_node_id" format="ascii" RangeMin="2322" RangeMax="11529">
          2322 2627 2628 2634 3178 3179
          3180 3183 3188 3189 3190 3191
          3193 3195 3196 3198 3199 3200
          3201 3232 3233 3234 3235 3236
          3237 3238 3239 3240 3241 4251
          4252 4253 4256 4281 4282 4283
          4284 4285 4286 4287 4288 4289
          4290 4291 4292 4293 4294 4295
          4296 4297 4298 4299 4300 4301
          4302 4303 4304 4305 4306 4307
          4308 4309 4310 4311 4312 4313
          4314 4315 4316 4317 4318 4319
          4320 4321 4322 4323 4324 4325
          4326 4327 4328 4349 4350 4351
          4352 4356 4357 4427 4428 4429
          4430 4431 4432 4433 4434 4435
          4436 4437 4438 4439 4440 4441
          4442 4443 4444 4445 4446 4447
          4448 4449 4450 4451 4452 4453
          4454 4455 4456 4457 4458 4459
          4460 4463 4464 4466 4469 4471
          4472 4473 4474 4475 4476 4477
          4478 4479 4480 4482 4484 4486
          4488 4489 4490 4491 4492 4493
          4494 4557 4558 4564 4565 4566
          4567 4775 4776 4777 4778 4785
          4786 4813 4814 4819 4820 4822
          4837 4839 4850 4851 4854 4856
          4857 4859 4870 4872 4874 4876
          5509 5510 5511 5512 7190 7191
          7192 7195 7212 7213 7216 7300
          7301 7302 7303 7304 7305 7306
          7307 7308 7309 7310 7311 7312
          7313 7314 7315 7316 7317 7318
          7319 7320 7321 7322 7323 7324
          7325 7326 7327 7328 7329 7330
          7331 7332 7333 7334 7335 7336
          7337 7338 7339 7340 7341 7342
          7343 7344 7345 7346 7347 7348
          7349 7350 7351 7352 7353 7354
          7355 7356 7357 7358 7359 7360
          7361 7362 7363 7364 7365 7366
          7367 7368 7369 7370 7371 7372
          7373 7374 7375 7376 7377 7378
          7379 7380 7381 7382 7383 7384
          7385 7386 7387 7388 7389 7390
          7391 7392 7393 7394 7395 7398
          7399 7402 7404 7406 7407 7408
          7409 7410 7411 7412 7413 7414
          7415 7418 7419 7422 7424 7426
          7427 7428 7429 7430 7431 7432
          7433 7434 7435 7436 7437 7438
          7439 7440 7441 7442 7443 7444
          7445 7446 7447 7448 7449 7450
          7451 7452 7453 7454 7455 7456
          7457 7458 7459 7460 7461 7462
          7463 7464 7465 7466 7467 7468
          7469 7470 7471 7472 7473 7474
          7475 7518 7519 7522 7524 7526
          7527 7528 7529 7530 7531 7532
          7533 7534 7535 8034 8035 8037
          8040 8042 8043 8044 8045 8046
          8047 8048 8049 8050 8051 8053
          8055 8057 8059 8060 8061 8062
          8063 8064 8065 8068 8069 8071
          8074 8076 8077 8078 8079 8080
          8081 8082 8083 8084 8085 8087
          8089 8091 8093 8094 8095 8096
          8097 8098 8099 8100 8101 8102
          8103 8104 8105 8106 8107 8108
          8109 8110 8111 8112 8113 8114
          8115 8116 8117 8118 8119 8120
          8121 8122 8123 8124 8125 8126
          8127 8128 8129 8130 8131 8132
          8133 8134 8135 8136 8137 8138
          8139 8140 8141 8142 8143 8144
          8145 8146 8147 8148 8149 8150
          8151 8152 8153 8154 8155 8156
          8157 8158 8159 8160 8161 8162
          8163 8164 8165 8166 8167 8169
          8171 8173 8175 8176 8177 8178
          8179 8180 8181 8183 8185 8187
          8189 8190 8191 8192 8193 8194
          8195 8197 8199 8201 8203 8204
          8205 8206 8207 8208 8209 8211
          8213 8215 8217 8218 8219 8220
          8221 8222 8223 8224 8225 8226
          8227 8228 8229 8230 8231 8232
          8233 8234 8235 8236 8237 8238
          8239 8240 8241 8242 8243 8244
          8245 8246 8247 8248 8249 8250
          8251 8252 8253 8254 8255 8256
          8257 8258 8259 8260 8261 8262
          8263 8264 8265 8266 8267 8268
          8269 8270 8271 8272 8273 8274
          8275 8276 8277 8278 8279 8290
          8291 8292 8293 8294 8295 8296
          8297 8298 8299 8307 8308 8309
          8310 8311 8312 8313 8324 8325
          8326 8327 8328 8329 8330 8331
          8332 8333 8341 8342 8343 8344
          8345 8346 8347 8348 8349 8350
          8351 8352 8353 8354 8355 8356
          8357 8358 8359 8360 8361 8362
          8363 8364 8365 8366 8367 8368
          8369 8370 8371 8372 8373 8374
          8375 8376 8377 8378 8379 8380
          8381 8382 8383 8384 8385 8386
          8387 8388 8389 8390 8391 8392
          8393 8394 8395 8396 8397 8398
          8399 8400 8401 8402 8403 8404
          8405 8406 8407 8408 8409 8410
          8411 8412 8413 8414 8415 8423
          8424 8425 8426 8427 8428 8429
          8437 8438 8439 8440 8441 8442
          8443 8451 8452 8453 8454 8455
          8456 8457 8465 8466 8467 8468
          8469 8470 8471 8472 8473 8474
          8475 8476 8477 8478 8479 8480
          8481 8482 8483 8484 8485 8486
          8487 8488 8489 8490 8491 8492
          8493 8494 8495 8496 8497 8498
          8499 8500 8501 8502 8503 8504
          8505 8506 8507 8508 8509 8510
          8511 8512 8513 8514 8515 8516
          8517 8518 8519 8520 8521 8522
          8523 8524 8525 8526 8527 9013
          9015 9017 9019 9020 9021 9022
          9023 9024 9025 9028 9029 9034
          9036 9037 9038 9039 9043 9044
          9047 9049 9051 9053 9054 9055
          9056 9057 9058 9074 9075 9076
          9077 9078 9079 9080 9081 9082
          9083 9084 9085 9086 9087 9088
          9089 9090 9091 9092 9093 9094
          9095 9096 9097 9101 9102 9104
          9105 9106 9107 9111 9112 9114
          9115 9116 9117 9118 9119 9121
          9122 9123 9124 9125 9126 9271
          9272 9275 9276 9299 9300 9303
          9304 9320 9321 9324 9325 9327
          9328 9331 9332 9348 9349 9352
          9353 9355 9356 9359 9360 10092
          10093 10094 10095 10096 10097 10098
          10099 10100 10101 10102 10103 10104
          10105 10120 10121 10122 10123 10124
          10125 10127 10128 10129 10164 10165
          10168 10169 10171 10173 10184 10185
          10186 10187 10188 10189 10190 10191
          10192 10193 10204 10205 10206 10208
          10209 10210 10218 10219 10220 10221
          10222 10223 10224 10225 10226 10227
          10238 10239 10240 10242 10243 10244
          10327 10329 10331 10333 10341 10342
          10345 10346 10348 10350 10361 10363
          10365 10366 10367 10375 10377 10379
          10380 10381 10457 10458 10459 10460
          10461 10462 10463 10464 10465 10466
          10477 10478 10479 10480 10481 10482
          10483 10491 10492 10493 10494 10495
          10496 10497 10498 10499 10500 10511
          10512 10513 10514 10515 10516 10517
          10593 10594 10595 10596 10597 10598
          10599 10607 10608 10609 10610 10611
          10612 10613 10621 10622 10623 10624
          10625 10626 10627 10635 10636 10637
          10638 10639 10640 10641 11253 11254
          11257 11258 11260 11262 11273 11274
          11280 11293 11295 11307 2808 2811
          2812 2809 2622 2438 2626 2623
          3192 3194 3197 3212 3204 3213
          3205 3214 3215 3296 3297 3298
          3299 4353 4355 4354 3219 4358
          4779 4780 4781 4782 4783 4784
          4803 4804 4807 4808 4810 4812
          5513 5514 5515 4568 3220 5724
          5725 5728 5729 4966 4970 9040
          9041 9032 9042 9045 4559 4560
          9059 4561 4562 9067 9061 9068
          9069 9063 9070 9071 9065 9072
          9098 9099 9100 9103 4569 9108
          9109 9110 9113 4570 9120 4571
          9127 4572 9128 9129 9130 9131
          9132 9133 9135 9136 9137 9138
          9139 9140 9274 9273 4595 9277
          9302 9301 4599 9305 9322 9323
          9326 4601 9329 9330 9333 4602
          9350 9351 9354 4605 9357 9358
          9361 4606 10106 10107 10108 10109
          10113 10114 10116 10117 10119 10126
          4788 10130 10131 10134 10135 10137
          10139 10166 10167 10170 10172 10194
          10195 10198 10200 10201 10203 10207
          4817 10211 10213 10215 10217 10228
          10229 10232 10234 10235 10237 10241
          10245 10247 10249 10251 10328 10330
          10332 4833 10343 10344 10347 10349
          4835 10362 10364 10368 10372 10370
          10374 10376 10378 10382 10386 10384
          10388 10467 10468 10471 10473 10474
          10476 10484 10486 10488 10490 10501
          10502 10505 10507 10508 10510 10518
          10520 10522 10524 10600 10602 10604
          10606 10614 10616 10618 10620 10628
          10630 10632 10634 10642 10644 10646
          10648 11255 11256 11259 11261 4967
          11275 11276 11277 11278 11279 11281
          11282 4971 11294 11296 11297 11298
          11299 4973 11300 11304 11308 11309
          11310 11311 11312 11313 3250 4975
          11490 11491 11492 11494 11495 11496
          11497 11501 11518 11519 11520 11522
          11523 11524 11525 11529
        </DataArray>
        <DataArray type="Float64" Name="bounds" format="ascii" RangeMin="0" RangeMax="0">
          0 0 0 0 0 0
          0 0 0 0 0 0
          0 0 0 0 0 0
          0 0 0 0 0 0
          0 0 0 0 0 0
          0 0 0 0 0 0
          0 0 0 0 0 0
          0 0 0 0 0 0
          0 0 0 0 0 0
          0 0 0 0 0 0
          0 0 0 0 0 0
          0 0 0 0 0 0
          0 0 0 0 0 0
          0 0 0 0 0 0
          0 0 0 0 0 0
          0 0 0 0 0 0
          0 0 0 0 0 0
          0 0 0 0 0 0
          0 0 0 0 0 0
          0 0 0 0 0 0
          0 0 0 0 0 0
          0 0 0 0 0 0
          0 0 0 0 0 0
          0 0 0 0 0 0
          0 0 0 0 0 0
          0 0 0 0 0 0
          0 0 0 0 0 0
          0 0 0 0 0 0
          0 0 0 0 0 0
          0 0 0 0 0 0
          0 0 0 0 0 0
          0 0 0 0 0 0
          0 0 0 0 0 0
          0 0 0 0 0 0
          0 0 0 0 0 0
          0 0 0 0 0 0
          0 0 0 0 0 0
          0 0 0 0 0 0
          0 0 0 0 0 0
          0 0 0 0 0 0
          0 0 0 0 0 0
          0 0 0 0 0 0
          0 0 0 0 0 0
          0 0 0 0 0 0
          0 0 0 0 0 0
          0 0 0 0 0 0
          0 0 0 0 0 0
          0 0 0 0 0 0
          0 0 0 0 0 0
          0 0 0 0 0 0
          0 0 0 0 0 0
          0 0 0 0 0 0
          0 0 0 0 0 0
          0 0 0 0 0 0
          0 0 0 0 0 0
          0 0 0 0 0 0
          0 0 0 0 0 0
          0 0 0 0 0 0
          0 0 0 0 0 0
          0 0 0 0 0 0
          0 0 0 0 0 0
          0 0 0 0 0 0
          0 0 0 0 0 0
          0 0 0 0 0 0
          0 0 0 0 0 0
          0 0 0 0 0 0
          0 0 0 0 0 0
          0 0 0 0 0 0
          0 0 0 0 0 0
          0 0 0 0 0 0
          0 0 0 0 0 0
          0 0 0 0 0 0
          0 0 0 0 0 0
          0 0 0 0 0 0
          0 0 0 0 0 0
          0 0 0 0 0 0
          0 0 0 0 0 0
          0 0 0 0 0 0
          0 0 0 0 0 0
          0 0 0 0 0 0
          0 0 0 0 0 0
          0 0 0 0 0 0
          0 0 0 0 0 0
          0 0 0 0 0 0
          0 0 0 0 0 0
          0 0 0 0 0 0
          0 0 0 0 0 0
          0 0 0 0 0 0
          0 0 0 0 0 0
          0 0 0 0 0 0
          0 0 0 0 0 0
          0 0 0 0 0 0
          0 0 0 0 0 0
          0 0 0 0 0 0
          0 0 0 0 0 0
          0 0 0 0 0 0
          0 0 0 0 0 0
          0 0 0 0 0 0
          0 0 0 0 0 0
          0 0 0 0 0 0
          0 0 0 0 0 0
          0 0 0 0 0 0
          0 0 0 0 0 0
          0 0 0 0 0 0
          0 0 0 0 0 0
          0 0 0 0 0 0
          0 0 0 0 0 0
          0 0 0 0 0 0
          0 0 0 0 0 0
          0 0 0 0 0 0
          0 0 0 0 0 0
          0 0 0 0 0 0
          0 0 0 0 0 0
          0 0 0 0 0 0
          0 0 0 0 0 0
          0 0 0 0 0 0
          0 0 0 0 0 0
          0 0 0 0 0 0
          0 0 0 0 0 0
          0 0 0 0 0 0
          0 0 0 0 0 0
          0 0 0 0 0 0
          0 0 0 0 0 0
          0 0 0 0 0 0
          0 0 0 0 0 0
          0 0 0 0 0 0
          0 0 0 0 0 0
          0 0 0 0 0 0
          0 0 0 0 0 0
          0 0 0 0 0 0
          0 0 0 0 0 0
          0 0 0 0 0 0
          0 0 0 0 0 0
          0 0 0 0 0 0
          0 0 0 0 0 0
          0 0 0 0 0 0
          0 0 0 0 0 0
          0 0 0 0 0 0
          0 0 0 0 0 0
          0 0 0 0 0 0
          0 0 0 0 0 0
          0 0 0 0 0 0
          0 0 0 0 0 0
          0 0 0 0 0 0
          0 0 0 0 0 0
          0 0 0 0 0 0
          0 0 0 0 0 0
          0 0 0 0 0 0
          0 0 0 0 0 0
          0 0 0 0 0 0
          0 0 0 0 0 0
          0 0 0 0 0 0
          0 0 0 0 0 0
          0 0 0 0 0 0
          0 0 0 0 0 0
          0 0 0 0 0 0
          0 0 0 0 0 0
          0 0 0 0 0 0
          0 0 0 0 0 0
          0 0 0 0 0 0
          0 0 0 0 0 0
          0 0 0 0 0 0
          0 0 0 0 0 0
          0 0 0 0 0 0
          0 0 0 0 0 0
          0 0 0 0 0 0
          0 0 0 0 0 0
          0 0 0 0 0 0
          0 0 0 0 0 0
          0 0 0 0 0 0
          0 0 0 0 0 0
          0 0 0 0 0 0
          0 0 0 0 0 0
          0 0 0 0 0 0
          0 0 0 0 0 0
          0 0 0 0 0 0
          0 0 0 0 0 0
          0 0 0 0 0 0
          0 0 0 0 0 0
          0 0 0 0 0 0
          0 0 0 0 0 0
          0 0 0 0 0 0
          0 0 0 0 0 0
          0 0 0 0 0 0
          0 0 0 0 0 0
          0 0 0 0 0 0
          0 0 0 0 0 0
          0 0 0 0 0 0
          0 0 0 0 0 0
          0 0 0 0 0 0
          0 0 0 0 0 0
          0 0 0 0 0 0
          0 0 0 0 0 0
          0 0 0 0 0 0
          0 0 0 0 0 0
          0 0 0 0 0 0
          0 0 0 0 0 0
          0 0 0 0 0 0
          0 0 0 0 0 0
          0 0 0 0 0 0
          0 0 0 0 0 0
          0 0 0 0 0 0
          0 0 0 0 0 0
          0 0 0 0 0 0
          0 0 0 0 0 0
          0 0 0 0 0 0
          0 0 0 0 0 0
          0 0 0 0 0 0
          0 0 0 0 0 0
          0 0 0 0 0 0
          0 0 0 0 0 0
          0 0 0 0 0 0
          0 0 0 0
        </DataArray>
        <DataArray type="Float64" Name="gradient_error" format="ascii" RangeMin="2.622423103848975e-12" RangeMax="8.89676168127734e-10">
          3.294728404653755e-10 2.073945901219004e-11 1.853287642739266e-11 1.5244886395665412e-10 2.9416394121116356e-10 2.446480281083345e-10
          2.1077711727797563e-10 1.3505877484218089e-10 1.5465357745889863e-10 1.3542541249600953e-10 1.1244116596744658e-10 9.680170052270482e-11
          4.751471018093511e-11 9.044231558502954e-11 6.165804691818748e-11 4.735588589603043e-11 3.757299206401744e-11 1.6368806557810803e-11
          2.4686366590496784e-11 4.0069136867706646e-10 3.036451762655952e-10 1.9895121955409622e-10 1.486108825561893e-10 1.3186139196008044e-10
          6.2486464216994e-11 5.5377757932755e-10 5.322910731354508e-10 2.9712495549443377e-10 2.979674174209853e-10 1.4659338472626563e-10
          9.748257203514106e-11 9.29369732201833e-11 8.049901166854338e-11 1.0489975300202429e-10 1.0013590331457362e-10 6.681584940843611e-11
          6.367681827473883e-11 6.702450858262307e-11 4.472989192027778e-11 4.261791624925756e-11 8.693591701662307e-11 5.509283333301886e-11
          3.6855336680138924e-11 6.885507014806572e-11 6.501908876460984e-11 4.4684909454637326e-11 5.478736740359153e-11 4.567807338479029e-11
          4.3588167319690266e-11 2.920183434653006e-11 2.7815695927264714e-11 2.7691058504053266e-11 1.8555980286164985e-11 1.7688013769621717e-11
          3.784144489761583e-11 2.4056747209731736e-11 1.526519676304473e-11 3.1735694611427514e-11 2.992738740178523e-11 1.954700098646223e-11
          2.5118160841033077e-11 6.905648112748344e-11 4.347907722749159e-11 4.6091215277120475e-11 2.9020274751607224e-11 5.0006238461779694e-11
          3.1302241200455957e-11 2.7274574348531333e-11 4.127606005932582e-11 2.8194368062805458e-11 2.7832789757144248e-11 2.980611829183169e-11
          1.8884749932204367e-11 1.8626804028120365e-11 1.609962260300469e-11 2.1033888852925943e-11 2.430750626373519e-11 1.981065763243002e-11
          1.8763524858795372e-11 1.5818004212932473e-11 2.2444503062691224e-11 3.316156772703244e-11 3.558881162791877e-11 2.1685565019680446e-11
          3.013482495521371e-11 3.053094414885018e-11 2.676103339477862e-11 2.0041875796485843e-10 1.8824072046897265e-10 1.4228311272541564e-10
          1.3345152713374652e-10 1.560026933356045e-10 1.1017088322196617e-10 5.395201485524348e-10 5.047791662942027e-10 3.7391396880031887e-10
          4.1290559951535236e-10 9.801328849702351e-11 9.183334373333771e-11 6.560920535623767e-11 6.142413318465615e-11 7.559519195309554e-11
          5.045190757590148e-11 2.87198651151059e-10 2.6743463302818024e-10 1.8494811819512736e-10 2.1589769573365362e-10 1.1422126187965309e-10
          8.02211026021459e-11 7.415412237655612e-11 5.1726304143599147e-11 2.946066484876995e-10 2.1439885105918823e-10 1.8334431417499182e-10
          5.4819547025153575e-11 3.645139600123587e-11 3.513245645247127e-11 2.3240699660786274e-11 1.5116119772780188e-10 1.033572873676956e-10
          9.208661471277711e-11 7.814146944798248e-10 7.338664883052147e-10 6.04904285752775e-10 5.574528489239404e-10 5.861167268423178e-10
          5.485742048542519e-10 4.2343494778349736e-10 3.950834915078976e-10 4.478193648481407e-10 3.1974820258268e-10 4.357826984084932e-10
          4.3395388804161257e-10 3.2493196143811623e-10 4.051158249658715e-10 4.324201221407027e-10 2.650710916882229e-10 4.3839307794585555e-10
          3.156429321866129e-10 2.226331994253304e-10 1.9045861634058943e-10 1.3255872121100114e-10 3.2578333033388963e-10 2.3377321954125647e-10
          2.1662440965352405e-10 4.289845216078663e-11 2.969156886590769e-11 2.416762268102537e-11 2.0029423874478898e-11 1.5816353925660463e-11
          1.3183864686368175e-11 1.8108382900354928e-11 1.7308516989491442e-11 1.1619065142355183e-11 1.1082861699312265e-11 1.3217614107749496e-11
          1.2449626623610092e-11 4.27231104166688e-11 3.9973293409047734e-11 1.3339143231308506e-10 1.2383993182616639e-10 9.914716210268875e-11
          6.859552416370384e-11 4.1215308999947985e-11 2.9472456272392063e-10 2.7424903241003557e-10 2.2031744930994397e-10 2.393071265427913e-10
          2.3399417279393533e-10 2.1002556830796355e-10 1.5183429167884938e-10 8.941839109465347e-11 1.620477944246312e-10 1.0389771224116048e-10
          1.4064724252416679e-11 2.6529542714444815e-11 9.310382986782448e-12 1.744972191557166e-11 4.0879443255210526e-11 5.675496225254998e-11
          5.598209499084396e-11 5.374971509989367e-11 3.681081137738353e-11 5.026058600541957e-11 4.5760164945292204e-11 3.4603610850908216e-11
          3.413192871654869e-11 4.7542575643728824e-11 4.689090437763901e-11 2.833815083600645e-11 3.957604915562006e-11 3.903031092755821e-11
          3.27893419733411e-11 4.5008648969075695e-11 3.7454452433967385e-11 8.220670927942037e-11 8.10445524852317e-11 6.787432858897367e-11
          7.766020422431901e-11 2.3569287919553285e-11 2.3245067826841772e-11 3.2669379109966236e-11 3.221664506611245e-11 1.896545027424339e-11
          2.6808604759025035e-11 2.643531686030717e-11 2.2323019604714934e-11 3.0909725001587944e-11 2.5358460717658907e-11 5.7290321207398343e-11
          5.646880360955554e-11 4.667272566279645e-11 5.407780165405665e-11 3.071606821280076e-11 4.206780354331025e-11 2.5489121429354738e-11
          3.4993534121953355e-11 2.803076045915631e-11 3.827805195128264e-11 3.1822671569862156e-11 7.234224816151955e-11 6.053475404548193e-11
          6.55216511427081e-11 2.0901467832052797e-11 2.8869494981727275e-11 1.7050162046284663e-11 2.36783262473136e-11 1.9051814137550932e-11
          2.6237011703028643e-11 2.150776745645449e-11 5.032428582806388e-11 4.1565724836666376e-11 4.551649327922467e-11 1.5681640784254812e-11
          1.5463164926667378e-11 2.190710991864323e-11 2.16002039487716e-11 1.2547551358351344e-11 1.779878624764784e-11 1.7548345310610224e-11
          1.4845441628726782e-11 2.0716093789296626e-11 1.6826096777083954e-11 3.889148078771858e-11 3.8327434729782716e-11 3.1273176817673894e-11
          3.668631740642591e-11 1.0192126469368073e-11 1.0051301860843816e-11 1.4338555383525896e-11 1.413703829000116e-11 8.011164796107755e-12
          1.1484648052503566e-11 1.1323685549924488e-11 9.644039988588408e-12 1.3551484845482452e-11 1.085241579504341e-11 2.573545034043551e-11
          2.5358612466977946e-11 2.0434395681412003e-11 2.4262147937826858e-11 1.3897680661250297e-11 1.9338532454940597e-11 1.1267748302521622e-11
          1.5700544572616476e-11 1.2660745706829246e-11 1.756022492951555e-11 1.4254356028346578e-11 3.4112086010059984e-11 2.781686227265637e-11
          3.0819305165510584e-11 9.005842780695586e-12 1.2634151506408406e-11 7.164508441272803e-12 1.0109409260044686e-11 8.225311892513736e-12
          1.1473621299797425e-11 9.187491397832324e-12 2.254376977567038e-11 1.8156627049055507e-11 2.034010029485822e-11 2.0663546199006703e-11
          2.8175402707219066e-11 2.429596627620269e-11 4.821452938292405e-11 1.6901324773836326e-11 2.320441044806587e-11 1.3757879889945424e-11
          1.9002482906795745e-11 1.466002711521861e-11 2.0005589181509693e-11 1.638549395901593e-11 4.002379823972363e-11 3.301463756448507e-11
          3.422224994768395e-11 1.5176759883654533e-11 2.042424205266669e-11 1.673665584715979e-11 3.437982041743017e-11 1.2560401911140222e-11
          1.6798763614264516e-11 1.0409339724360045e-11 1.369644770671187e-11 1.0609732546482709e-11 1.3683009518342466e-11 1.1816579855810418e-11
          2.846904351910878e-11 2.3352290424848114e-11 2.2945443982247698e-11 1.121679957196249e-11 1.5508356689498233e-11 9.139692780042777e-12
          1.2591790057207268e-11 9.739872337778414e-12 1.3360963613926057e-11 1.0834300856295038e-11 2.7061131328862547e-11 2.2035689925828555e-11
          2.308219442616879e-11 7.423963071535373e-12 1.0127549167699845e-11 6.0615829356457755e-12 8.077919228467596e-12 6.605022651246301e-12
          8.664139368106417e-12 7.292759644234785e-12 1.7818451723935816e-11 1.426413882952058e-11 1.5116636635143785e-11 8.574946633619787e-12
          1.1130545363581898e-11 7.013338393868983e-12 9.018931575898636e-12 8.131423456076215e-12 9.973602329464956e-12 8.090929461566237e-12
          1.8998592165431874e-11 1.5386064432666798e-11 1.7063058490874587e-11 5.833315009266503e-12 7.2104566707907845e-12 5.381635518788633e-12
          6.383624123394528e-12 5.4879699106175955e-12 6.501344859501909e-12 5.804100591321722e-12 1.2363158988096688e-11 1.1185033080458531e-11
          1.1083801103524207e-11 1.045518406012919e-11 1.3292296654405008e-11 1.163603151760053e-11 2.1791905811319765e-11 8.84439789838721e-12
          1.0857840297627122e-11 8.230271620574e-12 9.736046526894554e-12 8.046845757028994e-12 9.554258896690757e-12 8.648550320303998e-12
          1.7902785429673576e-11 1.639343807310924e-11 1.5306807108872952e-11 1.1826559054749234e-10 1.1650263431413158e-10 1.1137351104684493e-10
          1.9730191480673856e-10 9.914125069670638e-11 9.7650424280933e-11 8.252371139078735e-11 8.12733750624725e-11 9.331479243909648e-11
          7.763836136790616e-11 1.695206483270113e-10 1.6685280325052534e-10 1.400208489753004e-10 1.5910171264965142e-10 1.03333212286845e-10
          9.306507499205323e-11 1.7406064385368085e-10 8.652375393143962e-11 7.194873020979552e-11 7.786076072294594e-11 6.469797851204754e-11
          1.4698608563703323e-10 1.2319359724223435e-10 1.3158239847691884e-10 3.337711022864924e-10 3.283934818704957e-10 3.127655729022978e-10
          5.306285367637249e-10 2.853767729862403e-10 2.807047126521276e-10 2.419503405044225e-10 2.379337174500947e-10 2.67138806410795e-10
          2.2627930787319904e-10 4.670600544977164e-10 4.592038663875714e-10 3.938274501380902e-10 4.3638928452946327e-10 2.883296009282002e-10
          2.5726067601843284e-10 4.6433949870745054e-10 2.4596203537832006e-10 2.0811230412760727e-10 2.1909951245245777e-10 1.8511493209673045e-10
          4.007722112651148e-10 3.4288497466620997e-10 3.556076053938619e-10 6.821766509637346e-11 6.717731488537058e-11 5.601042613342944e-11
          5.5151274579735216e-11 6.415350452286382e-11 5.2654726633235434e-11 1.1852581984227074e-10 1.1662465770639614e-10 9.642933646088333e-11
          1.1110634843400399e-10 4.568151697914101e-11 4.4977206407644596e-11 3.701333775903117e-11 3.644007151290493e-11 4.29310532294535e-11
          3.4775061914262724e-11 8.047252797623229e-11 7.916363018904218e-11 6.453607350834707e-11 7.536688613282694e-11 5.942318315859908e-11
          4.875035858367582e-11 5.340114951609235e-11 4.378620979977957e-11 1.0249719861066921e-10 8.466829649022121e-11 9.158217463201339e-11
          3.973147889048181e-11 3.217199849377585e-11 3.566295964211937e-11 2.885603834692499e-11 6.945102328589182e-11 5.657714439946921e-11
          6.196853877752942e-11 2.0345085515942016e-10 2.0003215011428854e-10 1.6971164354391365e-10 1.6682984081988055e-10 1.9011921494738933e-10
          1.5847848825642083e-10 3.407123886273422e-10 3.347803113835453e-10 2.8212601128579606e-10 3.175858069950898e-10 1.4046552710597566e-10
          1.380587486878926e-10 1.1537548825437708e-10 1.1338320951806448e-10 1.3108728228314644e-10 1.0761473901491527e-10 2.4003540909490115e-10
          2.35742322746402e-10 1.9535372935973798e-10 2.2331712977722692e-10 1.7468655397769123e-10 1.4549118302945546e-10 1.551853398218802e-10
          1.2910516017946374e-10 2.9083998875636027e-10 2.446181444563209e-10 2.570998131230949e-10 1.2025592372503424e-10 9.865957573630281e-11
          1.0660770473413806e-10 8.7387434773907e-11 2.040460601630559e-10 1.6882840426332223e-10 1.798353967658287e-10 8.138497983372802e-11
          6.914167490033202e-11 1.355481083889406e-10 6.801852658779673e-11 5.646873731245204e-11 5.771466320313298e-11 4.7853425428122785e-11
          1.141691005102086e-10 9.547436304973762e-11 9.605887255277657e-11 5.710429853571287e-11 4.5843481990804964e-11 9.33974710696363e-11
          4.7678023896945704e-11 3.954117995795762e-11 3.831330548317315e-11 3.1789477164242814e-11 7.841742166604755e-11 6.538505677335661e-11
          6.214791959305837e-11 2.2216356814061536e-10 1.85719018226367e-10 3.548226244590623e-10 1.8884066918777122e-10 1.5927512668917833e-10
          1.575206067210394e-10 1.3260302320844704e-10 3.0479359897103783e-10 2.5964606107406125e-10 2.5233713872913993e-10 1.5034490103737246e-10
          1.1793745863885012e-10 2.3636852942293213e-10 1.272231269033899e-10 1.0687756685826903e-10 9.956160388391228e-11 8.346028955899636e-11
          2.0183458054639717e-10 1.7101475998761506e-10 1.5606656205020992e-10 4.657409454942141e-11 3.817337497460261e-11 3.942647805315213e-11
          3.2297493944523105e-11 7.928350066163583e-11 6.53883865805744e-11 6.653635650514824e-11 3.1115831741801074e-11 2.519303075431957e-11
          2.6375030323516367e-11 2.1385557835296777e-11 5.3559295227419106e-11 4.357013505940686e-11 4.4856225873872133e-11 3.251371194780022e-11
          2.6564752078059244e-11 2.6051838896667485e-11 2.11991666959861e-11 5.415292292923859e-11 4.4556962652062034e-11 4.276981348671332e-11
          2.16596447454938e-11 1.753137863915055e-11 1.7216473092454894e-11 1.3894246575456618e-11 3.641266229838596e-11 2.955548728577154e-11
          2.86684899093715e-11 1.3332105879817572e-10 1.1076709081525232e-10 1.1080649680607248e-10 9.192226373921295e-11 2.1938196307350554e-10
          1.838774508364863e-10 1.8072685310399332e-10 9.135749101892949e-11 7.480862023222399e-11 7.571324582257843e-11 6.192363943407925e-11
          1.529071968959085e-10 1.2617057250441614e-10 1.2546708866359573e-10 8.91453356707407e-11 7.383122658144153e-11 6.947800378150853e-11
          5.7441904526296144e-11 1.4379840553616704e-10 1.2000706466828304e-10 1.1059455350482176e-10 6.072241875772568e-11 4.959631886441609e-11
          4.716809188942074e-11 3.847030111605766e-11 9.941141187773477e-11 8.174889833599079e-11 7.612704170229783e-11 7.094026290192849e-10
          6.975259809268989e-10 6.161496374946723e-10 6.056006210642211e-10 6.629783193919812e-10 5.749499513480789e-10 8.89676168127734e-10
          8.762927842438767e-10 7.693103405285303e-10 8.370469157587262e-10 6.08874608932377e-10 5.270563755624636e-10 5.399788599959378e-10
          4.662647835793673e-10 7.746418150431476e-10 6.776695176839497e-10 6.935070802928635e-10 7.762019993821998e-10 7.712565177244308e-10
          6.908170719754856e-10 6.858172499965286e-10 7.547774953209664e-10 6.695228988069906e-10 6.149203901495219e-10 6.17826978491106e-10
          5.5549237998357e-10 6.226838283403443e-10 7.231336563737862e-10 6.391330392460568e-10 6.734620038872616e-10 5.926197546329183e-10
          6.203768358165281e-10 5.521797598820682e-10 6.017973284999748e-10 5.302083636981602e-10 5.209417319122136e-10 4.5206798292585655e-10
          4.4401823106636305e-10 4.940467952010888e-10 4.20678215441146e-10 6.799388357588147e-10 6.691121117313545e-10 5.765396595044199e-10
          6.37453940916252e-10 3.819519817259068e-10 3.7503501933686163e-10 3.198279353724875e-10 3.1394736671791985e-10 3.549981920734927e-10
          2.9692773114248196e-10 5.005178395953741e-10 4.921402312365123e-10 4.161881467154556e-10 4.677103289393916e-10 4.5211152068614875e-10
          3.843574926506648e-10 3.990467644878645e-10 3.3852898892787174e-10 5.873973288124547e-10 5.04473976332763e-10 5.228398117249926e-10
          3.2387476332776787e-10 2.705358238397326e-10 2.8470756623648886e-10 2.3740309391625424e-10 4.2928595005180025e-10 3.619733928136113e-10
          3.8010798963118626e-10 6.089814698350328e-10 6.040680486072382e-10 5.317296691093618e-10 5.270162729553265e-10 5.883332966797064e-10
          5.121305981978947e-10 4.937122365987125e-10 4.944867029069406e-10 4.3584400996793335e-10 4.942275411484199e-10 4.598321042848731e-10
          4.554049468775582e-10 3.938305476587619e-10 3.8975286502258256e-10 4.4158227848232103e-10 3.771412612440932e-10 3.80824790475591e-10