<?xml version="1.0"?>
<VTKFile type="UnstructuredGrid" version="0.1" byte_order="LittleEndian" header_type="UInt32" compressor="vtkZLibDataCompressor">
  <UnstructuredGrid>
    <Piece NumberOfPoints="1579" NumberOfCells="889">
      <PointData>
        <DataArray type="Int32" Name="libmesh_node_id" format="ascii" RangeMin="1940" RangeMax="14170">
          1940 1941 1942 1943 1944 1945
          1946 1947 1948 1949 1950 1951
          1952 1953 1954 1955 1956 1957
          1958 1959 1990 1991 1992 1993
          1994 1995 1996 1997 1998 1999
          2020 2021 2022 2023 2024 2025
          2026 2027 2028 2029 2060 2061
          2062 2063 2064 2065 2066 2067
          2068 2069 2070 2071 2072 2073
          2074 2075 2076 2077 2078 2079
          2110 2111 2112 2113 2114 2115
          2116 2117 2118 2119 2140 2141
          2142 2143 2144 2145 2146 2147
          2148 2149 2180 2181 2182 2183
          2184 2185 2186 2187 2188 2189
          2190 2191 2192 2193 2194 2195
          2196 2197 2199 2206 2207 2208
          2209 2230 2231 2232 2233 2234
          2235 2236 2237 2238 2239 2260
          2261 2262 2263 2264 2265 2266
          2267 2268 2269 2300 2301 2302
          2303 2304 2305 2306 2307 2308
          2309 2310 2311 2312 2313 2314
          2315 2316 2317 2324 2326 2327
          2328 2329 2350 2351 2352 2353
          2354 2355 2356 2357 2358 2359
          2380 2381 2382 2383 2384 2385
          2386 2387 2388 2389 2400 2401
          2402 2403 2404 2405 2406 2410
          2411 2412 2414 2415 2416 2418
          2452 2459 2461 2462 2463 2464
          2465 2466 2467 2468 2469 2470
          2471 2472 2473 2474 2475 2476
          2477 2478 2479 2480 2481 2482
          2483 2484 2485 2486 2487 2488
          2490 2492 2497 2500 2523 2524
          2525 2526 2527 2528 2529 2530
          2531 2532 2533 2534 2535 2536
          2537 2538 2539 2540 2541 2674
          2675 2676 2679 2682 2694 2695
          2696 2697 2698 2699 2700 2701
          2702 2703 2704 2705 2706 2707
          2710 2711 2714 2720 2742 2743
          2744 2745 2746 2747 2748 2749
          2750 2751 2752 2753 2754 2755
          2756 2757 2758 2759 2760 2761
          2762 2763 2764 2765 2828 2829
          2832 2834 2836 2837 2838 2839
          2840 2841 2842 2843 2844 2845
          2846 2847 2848 2849 2850 2851
          2852 2853 2854 2855 2856 2857
          2858 2859 2860 2861 2862 2863
          2864 2865 2866 2867 2868 3368
          3369 3370 3371 3372 3373 3374
          3375 3376 3377 3378 3379 3380
          3381 3392 3393 3394 3395 3396
          3397 3398 3399 3400 3401 3422
          3423 3424 3425 3426 3427 3428
          3429 3430 3431 3432 3433 3434
          3435 3436 3437 3438 3439 3440
          3441 3442 3443 3444 3445 3448
          3449 3452 3455 3504 3505 3506
          3507 3508 3509 3510 3511 3512
          3513 3514 3515 3516 3517 3552
          3553 3554 3555 3556 3557 3558
          3559 3560 3561 3562 3563 3564
          3565 3568 3569 3572 3578 3706
          3707 3708 3709 3710 3711 3712
          3713 3714 3715 5184 5185 5186
          5187 5188 5189 5190 5191 5192
          5193 5194 5195 5196 5197 5198
          5200 5201 5202 5204 5206 5208
          5209 5210 5211 5212 5213 5214
          5215 5216 5217 5218 5219 5220
          5221 5222 5223 5224 5225 5226
          5227 5228 5229 5230 5231 5233
          5235 5237 5239 5240 5241 5242
          5243 5244 5245 5246 5247 5248
          5305 5306 5309 5311 5350 5351
          5352 5353 5354 5355 5356 5357
          5358 5359 5360 5361 5362 5363
          5365 5371 5374 5375 5376 5377
          5378 5379 5380 5381 5382 5383
          5384 5385 5386 5387 5388 5389
          5390 5391 5392 5393 5414 5415
          5416 5417 5418 5419 5420 5421
          5422 5423 5434 5435 5436 5437
          5438 5439 5440 5458 5459 5460
          5461 5462 5463 5464 5465 5466
          5467 5468 5469 5470 5471 5472
          5473 5474 5475 5476 5477 5588
          5589 5590 5591 5592 5593 5594
          5595 5596 5597 5598 5599 5600
          5601 5602 5603 5604 5619 5621
          5622 5623 5624 5625 5626 5627
          5628 5629 5630 5631 5632 5633
          5634 5635 5636 5638 5639 5640
          5641 5642 5644 5645 5680 5681
          5682 5683 5684 5685 5686 5687
          5688 5689 12570 12571 12572 12573
          12574 12575 12576 12577 12578 12579
          12580 12581 12582 12583 12584 12585
          12586 12587 12588 12589 12590 12591
          12592 12593 12594 12595 12596 12597
          12598 12599 12600 12601 12602 12603
          12604 12605 12606 12607 12608 12609
          12610 12611 12612 12613 12614 12615
          12616 12617 12618 12619 12620 12621
          12622 12623 12624 12625 12626 12628
          12629 12630 12631 12632 12633 12634
          12635 12636 12637 12638 12639 12640
          12641 12642 12643 12644 12645 12646
          12647 12648 12649 12650 12651 12652
          12653 12654 12655 12656 12657 12658
          12659 12660 12661 12662 12663 12664
          12665 12666 12667 12668 12669 12670
          12671 12672 12673 12674 12675 12676
          12677 12678 12679 12680 12681 12682
          12683 12684 12685 12686 12687 12688
          12689 12690 12691 12692 12693 12694
          12695 12696 12697 12698 12699 12700
          12701 12702 12703 12704 12705 12706
          12707 12708 12709 12710 12711 12712
          12713 12714 12715 12716 12717 12718
          12719 12720 12721 12722 12723 12724
          12725 12726 12727 12728 12729 12730
          12731 12732 12733 12734 12735 12736
          12737 12738 12739 12740 12741 12742
          12743 12744 12745 12746 12747 12748
          12749 12750 12751 12752 12753 12754
          12755 12756 12757 12758 12759 12760
          12761 12762 12763 12764 12765 12766
          12767 12768 12769 12770 12771 12772
          12773 12774 12775 12776 12777 12778
          12779 12782 12783 12785 12786 12787
          12788 12789 12790 12791 12792 12793
          12794 12805 12806 12807 12808 12809
          12810 12811 12812 12813 12814 12815
          12816 12819 12820 12822 12823 12824
          12825 12826 12827 12828 12836 12837
          12838 12839 12840 12841 12842 12843
          12844 12845 12846 12847 12848 12849
          12850 12851 12852 12853 12854 12855
          12856 12857 12858 12859 12860 12861
          12862 12863 12864 12865 12866 12867
          12868 12869 12870 12871 12872 12873
          12874 12875 12876 12877 12878 12879
          12880 12881 12882 12883 12884 12885
          12886 13129 13130 13131 13132 13133
          13134 13135 13136 13137 13138 13146
          13147 13148 13149 13150 13151 13152
          13299 13300 13301 13302 13303 13304
          13305 13306 13307 13308 13309 13310
          13311 13312 13448 13449 13450 13453
          13456 13458 13459 13460 13461 13462
          13463 13464 13465 13466 13467 13468
          13469 13470 13471 13472 13473 13474
          13475 13476 13477 13478 13479 13480
          13481 13482 13483 13484 13485 13486
          13487 13488 13489 13490 13491 13492
          13493 13494 13495 13496 13497 13498
          13499 13500 13501 13502 13503 13504
          13505 13506 13507 13508 13509 13606
          13607 13609 13612 13614 13615 13616
          13617 13618 13619 13620 13621 13622
          13623 13624 13625 13626 13627 13628
          13629 13630 13631 13632 13633 13634
          13635 13636 13637 13638 13639 13640
          13641 13642 13643 13644 13645 13646
          13647 13648 13649 13650 13651 13652
          13653 13654 13655 13656 13657 13658
          13659 13660 13661 13662 13663 13664
          13665 13666 13667 13668 13669 13670
          13671 13672 13673 13674 13675 13676
          13677 13678 13679 13680 13681 13682
          13683 13684 13685 13686 13687 13688
          13689 13690 13691 13692 13693 13694
          13791 13792 13795 13797 13799 13800
          13801 13802 13803 13804 13805 13806
          13807 13808 13809 13810 13811 13812
          13813 13814 13815 13816 13817 13818
          13819 13820 13821 13822 13823 13824
          13825 13826 13827 13828 13829 13830
          13831 13832 13833 13834 13835 13836
          13837 13838 13839 13840 13841 13842
          13843 13844 13845 13846 13847 13848
          13849 13850 13851 13852 13853 13854
          13855 13856 13857 13858 13859 13860
          13861 13862 13863 13864 13865 13866
          13867 13868 13869 13870 13871 13872
          13873 13874 13875 13876 13877 13878
          13879 13880 13881 13882 13883 13884
          13885 13886 13887 13888 13889 13890
          13891 13892 13893 13894 13895 13896
          13897 13898 13899 13900 13901 13902
          13903 13904 13905 13906 13907 13908
          13909 13910 13911 13912 13913 13914
          13915 13916 13917 13918 13919 13920
          13921 13922 13923 13924 13925 13926
          13927 13928 13929 13930 13931 13932
          13933 13934 13935 13936 13937 13938
          13939 13940 13941 13942 13943 13944
          13945 13946 13947 13948 13949 13950
          13951 13952 13953 13954 13955 13956
          13957 13958 13959 13960 13961 13962
          13963 13964 13965 13966 13967 13968
          13969 13970 13971 13972 13973 13974
          13975 13976 13977 13978 13979 13980
          13981 13982 13983 13984 13985 13986
          13987 13988 13989 13990 13991 13992
          13993 13994 13995 13996 13997 13998
          13999 14000 14001 14002 14003 14004
          14005 14006 14007 14008 14009 14010
          14011 14012 14013 14014 14015 14016
          14017 14018 14019 14020 14021 14022
          14023 14024 14025 14026 14027 14028
          14029 14030 14031 14032 14033 14034
          14035 14036 14037 14038 14039 14040
          14041 14042 14043 14044 14045 14046
          14047 14048 14049 14050 14051 14052
          14053 14054 14055 14056 14057 14058
          14059 14060 14061 14062 14063 14064
          14065 14066 14067 14068 14069 14070
          14071 14072 14073 14074 14075 14076
          14077 14078 14079 14080 14081 14082
          14083 14084 14085 14086 14087 14088
          14089 14090 14091 14092 14093 14094
          14095 14096 14097 14098 14099 14100
          14101 14102 14103 14104 14105 14106
          14107 14108 14109 14110 14111 14112
          14113 14114 14115 14116 14117 14118
          14119 14120 14121 14122 14123 14124
          14125 14126 14127 14128 14129 14130
          14131 14132 14133 14134 14135 14136
          14137 14138 14139 14140 14141 14142
          14143 14144 14145 14146 14147 14148
          14149 14150 14151 14152 14153 14154
          14155 14156 14157 14158 14159 14160
          14161 14162 14163 14164 14165 14166
          14167 14168 14169 14170 2204 2451
          2453 2205 2456 2677 2826 2678
          2827 2830 2831 2833 2325 2835
          3384 3385 3388 3489 3492 3493
          3490 2670 2671 3496 3495 3700
          3701 3702 3705 2672 3358 2673
          5120 5121 5122 5125 5142 5199
          5143 5203 5146 5205 5207 5303
          5307 5304 5308 5310 5312 2516
          2521 3718 3719 3722 3752 3753
          3756 2683 3758 5261 5620 5262
          5265 5267 5295 5279 5637 5296
          5299 5643 5301 12205 12206 12207
          12210 3359 12213 5128 12227 12228
          12231 12233 3360 12294 12295 12298
          12300 12627 5148 12402 12403 12405
          5162 12408 5163 12418 12420 12422
          5165 12436 12437 12439 2680 12442
          5168 12452 12454 12456 3366 12522
          12780 12524 12781 12526 12784 5178
          5232 12797 12798 12801 12803 5234
          12550 12817 12552 12818 12554 12821
          5182 5236 12830 12832 12834 5238
          13121 13122 13125 13127 13140 13142
          13144
        </DataArray>
        <DataArray type="Float64" Name="bounds" format="ascii" RangeMin="0" RangeMax="0">
          0 0 0 0 0 0
          0 0 0 0 0 0
          0 0 0 0 0 0
          0 0 0 0 0 0
          0 0 0 0 0 0
          0 0 0 0 0 0
          0 0 0 0 0 0
          0 0 0 0 0 0
          0 0 0 0 0 0
          0 0 0 0 0 0
          0 0 0 0 0 0
          0 0 0 0 0 0
          0 0 0 0 0 0
          0 0 0 0 0 0
          0 0 0 0 0 0
          0 0 0 0 0 0
          0 0 0 0 0 0
          0 0 0 0 0 0
          0 0 0 0 0 0
          0 0 0 0 0 0
          0 0 0 0 0 0
          0 0 0 0 0 0
          0 0 0 0 0 0
          0 0 0 0 0 0
          0 0 0 0 0 0
          0 0 0 0 0 0
          0 0 0 0 0 0
          0 0 0 0 0 0
          0 0 0 0 0 0
          0 0 0 0 0 0
          0 0 0 0 0 0
          0 0 0 0 0 0
          0 0 0 0 0 0
          0 0 0 0 0 0
          0 0 0 0 0 0
          0 0 0 0 0 0
          0 0 0 0 0 0
          0 0 0 0 0 0
          0 0 0 0 0 0
          0 0 0 0 0 0
          0 0 0 0 0 0
          0 0 0 0 0 0
          0 0 0 0 0 0
          0 0 0 0 0 0
          0 0 0 0 0 0
          0 0 0 0 0 0
          0 0 0 0 0 0
          0 0 0 0 0 0
          0 0 0 0 0 0
          0 0 0 0 0 0
          0 0 0 0 0 0
          0 0 0 0 0 0
          0 0 0 0 0 0
          0 0 0 0 0 0
          0 0 0 0 0 0
          0 0 0 0 0 0
          0 0 0 0 0 0
          0 0 0 0 0 0
          0 0 0 0 0 0
          0 0 0 0 0 0
          0 0 0 0 0 0
          0 0 0 0 0 0
          0 0 0 0 0 0
          0 0 0 0 0 0
          0 0 0 0 0 0
          0 0 0 0 0 0
          0 0 0 0 0 0
          0 0 0 0 0 0
          0 0 0 0 0 0
          0 0 0 0 0 0
          0 0 0 0 0 0
          0 0 0 0 0 0
          0 0 0 0 0 0
          0 0 0 0 0 0
          0 0 0 0 0 0
          0 0 0 0 0 0
          0 0 0 0 0 0
          0 0 0 0 0 0
          0 0 0 0 0 0
          0 0 0 0 0 0
          0 0 0 0 0 0
          0 0 0 0 0 0
          0 0 0 0 0 0
          0 0 0 0 0 0
          0 0 0 0 0 0
          0 0 0 0 0 0
          0 0 0 0 0 0
          0 0 0 0 0 0
          0 0 0 0 0 0
          0 0 0 0 0 0
          0 0 0 0 0 0
          0 0 0 0 0 0
          0 0 0 0 0 0
          0 0 0 0 0 0
          0 0 0 0 0 0
          0 0 0 0 0 0
          0 0 0 0 0 0
          0 0 0 0 0 0
          0 0 0 0 0 0
          0 0 0 0 0 0
          0 0 0 0 0 0
          0 0 0 0 0 0
          0 0 0 0 0 0
          0 0 0 0 0 0
          0 0 0 0 0 0
          0 0 0 0 0 0
          0 0 0 0 0 0
          0 0 0 0 0 0
          0 0 0 0 0 0
          0 0 0 0 0 0
          0 0 0 0 0 0
          0 0 0 0 0 0
          0 0 0 0 0 0
          0 0 0 0 0 0
          0 0 0 0 0 0
          0 0 0 0 0 0
          0 0 0 0 0 0
          0 0 0 0 0 0
          0 0 0 0 0 0
          0 0 0 0 0 0
          0 0 0 0 0 0
          0 0 0 0 0 0
          0 0 0 0 0 0
          0 0 0 0 0 0
          0 0 0 0 0 0
          0 0 0 0 0 0
          0 0 0 0 0 0
          0 0 0 0 0 0
          0 0 0 0 0 0
          0 0 0 0 0 0
          0 0 0 0 0 0
          0 0 0 0 0 0
          0 0 0 0 0 0
          0 0 0 0 0 0
          0 0 0 0 0 0
          0 0 0 0 0 0
          0 0 0 0 0 0
          0 0 0 0 0 0
          0 0 0 0 0 0
          0 0 0 0 0 0
          0 0 0 0 0 0
          0 0 0 0 0 0
          0 0 0 0 0 0
          0 0 0 0 0 0
          0 0 0 0 0 0
          0 0 0 0 0 0
          0 0 0 0 0 0
          0 0 0 0 0 0
          0 0 0 0 0 0
          0 0 0 0 0 0
          0 0 0 0 0 0
          0 0 0 0 0 0
          0 0 0 0 0 0
          0 0 0 0 0 0
          0 0 0 0 0 0
          0 0 0 0 0 0
          0 0 0 0 0 0
          0 0 0 0 0 0
          0 0 0 0 0 0
          0 0 0 0 0 0
          0 0 0 0 0 0
          0 0 0 0 0 0
          0 0 0 0 0 0
          0 0 0 0 0 0
          0 0 0 0 0 0
          0 0 0 0 0 0
          0 0 0 0 0 0
          0 0 0 0 0 0
          0 0 0 0 0 0
          0 0 0 0 0 0
          0 0 0 0 0 0
          0 0 0 0 0 0
          0 0 0 0 0 0
          0 0 0 0 0 0
          0 0 0 0 0 0
          0 0 0 0 0 0
          0 0 0 0 0 0
          0 0 0 0 0 0
          0 0 0 0 0 0
          0 0 0 0 0 0
          0 0 0 0 0 0
          0 0 0 0 0 0
          0 0 0 0 0 0
          0 0 0 0 0 0
          0 0 0 0 0 0
          0 0 0 0 0 0
          0 0 0 0 0 0
          0 0 0 0 0 0
          0 0 0 0 0 0
          0 0 0 0 0 0
          0 0 0 0 0 0
          0 0 0 0 0 0
          0 0 0 0 0 0
          0 0 0 0 0 0
          0 0 0 0 0 0
          0 0 0 0 0 0
          0 0 0 0 0 0
          0 0 0 0 0 0
          0 0 0 0 0 0
          0 0 0 0 0 0
          0 0 0 0 0 0
          0 0 0 0 0 0
          0 0 0 0 0 0
          0 0 0 0 0 0
          0 0 0 0 0 0
          0 0 0 0 0 0
          0 0 0 0 0 0
          0 0 0 0 0 0
          0 0 0 0 0 0
          0 0 0 0 0 0
          0 0 0 0 0 0
          0 0 0 0 0 0
          0 0 0 0 0 0
          0 0 0 0 0 0
          0 0 0 0 0 0
          0 0 0 0 0 0
          0 0 0 0 0 0
          0 0 0 0 0 0
          0 0 0 0 0 0
          0 0 0 0 0 0
          0 0 0 0 0 0
          0 0 0 0 0 0
          0 0 0 0 0 0
          0 0 0 0 0 0
          0 0 0 0 0 0
          0 0 0 0 0 0
          0 0 0 0 0 0
          0 0 0 0 0 0
          0 0 0 0 0 0
          0 0 0 0 0 0
          0 0 0 0 0 0
          0 0 0 0 0 0
          0 0 0 0 0 0
          0 0 0 0 0 0
          0 0 0 0 0 0
          0 0 0 0 0 0
          0 0 0 0 0 0
          0 0 0 0 0 0
          0 0 0 0 0 0
          0 0 0 0 0 0
          0 0 0 0 0 0
          0 0 0 0 0 0
          0 0 0 0 0 0
          0 0 0 0 0 0
          0 0 0 0 0 0
          0 0 0 0 0 0
          0 0 0 0 0 0
          0 0 0 0 0 0
          0 0 0 0 0 0
          0 0 0 0 0 0
          0 0 0 0 0 0
          0 0 0 0 0 0
          0 0 0 0 0 0
          0 0 0 0 0 0
          0 0 0 0 0 0
          0 0 0 0 0 0
          0 0 0 0 0 0
          0 0 0 0 0 0
          0 0 0 0 0 0
          0 0 0 0 0 0
          0 0 0 0 0 0
          0 0 0 0 0 0
          0 0 0 0 0 0
          0
        </DataArray>
        <DataArray type="Float64" Name="gradient_error" format="ascii" RangeMin="8.831005264643419e-15" RangeMax="2.502731346368118e-7">
          5.1277915307605385e-9 4.4547675626182585e-9 7.718809219350678e-9 5.876174181908531e-9 1.2993611893198667e-8 8.540256568960995e-9
          1.8220827982251543e-8 1.1024515245606192e-8 1.6151679683454856e-8 9.594040520711313e-9 7.007566758647859e-9 4.478422189617336e-9
          1.3844494968763743e-9 1.2514256711074015e-9 8.777314337108563e-10 7.694818496710099e-10 5.129745603288768e-10 4.5643707130710967e-10
          2.266055448988535e-10 2.1707179185245578e-10 2.2320946357399192e-9 2.366606984370621e-9 2.4055065186368726e-9 2.270827403587086e-9
          1.8123790988787943e-9 1.1692183990219209e-9 6.776587264536428e-10 4.0849181127847055e-10 2.526165131287961e-10 1.326738560584223e-10
          6.824456770038597e-10 6.996748242748564e-10 7.241117925504224e-10 7.134522982133322e-10 5.88356839789814e-10 3.891591774570284e-10
          2.3691560756885676e-10 1.557513569257776e-10 1.0533344397224956e-10 5.780967331078654e-11 1.518168840860951e-8 3.083536356457652e-8
          1.8147255823300962e-8 2.8591968205518918e-8 2.3942378440714083e-8 2.727117792822463e-8 7.379730517645006e-8 4.934250406565115e-8
          6.921211827282879e-8 4.3574238183551914e-8 7.451479010977488e-9 9.86265709562633e-9 2.383124737240297e-9 4.281322926964922e-9
          1.666940967903367e-9 2.3040300425408227e-9 9.717716781026957e-10 1.324128246431895e-9 4.418577474259432e-10 6.503924718019707e-10
          2.561515066484799e-8 2.2504703473910993e-8 1.916379702980039e-8 1.558511088586135e-8 1.1348483253402721e-8 6.941388805096154e-9
          3.769489161249753e-9 2.054872399684314e-9 1.1218273846932122e-9 5.326394849740257e-10 2.4071322746285856e-9 2.8366736714435608e-9
          3.084353526651454e-9 3.0639783005925577e-9 2.525235399248824e-9 1.6264137186105938e-9 9.339441073338392e-10 5.840545479910756e-10
          3.7619490869890407e-10 1.9722325547916902e-10 1.1496234459895192e-7 8.192845679139514e-8 1.2302561518118343e-7 7.94925372472345e-8
          1.3120355850443282e-7 7.603231639610631e-8 1.811763989290506e-7 9.384638391574166e-8 1.8973580314318584e-7 8.892842825092139e-8
          3.56773792101109e-8 5.787353681788275e-8 2.8759596637953142e-8 4.73633645289969e-8 1.8741842912175746e-8 3.561363563843471e-8
          9.658167941091671e-9 2.309853543338051e-8 6.983700758684512e-9 3.2990164871601705e-13 2.5584741937940386e-13 8.996967634249724e-14
          6.941375684890387e-14 3.012848349741586e-8 2.5638324232062574e-8 2.1235744434407792e-8 1.6956703933289825e-8 1.2222508960727081e-8
          7.351631365972363e-9 3.953874221373899e-9 2.1848018767733225e-9 1.2177754287424458e-9 5.783450149870428e-10 6.094374971892281e-9
          5.484926241631524e-9 5.195384402893563e-9 5.0331671847198414e-9 4.247576238057262e-9 2.770105167863818e-9 1.5800635282340137e-9
          1.0414472804079477e-9 7.093880227875334e-10 3.452888456645783e-10 1.2173342226117114e-7 1.2457802390704385e-7 1.4519300716668655e-7
          1.3569861800777906e-7 1.758988354747043e-7 1.4776654050539401e-7 1.151586455907405e-7 1.5986131334389988e-7 2.190927058061173e-8
          1.7032058115077154e-7 2.9766737773699482e-8 5.083036542332014e-8 4.293303756914046e-8 4.383274433531679e-8 6.815659251124004e-8
          3.288696766910527e-8 6.422457650772706e-8 1.948862254308642e-8 2.846246450523533e-14 1.0966280517180562e-13 6.834572574562298e-14
          8.609873610122447e-14 6.696908296710008e-14 1.5288839424605418e-8 1.2230372603616596e-8 9.49296005299032e-9 7.116204407649906e-9
          4.679705449851504e-9 2.2537369415026428e-9 1.8616473097141465e-9 1.8512968342002074e-9 1.2000878375635495e-9 3.646384758099312e-10
          8.479429952973706e-9 6.443888593921135e-9 5.415003225571869e-9 5.11122583557958e-9 4.408551276154705e-9 2.9233849308400107e-9
          1.6783615177178469e-9 1.1677727327812525e-9 8.370020562013987e-10 3.89642254332832e-10 5.7886953052661695e-9 1.8887107283029415e-8
          2.6833042839823826e-8 1.0721924094603436e-7 3.892566113526163e-8 5.339438405497251e-8 7.537784849023295e-8 2.099344815946584e-8
          1.9822794558486954e-8 2.9498042971813583e-8 1.4647158394456392e-8 3.639475973674923e-8 1.1601227545991159e-7 1.2818384382786672e-8
          2.51772375353787e-13 6.02209511532863e-14 2.273939948686895e-13 1.8902884705431626e-13 1.4619478222118263e-13 1.1802902426467147e-13
          1.0222386060107689e-13 9.472358367604599e-14 7.991756620833599e-14 1.3191937479168935e-13 9.075414258540438e-14 5.6507603497810295e-14
          1.0144094826610371e-13 4.238004473725318e-14 5.761127181559511e-14 4.5830297272791505e-14 1.3890740692531284e-8 3.41158880916944e-8
          4.084480265976087e-8 8.286399630457468e-8 9.47775615768739e-8 7.841852404869534e-8 7.929854135446728e-8 3.798394748068676e-8
          3.9232652941699804e-8 4.821566356372781e-8 9.026827710925346e-8 9.892245591534269e-8 8.466477922596051e-8 2.6345435441104224e-8
          3.495620106716701e-10 8.783441124894188e-10 2.8706040700438284e-10 1.442051500858207e-9 7.518461124313418e-8 7.860846219769547e-8
          9.441329950946148e-8 1.0817265565262562e-7 5.683215750551661e-8 8.185754701577006e-8 1.2125709014304615e-7 4.579203507290452e-8
          2.741657228030032e-8 3.8242084385412775e-8 7.289282600887673e-8 8.827645535228528e-8 1.0208334810792607e-7 4.794787617551097e-8
          1.1973919096484227e-8 5.524725571725313e-8 1.067322406792214e-7 2.4922757843221775e-8 8.728482776695813e-8 1.8879259149536905e-13
          8.041607474260415e-14 6.928914007484615e-14 7.084742667750284e-14 9.405467438798195e-14 7.465833352051154e-14 6.662289900519854e-14
          7.786832933015107e-14 6.010177862450191e-14 4.573974135759583e-14 8.658881849508408e-14 6.505543756530208e-14 5.0864719156549686e-14
          3.91988586469584e-14 3.1797974396684777e-14 1.200898198717059e-13 7.136946536097971e-14 8.437113377300831e-14 2.9546767502440435e-14
          4.973392425710943e-10 1.7591384793472842e-9 1.6598260131219433e-9 1.5605135468966017e-9 5.365811205552067e-10 1.1877136294288898e-9
          2.4689479400245315e-9 4.705838990906776e-9 3.340589825791445e-10 6.20709785574214e-10 9.777552772633273e-10 4.4013147594938565e-9
          8.223964352384663e-9 9.073605885692836e-10 3.44431163793298e-8 3.6515283650606735e-8 4.385718874902695e-8 4.530935986316624e-8
          3.1517374604164114e-8 3.2098537092076104e-8 1.525910499049673e-8 1.8060962810449058e-8 2.1010798991217808e-8 1.50714203243548e-8
          5.32712611187241e-8 5.410343607572576e-8 3.306082585216252e-8 2.0862820630401384e-8 1.2426695462734777e-13 7.930103032772899e-14
          6.280911092388891e-14 3.5127787277518886e-14 2.510676839112796e-8 2.459578865523354e-8 2.2938121353787592e-8 1.7573117729937133e-8
          1.9029311033903894e-8 2.1439655401730304e-8 1.9751889097142233e-8 2.6975617814941003e-8 2.086915570183689e-8 2.339115629758996e-8
          2.3726892715028917e-8 2.379463649309403e-8 2.2142063350338985e-8 2.5950602363328937e-8 1.3094447811485633e-8 1.7486890906956317e-8
          1.632716113405227e-8 1.9044821546940383e-8 2.3173410064640588e-8 2.1314492893550878e-8 2.0231189515463814e-8 2.2306965295149638e-8
          2.1456432981612628e-8 2.1514446118789657e-8 2.38599398568075e-8 1.961792548069324e-8 2.0874657373667936e-8 2.0347996840902953e-8
          1.857648510351431e-8 2.3299437696748404e-8 2.2681676447761442e-8 2.4618180341266038e-8 2.2131389266642633e-8 1.3629373666454496e-13
          1.1604456548948873e-13 7.19163479953679e-14 7.321868013536414e-14 6.457415226373301e-14 6.383015989358148e-14 6.413091533649841e-14
          9.049092562384195e-14 6.667978250783305e-14 7.122426488575528e-14 1.4561601795747289e-13 1.0967573349072901e-13 5.919799156091223e-14
          7.19122392097716e-14 7.808767917834263e-14 8.77597506582728e-14 5.244857604934859e-14 7.353728389694876e-14 6.010800167684788e-14
          6.924837791037682e-14 4.801046768519543e-14 1.0164495368278349e-13 8.735015225968504e-14 7.121993261948944e-14 7.266984776773255e-14
          6.313317145975184e-14 7.43746454003579e-14 6.349392931885698e-14 3.375272427753978e-14 7.813394782398443e-14 6.593660614874717e-14
          4.1852315996939907e-14 5.505867808619386e-14 4.057898983177668e-14 8.454242211906639e-14 7.277399832590565e-14 9.812048801995456e-14
          7.081035777383614e-14 8.234610132497841e-10 7.56145270728433e-10 9.05396638938676e-10 4.2702455032887204e-9 3.0092975234078494e-9
          2.6733001408613966e-9 3.352689195003417e-9 6.888295282070816e-10 2.337302758314943e-9 2.435132886718113e-9 7.247155227825967e-9
          3.193011915070207e-8 2.6742066600674755e-8 2.155401405064744e-8 1.0116621576142037e-7 9.013980628531235e-8 8.544386294436759e-8
          1.0648614549159611e-7 1.2080428800657397e-7 1.219352744640304e-7 1.0943785349172928e-7 7.131742374230552e-8 9.59852378610968e-8
          8.997128264036531e-8 1.054212032971693e-7 1.1885266657258357e-7 1.0431016371862304e-7 1.0718354092045175e-7 2.0224261629502734e-8
          1.9935280989380202e-8 1.786999697441636e-8 1.6462779854992462e-8 1.6669895296446496e-8 1.7902186524983427e-8 1.691039704872912e-8
          1.9646300349257677e-8 1.913447775352036e-8 1.7358014242465782e-8 1.3115528963390258e-8 1.5869092060586646e-8 1.5950797123041885e-8
          1.8622655157783037e-8 1.9648233437257634e-8 2.4057666048734397e-8 2.2930989009450054e-8 2.062075084891948e-8 7.148917363972486e-14
          6.566957987894191e-14 1.4193322027100478e-13 1.2494162297077853e-13 5.0864276637313806e-14 7.483443923444672e-14 6.601582771388063e-14
          5.523653276592693e-14 8.79706722318955e-14 4.7526948364375206e-14 1.3363515854104322e-13 1.255497881041005e-13 8.550007128409886e-14
          8.016302934551223e-14 5.6574491460786224e-14 6.671192565462796e-14 6.251748622230809e-14 1.0312249435917727e-13 8.675083539225112e-14
          7.365380849430697e-14 1.0474713331055086e-13 9.666130320507097e-14 6.673034040993748e-14 9.351767518398148e-14 7.585535360940448e-14
          3.923329796901439e-14 7.578370028060618e-14 5.4095765366054933e-14 5.97977322462773e-14 7.073810934301447e-14 2.808467054719226e-13
          2.5848588339638015e-13 1.2812049177971793e-13 1.1780158229770042e-13 2.0145613060714977e-13 9.161682368483323e-14 3.1318962996741657e-13
          2.926621220729737e-13 1.3596230299155937e-13 2.369836238527311e-13 5.901489663639946e-14 5.4845889173032484e-14 5.643616001168845e-14
          5.169203925195726e-14 4.617676020335947e-14 3.886384295008031e-14 4.642200680395895e-14 5.724237721399362e-14 5.070589315666573e-14
          5.993216990479227e-14 6.553556921416348e-14 6.147722287515873e-14 4.842536398296995e-14 4.8955352565503615e-14 6.003847737377718e-14
          5.5513847656500247e-14 7.548769539650111e-14 5.235050179997613e-14 5.690183531417989e-14 5.55236895422771e-14 6.771667212290438e-14
          4.80843415825636e-14 7.039349998107351e-14 6.47200391464416e-14 5.767231088907366e-14 6.771630631215951e-14 8.835468689427433e-14
          5.842513292704219e-14 7.824703472851975e-14 7.543263863649113e-14 9.731904694757087e-14 5.555197470190784e-14 5.2517333351100084e-14
          4.409568765997236e-14 5.4168840789453755e-14 3.3968209127766506e-14 4.347642259614988e-14 4.2979393422731954e-14 4.420608425410878e-14
          5.703053582872789e-14 3.85081974839132e-14 3.3524748227182615e-14 5.6451619066426746e-14 5.19905777176974e-14 6.985498740334697e-14
          6.510919553805091e-14 4.4885235820430845e-14 9.122534069350285e-9 9.717222806551833e-9 1.2204602960791257e-8 3.8015841234490503e-8
          3.5243609079958705e-8 2.988297914605853e-8 3.2644001445773927e-8 1.031191154375338e-8 2.4522349212158365e-8 2.7272161657057337e-8
          3.718396567370877e-14 2.9150375313996834e-14 2.78325586758308e-14 1.8331781970237108e-14 3.122595752420372e-14 2.307783553895545e-14
          1.658967178262474e-14 2.11167849542849e-14 8.831005264643419e-15 1.492971355370718e-14 2.0524075311323585e-8 1.9714813214394036e-8
          1.9833923804032217e-8 2.2308108009927966e-8 2.288671891862867e-8 2.175698531417841e-8 2.1147526872465303e-8 1.8905551117464487e-8