<?xml version="1.0"?>
<VTKFile type="UnstructuredGrid" version="0.1" byte_order="LittleEndian" header_type="UInt32" compressor="vtkZLibDataCompressor">
  <UnstructuredGrid>
    <Piece NumberOfPoints="976" NumberOfCells="600">
      <PointData>
        <DataArray type="Int32" Name="libmesh_node_id" format="ascii" RangeMin="988" RangeMax="8893">
          990 1070 1071 1158 1159 1167
          1168 1169 1170 1171 1172 1173
          1174 1175 1176 1177 1178 1179
          1180 1312 1335 1338 1340 1342
          1343 1344 1345 1346 1347 1348
          1349 1350 1351 1352 1353 1354
          1355 1478 1479 1480 1481 1482
          1483 1484 1485 1486 1487 1488
          1489 1490 1491 1492 1493 1494
          1495 1496 1497 1498 1499 1500
          1501 1942 1943 1944 1945 1946
          1947 1948 1949 1950 1951 1952
          1953 1954 1955 1956 1957 1958
          1959 1960 1961 1962 1963 1964
          1965 1966 1967 1968 1969 1970
          1971 1972 1973 1974 1975 1977
          1978 1979 1980 1981 1982 1983
          1984 1985 1986 1987 1988 2029
          2030 2031 2032 2033 2034 2035
          2036 2037 2038 2135 2136 2137
          2138 2139 2140 2141 2142 2143
          2144 2145 2146 2147 2148 2149
          2150 2151 2152 2153 2154 2155
          2156 2157 2158 2159 2160 2161
          2192 2193 2194 2195 2196 2197
          2198 2199 2200 2201 2202 2203
          2204 2205 2206 2207 2208 2209
          2210 2211 2212 2213 2214 2215
          3222 3223 3226 3229 3231 3232
          3233 3234 3235 3236 3237 3238
          3239 3240 3241 3242 3243 3244
          3247 3248 3251 3253 3255 3256
          3257 3258 3259 3260 3261 3262
          3263 3264 3267 3268 3270 3273
          3275 3276 3277 3278 3279 3280
          3281 3282 3283 3284 3286 3288
          3290 3292 3293 3294 3295 3296
          3297 3298 3299 3300 3301 3302
          3303 3304 3305 3306 3307 3308
          3309 3310 3311 3312 3313 3314
          3315 3316 3317 3318 3319 3320
          3321 3322 3323 3324 3325 3326
          3327 3328 3329 3330 3331 3332
          3333 3334 3335 3336 3337 3338
          3339 3340 3341 3342 3343 3344
          3345 3346 3347 3348 3349 3350
          3351 3352 3353 3354 3355 3356
          3357 3358 3359 3360 3361 3362
          3363 3374 3375 3376 3377 3378
          3379 3380 3381 3382 3383 3385
          3389 3391 3392 3393 3394 3395
          3396 3397 3400 3401 3404 3406
          3408 3409 3410 3411 3412 3413
          3414 3415 3416 3417 3500 3501
          3502 3503 3504 3505 3506 3579
          3580 3581 3582 3583 3584 3585
          3586 3587 3588 3596 3597 3598
          3599 3600 3601 3602 3603 3604
          3605 3606 3607 3608 3609 3610
          3611 3612 3663 3664 3665 3666
          3667 3668 3669 3670 3671 3672
          3673 3676 3677 3680 3681 3682
          3683 3684 3685 3686 3687 7946
          7947 7950 7953 7968 7971 7973
          7987 7988 7990 7993 8003 8005
          8007 8009 8010 8011 8012 8013
          8014 8015 8016 8017 8018 8019
          8020 8021 8022 8023 8024 8025
          8026 8027 8028 8029 8030 8031
          8032 8033 8034 8035 8036 8037
          8038 8039 8040 8041 8042 8043
          8044 8045 8046 8047 8048 8049
          8050 8051 8052 8053 8054 8055
          8056 8057 8058 8059 8060 8061
          8062 8063 8064 8065 8066 8067
          8068 8069 8070 8071 8072 8073
          8086 8087 8090 8092 8112 8122
          8124 8126 8136 8138 8140 8142
          8143 8144 8145 8146 8147 8148
          8149 8150 8151 8152 8153 8154
          8155 8156 8157 8158 8159 8160
          8161 8162 8163 8164 8165 8166
          8167 8168 8169 8170 8171 8172
          8173 8174 8175 8176 8177 8178
          8179 8180 8181 8182 8183 8184
          8185 8186 8187 8188 8201 8202
          8204 8207 8217 8219 8221 8235
          8236 8238 8241 8251 8253 8255
          8257 8258 8259 8260 8261 8262
          8263 8264 8265 8266 8267 8268
          8269 8270 8271 8272 8273 8274
          8275 8276 8277 8278 8279 8280
          8281 8282 8283 8284 8285 8286
          8287 8288 8289 8290 8291 8292
          8293 8294 8295 8296 8297 8298
          8299 8300 8301 8302 8303 8304
          8305 8306 8307 8308 8309 8310
          8311 8312 8313 8314 8315 8316
          8317 8318 8319 8320 8321 8322
          8323 8324 8333 8335 8337 8347
          8349 8351 8361 8363 8365 8375
          8377 8379 8381 8382 8383 8384
          8385 8386 8387 8388 8389 8390
          8391 8392 8393 8394 8395 8396
          8397 8398 8399 8400 8401 8402
          8403 8404 8405 8406 8407 8408
          8409 8410 8411 8412 8413 8414
          8415 8416 8417 8418 8419 8420
          8421 8422 8423 8424 8425 8426
          8427 8428 8429 8430 8431 8432
          8433 8434 8435 8436 8437 8438
          8439 8440 8441 8442 8443 8444
          8445 8446 8447 8448 8449 8450
          8451 8452 8453 8454 8455 8456
          8457 8458 8459 8460 8461 8462
          8463 8464 8465 8466 8467 8468
          8469 8470 8471 8472 8473 8474
          8475 8476 8477 8478 8479 8480
          8481 8482 8483 8484 8485 8486
          8487 8488 8489 8490 8491 8492
          8493 8494 8495 8496 8497 8498
          8499 8500 8501 8502 8503 8504
          8505 8506 8507 8508 8509 8510
          8511 8512 8513 8514 8515 8516
          8517 8518 8519 8520 8521 8522
          8523 8524 8525 8526 8527 8528
          8529 8530 8531 8532 8533 8534
          8535 8536 8537 8538 8539 8540
          8541 8542 8543 8544 8545 8546
          8547 8548 8549 8550 8551 8552
          8553 8554 8555 8556 8557 8558
          8559 8560 8561 8562 8563 8564
          8565 8566 8567 8568 8569 8570
          8571 8572 8573 8574 8575 8576
          8577 8578 8579 8580 8581 8582
          8583 8584 8585 8586 8587 8588
          8589 8590 8591 8592 8593 8594
          8595 8596 8597 8598 8599 8600
          8601 8602 8603 8604 8605 8606
          8607 8608 8609 8610 8611 8612
          8613 8614 8615 8616 8617 8618
          8619 8620 8621 8622 8623 8624
          8625 8626 8627 8628 8629 8630
          8631 8632 8633 8634 8635 8636
          8637 8638 8639 8640 8641 8642
          8643 8644 8645 8646 8647 8648
          8649 8650 8651 8652 8653 8654
          8655 8656 8657 8658 8659 8660
          8661 8662 8663 8664 8665 8666
          8667 8668 8669 8670 8671 8727
          8737 8741 8765 8767 8769 8785
          8786 8788 8789 8790 8791 8792
          8793 8794 8795 8796 8797 8798
          8799 8800 8801 8810 8812 8813
          8814 8815 8816 8817 8818 8819
          8820 8821 8822 8823 8824 8825
          8827 8829 8831 8833 8834 8835
          8836 8837 8838 8839 8840 8841
          8842 8877 8878 8879 8880 8881
          8882 8883 8884 8885 8886 8887
          8888 8889 8890 8891 8892 8893
          1157 989 1162 1334 1069 988
          1472 1473 1474 1477
        </DataArray>
        <DataArray type="Float64" Name="bounds" format="ascii" RangeMin="0" RangeMax="0">
          0 0 0 0 0 0
          0 0 0 0 0 0
          0 0 0 0 0 0
          0 0 0 0 0 0
          0 0 0 0 0 0
          0 0 0 0 0 0
          0 0 0 0 0 0
          0 0 0 0 0 0
          0 0 0 0 0 0
          0 0 0 0 0 0
          0 0 0 0 0 0
          0 0 0 0 0 0
          0 0 0 0 0 0
          0 0 0 0 0 0
          0 0 0 0 0 0
          0 0 0 0 0 0
          0 0 0 0 0 0
          0 0 0 0 0 0
          0 0 0 0 0 0
          0 0 0 0 0 0
          0 0 0 0 0 0
          0 0 0 0 0 0
          0 0 0 0 0 0
          0 0 0 0 0 0
          0 0 0 0 0 0
          0 0 0 0 0 0
          0 0 0 0 0 0
          0 0 0 0 0 0
          0 0 0 0 0 0
          0 0 0 0 0 0
          0 0 0 0 0 0
          0 0 0 0 0 0
          0 0 0 0 0 0
          0 0 0 0 0 0
          0 0 0 0 0 0
          0 0 0 0 0 0
          0 0 0 0 0 0
          0 0 0 0 0 0
          0 0 0 0 0 0
          0 0 0 0 0 0
          0 0 0 0 0 0
          0 0 0 0 0 0
          0 0 0 0 0 0
          0 0 0 0 0 0
          0 0 0 0 0 0
          0 0 0 0 0 0
          0 0 0 0 0 0
          0 0 0 0 0 0
          0 0 0 0 0 0
          0 0 0 0 0 0
          0 0 0 0 0 0
          0 0 0 0 0 0
          0 0 0 0 0 0
          0 0 0 0 0 0
          0 0 0 0 0 0
          0 0 0 0 0 0
          0 0 0 0 0 0
          0 0 0 0 0 0
          0 0 0 0 0 0
          0 0 0 0 0 0
          0 0 0 0 0 0
          0 0 0 0 0 0
          0 0 0 0 0 0
          0 0 0 0 0 0
          0 0 0 0 0 0
          0 0 0 0 0 0
          0 0 0 0 0 0
          0 0 0 0 0 0
          0 0 0 0 0 0
          0 0 0 0 0 0
          0 0 0 0 0 0
          0 0 0 0 0 0
          0 0 0 0 0 0
          0 0 0 0 0 0
          0 0 0 0 0 0
          0 0 0 0 0 0
          0 0 0 0 0 0
          0 0 0 0 0 0
          0 0 0 0 0 0
          0 0 0 0 0 0
          0 0 0 0 0 0
          0 0 0 0 0 0
          0 0 0 0 0 0
          0 0 0 0 0 0
          0 0 0 0 0 0
          0 0 0 0 0 0
          0 0 0 0 0 0
          0 0 0 0 0 0
          0 0 0 0 0 0
          0 0 0 0 0 0
          0 0 0 0 0 0
          0 0 0 0 0 0
          0 0 0 0 0 0
          0 0 0 0 0 0
          0 0 0 0 0 0
          0 0 0 0 0 0
          0 0 0 0 0 0
          0 0 0 0 0 0
          0 0 0 0 0 0
          0 0 0 0 0 0
          0 0 0 0 0 0
          0 0 0 0 0 0
          0 0 0 0 0 0
          0 0 0 0 0 0
          0 0 0 0 0 0
          0 0 0 0 0 0
          0 0 0 0 0 0
          0 0 0 0 0 0
          0 0 0 0 0 0
          0 0 0 0 0 0
          0 0 0 0 0 0
          0 0 0 0 0 0
          0 0 0 0 0 0
          0 0 0 0 0 0
          0 0 0 0 0 0
          0 0 0 0 0 0
          0 0 0 0 0 0
          0 0 0 0 0 0
          0 0 0 0 0 0
          0 0 0 0 0 0
          0 0 0 0 0 0
          0 0 0 0 0 0
          0 0 0 0 0 0
          0 0 0 0 0 0
          0 0 0 0 0 0
          0 0 0 0 0 0
          0 0 0 0 0 0
          0 0 0 0 0 0
          0 0 0 0 0 0
          0 0 0 0 0 0
          0 0 0 0 0 0
          0 0 0 0 0 0
          0 0 0 0 0 0
          0 0 0 0 0 0
          0 0 0 0 0 0
          0 0 0 0 0 0
          0 0 0 0 0 0
          0 0 0 0 0 0
          0 0 0 0 0 0
          0 0 0 0 0 0
          0 0 0 0 0 0
          0 0 0 0 0 0
          0 0 0 0 0 0
          0 0 0 0 0 0
          0 0 0 0 0 0
          0 0 0 0 0 0
          0 0 0 0 0 0
          0 0 0 0 0 0
          0 0 0 0 0 0
          0 0 0 0 0 0
          0 0 0 0 0 0
          0 0 0 0 0 0
          0 0 0 0 0 0
          0 0 0 0 0 0
          0 0 0 0 0 0
          0 0 0 0 0 0
          0 0 0 0 0 0
          0 0 0 0 0 0
          0 0 0 0 0 0
          0 0 0 0 0 0
          0 0 0 0 0 0
          0 0 0 0 0 0
          0 0 0 0
        </DataArray>
        <DataArray type="Float64" Name="gradient_error" format="ascii" RangeMin="4.4259739481868346e-14" RangeMax="1.4248707129804425e-10">
          1.0697553628412011e-12 2.8565457146567304e-13 5.24327291406507e-12 3.36434074809252e-11 1.873475591405793e-11 1.7946267117466306e-12
          4.598056690254746e-12 1.2447323889952744e-12 5.163819283295192e-12 1.3823455848778643e-12 6.665243443128159e-13 1.934809622902558e-12
          9.063596475198139e-12 1.6362953846647294e-11 4.006049789459095e-12 4.916998184029787e-13 2.3395485679148407e-12 2.2659975492773855e-12
          2.101095220257809e-11 2.7698818284060813e-11 2.0091596456591913e-11 3.4869526482283826e-11 2.5119895382395623e-11 5.150272088432716e-12
          4.403567471047141e-12 8.926563455697592e-13 6.084674043212557e-13 1.043570573127205e-12 2.0175444936918006e-13 3.241352729075348e-13
          4.311548773397929e-12 2.482015854239366e-12 9.734346447665118e-13 3.83099994421265e-12 8.938431575909639e-13 5.105408718910139e-13
          1.483072102284095e-12 3.1978502222531033e-13 2.789834721677368e-13 2.063741928882015e-13 2.6002497925198964e-13 2.1963025192079072e-13
          1.8144948334364795e-13 1.8304310398813169e-13 2.3818192211016335e-13 3.123714672418833e-13 1.8463672463261547e-13 1.3453617088395024e-13
          2.5466251992350063e-13 1.464559560554727e-13 3.8656101237360333e-13 6.477336158801524e-12 7.103688950681245e-12 4.116921085789958e-12
          4.98826151857404e-12 7.39108885006047e-12 1.06405889819887e-11 7.699698239257546e-12 7.790120196185965e-12 5.8596019513581224e-12
          1.3890089113916929e-11 1.1209794632531997e-12 8.375228640584292e-12 5.8059241489440134e-12 7.198376763441792e-13 1.095018030814026e-12
          7.599153110854756e-13 1.4706950319740407e-12 2.019139323871978e-12 5.649217830786092e-13 2.7545103043472873e-11 2.019589948814739e-11
          2.7330505734440174e-12 6.770783809723666e-12 3.242350409891352e-13 3.503763756341524e-13 1.573207579527821e-13 3.4208456744466013e-13
          2.1869187496638097e-13 2.675373833864316e-13 2.8669163029511944e-13 3.1138753496916533e-13 3.91364287664774e-13 4.083092063663944e-13
          4.024279168962622e-13 2.7911531209011736e-13 3.745258428430517e-13 5.659221120917346e-13 1.7624110650112975e-12 1.374531377631943e-12
          1.020501322703477e-12 1.1648745844553938e-12 2.4184745584161347e-12 2.8315868201569163e-12 1.5750183962678786e-12 9.159944182073313e-13
          3.3872531299208655e-12 3.1605462848599845e-13 5.419616337802634e-13 2.0477347246129753e-13 4.481892126853462e-13 3.9100680370683284e-13
          6.895678879829148e-13 2.812569121877888e-13 7.557365086031945e-13 6.374443310029766e-13 8.902815846729158e-13 5.773922126099269e-12
          4.930997971209066e-12 7.394579173979473e-12 6.375266489191754e-12 1.895922124393571e-12 2.392543848681096e-12 2.229980406252017e-12
          4.088073816318863e-12 5.355953804404036e-12 2.067416963822937e-12 3.2723066408719504e-12 3.0450430052107655e-12 1.9933191470353307e-12
          1.8378910978255807e-12 1.186480501842385e-12 8.954645998886347e-13 8.140503687651313e-13 2.47657942353697e-12 1.6436828788427941e-12
          8.625449956299712e-13 3.706903147380477e-13 3.297836318433194e-13 4.3621406726743354e-13 3.842354463561325e-13 2.541005966141642e-13
          2.423900737276938e-13 2.1265101058608545e-13 2.9940406753352463e-13 3.148865789600442e-13 1.7576345863010263e-13 1.7529812242520716e-12
          1.7803396770006982e-12 8.17387940661331e-13 8.826180169943768e-13 1.3705829709797844e-12 1.9478671542602227e-12 7.754107300398085e-13
          1.0891417468582217e-13 1.0299741289146576e-13 2.417655979347415e-13 2.037182536598112e-13 6.189516222138705e-14 1.0085937280645573e-13
          9.6277599475074e-14 9.708065109710937e-14 1.6567090938488094e-13 9.169582614369226e-14 3.746170211836609e-13 3.044390944281567e-13
          1.3066003672876095e-13 2.342611676726525e-13 2.2685496368464007e-12 2.92908225602457e-12 1.4168750948380613e-12 1.6764125620383084e-12
          1.6474795283169404e-12 1.86408488610032e-12 1.4897437262060328e-12 3.589614875202739e-12 1.935950029238556e-12 2.0806902438836996e-12
          2.0018730568582675e-12 1.8547210985680706e-12 1.4760438541890482e-12 7.637276131661965e-12 9.11110810741403e-13 8.604705384336138e-13
          1.090643469829758e-12 1.014717057117335e-12 8.682468600442363e-13 7.736325120918836e-13 7.238897020474262e-13 7.240013387655909e-13
          8.194215046032176e-13 5.925430434171139e-13 3.1307453445863484e-12 2.855309274084593e-12 9.995834268682238e-13 2.170901324205926e-12
          1.0724674414434457e-12 1.2102954050835568e-12 1.2878956147046125e-12 3.7088882325030546e-12 7.826018688236271e-13 8.011992826910034e-13
          5.457338045014648e-13 5.312574248022893e-13 9.088514264771887e-13 8.883439509716897e-13 6.112786846698775e-13 1.3860357207203608e-12
          5.708266195513871e-13 8.870660106163304e-13 2.3270663394667964e-11 2.115815280849103e-11 1.5864455481811856e-11 2.5634511134964313e-11
          8.757206549361768e-12 7.954970460265856e-12 3.077186533378315e-12 2.794049494307951e-12 5.9522302039028264e-12 2.0880788041305913e-12
          1.0649798410882618e-11 9.862657668686704e-12 3.5336631598376767e-12 7.691579564458623e-12 9.78831344357648e-12 5.0089540680163955e-12
          1.2999501947875523e-11 3.665549683537478e-12 1.2839791788486217e-12 1.8715522149826745e-12 6.528692126157845e-13 4.907161250840104e-12
          1.73255725366713e-12 2.543010845269546e-12 4.4665014899192665e-13 4.161987951358483e-13 2.826421099423381e-13 3.3829485030361637e-13
          1.4066070228348934e-13 1.4716036372279192e-13 2.1418544635796998e-13 3.416719409981551e-13 3.4010972217748354e-13 2.8887882953981666e-13
          3.5813016832742133e-13 3.8764995806250347e-13 2.137961831023523e-13 3.5824488100617765e-13 2.544369818726253e-13 3.533093292427112e-13
          1.4287617621761875e-13 2.654284502773238e-13 1.8342027516358865e-13 3.382116970761096e-13 1.8526763091883255e-13 3.356416637815298e-13
          2.770213803713159e-13 3.4873675931841127e-13 1.0095777097270197e-12 9.159842140171788e-13 3.0771774723770606e-13 2.784623456191084e-13
          6.842014598416957e-13 2.4829910392845693e-13 1.284140524913744e-12 1.1802354337456982e-12 3.6831470921112687e-13 9.06284583114074e-13
          1.5090077666961498e-13 1.3942305346620039e-13 2.0794557905016432e-13 1.9015744006280964e-13 1.4571855804668128e-13 3.0361038956322975e-13
          2.7878613163165737e-13 1.847804566372111e-13 1.9782942032324797e-13 2.1887181544332434e-13 2.663398780188497e-13 2.4479228462426295e-13
          3.4751962577888577e-13 1.881433723136019e-13 4.195748115052354e-13 2.428066556939442e-13 3.2884869183777704e-13 3.5210611074993496e-13
          5.715410447851285e-13 2.6194390439108023e-13 4.357677054292819e-13 2.442589123794335e-13 2.355450372814086e-13 1.2908350441820404e-13
          1.6096425650842047e-13 1.8888339126939292e-13 2.4933560692435305e-13 1.381467558302773e-13 2.2962208083246955e-13 1.928450085986369e-13
          3.0978782257931323e-13 7.031208056049976e-13 8.799021542262911e-13 2.974226204079878e-13 5.203931486683577e-13 5.305950243831718e-13
          8.96319897144232e-13 3.6739292079997104e-13 9.473692237998641e-13 7.077855569099654e-13 1.148773765071161e-12 2.1720931136529715e-12
          2.912166835769116e-12 9.660104974063794e-13 6.161546081299107e-13 1.1547288539382885e-12 8.738512263408242e-13 1.0872963313436262e-12
          5.604059157444193e-13 1.2091616946115872e-12 1.2820635466424179e-12 1.407770143443293e-12 1.4719525790473833e-12 1.680659906789026e-12
          3.1381003050500256e-13 4.449352722024143e-13 2.4710238477037026e-13 4.3263755730502905e-13 3.1291844574671076e-13 5.213095767714445e-13
          2.695741049880491e-13 5.489810056198595e-13 5.31110507317928e-13 6.294821955300791e-13 3.6994191261362044e-13 3.2953618004501206e-13
          2.886601265740627e-13 2.1963648856447096e-13 4.299526391087826e-13 3.615560276147674e-13 2.706580073132138e-13 5.761045399851024e-14
          6.494909579027594e-14 1.0835525073816088e-13 1.0698270627527899e-13 4.944082944087131e-14 5.900330508679015e-14 6.541265402490242e-14
          7.228773758204165e-14 1.0561016181239705e-13 7.182200296301467e-14 8.713078473763239e-13 1.0835423853263228e-12 5.504628377756267e-13
          6.595464491611152e-13 5.552568757716932e-13 6.083830022424249e-13 4.3942356730147755e-13 1.295776923276322e-12 7.686300605466037e-13
          6.615091287131568e-13 1.3611232560937257e-13 2.1180261663091192e-13 9.506122486382711e-14 1.2755069355621872e-13 1.166616239202784e-13
          1.64680778700445e-13 1.0718848803311364e-13 1.1969577806520121e-12 3.2783519946763516e-13 3.1357673931693e-13 5.625855927138721e-13
          5.370940533257686e-13 2.0093986876949814e-13 2.8816149792891465e-13 2.762295155799254e-13 2.7964720760049425e-13 4.666965770347975e-13
          2.448457209051096e-13 5.445775279531776e-13 9.31767272410805e-13 7.704896835924939e-13 2.456188039377065e-13 3.7059768662137807e-13
          1.584519789609824e-13 2.2054784331083656e-13 2.312614718406493e-13 3.194047331108262e-13 2.1570177804239015e-13 9.561990876099908e-13
          9.397984350323944e-13 8.920562594969217e-13 1.9639715850324018e-12 8.176446801383042e-13 7.253719616163195e-13 1.686487231666937e-12
          4.152733108577443e-12 4.066033546056305e-12 3.817180675703842e-12 8.184005329520124e-12 3.4373052914582714e-12 2.9707619632541646e-12
          6.809515438850641e-12 3.9675828283890383e-13 3.902276176464494e-13 5.858578025973073e-13 5.757673981726405e-13 3.142911729563924e-13
          4.411534847082094e-13 4.335038465859693e-13 3.712386073329906e-13 5.467231172176066e-13 4.1194154202634103e-13 1.235470468021753e-12
          1.2120906711683824e-12 8.607054592882045e-13 1.1448181607987376e-12 3.4134772926636057e-13 5.015073382950312e-13 2.750723499023477e-13
          3.784959109726228e-13 3.055113220785233e-13 4.4502420216595765e-13 3.3558437339395197e-13 1.0412890153805896e-12 7.383469258936298e-13
          9.111242375086671e-13 2.573681558608943e-12 2.519980119140762e-12 1.5643541530333267e-12 1.5317147646478157e-12 2.3657613797234596e-12
          1.437898465207597e-12 5.1630841887482675e-12 5.045245215160036e-12 3.0593932444993457e-12 4.708301468895465e-12 6.010213110634942e-13
          5.892417671381144e-13 9.252185369255371e-13 9.059384307019611e-13 3.4027570054383695e-13 5.394117036900639e-13 5.282876162338217e-13
          5.551590421861873e-13 8.504522064063357e-13 4.960564591974483e-13 1.8673687767016095e-12 1.8249667283973178e-12 1.0703395206415387e-12
          1.7035682047052329e-12 2.1303317687572333e-12 1.2947415311098683e-12 1.8405017818780184e-12 1.1181443755379792e-12 4.1980593039688004e-12
          2.546052103499586e-12 3.579266688029853e-12 5.029069831095809e-13 7.656787122508299e-13 2.909596539355246e-13 4.4653347598145596e-13
          4.3848650969523006e-13 6.613307891500879e-13 3.8608996217991635e-13 1.5193391290012606e-12 8.918334716445819e-13 1.2951776400342148e-12
          4.2656474987873157e-13 6.177934733600236e-13 5.605185731159727e-13 1.2408518363078822e-12 9.179230045927468e-13 2.4718129659393344e-12
          1.9797625515409824e-12 4.738825369394253e-12 1.5219420555033563e-12 1.1254485105392804e-12 2.7893194471609842e-12 2.775892733202335e-13
          3.805864915084053e-13 2.238743028787735e-13 2.9316156171603294e-13 2.680710988041552e-13 3.463700145877184e-13 2.7411732300045457e-13
          7.602452546714663e-13 5.400322023599753e-13 6.97523229532235e-13 1.5270899796869238e-12 9.259573519964682e-13 1.2168775080786454e-12
          7.36663027206541e-13 2.9214653788292697e-12 1.7721428718140694e-12 2.286093384873745e-12 3.692926133976034e-13 5.483534866664557e-13
          2.1860200325751123e-13 3.184679711704278e-13 3.0073369162703655e-13 4.358486967764607e-13 2.8163441277489317e-13 1.0581870983795912e-12
          6.175665065223316e-13 8.277019847777624e-13 6.472962948607422e-13 9.331740549805852e-13 3.9530128825902897e-13 5.613107876517447e-13
          4.872817382268844e-13 6.881699033659203e-13 4.621415940738851e-13 1.720953345430825e-12 1.0391118302989083e-12 1.2448337107770666e-12
          2.399944125211756e-13 3.3122699217981064e-13 1.8576492383326641e-13 2.479565661784043e-13 2.130917542525463e-13 2.819133220068087e-13
          2.1675705468536404e-13 6.153303449332987e-13 4.177449333265843e-13 4.972210030696671e-13 1.5405770770391086e-11 1.5034947723827734e-11
          1.397627968536538e-11 2.2724697461123733e-11 1.2378536580085086e-11 1.0451269147034064e-11 1.8772801455650435e-11 2.721520485507622e-11
          2.667002343788483e-11 2.507189473584049e-11 2.7066972775825195e-11 2.2548014696264372e-11 1.933636143493545e-11 2.3291780693333126e-11
          9.499555190647931e-12 9.270667792806551e-12 5.760476386305416e-12 5.621685218494668e-12 8.617279482184156e-12 5.225460407843676e-12
          1.439876147788549e-11 1.4059075921199194e-11 8.549704481140592e-12 1.3085014839512125e-11 3.4351981198625422e-12 3.35260028661285e-12
          2.0145806954626414e-12 1.9665659952505433e-12 3.1166705710589717e-12 1.8290640842554743e-12 5.235641311179023e-12 5.111197098409686e-12
          3.0039412274917133e-12 4.754614120750346e-12 7.631410052902398e-12 4.627567112932732e-12 6.442653950432131e-12 3.906851434907483e-12
          1.1603497117287243e-11 7.0512174161791116e-12 9.799756685513702e-12 2.7603338527430477e-12 1.6205721178569863e-12 2.33049179816896e-12
          1.3680857090047173e-12 4.213050833899535e-12 2.4752581089836276e-12 3.5551062832898705e-12 1.6978715025979236e-11 1.6631301969108378e-11
          1.0405508737172639e-11 1.0188609346448323e-11 1.5615929414568217e-11 9.556316901564025e-12 1.7284228603516906e-11 1.6972383325755002e-11
          1.0451123279077209e-11 1.6043879241641242e-11 6.265464800068045e-12 6.13270949013067e-12 3.707025726601433e-12 3.6273052317614833e-12
          5.746585464315885e-12 3.395928305253928e-12 6.444721426887489e-12 6.320926994138841e-12 3.755480489681357e-12 5.955892790465044e-12
          1.4020255262437847e-11 8.566926846578165e-12 1.2000986068094165e-11 7.321015035028595e-12 1.4539970242245398e-11 8.917371289065142e-12
          1.2572525460957578e-11 5.144692548670618e-12 3.0365412736418925e-12 4.390039748928379e-12 2.5877483890249346e-12 5.373723318417823e-12
          3.1821509197687263e-12 4.624670316151453e-12 8.41976104309396e-12 6.482018706958583e-12 1.2766836779140438e-11 4.77881414934815e-12
          3.383044217139771e-12 7.159728405974109e-12 1.57706618746972e-11 1.221733201240987e-11 1.664046599461716e-11 8.99275428694569e-12
          6.301555785807357e-12 9.62701301189911e-12 5.189997083628173e-12 3.1477991498134654e-12 3.9954011784161505e-12 2.423528731436502e-12
          7.881567545823922e-12 4.7850436466031615e-12 6.039752200475479e-12 1.879608951254077e-12 1.1035346364042447e-12 1.449344509946181e-12
          8.502452756085931e-13 2.856816126332929e-12 1.67722218439698e-12 2.187507258277382e-12 2.948196994144259e-12 1.7888782855862972e-12
          2.0892283238306334e-12 1.2651758605408967e-12 4.415683008485381e-12 2.6785795529162784e-12 3.0876367949294323e-12 1.0675900724989049e-12
          6.245494180262633e-13 7.49770931078414e-13 4.373618710533007e-13 1.597849840960746e-12 9.377497423712012e-13 1.115208791113025e-12
          9.770729884250556e-12 5.951282617316475e-12 7.557809286626286e-12 4.597443060625136e-12 1.0332661246178566e-11 6.306881308155039e-12
          8.054534396431003e-12 3.5639238509477283e-12 2.0983431940598164e-12 2.7503851393223706e-12 1.6183923872906808e-12 3.7844735149138786e-12
          2.2325122181728432e-12 2.9400045143526986e-12 5.556438935898646e-12 3.3765976618166004e-12 3.890407955901766e-12 2.3625336753370326e-12
          5.9550509673538234e-12 3.6228894154198827e-12 4.183389616556757e-12 2.0184160151136624e-12 1.187594880288646e-12 1.4107656574366354e-12
          8.285961221379737e-13 2.16811137527549e-12 1.277245816159311e-12 1.5201915350800838e-12 2.0151262140457815e-13 1.9897625670906382e-13
          3.1187384159896015e-13 3.050109302875615e-13 1.1981286731973872e-13 1.792461025484406e-13 1.7380212289841852e-13 1.8966486928493476e-13
          2.8554299376972887e-13 1.783380649101212e-13 6.312520859928209e-13 6.172809659666486e-13 3.4738134385321673e-13 5.772231949248562e-13
          6.818997922737217e-14 7.186591769088592e-14 1.0023487678253024e-13 9.873321529177709e-14 5.5178825606956076e-14 7.116490828974621e-14
          7.336062756642982e-14 7.554185615439967e-14 9.723155380102395e-14 7.555634684311345e-14 2.0044944717881586e-13 1.9315090053320742e-13
          1.2544138559187367e-13 2.0041438716756968e-13 1.7256916905505437e-13 2.566203468313678e-13 1.3333582606692458e-13 1.865402441106963e-13
          1.5083350328093678e-13 2.2182420060338018e-13 1.6095297003633546e-13 5.155103950429698e-13 3.4186817739259765e-13 4.390857239978553e-13
          1.3152234596005042e-13 1.8333653947133823e-13 1.0196926503283947e-13 1.3618970687503752e-13 1.2362617691201593e-13 1.633274028353568e-13
          1.252560536652261e-13 3.539997580379672e-13 2.351989043345243e-13 3.094836192331489e-13 1.1613899138293797e-12 1.1349189101547862e-12
          6.582401803196032e-13 6.432086723545685e-13 1.0580396255619777e-12 5.998868578986909e-13 1.7779092030512229e-12 1.7354142408729479e-12
          9.852922481576899e-13 1.6137890932670093e-12 3.6770231101411055e-13 3.5806827341960376e-13 2.003874611934221e-13 1.9491967594738045e-13
          3.318988681946371e-13 1.804352456799138e-13 5.628662381194906e-13 5.493003790714489e-13 3.002095232923807e-13 5.102914905450875e-13
          9.388419760833259e-13 5.327559396651859e-13 7.924022744621216e-13 4.4955051835351254e-13 1.429376116561531e-12 8.112514973539342e-13
          1.2055020013055663e-12 2.155156393896901e-13 2.9449398926975986e-13 1.1849633012387112e-13 1.5879074751627533e-13 1.8359254390703e-13
          2.485971335538836e-13 1.5034076527858687e-13 4.5233859745688245e-13 2.445896815198831e-13 3.818204306173134e-13 2.155356001687185e-12
          2.1083723335115584e-12 1.231608893089644e-12 1.2043782522705667e-12 1.972283244835207e-12 1.1257203053228335e-12 2.237404314738384e-12
          2.1922376775195556e-12 1.2576180437055565e-12 2.060042282665161e-12 6.917839111784653e-13 6.762306166683904e-13 3.8206817489015953e-13
          3.733337075105126e-13 6.31335264843439e-13 3.480359389126337e-13 7.246208481262273e-13 7.092957338593438e-13 3.93696856706166e-13
          6.647243299584468e-13 1.7616091018179207e-12 1.0044465365303289e-12 1.4995488722457181e-12 8.542796157410048e-13 1.851800657201172e-12
          1.0589720226714987e-12 1.5875417407346598e-12 5.630673912164338e-13 3.0939998546782203e-13 4.786805844076854e-13 2.6120385532331254e-13
          5.949299266689323e-13 3.2870577280455744e-13 5.073220307814812e-13 7.728242100553024e-14 7.534069991417545e-14 1.0520144779997456e-13
          1.0260098384369371e-13 5.377042213433618e-14 7.193787857575026e-14 7.040438341808885e-14 6.985993504099879e-14 9.50668803355347e-14
          6.506743434807417e-14 1.6401172597944976e-13 1.5997181877812675e-13 1.0953177479851118e-13 1.4835576350901256e-13 6.263992854537575e-14