<?xml version="1.0"?>
<VTKFile type="UnstructuredGrid" version="0.1" byte_order="LittleEndian" header_type="UInt32" compressor="vtkZLibDataCompressor">
  <UnstructuredGrid>
    <Piece NumberOfPoints="1074" NumberOfCells="593">
      <PointData>
        <DataArray type="Int32" Name="libmesh_node_id" format="ascii" RangeMin="60" RangeMax="9479">
          64 65 66 67 68 69
          70 71 72 73 74 75
          76 77 78 79 112 113
          114 115 116 117 118 119
          152 153 154 155 156 157
          158 159 192 193 194 195
          196 197 198 199 216 217
          218 219 236 237 238 239
          272 273 274 275 276 277
          278 279 296 297 298 299
          316 317 318 319 348 349
          350 351 352 353 354 355
          356 357 358 359 374 375
          376 377 378 379 394 395
          396 397 398 399 428 429
          430 431 432 433 434 435
          436 437 438 439 454 455
          456 457 458 459 474 475
          476 477 478 479 508 509
          510 511 512 513 514 515
          516 517 518 519 534 535
          536 537 538 539 554 555
          556 557 558 559 588 589
          590 591 592 593 594 595
          596 597 598 599 614 615
          616 617 618 619 634 635
          636 637 638 639 668 669
          670 671 672 673 674 675
          676 677 678 679 694 695
          696 697 698 699 714 715
          716 717 718 719 746 747
          748 749 750 751 752 753
          754 755 756 757 758 759
          773 774 775 776 777 778
          779 793 794 795 796 797
          798 799 822 823 830 831
          832 833 834 835 836 837
          838 839 851 852 853 854
          855 856 857 858 859 871
          872 873 874 875 876 877
          878 879 896 897 898 899
          900 901 902 903 910 911
          912 913 914 915 916 917
          918 919 928 929 930 931
          935 936 937 938 939 948
          949 950 951 952 953 954
          955 956 957 958 959 974
          975 976 977 978 979 980
          981 982 983 991 992 993
          994 995 996 997 998 999
          1007 1008 1009 1010 1011 1015
          1016 1017 1018 1019 1027 1028
          1029 1030 1031 1035 1036 1037
          1038 1039 1054 1055 1056 1057
          1058 1059 1060 1061 1062 1063
          1072 1073 1074 1075 1076 1077
          1078 1079 1087 1088 1089 1090
          1091 1095 1096 1097 1098 1099
          1107 1108 1109 1110 1111 1115
          1116 1117 1118 1119 1122 1123
          1126 1132 1136 1181 1182 1183
          1184 1185 1186 1187 1188 1189
          1190 1191 1192 1193 1194 1219
          1221 1222 1223 1225 1231 1233
          1235 1380 1381 1382 1383 1384
          1385 1386 1387 1388 1389 1390
          1391 1392 1393 1394 1395 1397
          1398 1399 1400 1402 1403 1404
          1405 1406 1407 1408 1409 1410
          1411 1412 1413 1504 1505 1508
          1518 1989 1990 1991 1992 1995
          1996 1998 1999 2000 2001 2002
          2003 2004 2005 2006 2007 2008
          2020 2022 2023 2024 2025 2027
          2028 2039 2040 2041 2042 2043
          2044 2045 2046 2047 2048 2049
          2050 2051 2052 2053 2054 2055
          2056 2057 2058 2059 2060 2061
          2062 2063 2064 2065 2066 3418
          3419 3420 3421 3422 3423 3424
          3425 3426 3427 3461 3462 3465
          3468 8969 8970 8971 8972 8973
          8974 8975 8976 8977 8978 9047
          9048 9049 9050 9051 9052 9053
          9054 9055 9056 9057 9058 9059
          9060 9061 9062 9063 9064 9065
          9066 9067 9068 9069 9070 9071
          9072 9073 9074 9075 9076 9077
          9078 9079 9080 9081 9082 9083
          9084 9085 9086 9087 9088 9089
          9090 9091 9092 9093 9094 9095
          9096 9097 9162 9163 9164 9165
          9166 9167 9168 9169 9170 9171
          9172 9173 9174 9175 9176 9177
          9178 9179 9180 9181 9182 9183
          9184 9185 9186 9187 9188 9189
          9190 9191 9192 9193 9194 9195
          9196 9197 9198 9199 9200 9201
          9202 9203 9204 9205 9206 9207
          9208 9209 9210 9211 9212 9213
          9214 9215 9216 9217 9218 9219
          9220 9221 9222 9223 9224 9225
          9226 9227 9228 9229 9230 9231
          9232 9233 9234 9235 9236 9237
          9238 9239 9240 9241 9242 9243
          9244 9245 9246 9247 9248 9249
          9250 9251 9252 9253 9254 9255
          9256 9257 9258 9259 9260 9261
          9262 9263 9264 9265 9266 9267
          9268 9269 9270 9271 9272 9273
          9274 9275 9276 9277 9278 9279
          9280 9281 9282 9283 9284 9285
          9286 9287 9288 9289 9290 9291
          9292 9293 9294 9295 9296 9297
          9298 9299 9300 9301 9302 9303
          9304 9305 9306 9307 9308 9309
          9310 9311 9312 9313 9314 9315
          9316 9317 9318 9319 9320 9321
          9322 9323 9324 9325 9326 9327
          9328 9329 9330 9331 9332 9333
          9334 9335 9336 9337 9338 9339
          9340 9341 9342 9343 9344 9345
          9346 9347 9348 9349 9350 9351
          9352 9353 9354 9355 9356 9357
          9358 9359 9360 9361 9362 9363
          9364 9365 9366 9367 9368 9369
          9370 9371 9372 9373 9374 9375
          9376 9377 9378 9379 9380 9381
          9382 9383 9384 9385 9386 9387
          9388 9389 9390 9391 9392 9393
          9394 9395 9396 9397 9398 9399
          9400 9401 9402 9403 9404 9405
          9406 9407 9408 9409 9410 9411
          9412 9413 9414 9415 9416 9417
          9418 9419 9420 9421 9422 9423
          9424 9425 9426 9427 9428 9429
          9430 9431 9432 9433 9434 9435
          9436 9437 9438 9439 9440 9441
          9442 9443 9444 9445 9446 9447
          9448 9449 9450 9451 9452 9453
          9454 9455 9456 9457 9458 9459
          9460 9461 9462 9463 9464 9465
          9466 9467 9468 9469 9470 9471
          9472 9473 9474 9475 9476 9477
          9478 9479 60 61 62 63
          110 111 150 151 190 191
          215 235 270 271 295 315
          266 268 269 267 346 347
          294 293 373 314 313 393
          426 427 453 473 506 507
          533 553 586 587 613 633
          666 667 693 713 664 665
          744 745 692 772 712 792
          740 742 743 741 820 821
          824 825 826 827 828 829
          771 770 850 791 790 870
          814 816 817 815 894 895
          818 819 904 905 908 909
          848 847 927 849 932 907
          933 934 868 867 947 869
          892 893 972 973 990 926
          1006 985 1012 989 1014 946
          1026 1032 1013 1033 1034 1071
          1086 1106 1092 1112 1094 1114
          1121 1130 1125 1131 1168 1171
          1174 1170 1173 1176 1175 1220
          1224 1229 1230 1234 1237 1172
          1070 1179 1396 1196 1133 1198
          1203 1138 1401 1206 1211 1162
          1212 1215 1069 1180 1217 1502
          1503 1506 1507 1512 1513 1514
          1516 1517 1520 1993 1994 1358
          1359 1362 1997 1368 1120 1374
          1375 1376 1379 988 1167 1157
          2019 2021 1415 1417 1422 2026
          1425 2011 2012 2015 2018 1124
          1226 3459 3460 3463 3464 3466
          3467 9037 9038 9039 9042 1052
          9045 1053 9154 9155 9158 9160
        </DataArray>
        <DataArray type="Float64" Name="bounds" format="ascii" RangeMin="0" RangeMax="0">
          0 0 0 0 0 0
          0 0 0 0 0 0
          0 0 0 0 0 0
          0 0 0 0 0 0
          0 0 0 0 0 0
          0 0 0 0 0 0
          0 0 0 0 0 0
          0 0 0 0 0 0
          0 0 0 0 0 0
          0 0 0 0 0 0
          0 0 0 0 0 0
          0 0 0 0 0 0
          0 0 0 0 0 0
          0 0 0 0 0 0
          0 0 0 0 0 0
          0 0 0 0 0 0
          0 0 0 0 0 0
          0 0 0 0 0 0
          0 0 0 0 0 0
          0 0 0 0 0 0
          0 0 0 0 0 0
          0 0 0 0 0 0
          0 0 0 0 0 0
          0 0 0 0 0 0
          0 0 0 0 0 0
          0 0 0 0 0 0
          0 0 0 0 0 0
          0 0 0 0 0 0
          0 0 0 0 0 0
          0 0 0 0 0 0
          0 0 0 0 0 0
          0 0 0 0 0 0
          0 0 0 0 0 0
          0 0 0 0 0 0
          0 0 0 0 0 0
          0 0 0 0 0 0
          0 0 0 0 0 0
          0 0 0 0 0 0
          0 0 0 0 0 0
          0 0 0 0 0 0
          0 0 0 0 0 0
          0 0 0 0 0 0
          0 0 0 0 0 0
          0 0 0 0 0 0
          0 0 0 0 0 0
          0 0 0 0 0 0
          0 0 0 0 0 0
          0 0 0 0 0 0
          0 0 0 0 0 0
          0 0 0 0 0 0
          0 0 0 0 0 0
          0 0 0 0 0 0
          0 0 0 0 0 0
          0 0 0 0 0 0
          0 0 0 0 0 0
          0 0 0 0 0 0
          0 0 0 0 0 0
          0 0 0 0 0 0
          0 0 0 0 0 0
          0 0 0 0 0 0
          0 0 0 0 0 0
          0 0 0 0 0 0
          0 0 0 0 0 0
          0 0 0 0 0 0
          0 0 0 0 0 0
          0 0 0 0 0 0
          0 0 0 0 0 0
          0 0 0 0 0 0
          0 0 0 0 0 0
          0 0 0 0 0 0
          0 0 0 0 0 0
          0 0 0 0 0 0
          0 0 0 0 0 0
          0 0 0 0 0 0
          0 0 0 0 0 0
          0 0 0 0 0 0
          0 0 0 0 0 0
          0 0 0 0 0 0
          0 0 0 0 0 0
          0 0 0 0 0 0
          0 0 0 0 0 0
          0 0 0 0 0 0
          0 0 0 0 0 0
          0 0 0 0 0 0
          0 0 0 0 0 0
          0 0 0 0 0 0
          0 0 0 0 0 0
          0 0 0 0 0 0
          0 0 0 0 0 0
          0 0 0 0 0 0
          0 0 0 0 0 0
          0 0 0 0 0 0
          0 0 0 0 0 0
          0 0 0 0 0 0
          0 0 0 0 0 0
          0 0 0 0 0 0
          0 0 0 0 0 0
          0 0 0 0 0 0
          0 0 0 0 0 0
          0 0 0 0 0 0
          0 0 0 0 0 0
          0 0 0 0 0 0
          0 0 0 0 0 0
          0 0 0 0 0 0
          0 0 0 0 0 0
          0 0 0 0 0 0
          0 0 0 0 0 0
          0 0 0 0 0 0
          0 0 0 0 0 0
          0 0 0 0 0 0
          0 0 0 0 0 0
          0 0 0 0 0 0
          0 0 0 0 0 0
          0 0 0 0 0 0
          0 0 0 0 0 0
          0 0 0 0 0 0
          0 0 0 0 0 0
          0 0 0 0 0 0
          0 0 0 0 0 0
          0 0 0 0 0 0
          0 0 0 0 0 0
          0 0 0 0 0 0
          0 0 0 0 0 0
          0 0 0 0 0 0
          0 0 0 0 0 0
          0 0 0 0 0 0
          0 0 0 0 0 0
          0 0 0 0 0 0
          0 0 0 0 0 0
          0 0 0 0 0 0
          0 0 0 0 0 0
          0 0 0 0 0 0
          0 0 0 0 0 0
          0 0 0 0 0 0
          0 0 0 0 0 0
          0 0 0 0 0 0
          0 0 0 0 0 0
          0 0 0 0 0 0
          0 0 0 0 0 0
          0 0 0 0 0 0
          0 0 0 0 0 0
          0 0 0 0 0 0
          0 0 0 0 0 0
          0 0 0 0 0 0
          0 0 0 0 0 0
          0 0 0 0 0 0
          0 0 0 0 0 0
          0 0 0 0 0 0
          0 0 0 0 0 0
          0 0 0 0 0 0
          0 0 0 0 0 0
          0 0 0 0 0 0
          0 0 0 0 0 0
          0 0 0 0 0 0
          0 0 0 0 0 0
          0 0 0 0 0 0
          0 0 0 0 0 0
          0 0 0 0 0 0
          0 0 0 0 0 0
          0 0 0 0 0 0
          0 0 0 0 0 0
          0 0 0 0 0 0
          0 0 0 0 0 0
          0 0 0 0 0 0
          0 0 0 0 0 0
          0 0 0 0 0 0
          0 0 0 0 0 0
          0 0 0 0 0 0
          0 0 0 0 0 0
          0 0 0 0 0 0
          0 0 0 0 0 0
          0 0 0 0 0 0
          0 0 0 0 0 0
          0 0 0 0 0 0
          0 0 0 0 0 0
          0 0 0 0 0 0
          0 0 0 0 0 0
          0 0 0 0 0 0
          0 0 0 0 0 0
        </DataArray>
        <DataArray type="Float64" Name="gradient_error" format="ascii" RangeMin="8.482221623495413e-14" RangeMax="6.268865181775135e-7">
          3.535977233263097e-13 3.5359790114557333e-13 3.5360003643206333e-13 3.5359964413444453e-13 3.535984363076924e-13 3.535984321002606e-13
          3.5359855303225985e-13 3.5359855364031984e-13 3.535984737135053e-13 3.5359847039366564e-13 3.5359843045620543e-13 3.5359844239658397e-13
          3.5359847057173636e-13 3.53598469680004e-13 3.5359842674157236e-13 3.535984360854371e-13 3.5359829097959815e-13 3.535988294677448e-13
          3.535984478933038e-13 3.5359850794173745e-13 3.535984664913011e-13 3.535984591641883e-13 3.535984673526653e-13 3.535984547000051e-13
          3.5359850299435936e-13 3.53598407098664e-13 3.535984678937788e-13 3.5359846163509497e-13 3.5359846590877627e-13 3.5359846399141386e-13
          3.5359846591705903e-13 3.5359846397070845e-13 3.5359255331173004e-13 3.53594130160586e-13 3.535978257450529e-13 3.535979191086399e-13
          3.5359844999429167e-13 3.5359844380668816e-13 3.5359850711896113e-13 3.5359849938325226e-13 3.535971523676158e-13 3.53598248512355e-13
          3.53598464061835e-13 3.5359849275047473e-13 3.535985977257896e-13 3.535984845524831e-13 3.5359849050458536e-13 3.535984938534062e-13
          3.536198104843291e-13 3.536136740554765e-13 3.5360111794880597e-13 3.53600688905173e-13 3.5359833004355074e-13 3.535984616421782e-13
          3.53597982868894e-13 3.5359815967347743e-13 3.536030248273989e-13 3.5359946068996375e-13 3.5359859022919274e-13 3.535984498535829e-13
          3.535985120281738e-13 3.5359866151838735e-13 3.5359858721757984e-13 3.53598563229105e-13 3.5750493167907956e-13 3.5666899462001685e-13
          3.534170533986583e-13 3.534893000829369e-13 3.535248661286277e-13 3.535489093941904e-13 3.53585758349479e-13 3.5358880210935133e-13
          3.535966644769334e-13 3.5359707105289375e-13 3.535982876903444e-13 3.5359839225574095e-13 3.545343051230275e-13 3.535750448027655e-13
          3.5358580398936664e-13 3.5359534257043e-13 3.535983628214616e-13 3.535989314599306e-13 3.5323555268510094e-13 3.535885428383155e-13
          3.535986553189802e-13 3.5359883927163636e-13 3.535992480140692e-13 3.5359936609872384e-13 3.4132920351769755e-13 3.4533437418064065e-13
          3.538288590547338e-13 3.53644682797844e-13 3.5380650460329745e-13 3.537249088092092e-13 3.536371834161991e-13 3.5362741834984527e-13
          3.5360130585068035e-13 3.5360226149051126e-13 3.535951661455842e-13 3.5359758861725146e-13 3.5224352070671107e-13 3.535560169093888e-13
          3.536243090062216e-13 3.5361083574964707e-13 3.5360290284721523e-13 3.5360108383322563e-13 3.551474965698386e-13 3.536515272778232e-13
          3.536053049973222e-13 3.536040182158027e-13 3.536025885640884e-13 3.5360215657753243e-13 4.2799259550589665e-13 4.1911623316016004e-13
          3.5472076111438843e-13 3.549905720090102e-13 3.5315326313073277e-13 3.5342032910973727e-13 3.5346029177699194e-13 3.535141012465414e-13
          3.5354392283866644e-13 3.535612894105624e-13 3.5356092804063746e-13 3.5357267495249427e-13 3.810056945303822e-13 3.5436539397934724e-13
          3.5365349774323375e-13 3.535906065486597e-13 3.535965758646956e-13 3.535998459059865e-13 3.517715182463411e-13 3.5347040505506227e-13
          3.536196003977259e-13 3.5361330238122865e-13 3.5361449574693276e-13 3.536152699476219e-13 6.545392879550275e-13 6.238348614235475e-13
          3.428963262890125e-13 3.440132528912298e-13 3.533616208243689e-13 3.527764124817147e-13 3.5365952943160474e-13 3.5357162307236626e-13
          3.5365434483467597e-13 3.536564080320984e-13 3.536393333173235e-13 3.5365682787768003e-13 4.906950001765049e-13 3.495101734693644e-13
          3.5287936590738196e-13 3.5358231784763735e-13 3.536839053904628e-13 3.5369390699187424e-13 3.8825956546094233e-13 3.538901674452818e-13
          3.5356752767570336e-13 3.5368091898214714e-13 3.5370933955140477e-13 3.537134915457119e-13 1.9782557086524676e-12 1.7568625554312678e-12
          4.3148245863430187e-13 4.1936459027161027e-13 3.611192137403031e-13 3.617362857311329e-13 3.540843602525953e-13 3.545251212679582e-13
          3.5275268764965873e-13 3.531568249132823e-13 3.525661067481313e-13 3.5295805085609097e-13 1.0361462863783795e-12 3.815311323661367e-13
          3.587904411600857e-13 3.5460043539264553e-13 3.5376304233338034e-13 3.5363187707854186e-13 5.368231705466906e-13 3.5581554282335475e-13
          3.5522752459820866e-13 3.542349885019699e-13 3.5396512248985487e-13 3.53913759193033e-13 3.301438831500709e-11 3.0167910500781127e-11
          6.268930787404596e-12 5.223300440816737e-12 6.169761268897992e-13 5.331662423207592e-13 3.187112381679081e-13 3.259613790784413e-13
          3.4354921488380627e-13 3.4554738461045787e-13 3.505546189444415e-13 3.5147332058857326e-13 3.517664563607585e-13 3.5252927003760446e-13
          1.768959449698824e-11 2.7337919181024593e-12 4.007429563890544e-13 3.423470816655154e-13 3.5115105538279587e-13 3.5414736006574953e-13
          3.5472013578438097e-13 8.05775630742132e-12 1.2899137419760391e-12 3.5212955502638953e-13 3.514826433420563e-13 3.547565564284822e-13
          3.5590269789879425e-13 3.5614818785431145e-13 1.2219431213348603e-9 1.0678606913901306e-9 1.6786380593618214e-12 1.235734575752869e-12
          3.9810578773843547e-13 3.6658381278686453e-13 3.663293635972875e-13 3.593897644314295e-13 3.6872097669716043e-13 3.670077862637376e-13
          3.694949339664214e-13 3.6844540757634633e-13 5.262413702003552e-10 2.593017009762956e-10 7.749577385350672e-11 7.418714072233469e-12
          7.520289740640286e-13 3.604848506929614e-13 3.6013559006719784e-13 3.669081482737826e-13 3.681092653830971e-13 1.3870447895530992e-10
          8.991188914398268e-11 3.092610715118757e-11 5.3463420780703914e-12 7.112268559841404e-13 3.8590786355062913e-13 3.6782101486882406e-13
          3.6852170071725046e-13 3.6882264957992276e-13 1.087485216973101e-7 7.522268054783786e-8 1.1763375795911211e-8 1.654341694713324e-8
          4.7669359279446294e-9 5.7404295752906726e-9 3.1500954913468784e-9 2.855412411662278e-9 1.7982854709165904e-12 2.0121152767456805e-12
          7.044256903650689e-13 7.038011912245143e-13 4.3075813691287727e-13 4.343838967740842e-13 3.9282910667324267e-13 3.9313160960114467e-13
          3.869745055379674e-13 3.865619755002755e-13 2.3121387894668565e-8 1.1456022034621212e-8 4.410706616433056e-9 1.7129743584365365e-9
          1.9779978991987623e-12 6.209772182176017e-13 4.2031385776172847e-13 3.854296208870097e-13 3.797568293517603e-13 2.377544657549634e-9
          1.1195741046571358e-9 3.5673572701721665e-10 2.5903020347579127e-10 1.8674789676744515e-10 8.123901658125136e-11 2.2538812831122878e-11
          1.6785774822699291e-12 5.387777443512437e-13 4.026180588881658e-13 3.774251292449727e-13 3.733642132409369e-13 4.920762822060511e-7
          2.779941806755169e-7 2.7409717832364566e-7 2.082691498876793e-7 5.8913182054301077e-8 1.4540067737425165e-7 4.0091205893949474e-8
          1.147036310827008e-7 2.387919379645336e-8 7.64726426253717e-8 2.8599492830765113e-12 6.275011324406048e-13 1.38086692450201e-12
          4.557326590937787e-13 4.714987084792534e-13 3.0654690165994714e-13 3.12265738334837e-13 2.8844519583470527e-13 2.9137933353051174e-13
          4.4162304946916534e-8 2.682990362174036e-8 1.3171586010398146e-8 4.965029890129896e-9 1.7450631091790606e-9 3.369756252085986e-12
          1.4421506178538817e-12 4.504227509336226e-13 3.035302695313877e-13 2.839943901967278e-13 9.239372940391205e-9 4.777541498941111e-9
          2.7624996619246645e-9 1.3650570391588939e-9 6.174221966480102e-10 3.0445898693148155e-12 8.370694479283539e-13 4.1358074400251694e-13
          2.890759640530483e-13 2.7367530916713737e-13 4.93714484281689e-8 3.5434252403024424e-7 6.508886362293114e-8 2.1096739498031444e-7
          9.571891052029544e-8 1.998257158069436e-7 1.509049063035518e-7 1.7047447780919975e-7 1.3705405339951983e-7 1.1860186956425992e-7
          3.7031546099924434e-13 1.9296115801149424e-12 4.4957148268695663e-13 4.57168134682115e-13 2.1544540674122763e-13 2.218517704554887e-13
          1.8978264742593837e-13 1.9361867120542504e-13 3.965536337138394e-8 2.3614672531388927e-8 1.1214434966058961e-8 3.722715297571193e-9
          3.3343979782842348e-9 5.085630332862446e-12 2.0440633604101593e-12 4.33772325196105e-13 2.1546651509675016e-13 1.8872635187252421e-13
          1.4187954577869874e-8 6.057410206920884e-9 3.96855712636684e-9 2.321676502455812e-9 9.32457363903853e-10 3.807284651589986e-12
          1.0223816030474073e-12 4.027798637149366e-13 2.0267489602375056e-13 1.7999800876013677e-13 8.21314497971855e-8 2.441442309678577e-7
          2.078189070429422e-7 1.199689467138872e-7 3.072411820526521e-7 3.199972927837466e-8 1.0105191162993061e-7 1.1488333139785582e-7
          1.8836777079025045e-7 2.1540864796656217e-7 2.1327994856885453e-7 2.131668642772508e-7 1.2721354950878373e-7 1.5574297598765477e-7
          1.8577243635363972e-7 1.9623184485685575e-7 2.5361339272224295e-7 2.119554011745767e-7 1.4733826802090807e-7 1.7090358982014717e-7
          2.2281101782499355e-7 2.4289635376123956e-7 1.2808579772877513e-7 2.8505557887861345e-7 2.736866246439297e-7 2.3630245554655758e-8
          2.4591123506315725e-7 2.0273408989980428e-13 4.2958841614374886e-13 2.331833209458649e-13 6.2479022041664e-13 2.610501673568276e-13
          8.482221623495413e-14 3.8340443574782487e-13 6.564427423876935e-13 1.016397119887415e-12 6.819866552606955e-13 2.6363255199192555e-13
          8.199920246895312e-13 5.057587041388221e-13 1.3763514973871367e-12 8.100647175940839e-9 1.5227467716398994e-8 3.9537721331045444e-8
          6.469814445176184e-10 2.5429057121583135e-9 3.345176181729041e-9 6.384797494569189e-8 4.438829979799008e-9 9.430574548812465e-12
          1.7375350437153567e-11 3.338539034047864e-12 5.250756954052416e-12 6.737069087385722e-12 1.1822226100461688e-11 4.906182895850068e-12
          2.532012632549467e-11 7.162974874056969e-12 1.6907383113537652e-11 5.045480685693732e-8 3.653507433482654e-8 4.1649933088824296e-8
          3.319170919453135e-8 3.5276723030076945e-9 3.2279253162107124e-9 3.7028943535061853e-9 1.422828360173115e-8 1.2905923988667651e-8
          2.9281783294137307e-9 1.158356437560415e-8 1.43625489136124e-12 1.1664004075808779e-12 1.556152176651736e-12 1.3801562453151702e-12
          5.302812540921803e-13 8.388783915519861e-13 7.442197949102845e-13 8.965459238005161e-13 1.2041603139786045e-12 6.495611982685831e-13
          1.268398053634337e-7 1.5801147057430796e-7 6.863498181371048e-8 8.778565394917407e-8 9.6065775368446e-8 1.8918313578518225e-7
          1.0693632608463768e-7 2.3005294742611217e-7 2.1164455616328137e-7 1.9983072533722247e-7 2.3857195322783173e-7 2.6937236325632295e-7
          2.8261745351730663e-7 2.532587604985518e-7 1.8677214204389728e-7 2.5328901035049114e-7 2.3437588804971625e-7 2.2709890587221393e-7
          2.684985488211948e-7 2.3556900301159897e-7 2.7874252464238456e-7 4.319219790898738e-8 4.3141166009570224e-8 3.8662769357825643e-8
          3.439931462721759e-8 3.472437802491985e-8 3.790102145317756e-8 3.590213329654268e-8 4.309013411015307e-8 4.1077664881435274e-8
          3.740495196586778e-8 2.625655814085232e-8 3.26608768967849e-8 3.314149723525973e-8 3.9065195652717473e-8 1.724676550296536e-8
          2.2243800671218103e-8 2.819548243886007e-8 8.391336274556923e-8 7.76890505658048e-8 6.869152967437186e-8 7.502261228952724e-8
          2.7240835839470848e-8 5.96940087829389e-8 6.613186183348524e-8 4.589773516284195e-8 5.030899868594103e-8 4.852292088370972e-8
          4.673684308147839e-8 4.822579015588463e-9 3.628576797571395e-9 3.6821260260357083e-9 1.9536949883183273e-8 1.6485141252618547e-8
          1.3286976019626373e-8 1.3207530001736187e-8 2.4345745795543266e-9 1.0088810786634198e-8 6.878110120289098e-9 5.823109235763551e-7
          5.074075463381967e-7 4.3974924082569063e-7 4.876082426318101e-7 5.217948495765942e-7 3.4922265132130393e-7 3.780954277671942e-7
          3.0640831901281195e-7 3.957893247256563e-7 3.2817951497143297e-7 2.899539332510493e-7 4.680306858834776e-7 2.3426812452561083e-7
          4.851703304385008e-7 6.268865181775135e-7 5.335607836723163e-7 3.686152423097729e-7 3.185857182892641e-7 2.7805807304604364e-7
          2.4805548917496964e-7 2.5810564466457565e-7 3.004855406869265e-7 2.5296873525867003e-7 2.477570713800523e-7 5.619044266205796e-8
          1.0163451366063945e-7 1.1553702167357911e-7 2.1149010256210742e-7 6.280940485988491e-8 1.4441926839285138e-7 1.2756768453580423e-7
          1.9672396576212143e-7 1.3751262655370206e-7 1.448721426658323e-7 2.0345544596469778e-7 1.951264097156971e-7 2.388111166053911e-7
          2.264312049737913e-7 7.885320911884242e-8 1.3228534259201633e-7 1.5318213294912859e-7 2.0726968622004235e-7 4.937648052447521e-8
          1.2656253488718072e-7 1.648936271959325e-7 2.0947225006520038e-7 1.6597506847005197e-7 2.0926368482899187e-7 1.1880039510783805e-7
          1.7920682101186263e-7 1.8780372874524502e-7 1.1284912402215613e-7 1.5799454271208915e-7 1.0510193491405454e-7 1.51639449381484e-7
          4.53857791187267e-8 6.070844368374364e-8 5.156263125777204e-8 2.0313996140202216e-7 1.9817696384891345e-7 7.603110824876058e-8
          9.578505836592333e-8 1.435608418918038e-7 8.55104694750309e-8 1.3343135646793252e-7 3.08340845251127e-8 4.203365347918931e-8
          3.248757526498004e-8 1.9133662541768429e-7 1.8135224346083415e-7 5.3233222433265924e-8 7.460182939043165e-8 1.2135268758127087e-7
          6.258807049157493e-8 1.071433881429065e-7 1.6944185236444144e-8 2.3162642922212043e-8 1.4744554741495584e-8 1.681035457721101e-7
          1.5169870579423807e-7 2.9381100607979936e-8 4.976995166612254e-8 9.100102663897513e-8 3.7014256701111126e-8 7.393482133368113e-8
          6.567209795527169e-9 8.058708242322397e-9 4.316165315552805e-9 1.322321016118277e-7 1.1085538596625112e-7 9.550206689117626e-9
          2.515876631397748e-8 5.6654144375640284e-8 1.7423275727928664e-9 3.4766966307779368e-9 8.814952243730308e-8 5.211065688763007e-9
          4.149534952673641e-8 4.444726770509435e-8 4.888026997093384e-8 9.632838860059559e-8 9.517419279877884e-8 8.660167651894695e-8
          8.810399387075238e-8 3.942312731299266e-8 9.287849470070865e-8 8.40680300009665e-8 4.739918588345229e-8 7.802916023911505e-8
          7.987959914090917e-8 7.525756530122434e-8 2.0146083825245984e-7 1.8829273890843424e-7 1.772408092106978e-7 1.7132476443855184e-7
          2.982200451556433e-8 3.394568086206567e-8 8.914103936367833e-8 8.024921748760506e-8 3.806935720856701e-8 7.135739561153179e-8
          1.907625315068209e-7 2.1277618760277656e-7 2.2814744317008115e-7 2.063860548500247e-7 2.1708171555742874e-7 2.012974746904908e-7
          1.7148373477145468e-7 2.084654938560933e-7 1.856182090492247e-7 2.3150585175441868e-7 1.2745951047029008e-7 1.2536296625336393e-7
          1.4929796606003058e-7 1.446667902098919e-7 1.2863905780715817e-7 1.5329682418710828e-7 9.119400675374205e-8 1.0795119974258937e-7
          1.087482092320306e-7 1.0578744004405588e-7 1.7113642164977107e-7 1.6397061416641983e-7 1.7795459056705833e-7 1.247083927314367e-7
          1.285672111801437e-7 1.5633539647281944e-7 8.329032602949675e-8 1.0195531602294685e-7 1.8410358176549515e-7 1.2062030601639695e-7
          1.4312343061162172e-8 1.241382167218532e-8 1.905958325670298e-8 4.0553314537715494e-8 3.7898676591931085e-8 2.8140464251650982e-8
          3.138814465656316e-8 5.3015520050819855e-9 3.19909818969517e-8 2.1477050092681647e-8 1.0515300283208468e-8 1.8382251911370873e-8
          2.2222974775410827e-8 1.0963118288411603e-8 6.064599593593083e-9 4.355706184468597e-9 2.5171205961541833e-8 1.5726080805784997e-8
          2.6468127753441112e-9 6.2809556500281656e-9 8.36681690614091e-8 8.28226949816031e-8 7.563663572939792e-8 7.006453745131808e-8
          6.966885772823766e-8 7.527874276087392e-8 7.22415702754637e-8 9.411017270642723e-8 7.18746495611575e-8 8.111558475962388e-8
          8.197722090179708e-8 8.088862779351017e-8 7.441860309960932e-8 9.125830321097241e-8 5.56695463950662e-8 6.773479054014473e-8
          6.884650482152948e-8 6.812099681282054e-8 7.980003468522325e-8 1.024458349842103e-7 1.0190366338458526e-7 7.734696257249175e-8
          8.659479528419256e-8 1.0973571453451987e-7 8.326720455204512e-8 9.259733786507791e-8 9.612117061338607e-8 9.628682151662048e-8
          1.026225832834257e-7 5.224809016077321e-8 7.128592718379984e-8 7.545896119563595e-8 9.645247241985487e-8 1.1924889256140017e-7
          1.1834355763103993e-7 8.96973187793774e-8 9.956458678248333e-8 1.1478791603233933e-7 9.577190047256962e-8 1.0653527129670816e-7
          1.1033696781522002e-7 1.0929598752664854e-7 1.1629349342746712e-7 6.014574499735463e-8 8.078561593392671e-8 8.701694284173155e-8
          1.0825500723807703e-7 7.193833931603194e-8 6.920100976990102e-8 7.335023801468425e-8 8.886039173131142e-8 8.934367878803485e-8
          8.360537801269739e-8 8.280339330416637e-8 6.360305372155162e-8 9.051183389242982e-8 8.494861997603729e-8 6.64636802237701e-8
          7.786707723735995e-8 7.674639487702132e-8 7.938540605964477e-8 1.1890998803380771e-7 1.1532258502139602e-7 1.237216863658675e-7
          1.125700772805999e-7 6.141388998348627e-8 6.152233115969114e-8 9.209635453558202e-8 8.615255331641793e-8 6.006562666381696e-8
          9.376902869724935e-8 8.735541483921392e-8 6.163077233589602e-8 8.020875209725386e-8 8.094180098117847e-8 1.3599747459570352e-7
          1.313844948231436e-7 1.3929726872554934e-7 1.2657296820562074e-7 1.0134841789277685e-7 1.1352740005887998e-7 1.0854935500133052e-7
          1.2194235140236892e-7 1.238469739752946e-7 1.3222437297403085e-7 7.162587797797605e-8 9.44193763304617e-8 1.027355163035258e-7
          1.2347406915516434e-7 1.1793052209081423e-7 1.32020901846157e-7 1.2877005132173608e-7 1.433703007024445e-7 1.4131305377633476e-7
          1.5114740405592305e-7 8.664491407789916e-8 1.1205558951917152e-7 1.2279126696840122e-7 1.4216002117354429e-7 1.0096665841224949e-7
          9.720702629469226e-8 1.0893086092501008e-7 1.042363279427071e-7 1.0478119223562578e-7 1.1380715691772987e-7 8.7693449000668e-8
          9.587415612441402e-8 9.318431115132659e-8 9.850091569080534e-8 1.1689506343777067e-7 1.1126562959072193e-7 1.2283312159983397e-7
          1.0405486324816005e-7 1.0855183872691751e-7 1.1881175775889349e-7 1.1227956483477202e-7 1.2394352624561408e-7 9.09278029381402e-8
          1.0110868956661726e-7 1.0356279446253503e-7 1.2907167679086947e-7 1.3560748765645617e-7 1.112895761950943e-7 5.735488871226862e-8