<?xml version="1.0"?>
<VTKFile type="UnstructuredGrid" version="0.1" byte_order="LittleEndian" header_type="UInt32" compressor="vtkZLibDataCompressor">
  <UnstructuredGrid>
    <Piece NumberOfPoints="927" NumberOfCells="572">
      <PointData>
        <DataArray type="Int32" Name="libmesh_node_id" format="ascii" RangeMin="0" RangeMax="9161">
          0 1 2 3 4 5
          6 7 8 9 10 11
          12 13 14 15 16 17
          18 19 20 21 22 23
          24 25 26 27 28 29
          30 31 32 33 34 35
          36 37 38 39 40 41
          42 43 44 45 46 47
          48 49 50 51 52 53
          54 55 56 57 58 59
          60 61 62 63 80 81
          82 83 84 85 86 87
          88 89 90 91 92 93
          94 95 96 97 98 99
          100 101 102 103 104 105
          106 107 108 109 110 111
          120 121 122 123 124 125
          126 127 128 129 130 131
          132 133 134 135 136 137
          138 139 140 141 142 143
          144 145 146 147 148 149
          150 151 160 161 162 163
          164 165 166 167 168 169
          170 171 172 173 174 175
          176 177 178 179 180 181
          182 183 184 185 186 187
          188 189 190 191 200 201
          202 203 204 205 206 207
          208 209 210 211 212 213
          214 215 220 221 222 223
          224 225 226 227 228 229
          230 231 232 233 234 235
          240 241 242 243 244 245
          246 247 248 249 250 251
          252 253 254 255 256 257
          258 259 260 261 262 263
          264 265 266 267 268 269
          270 271 280 281 282 283
          284 285 286 287 288 289
          290 291 292 293 294 295
          300 301 302 303 304 305
          306 307 308 309 310 311
          312 313 314 315 320 321
          322 323 324 325 326 327
          328 329 330 331 332 333
          334 335 336 337 338 339
          340 341 342 343 344 345
          346 347 360 361 362 363
          364 365 366 367 368 369
          370 371 372 373 380 381
          382 383 384 385 386 387
          388 389 390 391 392 393
          400 401 402 403 404 405
          406 407 408 409 410 411
          412 413 414 415 416 417
          418 419 420 421 422 423
          424 425 426 427 440 441
          442 443 444 445 446 447
          448 449 450 451 452 453
          460 461 462 463 464 465
          466 467 468 469 470 471
          472 473 480 481 482 483
          484 485 486 487 488 489
          490 491 492 493 494 495
          496 497 498 499 500 501
          502 503 504 505 506 507
          520 521 522 523 524 525
          526 527 528 529 530 531
          532 533 540 541 542 543
          544 545 546 547 548 549
          550 551 552 553 560 561
          562 563 564 565 566 567
          568 569 570 571 572 573
          574 575 576 577 578 579
          580 581 582 583 584 585
          586 587 600 601 602 603
          604 605 606 607 608 609
          610 611 612 613 620 621
          622 623 624 625 626 627
          628 629 630 631 632 633
          640 641 642 643 644 645
          646 647 648 649 650 651
          652 653 654 655 656 657
          658 659 660 661 662 663
          664 665 666 667 680 681
          682 683 684 685 686 687
          688 689 690 691 692 693
          700 701 702 703 704 705
          706 707 708 709 710 711
          712 713 720 721 722 723
          724 725 726 727 728 729
          730 731 732 733 734 735
          736 737 738 739 740 741
          742 743 744 745 760 761
          762 763 764 765 766 767
          768 769 770 771 772 780
          781 782 783 784 785 786
          787 788 789 790 791 792
          800 801 802 803 804 805
          806 807 808 809 810 811
          812 813 814 815 816 817
          818 819 820 821 840 841
          842 843 844 845 846 847
          848 849 850 860 861 862
          863 864 865 866 867 868
          869 870 880 881 882 883
          884 885 886 887 888 889
          890 891 892 893 894 895
          920 921 922 923 924 925
          926 927 940 941 942 943
          944 945 946 947 960 961
          962 963 964 965 966 967
          968 969 970 971 972 973
          1000 1001 1002 1003 1004 1005
          1006 1020 1021 1022 1023 1024
          1025 1026 1040 1041 1042 1043
          1044 1045 1046 1047 1048 1049
          1050 1051 1052 1053 1080 1081
          1082 1083 1084 1085 1086 1100
          1101 1102 1103 1104 1105 1106
          8894 8895 8896 8897 8898 8899
          8900 8901 8902 8903 8904 8905
          8906 8907 8908 8909 8910 8911
          8912 8913 8914 8915 8916 8917
          8918 8919 8920 8921 8922 8923
          8924 8925 8926 8927 8928 8929
          8930 8931 8932 8933 8934 8935
          8936 8937 8938 8939 8940 8941
          8942 8943 8944 8945 8946 8947
          8948 8949 8950 8951 8952 8953
          8954 8955 8956 8957 8958 8959
          8960 8961 8962 8963 8964 8965
          8966 8967 8968 8979 8980 8981
          8982 8983 8984 8985 8986 8987
          8988 8989 8990 8991 8992 8993
          8994 8995 8996 8997 8998 8999
          9000 9001 9002 9003 9004 9005
          9006 9007 9008 9009 9010 9011
          9012 9013 9014 9015 9016 9017
          9018 9019 9020 9021 9022 9023
          9024 9025 9026 9027 9028 9029
          9030 9031 9032 9033 9034 9035
          9036 9037 9038 9039 9040 9041
          9042 9043 9044 9045 9046 9098
          9099 9100 9101 9102 9103 9104
          9105 9106 9107 9108 9109 9110
          9111 9112 9113 9114 9115 9116
          9117 9118 9119 9120 9121 9122
          9123 9124 9125 9126 9127 9128
          9129 9130 9131 9132 9133 9134
          9135 9136 9137 9138 9139 9140
          9141 9142 9143 9144 9145 9146
          9147 9148 9149 9150 9151 9152
          9153 9154 9155 9156 9157 9158
          9159 9160 9161
        </DataArray>
        <DataArray type="Float64" Name="bounds" format="ascii" RangeMin="0" RangeMax="0">
          0 0 0 0 0 0
          0 0 0 0 0 0
          0 0 0 0 0 0
          0 0 0 0 0 0
          0 0 0 0 0 0
          0 0 0 0 0 0
          0 0 0 0 0 0
          0 0 0 0 0 0
          0 0 0 0 0 0
          0 0 0 0 0 0
          0 0 0 0 0 0
          0 0 0 0 0 0
          0 0 0 0 0 0
          0 0 0 0 0 0
          0 0 0 0 0 0
          0 0 0 0 0 0
          0 0 0 0 0 0
          0 0 0 0 0 0
          0 0 0 0 0 0
          0 0 0 0 0 0
          0 0 0 0 0 0
          0 0 0 0 0 0
          0 0 0 0 0 0
          0 0 0 0 0 0
          0 0 0 0 0 0
          0 0 0 0 0 0
          0 0 0 0 0 0
          0 0 0 0 0 0
          0 0 0 0 0 0
          0 0 0 0 0 0
          0 0 0 0 0 0
          0 0 0 0 0 0
          0 0 0 0 0 0
          0 0 0 0 0 0
          0 0 0 0 0 0
          0 0 0 0 0 0
          0 0 0 0 0 0
          0 0 0 0 0 0
          0 0 0 0 0 0
          0 0 0 0 0 0
          0 0 0 0 0 0
          0 0 0 0 0 0
          0 0 0 0 0 0
          0 0 0 0 0 0
          0 0 0 0 0 0
          0 0 0 0 0 0
          0 0 0 0 0 0
          0 0 0 0 0 0
          0 0 0 0 0 0
          0 0 0 0 0 0
          0 0 0 0 0 0
          0 0 0 0 0 0
          0 0 0 0 0 0
          0 0 0 0 0 0
          0 0 0 0 0 0
          0 0 0 0 0 0
          0 0 0 0 0 0
          0 0 0 0 0 0
          0 0 0 0 0 0
          0 0 0 0 0 0
          0 0 0 0 0 0
          0 0 0 0 0 0
          0 0 0 0 0 0
          0 0 0 0 0 0
          0 0 0 0 0 0
          0 0 0 0 0 0
          0 0 0 0 0 0
          0 0 0 0 0 0
          0 0 0 0 0 0
          0 0 0 0 0 0
          0 0 0 0 0 0
          0 0 0 0 0 0
          0 0 0 0 0 0
          0 0 0 0 0 0
          0 0 0 0 0 0
          0 0 0 0 0 0
          0 0 0 0 0 0
          0 0 0 0 0 0
          0 0 0 0 0 0
          0 0 0 0 0 0
          0 0 0 0 0 0
          0 0 0 0 0 0
          0 0 0 0 0 0
          0 0 0 0 0 0
          0 0 0 0 0 0
          0 0 0 0 0 0
          0 0 0 0 0 0
          0 0 0 0 0 0
          0 0 0 0 0 0
          0 0 0 0 0 0
          0 0 0 0 0 0
          0 0 0 0 0 0
          0 0 0 0 0 0
          0 0 0 0 0 0
          0 0 0 0 0 0
          0 0 0 0 0 0
          0 0 0 0 0 0
          0 0 0 0 0 0
          0 0 0 0 0 0
          0 0 0 0 0 0
          0 0 0 0 0 0
          0 0 0 0 0 0
          0 0 0 0 0 0
          0 0 0 0 0 0
          0 0 0 0 0 0
          0 0 0 0 0 0
          0 0 0 0 0 0
          0 0 0 0 0 0
          0 0 0 0 0 0
          0 0 0 0 0 0
          0 0 0 0 0 0
          0 0 0 0 0 0
          0 0 0 0 0 0
          0 0 0 0 0 0
          0 0 0 0 0 0
          0 0 0 0 0 0
          0 0 0 0 0 0
          0 0 0 0 0 0
          0 0 0 0 0 0
          0 0 0 0 0 0
          0 0 0 0 0 0
          0 0 0 0 0 0
          0 0 0 0 0 0
          0 0 0 0 0 0
          0 0 0 0 0 0
          0 0 0 0 0 0
          0 0 0 0 0 0
          0 0 0 0 0 0
          0 0 0 0 0 0
          0 0 0 0 0 0
          0 0 0 0 0 0
          0 0 0 0 0 0
          0 0 0 0 0 0
          0 0 0 0 0 0
          0 0 0 0 0 0
          0 0 0 0 0 0
          0 0 0 0 0 0
          0 0 0 0 0 0
          0 0 0 0 0 0
          0 0 0 0 0 0
          0 0 0 0 0 0
          0 0 0 0 0 0
          0 0 0 0 0 0
          0 0 0 0 0 0
          0 0 0 0 0 0
          0 0 0 0 0 0
          0 0 0 0 0 0
          0 0 0 0 0 0
          0 0 0 0 0 0
          0 0 0 0 0 0
          0 0 0 0 0 0
          0 0 0 0 0 0
          0 0 0 0 0 0
          0 0 0 0 0 0
          0 0 0
        </DataArray>
        <DataArray type="Float64" Name="gradient_error" format="ascii" RangeMin="3.105650884098825e-13" RangeMax="5.402318220770077e-7">
          3.418427310065457e-13 3.445642150012212e-13 3.4753633355054e-13 3.459455286376213e-13 3.743634449874464e-13 3.680357596820845e-13
          3.638801235149492e-13 3.676689212140316e-13 3.521800580322569e-13 3.519460070770855e-13 3.5214289558476824e-13 3.544067169960447e-13
          3.6205447141332115e-13 3.576655899105892e-13 3.347347147237405e-13 3.4396095049211806e-13 3.6591567939145436e-13 3.602186171461844e-13
          3.295937085258648e-13 3.402062243348211e-13 3.6135769635906717e-13 3.581433330409726e-13 3.3880688801371593e-13 3.445793497425477e-13
          3.5595200665869317e-13 3.553461568843984e-13 3.5042002671830465e-13 3.507512418597827e-13 3.495953218204616e-13 3.51863634130325e-13
          3.6560387909764863e-13 3.5908150782848753e-13 3.475779970723064e-13 3.505531291844426e-13 3.704254535248205e-13 3.62144616376222e-13
          3.535496792819946e-13 3.5352093249763295e-13 3.5600999263496044e-13 3.5495111703329625e-13 3.555252825771297e-13 3.545639581109764e-13
          3.4983484339124333e-13 3.5172660490847866e-13 3.536125985269289e-13 3.535798938878827e-13 3.5348415893867965e-13 3.536023455716051e-13
          3.534100173391753e-13 3.5347785313826084e-13 3.539867882254189e-13 3.538517444312459e-13 3.5358299392998116e-13 3.535941044406946e-13
          3.5363691579098126e-13 3.53611606151044e-13 3.5362981701830524e-13 3.53621580219549e-13 3.5353315731939934e-13 3.53549839203402e-13
          3.535937727058727e-13 3.535949492200472e-13 3.5360698738695477e-13 3.536047632309551e-13 3.5206965233281637e-13 3.518461190617748e-13
          3.567324832663278e-13 3.5734911531413067e-13 3.526396511969257e-13 3.552571324296455e-13 3.5336222357243373e-13 3.536177329770432e-13
          3.539424545943385e-13 3.52492667905027e-13 3.5415279001243924e-13 3.5221639026399057e-13 3.540877371146652e-13 3.524998105961087e-13
          3.5383191574431794e-13 3.5313029035583005e-13 3.5357593817542485e-13 3.5369110096749325e-13 3.5355872919986e-13 3.537090742281603e-13
          3.5360469685004515e-13 3.535946067613341e-13 3.5358285511029024e-13 3.536355704179738e-13 3.5358035241824237e-13 3.53638817514949e-13
          3.5360155549431726e-13 3.535925005470079e-13 3.5360414815428747e-13 3.5358617585907334e-13 3.535973924696046e-13 3.536003809745555e-13
          3.5363085256577397e-13 3.5364391185485267e-13 3.5374047918484176e-13 3.5372383318764445e-13 3.5356734627193733e-13 3.5384372645196977e-13
          3.5344773873701017e-13 3.5404827969359087e-13 3.5336335428776253e-13 3.5416659566627657e-13 3.533766103020005e-13 3.540809690566016e-13
          3.534351671192268e-13 3.5391716419095675e-13 3.535318850484475e-13 3.5370144415233373e-13 3.5362361505427085e-13 3.5351842270736295e-13
          3.5362527268644856e-13 3.535259070246886e-13 3.5360676005526714e-13 3.535708470969543e-13 3.53618520971744e-13 3.5355060863141703e-13
          3.536150158991384e-13 3.535609343928251e-13 3.5359789603722656e-13 3.5359870458290905e-13 3.5359495288778207e-13 3.5360583063074193e-13
          3.535986592049876e-13 3.5359822287415573e-13 3.105650884098825e-13 3.395121205937112e-13 3.3947658485634276e-13 3.229182686362456e-13
          4.1441118149933656e-13 3.8231575836966027e-13 4.956992569528628e-13 4.2953702231403535e-13 5.037680989232668e-13 4.376410364762166e-13
          4.279173851033244e-13 3.9913446032923183e-13 3.6355082812596347e-13 3.639715325749104e-13 3.449367837861008e-13 3.5113691785746757e-13
          3.551698398580373e-13 3.537651682198423e-13 3.772111516783944e-13 3.647686499854817e-13 3.719058070237663e-13 3.626331203247676e-13
          3.5464568072427506e-13 3.53865304864114e-13 3.5221571221745434e-13 3.5267955164451206e-13 3.5344347514734856e-13 3.5354334823248617e-13
          3.538410105445701e-13 3.5378183057234186e-13 3.5357309241280735e-13 3.535802492282226e-13 3.4579641018254593e-13 3.4371056158645795e-13
          3.5108329897180464e-13 3.5741544449651415e-13 3.6141469108262046e-13 3.61117309832593e-13 3.5852592159190234e-13 3.5543945887474605e-13
          3.532729211228713e-13 3.5317818831740447e-13 3.535661100938388e-13 3.534509378538152e-13 3.534511525584524e-13 3.5362382791115947e-13
          3.536471219062221e-13 3.535930421940211e-13 3.5215177124611744e-13 3.5214967431030725e-13 3.5194626270362526e-13 3.5145610131782046e-13
          3.513154081360746e-13 3.5188308411004676e-13 3.5265960615994743e-13 3.535418658206577e-13 3.541853456640953e-13 3.5403022834224006e-13
          3.5377178656190866e-13 3.5381694670367744e-13 3.537589140453351e-13 3.5360443450469506e-13 3.5357159321233047e-13 3.535986783444043e-13
          3.9708242426663153e-13 4.4561975209261804e-13 4.153377912897299e-13 4.022837448339022e-13 7.14233429822631e-13 5.307115862082528e-13
          1.1088430883842643e-12 7.233259446066801e-13 1.083983111508054e-12 7.129025390681355e-13 6.119699152210777e-13 4.714378528997843e-13
          4.635078597013307e-13 3.952312196230028e-13 7.667208337541256e-13 5.579735326273161e-13 8.518788760881486e-13 6.110673487149927e-13
          5.859759438844458e-13 4.755504609380019e-13 3.789729925223384e-13 3.674800324554534e-13 3.524183240234054e-13 3.5443147652119093e-13
          3.590348738816601e-13 3.574690919406014e-13 3.544099068606281e-13 3.5399899650340424e-13 3.526595480979564e-13 3.5288877827892554e-13
          3.536721706794967e-13 3.5364878027595077e-13 3.7329099397453015e-13 3.846203468474223e-13 3.5443698623174813e-13 3.5023649435233473e-13
          3.520682341843205e-13 3.452889284045898e-13 3.41841613463646e-13 3.517053594692096e-13 3.6133604931991364e-13 3.5875441472453074e-13
          3.5439672394255274e-13 3.5457030000710277e-13 3.5443246759015157e-13 3.5357616158652795e-13 3.5341014149615516e-13 3.536126665732094e-13
          3.615261574622185e-13 3.6175562829367165e-13 3.6168422986962145e-13 3.626641878755737e-13 3.623145017404239e-13 3.5967206623068867e-13
          3.5672864738261693e-13 3.541844874379128e-13 3.5241627729799064e-13 3.5238385145750356e-13 3.528063754965372e-13 3.526959709952291e-13
          3.529616251807605e-13 3.535642370268755e-13 3.5370227453241566e-13 3.53599943274014e-13 1.6743941067541684e-12 2.2574349469978732e-12
          1.4070958751910979e-12 1.0689212670111815e-12 3.7291072319026256e-12 2.2536696593666982e-12 5.059276000198375e-12 3.0277019812774967e-12
          4.466895734478733e-12 2.743338765634298e-12 2.147411572351139e-12 1.4716353097041139e-12 1.3809117363179294e-12 9.613883497355264e-13
          2.7404250075905924e-12 1.5978557386443575e-12 3.051794283903673e-12 1.7552439705818038e-12 1.8524947468981145e-12 1.127951330694578e-12
          8.41709375587379e-13 5.970017239492653e-13 4.1757871884685343e-13 3.8328972957223273e-13 3.38747576593388e-13 3.4454248198557786e-13
          3.525665059691949e-13 3.5405329642182566e-13 4.494368035788365e-13 4.0065257773548627e-13 5.612672561153813e-13 6.667679112598183e-13
          6.809518968248445e-13 5.811779772435627e-13 4.643208934841439e-13 4.280623045001934e-13 4.305489165843941e-13 3.9155899276560163e-13
          3.5720370787329995e-13 3.545372216186093e-13 3.5401636883858235e-13 3.548427364524625e-13 3.421168037733507e-13 3.3785672820277817e-13
          3.4430242539999226e-13 3.3740786016301873e-13 3.42121996859825e-13 3.664969074300369e-13 3.867768238151647e-13 4.0083813930226416e-13
          4.0240417590885477e-13 3.797100710401619e-13 3.621133434354484e-13 3.6007370293960655e-13 3.576953502993969e-13 3.5414538603046863e-13
          1.1926606507834922e-11 1.4296471236601212e-11 8.512049976198132e-12 7.098434549695056e-12 1.9429991877505973e-11 1.1558885376841135e-11
          2.2623533917252803e-11 1.348215780448091e-11 1.8034744005435216e-11 1.0973133490305529e-11 8.911255405951203e-12 5.665978370254397e-12
          7.457860980124254e-12 4.351772645506855e-12 1.2942040948936774e-11 7.1370528932030075e-12 1.297874088304569e-11 7.288106601594932e-12
          7.1719921647743804e-12 4.131627969853623e-12 2.703054239215133e-12 1.6466025907101807e-12 8.833058609092022e-13 6.950999154963535e-13
          4.821362334999785e-13 4.680942504205091e-13 3.857053267460834e-13 3.804359497642897e-13 1.757844174775194e-12 1.522818558890965e-12
          2.2306882102517714e-12 2.5220703358628615e-12 2.2998468796259473e-12 1.5965782542939065e-12 1.0340359453949332e-12 1.0795740261026557e-12
          1.1758574831437031e-12 8.156370429843363e-13 4.90157904499651e-13 4.366751027492808e-13 4.06258275720933e-13 3.6537837929868647e-13
          7.880596337553354e-13 7.753745262267416e-13 7.735975443272485e-13 7.033589800167054e-13 6.881707840760519e-13 7.72455174030222e-13
          8.223875799004126e-13 8.270832147360699e-13 7.542426461432331e-13 5.400103110358077e-13 3.901648667940736e-13 3.6645623541505657e-13
          3.584642841008264e-13 3.5559018581487695e-13 7.80803165820708e-11 8.40994606580194e-11 5.2092803180253946e-11 4.875948100402975e-11
          9.560025063847033e-11 5.828442768141163e-11 9.643807459056692e-11 5.82104255399322e-11 6.896291676044222e-11 4.208208084690023e-11
          3.8490100535054484e-11 2.3442878816116535e-11 4.23984571993015e-11 2.4035872769647267e-11 6.238465756244703e-11 3.5010015870498335e-11
          5.668333754781203e-11 3.2431306169535296e-11 2.9154531021338645e-11 1.7079810468141402e-11 1.0453401821367789e-11 6.293249775816198e-12
          3.2982900555392228e-12 2.367086498828018e-12 1.1525060902649843e-12 1.0920546269608155e-12 6.756421902921508e-13 6.365188394645359e-13
          1.2359355247490572e-11 1.2049992627142063e-11 1.2661363871031667e-11 1.1887054215749919e-11 9.380227732725249e-12 6.103970242337859e-12
          4.749944549817122e-12 5.596717273108299e-12 5.567176949226684e-12 3.388658050441944e-12 1.5256448947127685e-12 1.0739023641959532e-12
          7.969667014198433e-13 5.001634638371332e-13 4.6325647924926365e-12 4.661339828295428e-12 4.354123017710408e-12 3.791331942202369e-12
          3.5592105320922555e-12 3.812283387497122e-12 3.8266007596412144e-12 3.5580603676669676e-12 2.9550791071948075e-12 1.7722261859397302e-12
          9.18192059160927e-13 7.119217862750924e-13 5.623302391830396e-13 4.0293143903734536e-13 4.229836850026148e-10 4.287361001576443e-10
          2.686820026323486e-10 2.67696804946087e-10 4.290109474650488e-10 2.630230694022402e-10 3.774783173820437e-10 2.2711906815002548e-10
          2.488930668001555e-10 1.4925141861084593e-10 1.8568075681338512e-10 1.1010196811511872e-10 2.4671013931728066e-10 1.4349032639394798e-10
          3.064787688909051e-10 1.777840221322608e-10 2.54416959808785e-10 1.4959734226274132e-10 1.2150342662991597e-10 7.391239068098798e-11
          4.050349733228061e-11 2.5847491675002278e-11 1.4389108529541346e-11 1.0482409363611154e-11 4.735544145199334e-12 4.3610930410735056e-12
          1.983698697856638e-12 1.793137176576847e-12 6.761775908889877e-11 6.982690780375723e-11 6.067944548853787e-11 4.884858962218468e-11
          3.441602168087535e-11 2.7046843289877144e-11 2.9518950480514646e-11 3.284446746017757e-11 2.8942018005428787e-11 1.69403419975573e-11
          7.397246653319361e-12 4.528317969134796e-12 2.79787899714773e-12 1.1560146065335112e-12 2.660761307074456e-11 2.7243890717955265e-11
          2.4323699637644185e-11 2.0937360326362035e-11 1.922227294021437e-11 1.9570507162902008e-11 1.8767387490413996e-11 1.6599659546738697e-11
          1.3106311294160004e-11 7.559329263054619e-12 3.603007288914776e-12 2.4809257405886306e-12 1.6091160573477832e-12 7.094535577699662e-13
          1.9247923070445867e-9 1.8649522631806397e-9 1.1468665836109443e-9 1.1971010652965687e-9 1.6662391604900394e-9 9.96741931319552e-10
          1.2433625160666805e-9 7.298260883493032e-10 8.309836938208846e-10 5.063263417378723e-10 1.00593196857905e-9 6.250702833712076e-10
          1.4276671521317102e-9 8.669163581366085e-10 1.5335250854088773e-9 9.214270000516221e-10 1.1724921595826136e-9 7.109684984548872e-10
          5.22869673979361e-10 3.324672672054975e-10 1.5903804828821468e-10 1.1013118761321935e-10 6.325065857740021e-11 4.7999207730691115e-11
          2.1229461430951502e-11 1.9619191591716585e-11 7.883941212480016e-12 7.118998111982697e-12 2.78404521308875e-10 3.00891808586611e-10
          2.212816003352768e-10 1.577488672691521e-10 1.3636944749316944e-10 1.6765614824965871e-10 1.95900137404297e-10 1.914916638243578e-10
          1.5282437632026713e-10 8.69088284865156e-11 3.8064264485441555e-11 2.13652680335213e-11 1.2104151568099532e-11 4.250336991350321e-12
          1.280281385765012e-10 1.3237379362467174e-10 1.1531849852148907e-10 9.920807390637833e-11 9.106990533147897e-11 9.110369833595242e-11
          8.563471066708704e-11 7.36544129543486e-11 5.6203915313373273e-11 3.175279654139719e-11 1.490420203265904e-11 9.982779183060565e-12
          6.199381383717388e-12 2.1466189712152636e-12 6.651162095852402e-9 6.124107671130158e-9 3.5566301840529736e-9 3.839887235112031e-9
          4.707135845768193e-9 2.8723889422624114e-9 3.0841229443412186e-9 2.1938539828359753e-9 3.722569081487682e-9 2.726853074165132e-9
          6.609562442647887e-9 4.3706970675027945e-9 8.232644846699189e-9 5.218233709598997e-9 7.822989624309078e-9 4.874401023692669e-9
          5.556624714434065e-9 3.4842235642013235e-9 2.3283785581940418e-9 1.555792293280515e-9 6.319983682863324e-10 4.871894768381331e-10
          2.779090599092379e-10 2.238678370158862e-10 9.772899617040343e-11 9.173215738104778e-11 7.200918949139401e-10 7.480918514037833e-10
          7.219926208588192e-10 8.303678599666035e-10 1.0380455441112452e-9 1.2470010331264044e-9 1.2764253124329116e-9 1.113334946408387e-9
          8.189875106252942e-10 4.54263162249179e-10 2.0010830540970886e-10 1.043630883109857e-10 5.5005328052447836e-11 4.5103109285209134e-10
          4.675713284359074e-10 4.063432029610088e-10 3.571506986024757e-10 3.449540213799073e-10 3.621703738951065e-10 3.490280523670173e-10
          3.0085746974051503e-10 2.261526072820063e-10 1.2532029613136898e-10 5.783602542948387e-11 3.8899562499436896e-11 2.4275337513203537e-11
          1.557318001219179e-8 1.5494972609426334e-8 1.4548305938323402e-8 1.4319589217312663e-8 1.656058876872761e-8 1.572649469795246e-8
          2.1051174234432336e-8 1.8634877977544864e-8 3.2299542136487485e-8 2.4690589059644186e-8 4.488606665578714e-8 3.0910263642014364e-8
          4.749083769701077e-8 3.128252250202369e-8 4.072059916967391e-8 2.6293408891864026e-8 2.712973658127744e-8 1.760730980288998e-8
          1.0781659137441542e-8 7.585595157683218e-9 2.5555466730809452e-9 2.2500708271679454e-9 7.378642711095769e-9 7.168508396939573e-9
          7.894773119765422e-9 8.456054535562861e-9 8.929366453049079e-9 8.991076476617416e-9 8.113657824763684e-9 6.461980440393533e-9
          4.4471089933720665e-9 2.4152870768208306e-9 1.071466206273558e-9 1.155646154971068e-9 1.2710183714456046e-9 8.971456123535384e-10
          6.935273504683267e-10 7.770969232972576e-10 1.047692324993238e-9 1.1531083424907707e-9 1.057742266732927e-9 8.093349622416112e-10
          4.4104297571677054e-10 1.9833743129217e-10 3.859885816287926e-8 3.827849513691124e-8 1.132905253046854e-7 1.1603290223291501e-7
          4.001594641750765e-8 1.0741991434920472e-7 4.662272276699724e-8 1.0150887305924457e-7 6.043187635050259e-8 9.732390619119848e-8
          1.8992364168484845e-7 1.5268775528733727e-7 2.8267883488294984e-7 1.89982241026264e-7 2.2421878254505597e-7 1.4725500568347064e-7
          1.0496336528051901e-7 1.0841799978875251e-7 9.640748353086399e-8 8.565811948276928e-8 7.421073540452203e-8 6.243669724218393e-8
          4.997769875915759e-8 3.66267591304553e-8 2.10706296039055e-8 2.3039771576845127e-8 1.6381736933635666e-8 1.1121212562174638e-8
          6.537844663104092e-9 3.437458223471008e-9 2.6697503487370457e-9 2.962289439025278e-9 2.180625701573005e-7 2.2637633611442088e-7
          2.3224448536933708e-7 2.3172123621091554e-7 2.4166438773589284e-7 2.3162960039010756e-7 2.5807774353828304e-7 2.2885892103160211e-7
          2.751613892461541e-7 2.2387664056404644e-7 4.051544429523723e-7 2.7456271606219736e-7 5.201017977847889e-7 3.1462682737869486e-7
          1.64739966834881e-7 1.7168252550553675e-7 1.4819105044226788e-7 1.2789396649119692e-7 1.0647657867993358e-7 8.500658266101032e-8
          6.404876524601351e-8 1.0570065230535774e-7 1.12771093765878e-7 8.865981658241704e-8 6.851257129529258e-8 4.8638805136753744e-8
          3.093283263793603e-8 1.767259424434703e-8 1.8408951375104856e-7 2.0008760798483802e-7 2.71796084800485e-7 2.5757792118011217e-7
          2.3193408967367923e-7 2.9930455082477623e-7 2.726299196431903e-7 3.3174307375467714e-7 3.242834354007613e-7 3.6915264643216247e-7
          3.9138970997247155e-7 4.119656728758541e-7 4.882585994058966e-7 4.6035152310197925e-7 1.5191526508419934e-7 1.5815111386964342e-7
          1.375577618187294e-7 1.196804963594608e-7 1.0004064432030733e-7 7.934377619995884e-8 5.871945714420079e-8 1.7088011722320073e-7
          1.812878728982966e-7 1.4572722977387212e-7 1.1561848589377855e-7 8.521595137138204e-8 5.651130140042215e-8 3.1754002460584225e-8
          5.577910885916233e-8 5.5398465719177754e-8 5.588570526175535e-8 1.0695530878615919e-7 1.0664034191305029e-7 9.66447651707148e-8
          9.704150252555612e-8 5.4245765460341684e-8 1.0578907754608238e-7 9.559589683686523e-8 5.5017822579193195e-8 8.664918842837932e-8
          8.712769626495306e-8 8.540271612764805e-8 2.2044542676864333e-7 2.0727365960682056e-7 2.0535619161866676e-7 2.12042849810565e-7
          1.8928863219083704e-7 5.3973605614137454e-8 5.302676624517335e-8 1.0457066688604585e-7 9.416155507033143e-8 5.208233573409999e-8
          1.0299734692274796e-7 9.239264106506797e-8 5.2079926876209245e-8 8.3752443254617e-8 8.178793520738794e-8 2.3378699801639021e-7
          2.180743346836907e-7 2.2449307919530276e-7 1.9638543522052803e-7 5.407757482223908e-8 5.1542692252460686e-8 1.0096341157194602e-7
          9.018052961341695e-8 5.1623357573844794e-8 9.841123254733787e-8 8.746274802235974e-8 4.900780968268229e-8 7.939764765488787e-8
          7.651426349738158e-8 2.497875805553408e-7 2.3096832037123279e-7 2.373850719332676e-7 2.0467185289207878e-7 5.8052432463185887e-8
          5.2571450634115155e-8 9.52860915170552e-8 8.41671369109421e-8 5.4768598787702435e-8 9.160881063510584e-8 8.026005064425443e-8
          4.7090468805044416e-8 7.304818230482899e-8 6.8911290653403e-8 2.665190792436458e-7 2.4366266693915666e-7 2.4973683992243564e-7
          2.1164609005132008e-7 6.911990097149783e-8 5.8683953161589295e-8 8.755113029766073e-8 7.57908189286667e-8 6.112083565129935e-8
          8.54550402828089e-8 7.342543572549321e-8 4.824800535168076e-8 6.403050755967266e-8 6.139583116817752e-8 2.842319175801484e-7
          2.556483506452618e-7 3.243250310852406e-7 2.160188489414893e-7 2.3125951172639782e-7 2.3602800623921502e-7 2.5515833434744493e-7
          2.506027598045879e-7 2.480307180332649e-7 2.666492149810793e-7 2.4320490001499057e-7 2.4014322036624255e-7 2.509113366000696e-7
          1.886667339080816e-7 2.3366041410350058e-7 2.2869043616119912e-7 2.4615875855441713e-7 2.616171288825083e-7 2.636649690472832e-7
          2.816380775499295e-7 2.814799274406297e-7 2.986113760836237e-7 2.6086077036070814e-7 2.7184096479308175e-7 2.149236702197403e-7
          2.624238296279672e-7 2.809395401726777e-7 2.848558677071366e-7 3.014070874341108e-7 3.173645222038914e-7 3.2369315112539873e-7
          3.3805799675365453e-7 2.835240411931234e-7 2.958671584295388e-7 2.510882620791929e-7 3.0161077063969045e-7 3.246479881116485e-7
          3.149340458616752e-7 3.48707964741477e-7 3.609610309129047e-7 3.7691244076230293e-7 3.8641523860651225e-7 3.0887992479913015e-7
          3.2257809443536614e-7 2.968975215665869e-7 3.5035955113526505e-7 3.791082998689596e-7 3.49793662423587e-7 4.088597491702783e-7
          4.148514386500857e-7 4.4387076081011197e-7 4.457909541315273e-7 3.369963247775085e-7 3.5187056026247964e-7 3.552380228040836e-7
          4.11303860705392e-7 4.479593795350374e-7 3.8987088102661537e-7 5.267142372501663e-7 4.663170736803421e-7 4.809948343457318e-7
          4.784614150363997e-7 4.877991651947625e-7 5.220274615748139e-7 5.14015493635885e-7 2.980128834447848e-7 3.667367459230958e-7
          3.816285038782113e-7 4.352754314412973e-7 4.906057563924573e-7 5.402318220770077e-7 4.3546060840140673e-7 1.3866398450900584e-7