<?xml version="1.0"?>
<VTKFile type="UnstructuredGrid" version="0.1" byte_order="LittleEndian" header_type="UInt32" compressor="vtkZLibDataCompressor">
  <UnstructuredGrid>
    <Piece NumberOfPoints="356" NumberOfCells="183">
      <PointData>
        <DataArray type="Int32" Name="libmesh_node_id" format="ascii" RangeMin="90" RangeMax="3396">
          90 91 92 93 94 95
          96 97 110 111 112 113
          120 121 122 123 124 125
          126 127 140 141 142 143
          150 151 152 153 154 155
          156 157 170 171 172 173
          180 181 182 183 184 185
          186 187 200 201 202 203
          3023 3024 3025 3026 3027 3028
          3029 3030 3031 3032 3033 3034
          3035 3036 3037 3038 3039 3040
          3041 3042 3043 3044 3045 3046
          3047 3048 3049 3050 3051 3052
          3053 3054 3055 3056 3057 3058
          3059 3060 3061 3062 3063 3064
          3065 3066 3067 3068 3069 3070
          3071 3072 3073 3074 3075 3076
          3077 3078 3131 3132 3133 3134
          3135 3136 3137 3138 3139 3140
          3141 3142 3143 3144 3145 3146
          3147 3148 3149 3150 3151 3152
          3153 3154 3157 3158 3160 3161
          3162 3163 3164 3165 3166 3167
          3168 3169 3170 3171 3172 3173
          3174 3175 3176 3177 3178 3179
          3180 3181 3182 3183 3184 3185
          3186 3187 3188 3189 3190 3191
          3192 3193 3194 3195 3196 3197
          3198 3199 3200 3201 3202 3203
          3204 3205 3206 3207 3208 3209
          3210 3211 3212 3213 3214 3215
          3216 3217 3218 3219 3220 3221
          3222 3223 3224 3225 3226 3227
          3228 3229 3230 3231 3232 3233
          3234 3235 3236 3237 3238 3239
          3240 3241 3242 3243 3244 3245
          3246 3247 3248 3249 3250 3251
          3252 3253 3254 3255 3256 3257
          3258 3259 3260 3261 3262 3263
          3264 3265 3266 3267 3268 3269
          3270 3271 3272 3273 3274 3275
          3276 3277 3278 3279 3280 3281
          3282 3283 3284 3285 3286 3287
          3288 3289 3290 3291 3292 3293
          3294 3295 3296 3297 3298 3299
          3300 3301 3302 3303 3304 3305
          3306 3307 3308 3309 3310 3311
          3312 3313 3314 3315 3316 3317
          3318 3319 3320 3321 3322 3323
          3324 3325 3326 3327 3328 3329
          3330 3331 3332 3333 3334 3335
          3336 3337 3338 3339 3340 3341
          3342 3343 3344 3345 3346 3347
          3348 3349 3350 3351 3352 3353
          3354 3355 3356 3357 3358 3359
          3360 3361 3364 3365 3368 3369
          3371 3372 3373 3374 3375 3376
          3377 3378 3379 3380 3387 3388
          3389 3390 3391 3392 3393 3394
          3395 3396
        </DataArray>
        <DataArray type="Float64" Name="bounds" format="ascii" RangeMin="0" RangeMax="0">
          0 0 0 0 0 0
          0 0 0 0 0 0
          0 0 0 0 0 0
          0 0 0 0 0 0
          0 0 0 0 0 0
          0 0 0 0 0 0
          0 0 0 0 0 0
          0 0 0 0 0 0
          0 0 0 0 0 0
          0 0 0 0 0 0
          0 0 0 0 0 0
          0 0 0 0 0 0
          0 0 0 0 0 0
          0 0 0 0 0 0
          0 0 0 0 0 0
          0 0 0 0 0 0
          0 0 0 0 0 0
          0 0 0 0 0 0
          0 0 0 0 0 0
          0 0 0 0 0 0
          0 0 0 0 0 0
          0 0 0 0 0 0
          0 0 0 0 0 0
          0 0 0 0 0 0
          0 0 0 0 0 0
          0 0 0 0 0 0
          0 0 0 0 0 0
          0 0 0 0 0 0
          0 0 0 0 0 0
          0 0 0 0 0 0
          0 0 0 0 0 0
          0 0 0 0 0 0
          0 0 0 0 0 0
          0 0 0 0 0 0
          0 0 0 0 0 0
          0 0 0 0 0 0
          0 0 0 0 0 0
          0 0 0 0 0 0
          0 0 0 0 0 0
          0 0 0 0 0 0
          0 0 0 0 0 0
          0 0 0 0 0 0
          0 0 0 0 0 0
          0 0 0 0 0 0
          0 0 0 0 0 0
          0 0 0 0 0 0
          0 0 0 0 0 0
          0 0 0 0 0 0
          0 0 0 0 0 0
          0 0 0 0 0 0
          0 0 0 0 0 0
          0 0 0 0 0 0
          0 0 0 0 0 0
          0 0 0 0 0 0
          0 0 0 0 0 0
          0 0 0 0 0 0
          0 0 0 0 0 0
          0 0 0 0 0 0
          0 0 0 0 0 0
          0 0
        </DataArray>
        <DataArray type="Float64" Name="gradient_error" format="ascii" RangeMin="5.393181930501733e-9" RangeMax="0.00000231967583252856">
          9.219929033911841e-8 7.11574680145467e-8 4.2507491413585005e-8 5.430185382934984e-8 2.8967494834731272e-8 1.8898313205416222e-8
          7.62928446342044e-9 6.511233196961087e-9 1.3857514812623307e-8 1.640441731958127e-8 8.829131576101175e-9 5.393181930501733e-9
          4.1207500430392495e-7 2.4093983281473956e-7 1.4917389867528183e-7 2.4432932286811226e-7 3.455743011876775e-8 3.4367618792489694e-8
          1.6723482278878688e-8 1.573846762749262e-8 6.416529954836682e-8 7.65836414322995e-8 3.955724240505395e-8 2.2597480452798788e-8
          0.0000013714673089865608 0.0000012565153654599384 6.242642647745598e-7 8.873266102322817e-7 1.6158233420667772e-7 3.0606049014009454e-7
          1.1074749907949766e-7 2.2618661810060335e-7 4.4716996971338983e-7 8.219050164295828e-7 3.845493175369321e-8 2.2522439570196645e-8
          2.0498889621618565e-7 2.5869231604427905e-7 0.000001639176941688559 0.0000019029368723102522 3.740658629105837e-7 2.6603960595866513e-7
          5.954841091415727e-7 1.9055628405135987e-7 8.267641052412161e-7 0.0000015178471431281583 3.199449046338928e-8 3.916485003926051e-8
          0.0000020861426607621077 0.0000016545283510797545 0.000001649998743894807 0.0000012174909476422476 0.000001241261923785825 0.0000015015663033242192
          0.0000014855069162757964 0.000001134424388775695 0.00000129154008376348 0.0000015346791728096425 0.0000012229140413974014 0.0000017712949369629805
          0.0000017596531202177864 0.0000012615661554423755 2.245385515272094e-7 0.0000013547801301517454 0.0000013237999526120236 0.0000014208390691881893
          0.00000231967583252856 6.574471881901291e-7 6.17909303002758e-7 8.894265264923435e-7 0.0000010517840373415483 3.396106332333324e-7
          5.013827715062202e-7 5.676417410431542e-7 4.3668080304146853e-7 7.144927451308685e-7 4.0082429379528444e-7 3.0079584017702146e-7
          9.695659511207414e-7 5.250784105747053e-7 8.201656046738718e-7 1.4097149581484212e-7 3.0045691981577455e-7 5.684359614626621e-7
          5.685775880047089e-7 2.5824237322311726e-7 6.433031319779241e-7 5.652090168180573e-7 3.3555416613001917e-7 3.507479358037729e-7
          2.9248234019828994e-7 4.647041210421879e-7 6.003211213057255e-7 6.871846839212218e-7 2.356107876167563e-7 9.641702381763979e-8
          2.1895349407091376e-7 7.273730271301264e-7 5.494554404242587e-7 2.4198025614008154e-7 2.3202141504835754e-7 7.893443329643613e-7
          7.871461129861732e-7 1.4926251829684071e-7 3.8676152095820626e-8 3.04427430412103e-8 4.464884841065594e-8 8.186414915172309e-8
          7.605531645568226e-8 5.676708615166452e-8 6.390068694982509e-8 1.6711987354392908e-8 7.382167415372914e-8 4.888709517280594e-8
          2.2209333986599976e-8 3.74788558476468e-8 4.5937224747927096e-8 2.3952516191882742e-8 2.4494186523953154e-8 1.6280385507600817e-8
          6.550625190407465e-8 4.073869447293504e-8 1.33235208491182e-8 4.1815710911882685e-8 2.830689804314397e-8 8.066584491248474e-9
          1.5971137041795446e-8 1.479808517440526e-8 3.051012774339073e-8 2.4476531704087866e-8 1.8442935664785005e-8 8.155964620955374e-8
          9.831702505979084e-8 1.2929220080267468e-7 1.48674481670216e-7 5.628432697913289e-8 1.0484630671340154e-7 3.707327276601646e-8
          5.909651824285141e-8 9.787008863827431e-8 2.2137355634985494e-8 1.770247553957956e-7 1.9903193828064117e-7 1.5340828644767017e-7
          8.111976371968636e-8 3.881320284738977e-8 8.646411345467388e-8 2.2630823362980146e-8 5.8891145847120606e-8 9.959050841534015e-9
          2.4613557782799344e-8 2.380578517645276e-8 1.3411502406195799e-7 9.515146833126107e-8 3.926806472406467e-8 1.2169977128581277e-8
          3.382234216999463e-8 6.385099079851484e-9 1.863103710785492e-8 5.5474707211407983e-8 3.087697513585836e-8 3.745531938763993e-7
          3.6746625261551137e-7 3.601338111296666e-7 2.8562647132714684e-7 2.927103827042697e-7 3.284221087882271e-7 3.2120745555180494e-7
          3.86956932709175e-7 3.104598691683757e-7 3.4708421118012255e-7 3.603793113546236e-7 3.6413383487218454e-7 3.5678843977646304e-7
          3.8370855319186935e-7 2.108675715321402e-7 2.8937796496094277e-7 2.822810999739433e-7 3.072114896510701e-7 3.678883583897454e-7
          4.258764285002716e-7 4.13762280137517e-7 3.3344098141023247e-7 3.7198530451663615e-7 4.451486771476236e-7 3.593162635742911e-7
          4.006072253765926e-7 4.016481317747624e-7 4.105296276230399e-7 4.4189818717889415e-7 2.4100553432019334e-7 3.3020832889575535e-7
          3.5606577360556165e-7 4.194111234713173e-7 2.3368713334020774e-7 2.131832527690093e-7 2.329537971214017e-7 3.0861729963524376e-7
          3.0911149651384996e-7 2.7707264788153863e-7 2.755053836304413e-7 1.8558973230517474e-7 3.105776670888085e-7 2.791013039596707e-7
          1.9267937219781091e-7 2.4503379924922736e-7 2.423934676256389e-7 2.476249408305329e-7 4.6665667631425254e-7 4.398491661175276e-7
          4.4786333769895446e-7 4.725975846824296e-7 3.860669037343266e-7 4.981681124309182e-7 4.807960880593104e-7 3.8746547434196267e-7
          4.325981117991252e-7 4.1488952446184667e-7 4.6247153108945915e-7 4.634240636877026e-7 4.777307492562875e-7 4.5965590764060266e-7
          2.767628362530073e-7 3.844001355389399e-7 4.1217654070022697e-7 4.920374348248725e-7 4.421108190970161e-7 4.893044722117234e-7
          4.7664440707226976e-7 5.238081316498998e-7 4.5958566934003795e-7 4.94072305283126e-7 3.3544414525301927e-7 4.398726551824598e-7
          4.750339695491071e-7 4.887650962289079e-7 2.7618849177697355e-7 2.7103318850547113e-7 3.181530625847278e-7 3.144282804725326e-7
          2.8281300928674626e-7 3.2425947325516297e-7 2.202595841925727e-7 2.536329118158108e-7 2.699959134574002e-7 2.3134619217160365e-7
          3.601176333924821e-7 3.57823372439594e-7 3.6570593722357963e-7 2.8700623943904893e-7 1.8378253234438967e-7 1.7381645145812814e-7
          3.1292382026132275e-7 2.7994848322751667e-7 1.658694463937891e-7 3.1492973855257966e-7 2.800024091386885e-7 1.6385037057186666e-7
          2.4697314619371053e-7 2.4507507972479737e-7 5.343599864606939e-7 5.011734334740785e-7 5.291674533049807e-7 4.3600753253262866e-7
          1.6722486879214925e-7 1.5766513650924965e-7 3.152527659239808e-7 2.7842597889745794e-7 1.4910167844610243e-7 3.1335240336649217e-7
          2.7476323518986703e-7 1.481054042263501e-7 2.4159919187093513e-7 2.36174067013242e-7 6.046659521051047e-7 5.582751415519986e-7
          5.884683597637134e-7 4.693949859649033e-7 5.210366388426261e-7 5.682535325543415e-7 5.735706206039206e-7 6.190248172550141e-7
          5.25284165239799e-7 5.56499299919578e-7 4.154184129421202e-7 5.202407131574311e-7 5.738500997836545e-7 5.616049925884322e-7
          6.349907447661373e-7 6.770461029776627e-7 7.072083455127384e-7 7.437223014392277e-7 5.893170506706482e-7 6.237032057830969e-7
          5.239302483778777e-7 6.367287441369942e-7 7.109326752846604e-7 6.420881121517014e-7 2.848889413509424e-7 3.2887478494596274e-7
          2.853179793986462e-7 3.3263542867932093e-7 1.977290460789245e-7 2.2265166567838403e-7 2.1675127142559328e-7 3.72860628540983e-7
          3.799528779599956e-7 2.475742852778436e-7 2.8400082210156303e-7 3.3476887465033725e-7 2.8055590977843794e-7 3.347686068627573e-7
          1.83585348306201e-7 2.10005109148566e-7 2.0236705952503782e-7 3.855369271991116e-7 3.889813039470767e-7 2.3642486999093104e-7
          1.5133505944714673e-7 1.40551210099253e-7 3.085013436179099e-7 2.684412600975427e-7 1.3304055647127885e-7 2.9995037441202956e-7
          2.58842625741272e-7 1.2976736075135931e-7 2.2838117657717539e-7 2.1773487707051442e-7 6.842979787365244e-7 6.194379394157746e-7
          6.505796814358055e-7 4.977095993858194e-7 2.867238186715285e-7 2.452069303596605e-7 7.720190542700039e-7 6.811027093372264e-7
          7.927590893181054e-7 8.208747289389581e-7 8.948665935845563e-7 9.108016333780377e-7 6.593438414946609e-7 6.955862218121816e-7
          6.825898489518353e-7 7.992048891421994e-7 9.050885988957295e-7 7.356207801120883e-7 2.7451659738565806e-7 3.3197510602098844e-7
          2.6531681751798785e-7 3.25636398371987e-7 1.6506019680390758e-7 1.9425289761246608e-7 1.8683702629112984e-7 3.894336146563188e-7
          3.859559792259862e-7 2.234455984210246e-7
        </DataArray>
        <DataArray type="Float64" Name="gradient_matprop_error" format="ascii" RangeMin="0" RangeMax="0">
          0 0 0 0 0 0
          0 0 0 0 0 0
          0 0 0 0 0 0
          0 0 0 0 0 0
          0 0 0 0 0 0
          0 0 0 0 0 0
          0 0 0 0 0 0
          0 0 0 0 0 0
          0 0 0 0 0 0
          0 0 0 0 0 0
          0 0 0 0 0 0
          0 0 0 0 0 0
          0 0 0 0 0 0
          0 0 0 0 0 0
          0 0 0 0 0 0
          0 0 0 0 0 0
          0 0 0 0 0 0
          0 0 0 0 0 0
          0 0 0 0 0 0
          0 0 0 0 0 0
          0 0 0 0 0 0
          0 0 0 0 0 0
          0 0 0 0 0 0
          0 0 0 0 0 0
          0 0 0 0 0 0
          0 0 0 0 0 0
          0 0 0 0 0 0
          0 0 0 0 0 0
          0 0 0 0 0 0
          0 0 0 0 0 0
          0 0 0 0 0 0
          0 0 0 0 0 0
          0 0 0 0 0 0
          0 0 0 0 0 0
          0 0 0 0 0 0
          0 0 0 0 0 0
          0 0 0 0 0 0
          0 0 0 0 0 0
          0 0 0 0 0 0
          0 0 0 0 0 0
          0 0 0 0 0 0
          0 0 0 0 0 0
          0 0 0 0 0 0
          0 0 0 0 0 0
          0 0 0 0 0 0
          0 0 0 0 0 0
          0 0 0 0 0 0
          0 0 0 0 0 0
          0 0 0 0 0 0
          0 0 0 0 0 0
          0 0 0 0 0 0
          0 0 0 0 0 0
          0 0 0 0 0 0
          0 0 0 0 0 0
          0 0 0 0 0 0
          0 0 0 0 0 0
          0 0 0 0 0 0
          0 0 0 0 0 0
          0 0 0 0 0 0
          0 0
        </DataArray>
        <DataArray type="Float64" Name="initial_marker" format="ascii" RangeMin="0" RangeMax="0">
          0 0 0 0 0 0
          0 0 0 0 0 0
          0 0 0 0 0 0
          0 0 0 0 0 0
          0 0 0 0 0 0
          0 0 0 0 0 0
          0 0 0 0 0 0
          0 0 0 0 0 0
          0 0 0 0 0 0
          0 0 0 0 0 0
          0 0 0 0 0 0
          0 0 0 0 0 0
          0 0 0 0 0 0
          0 0 0 0 0 0
          0 0 0 0 0 0
          0 0 0 0 0 0
          0 0 0 0 0 0
          0 0 0 0 0 0
          0 0 0 0 0 0
          0 0 0 0 0 0
          0 0 0 0 0 0
          0 0 0 0 0 0
          0 0 0 0 0 0
          0 0 0 0 0 0
          0 0 0 0 0 0
          0 0 0 0 0 0
          0 0 0 0 0 0
          0 0 0 0 0 0
          0 0 0 0 0 0
          0 0 0 0 0 0
          0 0 0 0 0 0
          0 0 0 0 0 0
          0 0 0 0 0 0
          0 0 0 0 0 0
          0 0 0 0 0 0
          0 0 0 0 0 0
          0 0 0 0 0 0
          0 0 0 0 0 0
          0 0 0 0 0 0
          0 0 0 0 0 0
          0 0 0 0 0 0
          0 0 0 0 0 0
          0 0 0 0 0 0
          0 0 0 0 0 0
          0 0 0 0 0 0
          0 0 0 0 0 0
          0 0 0 0 0 0
          0 0 0 0 0 0
          0 0 0 0 0 0
          0 0 0 0 0 0
          0 0 0 0 0 0
          0 0 0 0 0 0
          0 0 0 0 0 0
          0 0 0 0 0 0
          0 0 0 0 0 0
          0 0 0 0 0 0
          0 0 0 0 0 0
          0 0 0 0 0 0
          0 0 0 0 0 0
          0 0
        </DataArray>
        <DataArray type="Float64" Name="markers_norefine" format="ascii" RangeMin="0" RangeMax="0">
          0 0 0 0 0 0
          0 0 0 0 0 0
          0 0 0 0 0 0
          0 0 0 0 0 0
          0 0 0 0 0 0
          0 0 0 0 0 0
          0 0 0 0 0 0
          0 0 0 0 0 0
          0 0 0 0 0 0
          0 0 0 0 0 0
          0 0 0 0 0 0
          0 0 0 0 0 0
          0 0 0 0 0 0
          0 0 0 0 0 0
          0 0 0 0 0 0
          0 0 0 0 0 0
          0 0 0 0 0 0
          0 0 0 0 0 0
          0 0 0 0 0 0
          0 0 0 0 0 0
          0 0 0 0 0 0
          0 0 0 0 0 0
          0 0 0 0 0 0
          0 0 0 0 0 0
          0 0 0 0 0 0
          0 0 0 0 0 0
          0 0 0 0 0 0
          0 0 0 0 0 0
          0 0 0 0 0 0
          0 0 0 0 0 0
          0 0 0 0 0 0
          0 0 0 0 0 0
          0 0 0 0 0 0
          0 0 0 0 0 0
          0 0 0 0 0 0
          0 0 0 0 0 0
          0 0 0 0 0 0
          0 0 0 0 0 0
          0 0 0 0 0 0
          0 0 0 0 0 0
          0 0 0 0 0 0
          0 0 0 0 0 0
          0 0 0 0 0 0
          0 0 0 0 0 0
          0 0 0 0 0 0
          0 0 0 0 0 0
          0 0 0 0 0 0
          0 0 0 0 0 0
          0 0 0 0 0 0
          0 0 0 0 0 0
          0 0 0 0 0 0
          0 0 0 0 0 0
          0 0 0 0 0 0
          0 0 0 0 0 0
          0 0 0 0 0 0
          0 0 0 0 0 0
          0 0 0 0 0 0
          0 0 0 0 0 0
          0 0 0 0 0 0
          0 0
        </DataArray>
        <DataArray type="Float64" Name="markers_mustrefine" format="ascii" RangeMin="0" RangeMax="0">
          0 0 0 0 0 0
          0 0 0 0 0 0
          0 0 0 0 0 0
          0 0 0 0 0 0
          0 0 0 0 0 0
          0 0 0 0 0 0
          0 0 0 0 0 0
          0 0 0 0 0 0
          0 0 0 0 0 0
          0 0 0 0 0 0
          0 0 0 0 0 0
          0 0 0 0 0 0
          0 0 0 0 0 0
          0 0 0 0 0 0
          0 0 0 0 0 0
          0 0 0 0 0 0
          0 0 0 0 0 0
          0 0 0 0 0 0
          0 0 0 0 0 0
          0 0 0 0 0 0
          0 0 0 0 0 0
          0 0 0 0 0 0
          0 0 0 0 0 0
          0 0 0 0 0 0
          0 0 0 0 0 0
          0 0 0 0 0 0
          0 0 0 0 0 0
          0 0 0 0 0 0
          0 0 0 0 0 0
          0 0 0 0 0 0
          0 0 0 0 0 0
          0 0 0 0 0 0
          0 0 0 0 0 0
          0 0 0 0 0 0
          0 0 0 0 0 0
          0 0 0 0 0 0
          0 0 0 0 0 0
          0 0 0 0 0 0
          0 0 0 0 0 0
          0 0 0 0 0 0
          0 0 0 0 0 0
          0 0 0 0 0 0
          0 0 0 0 0 0
          0 0 0 0 0 0
          0 0 0 0 0 0
          0 0 0 0 0 0
          0 0 0 0 0 0
          0 0 0 0 0 0
          0 0 0 0 0 0
          0 0 0 0 0 0
          0 0 0 0 0 0
          0 0 0 0 0 0
          0 0 0 0 0 0
          0 0 0 0 0 0
          0 0 0 0 0 0
          0 0 0 0 0 0
          0 0 0 0 0 0
          0 0 0 0 0 0
          0 0 0 0 0 0
          0 0
        </DataArray>
        <DataArray type="Float64" Name="gradient_marker" format="ascii" RangeMin="1" RangeMax="1">
          1 1 1 1 1 1
          1 1 1 1 1 1
          1 1 1 1 1 1
          1 1 1 1 1 1
          1 1 1 1 1 1
          1 1 1 1 1 1
          1 1 1 1 1 1
          1 1 1 1 1 1
          1 1 1 1 1 1
          1 1 1 1 1 1
          1 1 1 1 1 1
          1 1 1 1 1 1
          1 1 1 1 1 1
          1 1 1 1 1 1
          1 1 1 1 1 1
          1 1 1 1 1 1
          1 1 1 1 1 1
          1 1 1 1 1 1
          1 1 1 1 1 1
          1 1 1 1 1 1
          1 1 1 1 1 1
          1 1 1 1 1 1
          1 1 1 1 1 1
          1 1 1 1 1 1
          1 1 1 1 1 1
          1 1 1 1 1 1
          1 1 1 1 1 1
          1 1 1 1 1 1
          1 1 1 1 1 1
          1 1 1 1 1 1
          1 1 1 1 1 1
          1 1 1 1 1 1
          1 1 1 1 1 1
          1 1 1 1 1 1
          1 1 1 1 1 1
          1 1 1 1 1 1
          1 1 1 1 1 1
          1 1 1 1 1 1
          1 1 1 1 1 1
          1 1 1 1 1 1
          1 1 1 1 1 1
          1 1 1 1 1 1
          1 1 1 1 1 1
          1 1 1 1 1 1
          1 1 1 1 1 1
          1 1 1 1 1 1
          1 1 1 1 1 1
          1 1 1 1 1 1
          1 1 1 1 1 1
          1 1 1 1 1 1
          1 1 1 1 1 1
          1 1 1 1 1 1
          1 1 1 1 1 1
          1 1 1 1 1 1
          1 1 1 1 1 1
          1 1 1 1 1 1
          1 1 1 1 1 1
          1 1 1 1 1 1
          1 1 1 1 1 1
          1 1
        </DataArray>
        <DataArray type="Float64" Name="gradient_matprop_marker" format="ascii" RangeMin="0" RangeMax="0">
          0 0 0 0 0 0
          0 0 0 0 0 0
          0 0 0 0 0 0
          0 0 0 0 0 0
          0 0 0 0 0 0
          0 0 0 0 0 0
          0 0 0 0 0 0
          0 0 0 0 0 0
          0 0 0 0 0 0
          0 0 0 0 0 0
          0 0 0 0 0 0
          0 0 0 0 0 0
          0 0 0 0 0 0
          0 0 0 0 0 0
          0 0 0 0 0 0
          0 0 0 0 0 0
          0 0 0 0 0 0
          0 0 0 0 0 0
          0 0 0 0 0 0
          0 0 0 0 0 0
          0 0 0 0 0 0
          0 0 0 0 0 0
          0 0 0 0 0 0
          0 0 0 0 0 0
          0 0 0 0 0 0
          0 0 0 0 0 0
          0 0 0 0 0 0
          0 0 0 0 0 0
          0 0 0 0 0 0
          0 0 0 0 0 0
          0 0 0 0 0 0
          0 0 0 0 0 0
          0 0 0 0 0 0
          0 0 0 0 0 0
          0 0 0 0 0 0
          0 0 0 0 0 0
          0 0 0 0 0 0
          0 0 0 0 0 0
          0 0 0 0 0 0
          0 0 0 0 0 0
          0 0 0 0 0 0
          0 0 0 0 0 0
          0 0 0 0 0 0
          0 0 0 0 0 0
          0 0 0 0 0 0
          0 0 0 0 0 0
          0 0 0 0 0 0
          0 0 0 0 0 0
          0 0 0 0 0 0
          0 0 0 0 0 0
          0 0 0 0 0 0
          0 0 0 0 0 0
          0 0 0 0 0 0
          0 0 0 0 0 0
          0 0 0 0 0 0
          0 0 0 0 0 0
          0 0 0 0 0 0
          0 0 0 0 0 0
          0 0 0 0 0 0
          0 0
        </DataArray>
        <DataArray type="Float64" Name="combo" format="ascii" RangeMin="1" RangeMax="1">
          1 1 1 1 1 1
          1 1 1 1 1 1
          1 1 1 1 1 1
          1 1 1 1 1 1
          1 1 1 1 1 1
          1 1 1 1 1 1
          1 1 1 1 1 1
          1 1 1 1 1 1
          1 1 1 1 1 1
          1 1 1 1 1 1
          1 1 1 1 1 1
          1 1 1 1 1 1
          1 1 1 1 1 1
          1 1 1 1 1 1
          1 1 1 1 1 1
          1 1 1 1 1 1
          1 1 1 1 1 1
          1 1 1 1 1 1
          1 1 1 1 1 1
          1 1 1 1 1 1
          1 1 1 1 1 1
          1 1 1 1 1 1
          1 1 1 1 1 1
          1 1 1 1 1 1
          1 1 1 1 1 1
          1 1 1 1 1 1
          1 1 1 1 1 1
          1 1 1 1 1 1
          1 1 1 1 1 1
          1 1 1 1 1 1
          1 1 1 1 1 1
          1 1 1 1 1 1
          1 1 1 1 1 1
          1 1 1 1 1 1
          1 1 1 1 1 1
          1 1 1 1 1 1
          1 1 1 1 1 1
          1 1 1 1 1 1
          1 1 1 1 1 1
          1 1 1 1 1 1
          1 1 1 1 1 1
          1 1 1 1 1 1
          1 1 1 1 1 1
          1 1 1 1 1 1
          1 1 1 1 1 1
          1 1 1 1 1 1
          1 1 1 1 1 1
          1 1 1 1 1 1
          1 1 1 1 1 1
          1 1 1 1 1 1
          1 1 1 1 1 1
          1 1 1 1 1 1
          1 1 1 1 1 1
          1 1 1 1 1 1
          1 1 1 1 1 1
          1 1 1 1 1 1
          1 1 1 1 1 1
          1 1 1 1 1 1
          1 1 1 1 1 1
          1 1
        </DataArray>
        <DataArray type="Float64" Name="dHdT" format="ascii" RangeMin="25.804384923860486" RangeMax="31.397289750909287">
          25.809171148787392 25.809896918883176 25.810847335324823 25.810459264220427 25.811256105563658 25.811576896192104
          25.811982312774113 25.811976457982954 25.811797751766473 25.811747379653468 25.81189768682055 25.811970603191792
          25.824995003847718 25.818143224678906 25.815784635038828 25.81938051970223 25.807585414564027 25.811748723136212
          25.809671086107386 25.81230552918619 25.813517174467737 25.813766035556743 25.81302695182784 25.81268035541371
          26.23779453917155 26.235418017525266 25.917788236295873 25.924927270799422 26.015763221033193 25.890325622838144
          25.942121274140277 25.862499000267217 25.825822663804267 25.83905936760965 25.812391393891097 25.812329749842625
          28.67369668492443 29.021056593218532 26.311427200822454 26.299733543900885 29.641472516455668 26.11353021222766
          30.624907656550267 26.021868462361773 25.833569053882528 25.861989080575217 25.804384923860486 25.80642016583848
          26.62737780099799 26.398736817196525 26.40337659726824 27.29926141875339 27.32326444459731 26.76291112825052
          26.760424468396714 26.206969650394637 27.37028741204457 26.763558409560048 26.17009583339506 26.453063468937394
          26.45692761965622 26.258162751047504 28.787145228017238 27.427599286457518 27.400242817677565 27.482949603278588
          26.73603110447973 26.14470000495307 26.049445911350922 27.552890432007324 26.80524079290295 25.9662228354157
          27.736185775182218 26.83482189460705 25.936317643170554 26.09281065562952 26.002199073604395 29.30698545837295
          27.693883840064103 27.909857262631416 26.238446198198822 25.98013786838748 25.9387794783114 27.78657154909235
          26.80162035391546 25.911038478249676 27.83312647137798 26.753875929248338 25.896461440088647 25.970302061928177
          25.9378562148058 30.070473667499797 27.98430911907751 28.052805806429973 26.069799334522322 25.90520645401557
          25.88428466453218 27.865449728943087 26.68550030455613 25.862266507378013 25.905592867071707 31.397289750909287
          28.11404785952395 25.97309857533393 25.809891217878278 25.811048330487097 25.81385661392876 25.838793548202695
          25.83221283178828 25.8274254083884 25.832523367364168 25.80787614128935 25.82292863184303 25.820003919202257
          25.812205443095916 25.822637984988525 25.82625318652564 25.81707920656149 25.805167523443046 25.808149414518937
          25.816848988457558 25.81527511673763 25.809572194103772 25.810612309836817 25.810993570422987 25.811131305594827
          25.813701245017707 25.811374831009154 25.805280271379583 25.807680184228346 25.810080097077112 25.830774063012175
          25.834508267122594 25.843853763085576 25.849544869066747 25.824399079190172 25.834316980469275 25.810363919026425
          25.807655428595933 25.80771785438168 25.80744280983379 25.856933463158974 25.864581471010904 25.844234881748367
          25.804946938165443 25.819615303997264 25.826560861801326 25.815908898700567 25.81930188327771 25.810775989612488
          25.80773730796813 25.80883239184432 25.8335064196054 25.82269486785485 25.80469862632377 25.81335543644311
          25.813116396402826 25.81174039860949 25.810337252325674 25.812877356362538 25.808934106041853 27.98258329280504
          27.743107640836293 27.732806773439993 28.3209217799903 28.34390724817876 28.06755323406544 28.05057946498325
          27.76864543116297 28.403148158106934 28.11090088969462 27.50363198886754 27.79119921995211 27.780237149976195
          27.8186536212823 28.705231203552476 28.391998827294575 28.368352156526505 28.453156348226273 28.078766451036678
          28.068433936995774 27.80195512497016 28.482434457092186 28.16846888737139 27.83939068153436 28.572588026186352
          28.23397106472578 27.535476312944546 27.8545033176506 27.895354103265205 28.896434977188598 28.534982649772626
          28.628551447917197 28.173530322356658 26.233087909913017 26.189072885686585 26.211814951075 26.67701134386223
          26.655094889052137 26.5561420244656 26.575130454921634 26.152981221185215 26.620551840609284 26.523773692173382
          26.14505786146015 26.457189159879054 26.473249565981043 26.426995543737473 27.709086968847885 27.460305323051735
          27.59992371612191 27.47477133660741 27.091529790247204 28.183264852400157 27.878626645811863 28.670995945906547
          28.305013717351322 28.781044726204343 28.387981835018763 27.573988439223577 27.939031488796097 27.687536956947923
          29.158727039412938 28.731400788890777 28.845301075238797 28.304074538368614 28.90303790453758 28.483153627177188
          29.031700312695328 28.578410124485504 27.562707764194677 27.583746868486553 29.465003739570648 28.96890777149552
          29.101843738917744 27.872781072167534 26.541345260677808 26.5550622268889 26.68500929888542 26.701032008503944
          26.51416814243438 26.65720285839271 26.23114850512519 26.307872419198286 26.32929103383048 26.272031916087993
          26.82867333709303 26.847001790118984 26.800237574351044 26.384596333271382 26.161524365250706 26.126079979980624
          26.59439546573218 26.496685661316782 26.098701520596244 26.566598029612535 26.468297533679504 26.09063559471054
          26.398975856901387 26.369997037746472 27.761528785677687 27.483775368701203 27.4911950177514 27.07083565638868
          26.101410026763 26.070733705538473 26.5367114664232 26.437608220420564 26.042282218377093 26.50358703807416
          26.403886475426056 26.040057384313947 26.338504974417926 26.304185912777953 27.81056914721854 27.495669552440425
          27.49635493925249 27.031675125678476 29.17000636921251 28.673916380024938 29.321082994881152 28.774770056969803
          27.60056248511251 27.61402620469255 29.844221733283305 29.247573365300422 29.405043625199568 27.948529545188116
          29.48767209670946 28.882950291994895 29.677158514508662 29.00204485637804 27.623856546464356 27.630471836643153
          30.326218805065235 29.57904421441159 29.776870566726114 28.018676686671952 26.487141229810263 26.632861726678975
          26.45798341219896 26.605563983952806 26.173819393903926 26.2424248739703 26.21153267757896 26.77858222354768
          26.753144555706648 26.311030354036674 26.425164876205212 26.57442277418657 26.389019417650626 26.539896081527893
          26.11684429069961 26.179360942724756 26.145779688016887 26.723680672167927 26.69077274540515 26.2418775947499
          26.03930834681627 26.01409588818428 26.466434563244846 26.36671557150405 25.98733595765834 26.424861084576133
          26.32649781531003 25.98888342955229 26.266996579763255 26.228134546043925 27.852001179922595 27.491434172078158
          27.47953838036088 26.968353355930336 26.3795873198882 26.283685314872947 27.872498869793382 27.4596917599115
          29.89335804578628 29.1330822263027 30.1441773230907 29.27913746970235 27.632554756821968 27.628623542497593
          30.976274511400785 30.002631363272904 30.26485785164467 28.085134344735536 26.349850190843 26.501960601871232
          26.308545787024368 26.4605344711753 26.05637464236242 26.111618096917642 26.077919473669425 26.654071012899458
          26.612523155326237 26.166861551472866
        </DataArray>