<?xml version="1.0"?>
<VTKFile type="UnstructuredGrid" version="0.1" byte_order="LittleEndian" header_type="UInt32" compressor="vtkZLibDataCompressor">
  <UnstructuredGrid>
    <Piece NumberOfPoints="324" NumberOfCells="183">
      <PointData>
        <DataArray type="Int32" Name="libmesh_node_id" format="ascii" RangeMin="231" RangeMax="2793">
          231 308 309 310 583 584
          585 588 591 605 606 625
          633 634 635 636 640 641
          643 644 646 761 960 961
          962 963 964 965 966 967
          968 969 970 971 972 973
          1058 1059 1060 1061 1062 1063
          1064 1065 1066 1067 1078 1080
          1146 1147 1148 1149 1150 1151
          1152 1153 1154 1155 1156 1157
          1158 1159 1160 1161 1164 1166
          1167 1169 1184 1186 1188 1295
          1300 1330 1331 1332 1333 1336
          1364 1365 1366 1367 1368 1369
          1370 1643 1644 1645 1648 1651
          1653 1654 1655 1656 1657 1658
          1659 1660 1661 1662 1663 1664
          1665 1666 1669 1670 1673 1675
          1677 1678 1679 1680 1681 1682
          1683 1684 1685 1686 1906 1907
          1909 1912 1914 1915 1916 1917
          1918 1919 1920 1921 1922 1923
          1925 1927 1929 1931 1932 1933
          1934 1935 1936 1937 1940 1941
          1943 1946 1948 1949 1950 1951
          1952 1953 1954 1955 1956 1957
          1959 1961 1963 1965 1966 1967
          1968 1969 1970 1971 2022 2023
          2028 2030 2031 2032 2033 2037
          2038 2061 2065 2067 2068 2071
          2072 2158 2159 2161 2166 2167
          2168 2169 2170 2171 2177 2179
          2183 2184 2185 2186 2272 2378
          2379 2380 2381 2382 2383 2384
          2385 2386 2387 2388 2389 2390
          2391 2392 2393 2394 2395 2396
          2397 2398 2399 2400 2401 2402
          2403 2404 2405 2406 2407 2408
          2409 2410 2411 2412 2413 2414
          2415 2416 2417 2418 2419 2420
          2421 2422 2423 2424 2425 2426
          2427 2430 2432 2433 2435 2436
          2437 2438 2439 2440 2441 2442
          2443 2444 2447 2448 2450 2452
          2453 2454 2455 2456 2457 2458
          2459 2460 2461 2462 2463 2464
          2467 2469 2470 2472 2473 2474
          2475 2476 2477 2478 2479 2480
          2482 2484 2486 2569 2570 2571
          2572 2576 2577 2579 2580 2586
          2589 2590 2593 2594 2596 2600
          2650 2651 2652 2653 2654 2655
          2660 2661 2664 2670 2671 2672
          2673 2677 2679 2786 2787 2793
        </DataArray>
        <DataArray type="Float64" Name="bounds" format="ascii" RangeMin="0" RangeMax="0">
          0 0 0 0 0 0
          0 0 0 0 0 0
          0 0 0 0 0 0
          0 0 0 0 0 0
          0 0 0 0 0 0
          0 0 0 0 0 0
          0 0 0 0 0 0
          0 0 0 0 0 0
          0 0 0 0 0 0
          0 0 0 0 0 0
          0 0 0 0 0 0
          0 0 0 0 0 0
          0 0 0 0 0 0
          0 0 0 0 0 0
          0 0 0 0 0 0
          0 0 0 0 0 0
          0 0 0 0 0 0
          0 0 0 0 0 0
          0 0 0 0 0 0
          0 0 0 0 0 0
          0 0 0 0 0 0
          0 0 0 0 0 0
          0 0 0 0 0 0
          0 0 0 0 0 0
          0 0 0 0 0 0
          0 0 0 0 0 0
          0 0 0 0 0 0
          0 0 0 0 0 0
          0 0 0 0 0 0
          0 0 0 0 0 0
          0 0 0 0 0 0
          0 0 0 0 0 0
          0 0 0 0 0 0
          0 0 0 0 0 0
          0 0 0 0 0 0
          0 0 0 0 0 0
          0 0 0 0 0 0
          0 0 0 0 0 0
          0 0 0 0 0 0
          0 0 0 0 0 0
          0 0 0 0 0 0
          0 0 0 0 0 0
          0 0 0 0 0 0
          0 0 0 0 0 0
          0 0 0 0 0 0
          0 0 0 0 0 0
          0 0 0 0 0 0
          0 0 0 0 0 0
          0 0 0 0 0 0
          0 0 0 0 0 0
          0 0 0 0 0 0
          0 0 0 0 0 0
          0 0 0 0 0 0
          0 0 0 0 0 0
        </DataArray>
        <DataArray type="Float64" Name="gradient_error" format="ascii" RangeMin="5.360655691122784e-11" RangeMax="3.0267865199860624e-8">
          3.54958338351693e-9 2.385005402132876e-9 8.56781085255502e-10 1.5663655582819571e-9 2.701865262613017e-9 1.960030409979795e-9
          1.6794287180048757e-9 2.0778176124480337e-9 7.517487023991702e-10 1.2116854023539368e-8 4.309523775742719e-9 2.218056486640326e-9
          7.644308308163645e-10 6.893727162476234e-10 4.5975007119384723e-10 4.082041387508303e-10 5.477775444649092e-10 5.183622547765979e-10
          1.7743333846637102e-10 2.0784600725933662e-10 4.532179085611058e-10 6.3248260399468e-10 1.947354891586428e-9 1.7936513926736323e-9
          1.257971035422543e-9 1.1476021937906551e-9 8.07044213703439e-10 5.589555964533123e-10 5.134806966016124e-10 1.4195824666547187e-9
          1.6917269417758579e-9 7.633777868696102e-10 1.8484867486595583e-9 1.5548862404579433e-9 7.163128570241109e-10 1.6760272800851507e-9
          7.545705138410655e-9 6.039226908032243e-9 3.77325029372956e-9 2.9715667490797087e-9 3.2208027440301713e-9 1.5282930231307633e-9
          2.180062625987962e-8 1.753979440343569e-8 9.45956565254995e-9 8.562774705866783e-9 1.630017652974951e-9 8.645556326595198e-10
          3.7684664729564963e-10 3.4656883606158964e-10 2.4087616323912255e-10 2.8577084623155595e-10 1.4468603165168423e-10 1.5719203531853223e-10
          2.1269024499365415e-10 2.8738735101880285e-10 3.9204239903423465e-10 2.297360899634675e-10 3.50233228533045e-10 3.458531324441673e-10
          2.1537087904248286e-10 3.72006117290963e-10 1.560110349410358e-9 1.2229330733034887e-9 6.261632239045581e-10 5.355151243094765e-9
          4.064595349642119e-9 1.7907692255320884e-9 5.004764514953545e-10 2.0819373070246848e-10 5.303799344523323e-10 2.0611797809431575e-9
          5.497393657895128e-10 1.0656547616626434e-9 1.8701315364277306e-9 5.231707133021188e-10 8.656757754775947e-10 6.737003417441504e-10
          2.366003190486793e-10 3.7266376779579003e-10 1.1418683994062452e-10 1.6647162997992786e-10 2.1471696088728253e-10 2.8986369605244484e-10
          1.4051452281771968e-10 5.502501849629033e-10 8.821575058698427e-10 8.502863429298429e-10 7.631462523504732e-10 1.7698254039106695e-9
          3.780524117370176e-10 3.655305421920579e-10 5.973800491716738e-10 5.752468302219357e-10 2.4111915990968405e-10 3.963667356726104e-10
          3.816606073016989e-10 3.3272930389767125e-10 5.153058905557119e-10 3.414111546046493e-10 1.2774472307162092e-9 1.2217703596919496e-9
          8.190630932218596e-10 1.0702761718660283e-9 4.553376550116445e-10 6.423865704786011e-10 5.76895816246099e-10 1.2532443717378348e-9
          3.00965143876431e-10 4.3085640990843145e-10 1.9981376686815655e-10 2.8626817240453727e-10 2.8948035260461765e-10 3.842146499776364e-10
          2.566685145305632e-10 8.572725849527606e-10 5.729870353885189e-10 7.286123165375546e-10 3.81626831315944e-9 3.628426258774851e-9
          3.1246333241254323e-9 7.135761026566017e-9 2.692508019177449e-9 2.555707752224292e-9 1.8278725199490282e-9 1.7336758167245173e-9
          2.190567161546299e-9 1.48256880428932e-9 5.462489728905481e-9 5.1530145150281665e-9 3.55293868067455e-9 4.330976341261737e-9
          2.458088092022677e-9 1.7884801640346354e-9 4.605506871192731e-9 1.7109892684956208e-9 1.1533721660051112e-9 1.2335632675177682e-9
          8.27604361273011e-10 3.26915889256544e-9 2.228221527304895e-9 2.2588193210967176e-9 1.3636264300502721e-8 1.2895934832918927e-8
          1.0846796103330892e-8 2.0722388948813058e-8 1.0185296772719304e-8 9.593578336207754e-9 7.2060048801739416e-9 6.764887472266193e-9
          7.983581389568544e-9 5.5820682773132385e-9 1.6621923010261076e-8 1.575869953313563e-8 1.1426988576943948e-8 1.3220156273069857e-8
          8.09572718777484e-9 5.460326441467684e-9 1.3005330581180098e-8 5.873135990651064e-9 4.062414341915106e-9 3.898079540592856e-9
          2.6668778612724583e-9 9.64511605886445e-9 6.788660558236405e-9 6.221436542848402e-9 8.792009270549977e-10 1.2238270532458129e-9
          2.111813246175997e-9 5.945426954060599e-10 8.364901610882876e-10 3.9564617344002706e-10 5.55718777573673e-10 1.4663933015352856e-9
          9.841693237632443e-10 3.4316616319036244e-9 5.192057453250622e-9 2.4129461999289593e-9 1.6358283452044911e-9 3.6959731853107267e-9
          2.5248915222827134e-9 3.0267865199860624e-8 2.9224785085500266e-8 2.5300150255835737e-8 2.340709352222944e-8 2.248287025793383e-8
          1.7378374090257652e-8 1.661713980969268e-8 1.92863442362706e-8 1.4077161453242977e-8 1.8825642268192215e-8 1.2230657037818377e-8
          1.4183688918875418e-8 1.0159842528729355e-8 9.028816578160513e-9 6.3326983026805236e-9 3.590458285673431e-9 1.6218491528485172e-10
          1.5852863318904724e-10 2.573304145222163e-10 2.474319129185788e-10 1.0501306071098637e-10 1.6339910836406543e-10 1.5593622679235138e-10
          1.4645216565230762e-10 2.2051661829672667e-10 1.5135416940047153e-10 5.56489466285203e-10 5.320303985028113e-10 3.326899108729258e-10
          4.6545381318404503e-10 6.533252606457272e-11 6.744919331966103e-11 9.890516025508846e-11 9.536695937559931e-11 5.360655691122784e-11
          7.318379391925248e-11 7.291732455270204e-11 6.956586057474934e-11 9.182875849611016e-11 7.265085518615162e-11 2.137134382287964e-10
          2.0194249681945298e-10 1.405860737712399e-10 1.9940283351748342e-10 1.320187252069476e-10 1.8410353235867793e-10 1.095711390062834e-10
          1.4558400866000738e-10 1.260054702025227e-10 1.647072394388439e-10 1.3405219955987495e-10 3.716574078509361e-10 2.7355847241513313e-10
          3.1458768927323156e-10 1.1928977038499794e-9 1.1320825622046298e-9 7.491819171121928e-10 7.112493501860833e-10 9.691419384847914e-10
          6.092769490735735e-10 2.484011704049743e-9 2.3363524892504873e-9 1.4668611250439673e-9 1.948748559149042e-9 4.546229307766949e-10
          4.308581002175688e-10 3.678555296870306e-10 9.36632082595451e-10 8.810252406168498e-10 7.35786489901169e-10 7.530418394751316e-10
          4.734890078697969e-10 5.379460218647115e-10 3.382983012496364e-10 1.4568530786774272e-9 9.145592540810711e-10 9.965488915456321e-10
          1.9126440156295087e-10 2.8582417424482783e-10 1.4023233894948269e-10 2.0512811532685628e-10 5.521588639938449e-10 3.7985089108716784e-10
          4.820940047246291e-9 4.51481917930859e-9 3.051788069670871e-9 2.8535661462617393e-9 3.7034692950818376e-9 2.333237279232095e-9
          8.317091117071458e-9 7.804377640477135e-9 5.007074412190732e-9 6.385815089777341e-9 1.8317200178581325e-9 1.711886104869707e-9
          1.3993469047884598e-9 3.242780676775171e-9 3.0247909476785674e-9 2.4445441605700555e-9 2.677290699819306e-9 1.6828771439250067e-9
          1.7478209045335374e-9 1.098441587700852e-9 4.525921400837809e-9 2.8598694576347246e-9 2.844393475324836e-9 1.0113233020634434e-9
          6.630603372479677e-10 1.7167912727572036e-9 1.0777342055965062e-9 2.55365787177948e-10 3.57788576122621e-10 1.6224955094535308e-10
          2.2585081437657746e-10 6.366751119704098e-10 3.998164723546078e-10 9.857160870891764e-11 1.3800401658055238e-10 2.440025237510752e-10
          1.0665589025992146e-9 6.705376208331253e-10 1.6549799058596014e-9 1.0420657358410804e-9 4.078445424942229e-10 6.32168820143825e-10
          1.2308016831811497e-8 1.1674489554496468e-8 8.142049377813718e-9 7.666227694936264e-9 9.70873596288734e-9 6.2763498249672044e-9
          5.018402693130952e-9 4.700502824406876e-9 3.807746119293093e-9 6.8696450929017736e-9 4.37834581795246e-9 4.214419962758115e-9
          2.6631190812874055e-9 2.6358795445248006e-9 1.6016008351080232e-9 2.3639135453828113e-9 1.4894771528693423e-9 9.004015977115316e-10
        </DataArray>
        <DataArray type="Float64" Name="gradient_matprop_error" format="ascii" RangeMin="0" RangeMax="0">
          0 0 0 0 0 0
          0 0 0 0 0 0
          0 0 0 0 0 0
          0 0 0 0 0 0
          0 0 0 0 0 0
          0 0 0 0 0 0
          0 0 0 0 0 0
          0 0 0 0 0 0
          0 0 0 0 0 0
          0 0 0 0 0 0
          0 0 0 0 0 0
          0 0 0 0 0 0
          0 0 0 0 0 0
          0 0 0 0 0 0
          0 0 0 0 0 0
          0 0 0 0 0 0
          0 0 0 0 0 0
          0 0 0 0 0 0
          0 0 0 0 0 0
          0 0 0 0 0 0
          0 0 0 0 0 0
          0 0 0 0 0 0
          0 0 0 0 0 0
          0 0 0 0 0 0
          0 0 0 0 0 0
          0 0 0 0 0 0
          0 0 0 0 0 0
          0 0 0 0 0 0
          0 0 0 0 0 0
          0 0 0 0 0 0
          0 0 0 0 0 0
          0 0 0 0 0 0
          0 0 0 0 0 0
          0 0 0 0 0 0
          0 0 0 0 0 0
          0 0 0 0 0 0
          0 0 0 0 0 0
          0 0 0 0 0 0
          0 0 0 0 0 0
          0 0 0 0 0 0
          0 0 0 0 0 0
          0 0 0 0 0 0
          0 0 0 0 0 0
          0 0 0 0 0 0
          0 0 0 0 0 0
          0 0 0 0 0 0
          0 0 0 0 0 0
          0 0 0 0 0 0
          0 0 0 0 0 0
          0 0 0 0 0 0
          0 0 0 0 0 0
          0 0 0 0 0 0
          0 0 0 0 0 0
          0 0 0 0 0 0
        </DataArray>
        <DataArray type="Float64" Name="initial_marker" format="ascii" RangeMin="0" RangeMax="2">
          0 0 2 0 0 0
          0 0 1.25 2 2 0
          0 0 0 0 0 0
          1 0.25 0 0 0 0
          0 0 0 0 0 0
          0 0 2 2 2 1.5
          2 2 2 2 2 2
          2 2 2 2 0.25 0
          0 0 0 0 0 0
          0 0 0 0 2 1.25
          1 0.75 2 2 2 2
          2 2 0 0 0 0
          0 0 0 0 0 0
          0 0 0 0 0 0
          0 0 1 1 1 2
          0 0 1 1 0 1
          1 0 1 1 2 2
          2 2 0 1 1 2
          0 1 0 0.75 0 1
          0.5 2 1.75 2 2 2
          2 2 2 2 2 2
          2 2 2 2 2 2
          2 2 2 2 2 2
          2 2 2 2 2 2
          2 2 2 2 2 2
          2 2 2 2 2 2
          2 2 2 2 2 2
          2 2 2 2 1.5 1.75
          2 1 1.5 1 1.5 2
          2 2 2 2 2 2
          2 2 2 2 2 2
          2 2 2 2 2 2
          2 2 2 2 2 0
          0 1 1 0 1 0.75
          0 0.75 0.3333333333333333 2 2 1.75
          1.75 0 0 0.5 0.25 0
          0 0 0 0 0 1.5
          1.25 1.3333333333333333 1.3333333333333333 0 0.25 0
          0 0 0 0 1.25 1.3333333333333333
          1.3333333333333333 2 2 2 2 2
          2 2 2 2 2 2
          2 2 2 2 2 2
          2 2 1.75 2 2 2
          2 2 1 1.5 2 2
          2 2 2 2 2 2
          2 2 2 2 2 2
          2 2 2 2 2 2
          2 2 2 2 2 2
          2 2 2 1 1.5 0.5
          1 2 1.75 0 0.5 1.5
          2 2 2 2 2 2
          2 2 2 2 2 2
          2 2 2 2 2 2
          2 2 2 2 2 2
        </DataArray>
        <DataArray type="Float64" Name="markers_norefine" format="ascii" RangeMin="0" RangeMax="0">
          0 0 0 0 0 0
          0 0 0 0 0 0
          0 0 0 0 0 0
          0 0 0 0 0 0
          0 0 0 0 0 0
          0 0 0 0 0 0
          0 0 0 0 0 0
          0 0 0 0 0 0
          0 0 0 0 0 0
          0 0 0 0 0 0
          0 0 0 0 0 0
          0 0 0 0 0 0
          0 0 0 0 0 0
          0 0 0 0 0 0
          0 0 0 0 0 0
          0 0 0 0 0 0
          0 0 0 0 0 0
          0 0 0 0 0 0
          0 0 0 0 0 0
          0 0 0 0 0 0
          0 0 0 0 0 0
          0 0 0 0 0 0
          0 0 0 0 0 0
          0 0 0 0 0 0
          0 0 0 0 0 0
          0 0 0 0 0 0
          0 0 0 0 0 0
          0 0 0 0 0 0
          0 0 0 0 0 0
          0 0 0 0 0 0
          0 0 0 0 0 0
          0 0 0 0 0 0
          0 0 0 0 0 0
          0 0 0 0 0 0
          0 0 0 0 0 0
          0 0 0 0 0 0
          0 0 0 0 0 0
          0 0 0 0 0 0
          0 0 0 0 0 0
          0 0 0 0 0 0
          0 0 0 0 0 0
          0 0 0 0 0 0
          0 0 0 0 0 0
          0 0 0 0 0 0
          0 0 0 0 0 0
          0 0 0 0 0 0
          0 0 0 0 0 0
          0 0 0 0 0 0
          0 0 0 0 0 0
          0 0 0 0 0 0
          0 0 0 0 0 0
          0 0 0 0 0 0
          0 0 0 0 0 0
          0 0 0 0 0 0
        </DataArray>
        <DataArray type="Float64" Name="markers_mustrefine" format="ascii" RangeMin="0" RangeMax="2">
          0 0 2 0 0 0
          0 0 1.25 2 2 0
          0 0 0 0 0 0
          1 0.25 0 0 0 0
          0 0 0 0 0 0
          0 0 2 2 2 1.5
          2 2 2 2 2 2
          2 2 2 2 0.25 0
          0 0 0 0 0 0
          0 0 0 0 2 1.25
          1 0.75 2 2 2 2
          2 2 0 0 0 0
          0 0 0 0 0 0
          0 0 0 0 0 0
          0 0 1 1 1 2
          0 0 1 1 0 1
          1 0 1 1 2 2
          2 2 0 1 1 2
          0 1 0 0.75 0 1
          0.5 2 1.75 2 2 2
          2 2 2 2 2 2
          2 2 2 2 2 2
          2 2 2 2 2 2
          2 2 2 2 2 2
          2 2 2 2 2 2
          2 2 2 2 2 2
          2 2 2 2 2 2
          2 2 2 2 1.5 1.75
          2 1 1.5 1 1.5 2
          2 2 2 2 2 2
          2 2 2 2 2 2
          2 2 2 2 2 2
          2 2 2 2 2 0
          0 1 1 0 1 0.75
          0 0.75 0.3333333333333333 2 2 1.75
          1.75 0 0 0.5 0.25 0
          0 0 0 0 0 1.5
          1.25 1.3333333333333333 1.3333333333333333 0 0.25 0
          0 0 0 0 1.25 1.3333333333333333
          1.3333333333333333 2 2 2 2 2
          2 2 2 2 2 2
          2 2 2 2 2 2
          2 2 1.75 2 2 2
          2 2 1 1.5 2 2
          2 2 2 2 2 2
          2 2 2 2 2 2
          2 2 2 2 2 2
          2 2 2 2 2 2
          2 2 2 1 1.5 0.5
          1 2 1.75 0 0.5 1.5
          2 2 2 2 2 2
          2 2 2 2 2 2
          2 2 2 2 2 2
          2 2 2 2 2 2
        </DataArray>
        <DataArray type="Float64" Name="gradient_marker" format="ascii" RangeMin="1" RangeMax="1">
          1 1 1 1 1 1
          1 1 1 1 1 1
          1 1 1 1 1 1
          1 1 1 1 1 1
          1 1 1 1 1 1
          1 1 1 1 1 1
          1 1 1 1 1 1
          1 1 1 1 1 1
          1 1 1 1 1 1
          1 1 1 1 1 1
          1 1 1 1 1 1
          1 1 1 1 1 1
          1 1 1 1 1 1
          1 1 1 1 1 1
          1 1 1 1 1 1
          1 1 1 1 1 1
          1 1 1 1 1 1
          1 1 1 1 1 1
          1 1 1 1 1 1
          1 1 1 1 1 1
          1 1 1 1 1 1
          1 1 1 1 1 1
          1 1 1 1 1 1
          1 1 1 1 1 1
          1 1 1 1 1 1
          1 1 1 1 1 1
          1 1 1 1 1 1
          1 1 1 1 1 1
          1 1 1 1 1 1
          1 1 1 1 1 1
          1 1 1 1 1 1
          1 1 1 1 1 1
          1 1 1 1 1 1
          1 1 1 1 1 1
          1 1 1 1 1 1
          1 1 1 1 1 1
          1 1 1 1 1 1
          1 1 1 1 1 1
          1 1 1 1 1 1
          1 1 1 1 1 1
          1 1 1 1 1 1
          1 1 1 1 1 1
          1 1 1 1 1 1
          1 1 1 1 1 1
          1 1 1 1 1 1
          1 1 1 1 1 1
          1 1 1 1 1 1
          1 1 1 1 1 1
          1 1 1 1 1 1
          1 1 1 1 1 1
          1 1 1 1 1 1
          1 1 1 1 1 1
          1 1 1 1 1 1
          1 1 1 1 1 1
        </DataArray>
        <DataArray type="Float64" Name="gradient_matprop_marker" format="ascii" RangeMin="0" RangeMax="0">
          0 0 0 0 0 0
          0 0 0 0 0 0
          0 0 0 0 0 0
          0 0 0 0 0 0
          0 0 0 0 0 0
          0 0 0 0 0 0
          0 0 0 0 0 0
          0 0 0 0 0 0
          0 0 0 0 0 0
          0 0 0 0 0 0
          0 0 0 0 0 0
          0 0 0 0 0 0
          0 0 0 0 0 0
          0 0 0 0 0 0
          0 0 0 0 0 0
          0 0 0 0 0 0
          0 0 0 0 0 0
          0 0 0 0 0 0
          0 0 0 0 0 0
          0 0 0 0 0 0
          0 0 0 0 0 0
          0 0 0 0 0 0
          0 0 0 0 0 0
          0 0 0 0 0 0
          0 0 0 0 0 0
          0 0 0 0 0 0
          0 0 0 0 0 0
          0 0 0 0 0 0
          0 0 0 0 0 0
          0 0 0 0 0 0
          0 0 0 0 0 0
          0 0 0 0 0 0
          0 0 0 0 0 0
          0 0 0 0 0 0
          0 0 0 0 0 0
          0 0 0 0 0 0
          0 0 0 0 0 0
          0 0 0 0 0 0
          0 0 0 0 0 0
          0 0 0 0 0 0
          0 0 0 0 0 0
          0 0 0 0 0 0
          0 0 0 0 0 0
          0 0 0 0 0 0
          0 0 0 0 0 0
          0 0 0 0 0 0
          0 0 0 0 0 0
          0 0 0 0 0 0
          0 0 0 0 0 0
          0 0 0 0 0 0
          0 0 0 0 0 0
          0 0 0 0 0 0
          0 0 0 0 0 0
          0 0 0 0 0 0
        </DataArray>
        <DataArray type="Float64" Name="combo" format="ascii" RangeMin="1" RangeMax="1">
          1 1 1 1 1 1
          1 1 1 1 1 1
          1 1 1 1 1 1
          1 1 1 1 1 1
          1 1 1 1 1 1
          1 1 1 1 1 1
          1 1 1 1 1 1
          1 1 1 1 1 1
          1 1 1 1 1 1
          1 1 1 1 1 1
          1 1 1 1 1 1
          1 1 1 1 1 1
          1 1 1 1 1 1
          1 1 1 1 1 1
          1 1 1 1 1 1
          1 1 1 1 1 1
          1 1 1 1 1 1
          1 1 1 1 1 1
          1 1 1 1 1 1
          1 1 1 1 1 1
          1 1 1 1 1 1
          1 1 1 1 1 1
          1 1 1 1 1 1
          1 1 1 1 1 1
          1 1 1 1 1 1
          1 1 1 1 1 1
          1 1 1 1 1 1
          1 1 1 1 1 1
          1 1 1 1 1 1
          1 1 1 1 1 1
          1 1 1 1 1 1
          1 1 1 1 1 1
          1 1 1 1 1 1
          1 1 1 1 1 1
          1 1 1 1 1 1
          1 1 1 1 1 1
          1 1 1 1 1 1
          1 1 1 1 1 1
          1 1 1 1 1 1
          1 1 1 1 1 1
          1 1 1 1 1 1
          1 1 1 1 1 1
          1 1 1 1 1 1
          1 1 1 1 1 1
          1 1 1 1 1 1
          1 1 1 1 1 1
          1 1 1 1 1 1
          1 1 1 1 1 1
          1 1 1 1 1 1
          1 1 1 1 1 1
          1 1 1 1 1 1
          1 1 1 1 1 1
          1 1 1 1 1 1
          1 1 1 1 1 1
        </DataArray>
        <DataArray type="Float64" Name="dHdT" format="ascii" RangeMin="25.817806725319777" RangeMax="36.071803856599885">
          25.825537649006613 25.82166425138933 26.006054090267973 25.852839468255315 25.831289014031015 25.84364671797457
          25.838343691349596 25.83331833014389 25.916089717333694 28.961803194429855 26.735998930666675 25.835764400092174
          25.819099753490214 25.818655419477132 25.8200267661274 25.81932013944961 25.817806725319777 25.818748775230656
          25.839118957777153 25.829607482339203 25.82236540427362 25.819604573921335 25.89869443014923 25.89273685957808
          25.932141746402642 25.921575706447516 25.850913126930273 25.867087119419313 25.86241783714073 25.87978486475585
          25.908116962544646 25.8569688651752 26.24638790884467 26.18143745372042 25.976082631103317 26.04653130448677
          27.58222556383305 27.194841281204923 26.63469829631495 26.453700661331226 26.54731007665841 26.1473317704567
          32.863651705360226 30.80205186956346 28.010094731965122 27.803438186799557 25.94753838355928 25.873003164756128
          25.831248086960343 25.830143415419293 25.836018997672266 25.834546699156924 25.820636765463753 25.822797894032128
          25.823349060189834 25.828061069660382 25.832892831990357 25.822825093193913 25.889738785051055 25.876392199689185
          25.836054330340513 25.85435686864823 26.140548055668965 26.068355219782596 25.946351749390423 27.01738753183547
          26.677436361266963 26.1842806154486 25.840766941815232 25.82480805870845 25.835852226664347 25.82838663236802
          25.818094909229497 25.867813275180012 25.894058146320027 25.840569712525923 25.851387797974365 25.845822710424407
          25.82631171452259 25.830586931921268 25.819401264403687 25.821031172882698 25.825540033602657 25.828368166786582
          25.820292510652266 25.961478431582993 26.033727720795902 26.02651335399772 26.007246690165523 26.22869665102261
          25.915013755724623 25.912262311699674 25.960619812012045 25.955769689913627 25.8787478827346 25.910131813323087
          25.906922418224568 25.904920634577824 25.942840650782408 25.898410570275185 26.106297093048273 26.09410914783537
          25.99787407194714 26.06144549404165 25.93710821581433 25.98297804773371 25.970761702335906 26.118826451320583
          25.896216107352288 25.92666123916521 25.86833350193172 25.887952974195105 25.892101813223668 25.918560744580816
          25.882797830965885 26.018344933238197 25.947734033416115 25.9925762072874 26.687078364217502 26.643387769713236
          26.528638513453522 27.472380865490457 26.414051322688152 26.38342955553864 26.21283376562939 26.192189822754962
          26.303024365101514 26.137977598987785 27.038461433472868 26.962614927011206 26.58365640069305 26.769673427064994
          26.380015883991597 26.233533041303737 26.857388367865827 26.199132040054003 26.068185596492707 26.097340940497684
          26.00033959288782 26.533615952450003 26.294232844479666 26.31627274206528 29.464315492483006 29.167510564901896
          28.462278376946944 32.29180990801192 28.281391268388298 28.09257228873524 27.45030258225796 27.32918918136446
          27.632664049573584 27.02985226125761 30.74995114637565 30.283969381926383 28.678220133770246 29.185866001489494
          27.688541178572315 27.05168962468852 29.094309363079624 27.11061277003588 26.68321884417926 26.669556348087006
          26.386306607120474 28.04299827096163 27.29595151832702 27.188875710901748 26.03644784093273 26.110453268573284
          26.30364281573495 25.96220130642223 26.012506527492008 25.911571465843696 25.94441112000696 26.14562938183428
          26.032496687636883 26.5961386868696 26.99646399205635 26.350160282544138 26.170212475140225 26.630610806158515
          26.36010378115448 36.071803856599885 35.506831913276905 33.74247690547166 34.116666060884725 33.4095337331331
          31.49764599367104 30.909064826766745 31.555539604882554 29.53933648745568 31.126867124360032 28.832379498402045
          29.42707877737992 28.160046868956382 27.87063684091236 27.185732905278012 26.588232441441434 25.8567849620939
          25.855628740186244 25.8755205977212 25.873457517063674 25.840257599392203 25.85233698541849 25.85124831464468
          25.852639220536968 25.86801968958784 25.851171834007303 25.936434109854698 25.93109196983378 25.886510004668825
          25.917021404558234 25.830521256366623 25.83043665575405 25.83727132699054 25.836925175031105 25.826714319733618
          25.831448768489622 25.831351187055517 25.830352055141468 25.836579023071668 25.831253605621406 25.85923471276779
          25.85760182323619 25.843640115094235 25.857445332665208 25.849166558891895 25.861415988733864 25.841573108652117
          25.850799350955796 25.84752719498845 25.858187034698204 25.848402487631414 25.89907881795257 25.874887824312598
          25.888761036696405 26.069510404025333 26.05601795158527 25.971420341826132 25.96306804587483 26.020884888014336
          25.94146866307082 26.34299215030189 26.309988370849474 26.12022225513198 26.22588307254873 25.907317581032807
          25.902577634679453 25.890188187877843 26.006754936608957 25.99495860955021 25.964681901099578 25.976152376056326
          25.914225553319675 25.933103839646915 25.88813854909513 26.122633012470033 26.00469873603036 26.027709962069515
          25.855599169474804 25.87432529205407 25.846518090479538 25.858988509880888 25.927435924811313 25.8932980949426
          26.86566310313043 26.789203301178624 26.463599471706075 26.416786010678 26.59852122967917 26.299631652458114
          27.784660038060686 27.617467277533006 26.918529837656454 27.214323009774834 26.197135968317856 26.169704795805778
          26.10100559485148 26.520498275380547 26.463495288217352 26.323496662753602 26.3755439203171 26.161848656254357
          26.18307925363997 26.042481990766113 26.769279809970968 26.406293450534168 26.410586376642367 26.02006840866097
          25.949971595987243 26.16469745187574 26.033922063447008 25.877219967656657 25.898176194050443 25.85424649240106
          25.867153163403582 25.954239254589535 25.9015484825805 25.839056072671056 25.84667066345319 25.86698765329651
          26.042741911684963 25.955816770168475 26.16610695658253 26.032254118053817 25.898999490036474 25.944155328765902
          29.24101277945483 28.901500709955833 27.844346652267816 27.656950602897865 28.116902047812584 27.21214209818978
          26.990875714599525 26.88626607707909 26.634306831645176 27.306703789666663 26.734465027277054 26.700270194278076
          26.364667417171432 26.358348352063697 26.141153704891508 26.314759723311834 26.12511590655761 25.999330976291283
        </DataArray>
        <DataArray type="Float64" Name="dk/dtemperature" format="ascii" RangeMin="0.0077262826961781855" RangeMax="0.015804580349343195">
          0.015804580349343192 0.015804580349343192 0.015762814551807676 0.015804580349343192 0.015804580349343192 0.015804580349343192
          0.015804580349343192 0.015804580349343192 0.015804580349343192 0.012357259856831327 0.014691179637878884 0.015804580349343192
          0.015804580349343192 0.015804580349343192 0.015804580349343192 0.015804580349343192 0.015804580349343192 0.015804580349343192
          0.015804580349343192 0.015804580349343192 0.015804580349343192 0.015804580349343192 0.015804580349343192 0.015804580349343192
          0.015804580349343192 0.015804580349343192 0.015804580349343192 0.015804580349343192 0.015804580349343192 0.015804580349343192
          0.015804580349343192 0.015804580349343192 0.015391702796597531 0.015502973422863081 0.015783697450575434 0.015710607304888283
          0.01366004572743871 0.014102553562864334 0.014800562406707511 0.015049336477341798 0.014935108688581939 0.015565622119166353
          0.009576947695131833 0.011065354125745133 0.013228173133362203 0.01341687317732982 0.015804580349343192 0.015804580349343192
          0.015804580349343192 0.015804580349343192 0.015804580349343192 0.015804580349343192 0.015804580349343192 0.015804580349343192
          0.015804580349343192 0.015804580349343192 0.015804580349343192 0.015804580349343192 0.015804580349343192 0.015804580349343192
          0.015804580349343192 0.015804580349343192 0.015553985564130103 0.015679282956736647 0.015794138899959315 0.014347676870707638
          0.014742316731228763 0.015463597836632308 0.015804580349343192 0.015804580349343192 0.015804580349343192 0.015804580349343192
          0.015804580349343192 0.015804580349343192 0.015804580349343192 0.015804580349343192 0.015804580349343192 0.015804580349343192
          0.015804580349343192 0.015804580349343192 0.015804580349343192 0.015804580349343192 0.015804580349343192 0.015804580349343192
          0.015804580349343192 0.015804580349343192 0.01572104875427216 0.01574193165303992 0.015773256001191553 0.015421832039096795