<?xml version="1.0"?>
<VTKFile type="UnstructuredGrid" version="0.1" byte_order="LittleEndian" header_type="UInt32" compressor="vtkZLibDataCompressor">
  <UnstructuredGrid>
    <Piece NumberOfPoints="1144" NumberOfCells="774">
      <PointData>
        <DataArray type="Int32" Name="libmesh_node_id" format="ascii" RangeMin="1695" RangeMax="9469">
          1702 1707 1725 2330 2331 2332
          2351 2352 2353 2354 2355 2356
          2358 2359 2360 2391 2392 2393
          2394 2395 2396 2397 2400 2404
          2425 2426 2428 2429 2430 2432
          2433 2434 2442 2681 3498 3499
          3500 3501 3502 3503 3504 3505
          3506 3507 3508 3509 3510 3511
          3512 3513 3514 3515 3516 3517
          3519 3520 3521 3523 3524 3525
          3526 3527 3528 3529 3532 3533
          3535 3537 3685 3686 3687 3690
          3691 3692 3693 3694 3696 3697
          3698 3699 3700 3701 3702 3703
          3704 3705 3706 3707 3708 3709
          3710 3711 3712 3713 3714 3717
          3718 3721 3724 3725 3728 3729
          3730 3731 3732 3733 3734 3735
          3736 3737 3738 3739 3740 3741
          3742 3743 3745 3747 3749 3757
          3758 3761 3762 3763 3764 3766
          3779 3783 3791 3792 3793 3794
          3795 3796 3797 3846 3847 3848
          3849 3850 3851 3852 3853 3854
          3855 3856 3857 3858 3859 3860
          3861 3862 3863 3864 3865 3866
          3867 3868 3869 3870 3871 3872
          3873 3874 3875 3876 3877 3878
          3879 3880 3881 3884 3885 3887
          3888 3889 3900 3901 3902 3903
          3904 3905 3906 4396 4402 4524
          4525 4526 4527 4528 4529 4530
          4531 4532 4535 4536 4559 4560
          4561 4562 4565 4566 4567 4569
          4570 4571 4572 4573 4574 4575
          4576 4577 4578 4579 4580 4581
          4582 4583 4584 4585 4586 4587
          4588 7036 7044 7045 7046 7049
          7052 7053 7056 7058 7060 7061
          7062 7063 7064 7065 7066 7067
          7068 7069 7074 7075 7076 7079
          7084 7085 7086 7089 7090 7091
          7092 7093 7094 7095 7096 7097
          7098 7099 7100 7101 7102 7103
          7104 7105 7106 7107 7108 7109
          7118 7124 7125 7126 7129 7134
          7135 7139 7140 7141 7142 7143
          7144 7145 7146 7147 7148 7149
          7150 7151 7152 7153 7154 7155
          7156 7157 7159 8182 8187 8189
          8191 8193 8194 8195 8196 8197
          8198 8199 8210 8215 8217 8219
          8221 8222 8223 8224 8225 8226
          8227 8230 8231 8234 8237 8238
          8241 8242 8243 8244 8245 8246
          8247 8248 8249 8250 8251 8252
          8253 8254 8255 8258 8259 8265
          8266 8269 8270 8271 8272 8273
          8274 8275 8276 8277 8278 8279
          8280 8281 8282 8283 8285 8287
          8289 8291 8292 8293 8294 8295
          8296 8297 8298 8299 8300 8303
          8304 8307 8309 8311 8312 8313
          8314 8315 8316 8317 8318 8319
          8320 8322 8324 8326 8328 8329
          8330 8331 8332 8333 8334 8336
          8338 8340 8342 8343 8344 8345
          8346 8347 8348 8349 8350 8351
          8352 8353 8354 8355 8356 8357
          8358 8359 8360 8361 8362 8363
          8364 8365 8366 8367 8368 8369
          8370 8371 8372 8373 8374 8375
          8376 8377 8378 8379 8380 8381
          8382 8383 8384 8385 8386 8387
          8388 8389 8390 8391 8392 8393
          8394 8395 8396 8397 8398 8399
          8400 8401 8402 8403 8404 8405
          8406 8407 8408 8409 8410 8411
          8412 8413 8414 8415 8416 8432
          8434 8436 8438 8439 8440 8441
          8442 8443 8444 8460 8462 8464
          8466 8467 8468 8469 8470 8471
          8472 8487 8488 8489 8490 8491
          8492 8493 8494 8495 8496 8497
          8498 8499 8500 8515 8516 8517
          8518 8519 8520 8521 8522 8523
          8524 8525 8526 8527 8528 8530
          8532 8534 8536 8537 8538 8539
          8540 8541 8542 8544 8546 8548
          8550 8551 8552 8553 8554 8555
          8556 8558 8560 8562 8564 8565
          8566 8567 8568 8569 8570 8572
          8574 8576 8578 8579 8580 8581
          8582 8583 8584 8585 8586 8587
          8588 8589 8590 8591 8592 8593
          8594 8595 8596 8597 8598 8599
          8600 8601 8602 8603 8604 8605
          8606 8607 8608 8609 8610 8611
          8612 8613 8614 8615 8616 8617
          8618 8619 8620 8621 8622 8623
          8624 8625 8626 8627 8628 8629
          8630 8631 8632 8633 8634 8635
          8636 8637 8638 8639 8640 8643
          8644 8647 8650 8654 8655 8656
          8657 8658 8659 8660 8661 8662
          8664 8666 8668 8671 8672 8675
          8678 8682 8683 8684 8685 8686
          8687 8688 8689 8690 8692 8694
          8696 8759 8760 8761 8762 8763
          8764 8765 8766 8767 8768 8769
          8770 8773 8774 8776 8778 8779
          8780 8781 8782 8783 8784 8785
          8786 8787 8788 8789 8790 8791
          8792 8793 8794 8795 8796 8797
          8798 8799 8800 8801 8802 8803
          8804 8805 8806 8808 8810 8812
          8813 8814 8815 8816 8817 8818
          8819 8820 8821 8822 8823 8824
          8825 8826 8861 8862 8865 8866
          8870 8895 8896 8897 8898 8899
          8900 8901 8902 8904 8906 8908
          8923 8924 8925 8926 8927 8928
          8929 8930 8932 8934 8936 8993
          8994 8995 8996 8997 8998 8999
          9000 9002 9004 9006 9007 9008
          9009 9010 9011 9012 9013 9014
          9015 9016 9017 9018 9019 9020
          9021 9022 9023 9024 9025 9026
          9027 9028 9030 9031 9032 9034
          9035 9036 9037 9038 9039 9040
          9041 9042 9043 9044 9045 9046
          9047 9048 9065 9069 9093 9097
          9206 9207 9210 9212 9214 9215
          9216 9217 9218 9219 9220 9221
          9222 9223 9224 9225 9226 9227
          9228 9229 9230 9231 9232 9233
          9234 9235 9236 9237 9238 9239
          9240 9241 9242 9243 9245 9247
          9249 9251 9252 9253 9254 9255
          9256 9257 9260 9261 9264 9266
          9268 9269 9270 9271 9272 9273
          9274 9275 9276 9277 9279 9281
          9283 9285 9286 9287 9288 9289
          9290 9291 9293 9295 9297 9299
          9300 9301 9302 9303 9304 9305
          9306 9307 9308 9309 9310 9311
          9312 9313 9314 9315 9316 9317
          9318 9319 9320 9321 9322 9323
          9324 9325 9326 9327 9328 9329
          9330 9331 9332 9333 9334 9335
          9336 9337 9338 9339 9340 9341
          9342 9343 9344 9345 9346 9347
          9348 9349 9350 9351 9352 9353
          9354 9355 9356 9357 9358 9359
          9360 9361 9362 9363 9364 9365
          9366 9367 9368 9369 9370 9371
          9372 9373 9374 9375 9376 9377
          9378 9379 9380 9381 9382 9383
          9384 9385 9386 9387 9388 9389
          9390 9391 9392 9393 9394 9395
          9397 9398 9399 9400 9401 9402
          9403 9404 9405 9406 9407 9408
          9409 9410 9411 9412 9413 9414
          9415 9416 9417 9418 9419 9420
          9421 9422 9423 9424 9425 9426
          9427 9428 9429 9430 9431 9432
          9433 9434 9435 9436 9437 9438
          9439 9440 9441 9442 9443 9444
          9445 9446 9448 9450 9452 9463
          9465 9467 9469 1695 1701 2357
          2344 2361 2345 2362 2365 2366
          2427 1719 2431 2435 2439 2436
          2440 2438 2441 2443 1726 2444
          2683 2688 2370 3530 3531 3534
          3759 3767 3771 3760 3768 3772
          3882 3883 3886 3890 3891 3895
          3897 3899 3907 3909 3911 3913
          4398 4403 4406 4412 4533 4534
          4537 2368 7136 3536 7158 8651
          8663 8665 3744 8667 3746 8679
          8691 8693 3748 8695 2398 8771
          8772 8775 8777 8807 8809 8811
          3765 8836 8849 8863 8850 8864
          8867 8853 8868 3774 8869 3776
          8903 8905 8907 3780 8931 8933
          8935 2402 9001 9003 9005 9029
          9033 9049 9051 9053 9055 9063
          9064 9066 9067 9068 3800 9077
          9079 9081 9083 9091 9092 9094
          9095 9096 3804 9396 9447 9449
          9451 9464 9466 9468
        </DataArray>
        <DataArray type="Float64" Name="bounds" format="ascii" RangeMin="0" RangeMax="0">
          0 0 0 0 0 0
          0 0 0 0 0 0
          0 0 0 0 0 0
          0 0 0 0 0 0
          0 0 0 0 0 0
          0 0 0 0 0 0
          0 0 0 0 0 0
          0 0 0 0 0 0
          0 0 0 0 0 0
          0 0 0 0 0 0
          0 0 0 0 0 0
          0 0 0 0 0 0
          0 0 0 0 0 0
          0 0 0 0 0 0
          0 0 0 0 0 0
          0 0 0 0 0 0
          0 0 0 0 0 0
          0 0 0 0 0 0
          0 0 0 0 0 0
          0 0 0 0 0 0
          0 0 0 0 0 0
          0 0 0 0 0 0
          0 0 0 0 0 0
          0 0 0 0 0 0
          0 0 0 0 0 0
          0 0 0 0 0 0
          0 0 0 0 0 0
          0 0 0 0 0 0
          0 0 0 0 0 0
          0 0 0 0 0 0
          0 0 0 0 0 0
          0 0 0 0 0 0
          0 0 0 0 0 0
          0 0 0 0 0 0
          0 0 0 0 0 0
          0 0 0 0 0 0
          0 0 0 0 0 0
          0 0 0 0 0 0
          0 0 0 0 0 0
          0 0 0 0 0 0
          0 0 0 0 0 0
          0 0 0 0 0 0
          0 0 0 0 0 0
          0 0 0 0 0 0
          0 0 0 0 0 0
          0 0 0 0 0 0
          0 0 0 0 0 0
          0 0 0 0 0 0
          0 0 0 0 0 0
          0 0 0 0 0 0
          0 0 0 0 0 0
          0 0 0 0 0 0
          0 0 0 0 0 0
          0 0 0 0 0 0
          0 0 0 0 0 0
          0 0 0 0 0 0
          0 0 0 0 0 0
          0 0 0 0 0 0
          0 0 0 0 0 0
          0 0 0 0 0 0
          0 0 0 0 0 0
          0 0 0 0 0 0
          0 0 0 0 0 0
          0 0 0 0 0 0
          0 0 0 0 0 0
          0 0 0 0 0 0
          0 0 0 0 0 0
          0 0 0 0 0 0
          0 0 0 0 0 0
          0 0 0 0 0 0
          0 0 0 0 0 0
          0 0 0 0 0 0
          0 0 0 0 0 0
          0 0 0 0 0 0
          0 0 0 0 0 0
          0 0 0 0 0 0
          0 0 0 0 0 0
          0 0 0 0 0 0
          0 0 0 0 0 0
          0 0 0 0 0 0
          0 0 0 0 0 0
          0 0 0 0 0 0
          0 0 0 0 0 0
          0 0 0 0 0 0
          0 0 0 0 0 0
          0 0 0 0 0 0
          0 0 0 0 0 0
          0 0 0 0 0 0
          0 0 0 0 0 0
          0 0 0 0 0 0
          0 0 0 0 0 0
          0 0 0 0 0 0
          0 0 0 0 0 0
          0 0 0 0 0 0
          0 0 0 0 0 0
          0 0 0 0 0 0
          0 0 0 0 0 0
          0 0 0 0 0 0
          0 0 0 0 0 0
          0 0 0 0 0 0
          0 0 0 0 0 0
          0 0 0 0 0 0
          0 0 0 0 0 0
          0 0 0 0 0 0
          0 0 0 0 0 0
          0 0 0 0 0 0
          0 0 0 0 0 0
          0 0 0 0 0 0
          0 0 0 0 0 0
          0 0 0 0 0 0
          0 0 0 0 0 0
          0 0 0 0 0 0
          0 0 0 0 0 0
          0 0 0 0 0 0
          0 0 0 0 0 0
          0 0 0 0 0 0
          0 0 0 0 0 0
          0 0 0 0 0 0
          0 0 0 0 0 0
          0 0 0 0 0 0
          0 0 0 0 0 0
          0 0 0 0 0 0
          0 0 0 0 0 0
          0 0 0 0 0 0
          0 0 0 0 0 0
          0 0 0 0 0 0
          0 0 0 0 0 0
          0 0 0 0 0 0
          0 0 0 0 0 0
          0 0 0 0 0 0
          0 0 0 0 0 0
          0 0 0 0 0 0
          0 0 0 0 0 0
          0 0 0 0 0 0
          0 0 0 0 0 0
          0 0 0 0 0 0
          0 0 0 0 0 0
          0 0 0 0 0 0
          0 0 0 0 0 0
          0 0 0 0 0 0
          0 0 0 0 0 0
          0 0 0 0 0 0
          0 0 0 0 0 0
          0 0 0 0 0 0
          0 0 0 0 0 0
          0 0 0 0 0 0
          0 0 0 0 0 0
          0 0 0 0 0 0
          0 0 0 0 0 0
          0 0 0 0 0 0
          0 0 0 0 0 0
          0 0 0 0 0 0
          0 0 0 0 0 0
          0 0 0 0 0 0
          0 0 0 0 0 0
          0 0 0 0 0 0
          0 0 0 0 0 0
          0 0 0 0 0 0
          0 0 0 0 0 0
          0 0 0 0 0 0
          0 0 0 0 0 0
          0 0 0 0 0 0
          0 0 0 0 0 0
          0 0 0 0 0 0
          0 0 0 0 0 0
          0 0 0 0 0 0
          0 0 0 0 0 0
          0 0 0 0 0 0
          0 0 0 0 0 0
          0 0 0 0 0 0
          0 0 0 0 0 0
          0 0 0 0 0 0
          0 0 0 0 0 0
          0 0 0 0 0 0
          0 0 0 0 0 0
          0 0 0 0 0 0
          0 0 0 0 0 0
          0 0 0 0 0 0
          0 0 0 0 0 0
          0 0 0 0 0 0
          0 0 0 0 0 0
          0 0 0 0 0 0
          0 0 0 0 0 0
          0 0 0 0 0 0
          0 0 0 0 0 0
          0 0 0 0 0 0
          0 0 0 0 0 0
          0 0 0 0 0 0
          0 0 0 0 0 0
          0 0 0 0 0 0
          0 0 0 0
        </DataArray>
        <DataArray type="Float64" Name="gradient_error" format="ascii" RangeMin="1.952627299407962e-12" RangeMax="1.203956433830528e-9">
          5.2321115946476184e-11 4.686614970081456e-11 1.817026143908202e-11 2.1536458986819566e-10 2.653556045753897e-10 1.4272894013672093e-10
          2.827673600627164e-10 1.906219854865402e-10 1.1301630024696569e-10 7.590002162081024e-11 1.3286898159845403e-10 1.514085140100792e-10
          9.464443346587942e-11 3.851165814090873e-11 1.305709576169472e-10 3.0428538129148054e-10 1.427962617956207e-10 5.6790801360597855e-11
          2.426332534012359e-11 6.501663465840494e-10 3.3480329917206876e-10 1.0396184118694549e-10 8.906108503854352e-12 1.807140494348126e-11
          1.6128376598218744e-10 8.825026492733763e-11 4.0149519639906197e-11 1.1784649218438924e-10 8.978519003700804e-11 4.046945708673353e-11
          1.6095367227950623e-11 4.9075862828485673e-11 1.496483581010906e-11 1.2784559565849884e-10 2.477984422235605e-10 1.551479900340967e-10
          1.621729368942656e-10 1.0164093552776226e-10 1.522283611597566e-10 1.217931580464182e-10 1.0657744668973982e-10 1.4097842050402163e-10
          9.617635230666882e-11 1.0400354692684277e-10 1.0257439405043796e-10 6.452722762230746e-11 6.247984809352805e-11 3.939598774498082e-11
          6.297062240121421e-11 6.875338097788893e-11 4.247553879051755e-11 6.334238405463187e-11 4.0194491511477994e-11 6.166109295864412e-11
          1.1628148912860689e-10 5.807860923493284e-11 1.0390313479819148e-10 1.0984236265053635e-10 7.230176963769126e-11 9.847152823008786e-11
          9.187420942139965e-11 1.1470633543670885e-10 3.7286980558097056e-11 2.3579955685235302e-11 2.3012575863249345e-11 2.5341930162773776e-11
          2.4531284122572285e-11 2.3205878446088612e-11 2.595560434986994e-10 1.9665520534349514e-10 1.3748893712108436e-10 4.1654624497645533e-10
          1.7810225026183914e-10 1.1711689942316503e-10 9.255727226699798e-11 5.992166782114082e-11 3.028120011040895e-10 2.1305074277180793e-10
          9.693711833930958e-11 6.633257501093221e-11 7.717276788285455e-11 5.139912485193903e-11 1.9305003721018355e-10 1.3668606461623986e-10
          8.244734974004034e-11 5.982184061249943e-11 4.385607088878811e-11 3.7180473738326787e-11 2.796326263845325e-11 4.902527555678094e-11
          3.324569835311563e-11 2.078188630727175e-11 9.317482636432364e-11 6.105344029943246e-11 3.78088284712478e-11 7.053523526584879e-10
          5.354367838550322e-10 8.445054985438358e-10 3.884338496069248e-10 2.6880381410287173e-10 4.779713473580157e-10 3.1178250945490255e-10
          2.2726777195884705e-10 1.2578931210252136e-10 8.852848139035518e-11 3.705425523677268e-10 2.7318151301561357e-10 1.4646866393600105e-10
          1.5908362996528716e-10 1.0678933503491271e-10 6.013978882812912e-11 3.9332758229707356e-11 1.9321936520733488e-10 1.3093512772060185e-10
          7.114977912176238e-11 7.380775668966778e-11 3.729208105843297e-11 1.9833745660792526e-10 9.160865140064285e-11 2.2227903470125466e-11
          1.7168039618745195e-11 1.8133901644287314e-11 1.2519709386408443e-11 1.0117836411511693e-11 3.844519278652433e-11 1.4982286178276933e-11
          1.7738755336922496e-10 2.23335751035962e-10 6.871567536665798e-11 4.2379863411949954e-11 2.472280553585387e-11 1.4937453400654645e-11
          8.497724516710533e-11 5.280867097510817e-11 2.9697542821937465e-11 1.219168741962586e-10 1.0154838003549075e-10 8.026296640567433e-11
          6.671427027817818e-11 7.998086165288279e-11 1.0720389822115742e-10 7.01137245915973e-11 6.067266011723559e-11 4.019171658393271e-11
          7.5685541900106e-11 5.122745577842329e-11 4.270155127465716e-11 3.179752230496094e-11 2.6489971438558394e-11 3.2925840081774874e-11
          4.468663234097456e-11 2.7677801915800286e-11 2.597243435644181e-11 2.0742429125409167e-11 3.173153953501243e-11 4.7995554826193283e-11
          3.275495512943628e-11 5.3773907506445465e-11 3.551687035453965e-11 5.473165452165696e-11 3.759052146230032e-11 6.124704534798461e-11
          2.1629374099010473e-11 1.795846635464392e-11 2.2755186256616313e-11 1.8896861636219963e-11 2.4981556336456787e-11 1.603809155641289e-11
          2.6034836209453866e-11 1.8950084556163027e-11 1.5925423978025916e-11 1.2072207927894748e-11 1.6716238542134446e-11 1.737890438105559e-11
          1.0354333737007696e-11 2.218196933198142e-11 1.556663614080678e-11 1.1399292678229194e-11 1.6087581265955177e-11 1.384956439598706e-11
          9.94307109936263e-12 9.907882011666323e-12 9.41743818641543e-12 4.326737872202882e-11 4.5794347109201515e-11 3.761673547804497e-11
          6.766577167537268e-11 2.326031589298362e-11 4.195341481696215e-11 2.938150483037706e-11 4.7233617857394685e-11 2.933163593910395e-11
          1.3839282742082602e-11 2.5025963835586347e-11 1.0898236013624974e-11 1.744949691600652e-11 5.691309671909126e-11 6.224666768425546e-11
          3.7448035635873415e-11 4.0821677969083485e-11 2.5162332396374787e-11 6.758023864941969e-11 4.4195320302293555e-11 2.361581477060026e-11
          2.5946668853048483e-11 1.4378521892808007e-11 1.5926510899356782e-11 1.6471743891730247e-11 1.5853103901657302e-11 9.835447505082715e-12
          2.8277522935496704e-11 1.7474499905905564e-11 1.5234463911584355e-11 8.503587295920464e-12 9.461570306914856e-12 6.628047663072621e-12
          7.1247105966899315e-12 6.347267665481397e-12 6.246686391050681e-12 5.029778277292308e-12 1.0419553317909247e-11 7.621373530307243e-12
          6.146105116619963e-12 8.42701136174962e-11 5.088295262067768e-11 6.912480217035995e-11 5.625035731555288e-11 1.169403672360376e-10
          4.956066228129219e-11 6.496424760929201e-11 5.238847738706281e-11 1.0767151907730825e-10 4.044685427120669e-11 5.2894261529466654e-11
          3.26325250292167e-11 4.2845852468013235e-11 3.611696115940875e-11 4.5311869617405576e-11 3.659504850743098e-11 8.859241011660486e-11
          7.236970289303338e-11 7.326729147832243e-11 3.3118509908948356e-11 4.549057607754538e-11 3.648443654560005e-11 7.840740667427318e-11
          2.0862923917586652e-11 2.8942701319310936e-11 2.2760002341141594e-11 5.069982364155339e-11 2.625781998682584e-11 3.4569342809923865e-11
          2.0956883068614343e-11 2.7672542402160532e-11 2.3479484691081238e-11 2.950223704230138e-11 2.3600984483823347e-11 5.876802351648108e-11
          4.7356852273353204e-11 4.8158559349895945e-11 1.647847484219786e-11 2.189497517016939e-11 1.2869744435139367e-11 1.718607665671432e-11
          1.4710545766639074e-11 1.86378462563142e-11 1.4615712605005674e-11 3.7803367130203734e-11 2.9902628282421685e-11 3.088733226359465e-11
          6.403445852552302e-11 1.2703327873753442e-11 1.7763798421499956e-11 1.3742869521391055e-11 3.156245116124626e-11 7.697145755088407e-12
          1.0450209575830608e-11 1.8847677139178684e-11 1.0004964121249566e-11 1.3383565016735406e-11 7.76884555651089e-12 1.034350812211807e-11
          8.919489086000785e-12 1.1362642068578897e-11 8.786467754739436e-12 2.3421377617321335e-11 1.8166314773027623e-11 1.9077905491948417e-11
          6.098848676309867e-12 7.862165399979678e-12 5.464185870865302e-12 6.776024987924033e-12 5.410986583870378e-12 6.727831801310095e-12
          5.8853988361964325e-12 1.3892275053836756e-11 1.1364470585048763e-11 1.6029446068508568e-10 1.7396861890365856e-10 1.2841206291515074e-10
          2.705244609537159e-10 1.4522984484681252e-10 1.2005844967523392e-10 1.0647020231060594e-10 8.74709063992327e-11 2.2857187746764566e-10
          1.9127813000283266e-10 1.651879285418906e-10 4.0649222851367733e-10 4.075848794246478e-10 2.9222542043793806e-10 5.886491322809382e-10
          3.486884094283489e-10 2.952611892829727e-10 2.482082472071952e-10 2.0877985136832274e-10 5.100915991565499e-10 4.3729188159124036e-10
          3.5785193810223283e-10 1.31991970438446e-10 1.076279116274909e-10 2.1614517228794935e-10 8.689257796255764e-11 6.945256552931717e-11
          1.451990045014071e-10 9.841878232516363e-11 7.996574671768494e-11 7.139391054281655e-11 5.781287481878992e-11 1.584834787277651e-10
          1.2999217782096675e-10 1.1335255475947817e-10 6.435210912750922e-11 5.128679772655792e-11 4.636983583354458e-11 3.684680114860382e-11
          1.0554005226881528e-10 8.481153404982579e-11 7.484262494211618e-11 3.4276614376050293e-10 2.8578664060048445e-10 2.3557667963201653e-10
          1.9197883110966166e-10 3.6739119237876153e-10 2.4738250085446713e-10 2.0504151583582804e-10 1.738501577902648e-10 1.4328281550230954e-10
          3.7072501493620136e-10 3.107302981366304e-10 2.5599792690552547e-10 1.6810725446732988e-10 1.36330306026897e-10 1.1687036412120808e-10
          9.433916224876012e-11 2.574590100560457e-10 2.1086543183896946e-10 1.7538018954613053e-10 9.231965179661535e-11 6.489441589952709e-11
          1.3961354630414295e-10 5.929728033367604e-11 7.607569525414133e-11 4.799211812880328e-11 6.221204110923043e-11 4.199394019898564e-11
          5.334885061532449e-11 4.352396980616348e-11 1.1660668920178654e-10 9.654401110773885e-11 8.051731379172669e-11 3.5473991143947616e-11
          4.436471070231786e-11 3.5874509263250424e-11 6.583826029113147e-11 2.9125342668117845e-11 3.6476267905942615e-11 2.3865853859678705e-11
          2.984265948773328e-11 2.4324719426769966e-11 2.955587501330007e-11 2.4284426113022584e-11 5.440236984398013e-11 4.460515445771691e-11
          3.9699831274726316e-11 2.043607285772449e-10 1.3974182811519826e-10 2.869375841824644e-10 1.7238346884752912e-10 1.4408047935557812e-10
          1.1710521503919154e-10 9.728824856872456e-11 2.4446145930023275e-10 2.0626027618300996e-10 1.6318413153516568e-10 9.373205013797096e-11
          6.127789817019264e-11 1.272348969938522e-10 7.804184518435914e-11 6.443856406315926e-11 5.0682029978940475e-11 4.159499607572765e-11
          1.0676327289830862e-10 8.882231240989258e-11 6.870276252313332e-11 3.882466752967633e-11 5.0596638442668726e-11 3.122102491853142e-11
          4.083514979377462e-11 2.742061783356079e-11 3.52600704213625e-11 2.8333550679087545e-11 7.92128562299562e-11 6.439710618810958e-11
          5.4175071117264353e-11 2.4815183851471297e-11 3.263188821082446e-11 1.9562860178596732e-11 2.5844737539365667e-11 1.7402196704612767e-11
          2.2579132212672634e-11 1.7841111778458025e-11 5.186606378074986e-11 4.1375718126327844e-11 3.518395857078033e-11 1.9044492998274943e-11
          2.400884598803288e-11 1.504410801150216e-11 1.9138284391785893e-11 1.5923558615240468e-11 1.9415621786659223e-11 1.5369520445337022e-11
          3.6266504060081837e-11 2.9234941030629116e-11 2.6299061719381165e-11 1.2030381475967983e-11 1.5267937986811237e-11 9.564885058293044e-12
          1.209194317372661e-11 1.0046508835041679e-11 1.2292562531106804e-11 9.772215104320857e-12 2.3354991985746135e-11 1.8492495713382637e-11
          1.682203909559176e-11 1.1927423795884675e-10 9.777511560461449e-11 8.0088727920386e-11 6.531317784273043e-11 1.722831090390219e-10
          1.4243194816873955e-10 1.1340499566462411e-10 7.935941254508137e-11 6.377363871347272e-11 5.275947677146509e-11 4.2213415434640595e-11
          1.165379461974132e-10 9.436344440479386e-11 7.57992250886387e-11 5.277435316437314e-11 4.28380045089673e-11 3.391319099837611e-11
          2.741445801372264e-11 7.322973103780984e-11 5.981315946373307e-11 4.654362283720281e-11 3.443271047822351e-11 2.7419532628818852e-11
          2.191532742105759e-11 1.73633271572351e-11 4.8393758382353373e-11 3.8781488610437456e-11 3.043415979880696e-11 8.03062781273e-10
          5.624070456512901e-10 1.0112198696837573e-9 7.043708604087432e-10 6.110057791884666e-10 4.88409336903092e-10 4.196405421036646e-10
          8.954805196858944e-10 7.841562519666128e-10 6.179228256153408e-10 1.1552430028410314e-9 8.081055942170687e-10 1.203956433830528e-9
          1.0288583773133558e-9 9.061022064412338e-10 7.117574639340058e-10 6.199935884657974e-10 1.074163839928857e-9 9.477224961751854e-10
          7.451175680110865e-10 5.239350119987728e-10 4.4397421838056715e-10 3.565830320735675e-10 2.9959262022129127e-10 6.786491217350876e-10
          5.802388358004043e-10 4.587146935746154e-10 3.7170374689904167e-10 3.074344058394893e-10 2.488475764540394e-10 2.0433789144922167e-10
          4.899658426558271e-10 4.085580344381424e-10 3.250563897143514e-10 7.886226139709008e-10 6.779911799143452e-10 5.33868827303789e-10
          4.5429595584586796e-10 8.263474061005603e-10 7.116971953698481e-10 5.607861606135543e-10 5.755669691674182e-10 4.823841896620303e-10
          3.8195742690792574e-10 3.172634057795768e-10 6.052350905989554e-10 5.080985501695196e-10 4.02483573205842e-10 3.8233614315140274e-10
          2.533717118389663e-10 4.756777922181266e-10 3.2883012223165803e-10 2.7995932365595054e-10 2.1592770077042257e-10 1.8227522759940556e-10
          4.1228915787151406e-10 3.5363570123047066e-10 2.6750082810907534e-10 1.644199442512943e-10 1.0489761544707033e-10 1.9977155983570194e-10
          1.3893389164787405e-10 1.1636059865220683e-10 8.793789398321943e-11 7.311077758734936e-11 1.6978411459882762e-10 1.4298551430546617e-10
          1.0597686631673055e-10 5.440478565580875e-10 3.547643022781449e-10 5.688701099645261e-10 4.738583314677728e-10 4.083646854974388e-10
          3.0569921201757156e-10 2.608001013602069e-10 4.962833425214602e-10 4.2836096406515337e-10 3.1976346981409926e-10 2.2565330189274326e-10
          1.409167259719863e-10 2.3517658858333395e-10 1.925045449027687e-10 1.6270293114656176e-10 1.1910640887377348e-10 9.980400174482515e-11
          2.0088824193153847e-10 1.6999769049349231e-10 1.239371763799647e-10 2.358625944426744e-10 1.9659785742945966e-10 1.5235312430649134e-10
          1.2606368219138976e-10 3.000653385091549e-10 2.5181946800362615e-10 1.9113208800182846e-10 1.6211053447907327e-10 1.3223311750868304e-10
          1.032504438678657e-10 8.370025617579222e-11 2.0899108319925437e-10 1.7151904591087498e-10 1.3102855816648454e-10 9.655194455556419e-11
          7.935128346699015e-11 6.025706419931716e-11 4.9225642975493475e-11 1.192750771765528e-10 9.852799315398613e-11 7.329691731022382e-11
          6.458145974025145e-11 5.204458266859736e-11 3.983689857934293e-11 3.1921196143636304e-11 8.058368104287376e-11 6.524762081107655e-11
          4.887802459987981e-11 3.4807519624958246e-10 2.9337610707488857e-10 2.2020546865887847e-10 1.8397823578500786e-10 3.656700591016022e-10
          3.0865039016599276e-10 2.3096985521324192e-10 2.44483429366484e-10 2.0143023833012969e-10 1.5208169904315498e-10 1.2437603531206496e-10
          2.575651589966201e-10 2.1248418712071206e-10 1.5991582343389695e-10 1.3618963105729756e-10 1.1287294215799124e-10 8.287321054491717e-11
          6.81773322104359e-11 1.424624319833716e-10 1.1820473374327035e-10 8.641110109033484e-11 9.261154494530714e-11 7.521855722182452e-11
          5.5554703563023255e-11 4.4828598512125515e-11 9.709206200327209e-11 7.894113605784834e-11 5.8025739799672335e-11 5.496289444987479e-11
          4.308121420252768e-11 9.34661449530933e-11 3.351435617323542e-11 5.7659362998412994e-11 4.0475113842866466e-11 3.164407829947865e-11
          2.8996496794466553e-11 2.261581327734449e-11 6.745936916596302e-11 5.3111155720132584e-11 4.750544113896996e-11 2.4544406533059764e-11
          1.7482835506673172e-11 4.137909177181724e-11 2.897397923186603e-11 1.5467391322328228e-10 1.232107465883005e-10 2.465588274875531e-10
          9.705016427078439e-11 1.5764652746829598e-10 1.0936148306904082e-10 8.677812542566955e-11 7.536248427652127e-11 5.958107658154847e-11
          1.7072067321734719e-10 1.366408265411234e-10 1.1499996479356951e-10 6.81168795263783e-11 4.6613766159998234e-11 1.0812526756695071e-10
          7.218572362442112e-11 1.52867541774164e-11 2.0282799852514767e-11 1.1875064652574197e-11 1.5785230792753734e-11 1.0668685097454897e-11
          1.3947988291775081e-11 1.080270670647864e-11 3.269358259182574e-11 2.5588851199467407e-11 2.2018276944607946e-11 9.148772529928543e-12
          1.2172785901507077e-11 6.350639501016665e-12 8.252075098547477e-12 1.986815568589245e-11 1.323960494352472e-11 7.331594561750566e-12
          9.369132185325002e-12 5.575156391407849e-12 7.190930181641298e-12 6.0858532636800315e-12 7.507558800873882e-12 5.724689920057734e-12
          1.4503956511527694e-11 1.1274168046169258e-11 1.0394863350360624e-11 4.364464699632743e-12 5.5155462535534606e-12 3.915512313907857e-12
          4.802227650881758e-12 3.6487249186877135e-12 4.496348794013754e-12 4.041539035638435e-12 8.647650867434633e-12 7.280078726109916e-12
          6.252886788002705e-12 5.074140793864239e-11 3.997975356671094e-11 3.3453991110129445e-11 2.626402106620156e-11 7.561618676314196e-11
          5.996604869088356e-11 4.868962343720592e-11 3.121631162009136e-11 2.045038326717974e-11 4.705738989405719e-11 3.0048244711111854e-11
          2.1646303822640612e-11 1.693797236191268e-11 1.3657676848327174e-11 1.0656452570718538e-11 3.078092820838784e-11 2.4196201205453158e-11
          1.9158034762952834e-11 1.3126672588832e-11 1.0044396896447448e-11 8.231456806203668e-12 6.295608024632885e-12 1.883525007852329e-11
          1.4525086222996515e-11 1.1607997416688643e-11 6.06782542283521e-12 7.617906449586975e-12 3.879382804580051e-12 4.7457964441755465e-12
          6.755284401328444e-12 2.51200681756941e-10 2.0278282279086597e-10 1.6587661128390458e-10 1.3312644003123423e-10 3.3639358382170806e-10
          2.735050221064522e-10 2.1965895621108376e-10 1.6174631245678726e-10 1.0563642408765332e-10 2.196112519635002e-10 1.4157760428119212e-10