<?xml version="1.0"?>
<VTKFile type="UnstructuredGrid" version="0.1" byte_order="LittleEndian" header_type="UInt32" compressor="vtkZLibDataCompressor">
  <UnstructuredGrid>
    <Piece NumberOfPoints="1253" NumberOfCells="792">
      <PointData>
        <DataArray type="Int32" Name="libmesh_node_id" format="ascii" RangeMin="1410" RangeMax="6643">
          1507 1508 1680 1681 1682 1683
          1684 1690 1691 1879 2241 2242
          2243 2244 2245 2246 2247 2248
          2249 2250 2251 2252 2253 2254
          2255 2256 2257 2258 2259 2260
          2262 2263 2265 2266 2268 2276
          2277 2281 2282 2289 2290 2291
          2292 2293 2294 2295 2296 2297
          2298 2299 2300 2305 2306 2308
          2309 2310 2311 2313 2314 2315
          3065 3066 3067 3068 3069 3070
          3071 3072 3073 3074 3075 3076
          3077 3078 3079 3080 3081 3082
          3083 3084 3085 3086 3087 3088
          3089 3090 3091 3092 3093 3094
          3095 3096 3097 3098 3099 3100
          3101 3102 3103 3104 3107 3108
          3110 3111 3113 3114 3115 3116
          3117 3118 3119 3120 3121 3122
          3123 3124 3125 3128 3129 3131
          3182 3183 3184 3185 3186 3187
          3188 3189 3190 3191 3192 3193
          3194 3195 3196 3197 3198 3199
          3200 3201 3202 3203 3204 3205
          3206 3207 3208 3209 3210 3211
          3212 3213 3214 3215 3216 3217
          3218 3219 3220 3221 3222 3223
          3224 3225 3226 3227 3228 3229
          3230 3231 3232 3233 3234 3235
          3236 3237 3238 3239 3240 3241
          3242 3243 3244 3245 3246 3247
          3248 3249 3250 3251 3252 3253
          3254 3255 3256 3257 3258 3259
          3260 3261 3264 3266 3267 3269
          3270 3271 3272 3274 3275 3276
          3277 3281 3284 3285 3286 3287
          3288 3289 3290 3291 3292 3293
          3294 3295 3298 3300 3301 3303
          3304 3305 3306 3307 3308 3309
          3310 3311 3315 3318 3319 3320
          3323 3324 3325 3329 3330 3331
          3332 3333 3334 3335 3336 3337
          3338 3339 3340 3341 3342 3374
          3378 3402 3403 4449 4450 4451
          4452 4453 4454 4455 4456 4457
          4458 4459 4460 4461 4462 4463
          4464 4467 4470 4473 4474 4475
          4476 4477 4478 4479 4480 4481
          4482 4483 4484 4485 4487 4488
          4489 4490 4491 4492 4494 4495
          4496 4497 4498 4499 4500 4504
          4517 4519 4521 4522 4523 5407
          5408 5409 5410 5411 5412 5413
          5414 5415 5416 5417 5418 5419
          5420 5421 5422 5423 5424 5425
          5426 5427 5428 5429 5430 5431
          5432 5433 5434 5435 5436 5437
          5438 5439 5440 5441 5442 5443
          5444 5445 5446 5447 5448 5450
          5451 5452 5453 5454 5455 5456
          5457 5458 5459 5460 5461 5462
          5463 5464 5465 5466 5468 5470
          5471 5472 5473 5474 5475 5476
          5477 5478 5479 5480 5481 5482
          5485 5487 5488 5490 5491 5492
          5493 5494 5495 5496 5497 5498
          5500 5502 5504 5505 5506 5507
          5508 5509 5510 5511 5512 5513
          5514 5515 5516 5517 5518 5519
          5520 5521 5522 5523 5524 5525
          5526 5527 5530 5531 5533 5535
          5536 5537 5538 5539 5540 5541
          5542 5543 5545 5547 5549 5550
          5551 5552 5553 5554 5555 5556
          5557 5558 5559 5560 5561 5564
          5565 5567 5642 5643 5644 5645
          5646 5647 5648 5649 5650 5651
          5652 5653 5654 5655 5656 5657
          5658 5659 5660 5661 5662 5663
          5664 5665 5666 5667 5668 5669
          5670 5671 5672 5673 5674 5675
          5676 5677 5678 5679 5680 5681
          5682 5683 5684 5685 5686 5687
          5688 5689 5690 5691 5692 5693
          5694 5695 5696 5697 5698 5699
          5700 5701 5702 5703 5704 5705
          5706 5707 5708 5709 5710 5711
          5712 5713 5714 5715 5716 5717
          5718 5719 5720 5721 5722 5723
          5724 5725 5726 5727 5728 5729
          5730 5731 5732 5733 5734 5735
          5736 5737 5738 5739 5740 5741
          5742 5743 5744 5745 5746 5747
          5748 5749 5750 5751 5752 5753
          5754 5755 5756 5757 5758 5759
          5760 5761 5762 5763 5764 5765
          5766 5767 5768 5769 5770 5771
          5772 5773 5774 5775 5776 5777
          5778 5779 5780 5781 5782 5783
          5784 5785 5786 5787 5788 5789
          5790 5791 5792 5793 5794 5795
          5796 5797 5798 5799 5800 5801
          5802 5803 5804 5805 5806 5807
          5808 5809 5810 5811 5812 5813
          5814 5815 5816 5817 5818 5819
          5820 5821 5822 5823 5824 5825
          5826 5827 5828 5829 5830 5831
          5832 5833 5834 5835 5836 5837
          5838 5839 5840 5841 5842 5843
          5844 5845 5846 5847 5848 5849
          5850 5851 5852 5853 5854 5855
          5856 5857 5858 5859 5860 5861
          5862 5863 5864 5865 5866 5867
          5868 5869 5870 5871 5872 5873
          5874 5875 5876 5877 5878 5879
          5880 5881 5882 5883 5884 5885
          5886 5887 5888 5889 5890 5891
          5892 5893 5894 5895 5896 5897
          5898 5899 5900 5901 5902 5903
          5904 5905 5906 5907 5908 5909
          5910 5911 5912 5913 5914 5915
          5916 5917 5918 5919 5920 5921
          5922 5923 5924 5925 5926 5927
          5928 5929 5930 5931 5932 5933
          5934 5935 5936 5937 5938 5939
          5940 5941 5942 5943 5944 5945
          5946 5947 5948 5949 5950 5951
          5954 5956 5957 5959 5960 5961
          5962 5963 5964 5965 5966 5967
          5969 5971 5973 5974 5975 5976
          5977 5978 5979 5980 5981 5982
          5983 5984 5985 5988 5990 5991
          5993 5994 5995 5996 5997 5998
          5999 6000 6001 6003 6005 6007
          6008 6009 6010 6014 6015 6016
          6017 6018 6019 6020 6021 6025
          6026 6027 6028 6029 6030 6031
          6032 6034 6036 6038 6053 6054
          6055 6056 6057 6058 6059 6060
          6062 6064 6066 6081 6082 6083
          6084 6085 6086 6087 6088 6089
          6090 6091 6092 6093 6094 6095
          6096 6097 6098 6099 6100 6101
          6102 6103 6104 6105 6106 6107
          6108 6109 6110 6111 6112 6113
          6114 6115 6116 6117 6118 6119
          6120 6121 6122 6123 6124 6125
          6126 6127 6128 6129 6130 6131
          6132 6133 6134 6135 6136 6137
          6138 6139 6140 6141 6142 6143
          6144 6145 6146 6147 6148 6149
          6150 6151 6152 6153 6154 6155
          6156 6157 6158 6169 6170 6171
          6172 6173 6174 6175 6183 6184
          6185 6186 6187 6188 6189 6190
          6191 6192 6203 6204 6205 6206
          6207 6208 6209 6217 6218 6219
          6220 6221 6222 6223 6224 6225
          6226 6227 6228 6229 6230 6231
          6232 6233 6237 6238 6239 6240
          6241 6242 6243 6244 6245 6246
          6247 6248 6249 6250 6251 6252
          6253 6254 6255 6256 6257 6261
          6262 6263 6264 6265 6266 6267
          6289 6290 6291 6292 6293 6294
          6295 6596 6597 6598 6599 6600
          6601 6602 6603 6604 6605 6610
          6611 6612 6613 6617 6618 6624
          6625 6626 6627 6634 6635 1874
          1505 1878 1875 1876 1880 1877
          1869 1870 1496 1646 1884 1885
          1886 1887 1892 1883 1695 1701
          2133 2134 2135 2138 1647 2141
          1648 2161 2178 2191 2193 2195
          1503 2330 2351 2264 2331 2352
          3126 3127 3130 2887 2975 2976
          2978 2175 2981 2176 2893 2991
          2993 2995 3025 3027 3049 3059
          3061 1654 3063 4465 4466 4468
          4469 4471 4472 2323 2324 4486
          2261 4493 4501 4502 4503 4505
          4506 2325 3406 3409 2326 4518
          4520 3430 3434 3432 3105 5449
          3106 5467 5469 3109 5483 5484
          5486 1685 5489 3112 5499 5501
          5503 2267 5528 5529 5532 5534
          5544 5546 5548 3132 5562 5563
          5566 5568 5155 5255 5256 5258
          3009 5261 3010 5161 5271 5273
          5275 3012 5289 5290 5292 1410
          5295 3015 5305 5307 5309 2181
          5173 5367 5369 5371 5387 5389
          5391 3029 5377 5401 5403 5405
          5952 5953 5955 3262 5958 3263
          5968 5970 5972 3265 5986 5987
          5989 2301 5992 3268 6002 6004
          6006 2302 6033 6035 6037 3278
          6061 6063 6065 3282 6159 6160
          6161 6162 6163 6164 6165 6166
          6168 6176 6177 6178 6179 6180
          6182 6193 6194 6197 6199 6200
          6202 6210 6212 6214 6216 6268
          6269 6270 6271 6272 6274 6296
          6298 6300 6302 6606 6607 3404
          6608 6609 3405 6614 6615 6616
          6619 6620 6621 3407 6622 6623
          3408 6628 6629 6630 6631 6632
          6633 3410 6636 6637 6638 6639
          6640 6641 6642 6643 3411
        </DataArray>
        <DataArray type="Float64" Name="bounds" format="ascii" RangeMin="0" RangeMax="0">
          0 0 0 0 0 0
          0 0 0 0 0 0
          0 0 0 0 0 0
          0 0 0 0 0 0
          0 0 0 0 0 0
          0 0 0 0 0 0
          0 0 0 0 0 0
          0 0 0 0 0 0
          0 0 0 0 0 0
          0 0 0 0 0 0
          0 0 0 0 0 0
          0 0 0 0 0 0
          0 0 0 0 0 0
          0 0 0 0 0 0
          0 0 0 0 0 0
          0 0 0 0 0 0
          0 0 0 0 0 0
          0 0 0 0 0 0
          0 0 0 0 0 0
          0 0 0 0 0 0
          0 0 0 0 0 0
          0 0 0 0 0 0
          0 0 0 0 0 0
          0 0 0 0 0 0
          0 0 0 0 0 0
          0 0 0 0 0 0
          0 0 0 0 0 0
          0 0 0 0 0 0
          0 0 0 0 0 0
          0 0 0 0 0 0
          0 0 0 0 0 0
          0 0 0 0 0 0
          0 0 0 0 0 0
          0 0 0 0 0 0
          0 0 0 0 0 0
          0 0 0 0 0 0
          0 0 0 0 0 0
          0 0 0 0 0 0
          0 0 0 0 0 0
          0 0 0 0 0 0
          0 0 0 0 0 0
          0 0 0 0 0 0
          0 0 0 0 0 0
          0 0 0 0 0 0
          0 0 0 0 0 0
          0 0 0 0 0 0
          0 0 0 0 0 0
          0 0 0 0 0 0
          0 0 0 0 0 0
          0 0 0 0 0 0
          0 0 0 0 0 0
          0 0 0 0 0 0
          0 0 0 0 0 0
          0 0 0 0 0 0
          0 0 0 0 0 0
          0 0 0 0 0 0
          0 0 0 0 0 0
          0 0 0 0 0 0
          0 0 0 0 0 0
          0 0 0 0 0 0
          0 0 0 0 0 0
          0 0 0 0 0 0
          0 0 0 0 0 0
          0 0 0 0 0 0
          0 0 0 0 0 0
          0 0 0 0 0 0
          0 0 0 0 0 0
          0 0 0 0 0 0
          0 0 0 0 0 0
          0 0 0 0 0 0
          0 0 0 0 0 0
          0 0 0 0 0 0
          0 0 0 0 0 0
          0 0 0 0 0 0
          0 0 0 0 0 0
          0 0 0 0 0 0
          0 0 0 0 0 0
          0 0 0 0 0 0
          0 0 0 0 0 0
          0 0 0 0 0 0
          0 0 0 0 0 0
          0 0 0 0 0 0
          0 0 0 0 0 0
          0 0 0 0 0 0
          0 0 0 0 0 0
          0 0 0 0 0 0
          0 0 0 0 0 0
          0 0 0 0 0 0
          0 0 0 0 0 0
          0 0 0 0 0 0
          0 0 0 0 0 0
          0 0 0 0 0 0
          0 0 0 0 0 0
          0 0 0 0 0 0
          0 0 0 0 0 0
          0 0 0 0 0 0
          0 0 0 0 0 0
          0 0 0 0 0 0
          0 0 0 0 0 0
          0 0 0 0 0 0
          0 0 0 0 0 0
          0 0 0 0 0 0
          0 0 0 0 0 0
          0 0 0 0 0 0
          0 0 0 0 0 0
          0 0 0 0 0 0
          0 0 0 0 0 0
          0 0 0 0 0 0
          0 0 0 0 0 0
          0 0 0 0 0 0
          0 0 0 0 0 0
          0 0 0 0 0 0
          0 0 0 0 0 0
          0 0 0 0 0 0
          0 0 0 0 0 0
          0 0 0 0 0 0
          0 0 0 0 0 0
          0 0 0 0 0 0
          0 0 0 0 0 0
          0 0 0 0 0 0
          0 0 0 0 0 0
          0 0 0 0 0 0
          0 0 0 0 0 0
          0 0 0 0 0 0
          0 0 0 0 0 0
          0 0 0 0 0 0
          0 0 0 0 0 0
          0 0 0 0 0 0
          0 0 0 0 0 0
          0 0 0 0 0 0
          0 0 0 0 0 0
          0 0 0 0 0 0
          0 0 0 0 0 0
          0 0 0 0 0 0
          0 0 0 0 0 0
          0 0 0 0 0 0
          0 0 0 0 0 0
          0 0 0 0 0 0
          0 0 0 0 0 0
          0 0 0 0 0 0
          0 0 0 0 0 0
          0 0 0 0 0 0
          0 0 0 0 0 0
          0 0 0 0 0 0
          0 0 0 0 0 0
          0 0 0 0 0 0
          0 0 0 0 0 0
          0 0 0 0 0 0
          0 0 0 0 0 0
          0 0 0 0 0 0
          0 0 0 0 0 0
          0 0 0 0 0 0
          0 0 0 0 0 0
          0 0 0 0 0 0
          0 0 0 0 0 0
          0 0 0 0 0 0
          0 0 0 0 0 0
          0 0 0 0 0 0
          0 0 0 0 0 0
          0 0 0 0 0 0
          0 0 0 0 0 0
          0 0 0 0 0 0
          0 0 0 0 0 0
          0 0 0 0 0 0
          0 0 0 0 0 0
          0 0 0 0 0 0
          0 0 0 0 0 0
          0 0 0 0 0 0
          0 0 0 0 0 0
          0 0 0 0 0 0
          0 0 0 0 0 0
          0 0 0 0 0 0
          0 0 0 0 0 0
          0 0 0 0 0 0
          0 0 0 0 0 0
          0 0 0 0 0 0
          0 0 0 0 0 0
          0 0 0 0 0 0
          0 0 0 0 0 0
          0 0 0 0 0 0
          0 0 0 0 0 0
          0 0 0 0 0 0
          0 0 0 0 0 0
          0 0 0 0 0 0
          0 0 0 0 0 0
          0 0 0 0 0 0
          0 0 0 0 0 0
          0 0 0 0 0 0
          0 0 0 0 0 0
          0 0 0 0 0 0
          0 0 0 0 0 0
          0 0 0 0 0 0
          0 0 0 0 0 0
          0 0 0 0 0 0
          0 0 0 0 0 0
          0 0 0 0 0 0
          0 0 0 0 0 0
          0 0 0 0 0 0
          0 0 0 0 0 0
          0 0 0 0 0 0
          0 0 0 0 0 0
          0 0 0 0 0 0
          0 0 0 0 0 0
          0 0 0 0 0 0
          0 0 0 0 0 0
          0 0 0 0 0 0
          0 0 0 0 0 0
          0 0 0 0 0 0
          0 0 0 0 0
        </DataArray>
        <DataArray type="Float64" Name="gradient_error" format="ascii" RangeMin="1.9452650427922402e-11" RangeMax="6.174989291470459e-8">
          1.7585707433446482e-10 4.83720298685434e-10 5.5687312047099255e-9 4.18693802543514e-9 2.432641740403421e-8 2.408675560716407e-8
          5.579870681455286e-10 2.133268046625243e-9 1.6586084680183233e-8 5.712429889601784e-11 1.0600244403160185e-8 9.652757516484665e-9
          3.609306977540272e-8 3.234806301904701e-8 4.31664918739328e-9 1.8297088632243735e-8 1.6293907825220287e-8 7.347067876339333e-9
          2.2862611115848983e-8 1.1289267884299876e-8 4.1419892861755176e-8 3.666074913272375e-8 2.1286923697999342e-8 4.59725250213554e-8
          1.6590264789393932e-9 1.4941478481529226e-9 2.2128446488071127e-9 1.9586783674723727e-9 1.608585839361675e-10 2.204212401942847e-10
          1.5694180417606935e-9 1.7034145695031348e-9 5.9128139520522e-9 5.0169917319106695e-9 3.0960662869136773e-9 4.386433366427972e-8
          2.1495419340156897e-8 7.206459293529895e-10 4.784919759536951e-10 2.070914659499455e-8 1.8407093922303895e-8 2.0631175586528243e-8
          1.769040436745734e-8 4.330464225575064e-8 3.1332624081125414e-8 1.8149023655483216e-9 3.4949527702423006e-9 3.9239634110328895e-9
          1.718357898525288e-8 1.2044677609190178e-8 9.955812482199271e-9 2.474393217763246e-9 3.869549570338246e-9 1.7552344407873378e-8
          5.493343471358983e-8 2.9851349406018635e-8 3.554634079584262e-8 4.439288918306821e-8 2.725209986925817e-8 4.4449716757650874e-8
          2.231577422621323e-8 2.1496611507971054e-8 2.0428787787001663e-8 1.933227301127048e-8 4.681266088982817e-9 5.8820632761949625e-9
          5.655553379809346e-9 5.1069761850236896e-9 1.9721619809495872e-8 1.893592507667276e-8 1.3652047226086218e-8 1.6879425837329154e-8
          1.6587111721662006e-8 1.5607924904428428e-8 1.5187126210511933e-8 3.3876024265605293e-9 4.249291340541302e-9 3.200796847858057e-9
          1.434203034055384e-8 1.024309422601423e-8 1.3075439350299029e-8 3.788108608401023e-9 3.638902645891672e-9 5.218648206035499e-9
          5.019906644545113e-9 1.142595145556314e-9 2.5147193934464184e-9 2.4193825876761446e-9 3.2391505671633774e-9 4.506785275959362e-9
          2.1525884831603264e-9 1.1266509173917592e-8 1.0819080799513135e-8 5.672607653425195e-9 9.624884372729392e-9 3.3330833234498147e-10
          3.2135071906435645e-10 3.4036471514856724e-10 3.2524012849192584e-10 2.122556904208842e-10 2.8882583861293004e-10 2.8295775485312007e-10
          9.307034742048452e-10 8.877270534063193e-10 7.704777431774432e-10 2.6441088140330102e-9 3.738323305470288e-9 1.0015772373438996e-9
          1.891000154790068e-9 1.9792530158263857e-9 2.836162682838925e-9 1.5605709273179195e-9 7.976252619133985e-9 4.10316770893423e-9
          6.202694464397668e-9 4.508119320241506e-10 4.2160401736628913e-10 6.473125453078475e-10 5.113422600574445e-10 6.082883250170881e-10
          2.900275616574678e-8 2.8069378997377596e-8 2.8872705428848128e-8 2.787074086862963e-8 2.5396966611751912e-8 2.5006787996894743e-8
          1.9994011617117593e-8 1.9558764599260154e-8 2.0140761992327792e-8 1.8096164975911003e-8 2.8125967234861288e-8 2.7062621152686434e-8
          2.6703180302135844e-8 2.560566371015106e-8 2.4071202552217746e-8 2.2580686237678922e-8 2.0951472870534603e-8 2.0287498019234704e-8
          1.9925920189208255e-8 1.8312147614004786e-8 2.1258736862113503e-8 2.0621482489155133e-8 1.8859542329731587e-8 1.8098165292931913e-8
          2.247783944480777e-8 2.2572441146935338e-8 2.6759704763123515e-8 1.9552422000337017e-8 1.8140695559963306e-8 1.6961713966750114e-8
          1.4027669672222925e-8 2.213571779500477e-8 2.1252464127334052e-8 2.620705731297251e-8 4.058521274693934e-9 4.029540088715631e-9
          4.50089153739813e-9 4.479805194118598e-9 3.964725834087919e-9 4.3621703203146246e-9 1.6666722901361486e-9 2.342280529029598e-9
          2.567675031269746e-9 3.198716291040945e-9 4.926196500734756e-9 4.86500820283862e-9 5.240097373937466e-9 5.138041265394125e-9
          4.717144367710985e-9 5.029314731377337e-9 1.9257402230148663e-9 2.7737795169155426e-9 2.9488291234493037e-9 3.745384010354012e-9
          1.1496035309445056e-8 1.1958083929634418e-8 2.286711282083638e-8 2.3191081848228486e-8 3.5921066626216686e-9 3.8818644989347215e-9
          1.686300179650653e-8 1.2211803760403335e-8 1.2156832328490124e-8 2.299772967019615e-8 2.2255150751409444e-8 4.13025238315507e-9
          4.367029346346423e-9 1.7144384865791466e-8 2.4599793186757836e-8 2.3536409419256078e-8 1.3041300848487502e-8 1.2459025696978428e-8
          2.060236159968224e-8 1.0850323138927852e-8 1.973495481487919e-8 1.89251169870121e-8 1.1505620016087765e-8 1.6523653150703733e-8
          2.2375677697966777e-9 2.1274643252759662e-9 1.832185107490443e-9 4.870890031004029e-9 4.607152896999702e-9 3.898820072058147e-9
          1.64421396897515e-8 8.616942114560351e-9 1.2141601624542431e-8 2.0016441824145836e-8 1.1273960382305359e-8 2.1159351309838267e-8
          1.431340514322413e-9 2.953827685592728e-9 5.385717068679982e-9 5.345245105156668e-9 5.553703480274657e-9 5.514211007820367e-9
          5.272024118852837e-9 5.422753479165616e-9 2.3206662759737492e-9 3.081026448580979e-9 3.1634690898898323e-9 3.966508125581881e-9
          5.566499226135731e-9 5.528842880778312e-9 5.3906156205950205e-9 2.5982857220735152e-9 3.1618439045416388e-9 3.752131498678191e-9
          1.57048808646819e-8 1.2060737108144588e-8 2.515959835892421e-8 1.6061528542751284e-8 1.2479374598055456e-8 1.2453175662719341e-8
          2.365868428693692e-8 4.637417297008399e-9 4.4140780498946965e-9 2.0876534529974297e-8 2.0497677064418883e-8 1.7523896413367218e-8
          1.9734542148397284e-8 1.6190857346160227e-8 1.5963194861929263e-8 2.282679347364167e-8 2.2638857455630384e-8 1.889281254267883e-8
          1.8347313421399298e-8 2.477705241730904e-8 2.478003784684189e-8 2.0261728671990448e-8 2.2009130310989196e-8 2.0921654355459503e-8
          1.7477089162457614e-8 1.3602782133012076e-8 2.4283718473581107e-8 2.3176461811881338e-8 1.8990983462985965e-8 1.9589789509398068e-8
          2.1729988649133893e-8 1.4271569503540051e-10 1.3617052461859609e-10 3.690471291845631e-10 5.25775898705929e-10 4.677214320005521e-10
          4.096669652951751e-10 2.566783829646422e-10 2.4656842912328434e-10 3.5864390793640736e-10 3.3214765296223946e-10 7.897512251932751e-11
          1.4525235876202452e-10 1.4339406445619373e-10 2.364584752819264e-10 3.056513979880715e-10 1.415357701503629e-10 2.0079484354780398e-11
          2.6656583202285933e-11 1.9452650427922402e-11 3.323368204979147e-11 4.081421329717181e-10 5.270439576617487e-10 5.0823578922666e-10
          4.5943590983807505e-10 2.96739379902107e-10 2.8569182225097984e-10 4.1172754878059725e-10 3.972040437660008e-10 1.2470529776284307e-10
          2.3789021988239207e-10 2.2947982552203752e-10 2.562532476320856e-10 3.5759764543001195e-10 2.994259557509503e-10 3.719775928021956e-10
          3.1451098671981254e-10 2.200621137446658e-10 2.9320319903031423e-10 1.1031018283495392e-10 2.022619968250131e-10 2.538916459520087e-10
          1.5315030032362576e-10 7.228174919156617e-11 7.155852623694654e-11 1.4715776872441127e-10 1.415736863451581e-10 6.874524762816331e-11
          6.768114098028986e-11 5.544018802905319e-11 6.870708998658002e-11 9.215956799698494e-11 7.129084053092324e-11 2.295338965685139e-10
          2.687696385128118e-10 2.663293549357457e-10 2.5889052108467585e-10 4.689265974036969e-10 2.1065771360496794e-10 2.453985552846563e-10
          2.2821773570670096e-10 4.302644586169729e-10 7.320003572272548e-10 7.233341723441707e-10 7.007901742818119e-10 1.1719677858869345e-9
          6.635341893788373e-10 6.152475399066062e-10 1.0716902828527715e-9 1.9331796065087334e-10 1.916230669339145e-10 2.4293375206747204e-10
          2.405963576592342e-10 1.3844827786538026e-10 1.9625964508648098e-10 1.9413969429211649e-10 1.8593593493401696e-10 2.3342918750251457e-10
          1.877785819899063e-10 4.2279077519881274e-10 4.18108765513786e-10 3.3654497223485215e-10 4.0481438963829913e-10 1.1408144512571376e-10
          1.1278224566714268e-10 1.6055419690610998e-10 1.587292355941001e-10 9.333676926283004e-11 1.3322974256908709e-10 1.317282659585899e-10
          1.0900504104819795e-10 1.5338020819993073e-10 1.272622343560905e-10 2.844664501954278e-10 2.811617577642923e-10 2.714588035742291e-10
          1.757384290938683e-10 2.2105367034226998e-10 1.2671307880634727e-10 1.775484201092328e-10 1.6372315390116965e-10 2.053088568351477e-10
          1.646428039222867e-10 3.829883889280111e-10 3.071710964291131e-10 3.541041004320884e-10 1.030859543234742e-10 1.4489314417048566e-10
          8.527151188754106e-11 1.2010945658519452e-10 9.658318595064137e-11 1.3418490261269647e-10 2.559412428799788e-10 2.3520042740456643e-10
          6.759300866821942e-10 6.680948792684166e-10 5.728916353646152e-10 5.662877272937318e-10 6.464198727369177e-10 5.468008387725439e-10
          1.090555984125052e-9 1.0774635674949903e-9 9.198233308698139e-10 1.0415441471756737e-9 4.878602193259118e-10 4.820377342259717e-10
          4.6497811885021934e-10 8.116953804465724e-10 8.018359343547188e-10 7.729682579810649e-10 6.112640271089175e-10 5.157818627106051e-10
          5.654005043134744e-10 4.750687961664311e-10 9.837192073837776e-10 8.368114271927506e-10 9.089305218036458e-10 4.377844141198478e-10
          4.021643243127869e-10 7.270804352274457e-10 6.673700193540662e-10 1.803460746144399e-10 2.0532160818027685e-10 1.9111288470579238e-10
          3.5816077672255195e-10 5.591592107620882e-10 4.967585763299958e-10 8.993814288870938e-10 3.7413089452044647e-10 4.333166925056215e-10
          3.68782421792269e-10 6.903938323606377e-10 1.546339131116705e-10 1.8549871779066763e-10 1.1617383539870401e-10 1.4913880066219737e-10
          1.5135467995766005e-10 1.73887650841547e-10 1.4055141321622623e-10 3.172076822296448e-10 2.517096500445853e-10 3.1297817604889203e-10
          9.442465591124335e-11 1.2121571556391525e-10 9.532781268032803e-11 1.139917721256377e-10 2.0849867126912566e-10 2.022044206335002e-10
          5.12461826641633e-10 4.283296144722854e-10 4.5435281597529094e-10 3.776844396324605e-10 8.218930749717641e-10 6.928039823406276e-10
          7.257743920511201e-10 3.612891760861759e-10 3.1699141464544987e-10 5.976609163823549e-10 5.221000387651857e-10 3.214996425511307e-10
          3.940321225818497e-10 2.443603217835829e-10 3.2414449000178327e-10 2.7129624508037084e-10 3.335114953059566e-10 2.715871524616933e-10
          6.267756097056263e-10 5.212426700384118e-10 5.278082443283852e-10 2.018073330390336e-10 2.7043519056150904e-10 1.6759960421015426e-10
          2.251220793508812e-10 4.448920061505605e-10 4.020265017901278e-9 4.0648893299334485e-9 4.341771252956439e-9 4.2162920134807965e-9
          4.615975500598072e-9 4.64145494782938e-9 4.926152211006626e-9 4.731324136023734e-9 4.392611672580293e-9 4.619008195731362e-9
          4.540334009859686e-9 4.834452203692422e-9 5.0415957735059906e-9 4.910040245489842e-9 5.176839847797579e-9 5.160435365403066e-9
          5.359161023433e-9 5.1814336314972505e-9 5.5440024290284674e-9 5.550396819229554e-9 5.757574151556729e-9 5.597720127823423e-9
          5.244230865581648e-9 5.438227943665255e-9 5.234760380395032e-9 5.614257426995813e-9 5.7452155618268485e-9 5.439180023737775e-9
          4.516279687760494e-9 4.660740857246035e-9 4.4140443159662285e-9 4.792266840342609e-9 4.900533005707753e-9 4.637643720103595e-9
          4.974781502405492e-9 5.010896313459337e-9 4.749667595198269e-9 5.006877002712947e-9 4.967227947093858e-9 4.7252597657257624e-9
          4.08590167337044e-9 4.08933624283977e-9 4.3509677283059584e-9 4.351590862772645e-9 4.122430034089174e-9 4.372472762912741e-9
          3.8149455817090214e-9 3.807318634151846e-9 4.0487912638323425e-9 3.7921883605454425e-9 4.620628716048017e-9 4.615338422199557e-9
          4.879227882805132e-9 4.866863639211256e-9 4.6167244599779935e-9 4.845801863701534e-9 4.284574469828087e-9 4.277887947366595e-9
          4.499265544211362e-9 4.259807095167355e-9 4.15350398794395e-9 4.380319220078561e-9 4.218747009975156e-9 4.418344070878735e-9
          3.7638142037695615e-9 3.991113515993842e-9 3.753780310852451e-9 4.598090975434293e-9 4.8044000639688146e-9 4.610562549175026e-9
          4.797701168114265e-9 4.211310010433397e-9 4.417772045012177e-9 4.168683429845472e-9 2.5368971280679597e-9 2.6433191147020374e-9
          2.690032255933474e-9 2.8039990952490976e-9 2.8903132858485556e-9 3.0658989461857805e-9 1.5954414215574783e-9 1.785784116846474e-9
          1.8718261354223613e-9 2.224817905303776e-9 2.8416007742304524e-9 2.962258523567694e-9 2.9925012914461226e-9 3.1179211965414374e-9
          3.2371724860881347e-9 3.402255863250929e-9 1.7393345403026925e-9 1.957963048971932e-9 2.0448863720760378e-9 2.4568555657738127e-9
          3.1494108849333978e-9 3.3359100597881745e-9 3.323214167517442e-9 3.511074778523984e-9 2.685589665635281e-9 2.831223332014425e-9
          3.0360277234206066e-9 3.5158024437437155e-9 3.6852109412055243e-9 3.6894340377529597e-9 3.85131633464974e-9 2.9707146137967996e-9
          3.1020821468183354e-9 3.3525860686751838e-9 5.111907025071656e-9 5.0933296143657546e-9 5.316758367718613e-9 5.294646501760593e-9
          5.05262346700294e-9 5.2410128796190865e-9 4.717845010413049e-9 4.7159486674186635e-9 4.916965247103122e-9 4.683959668948928e-9
          5.494646872100847e-9 5.472359557251743e-9 5.65033128160788e-9 5.6272254504376096e-9 5.415008050599882e-9 5.569473127794104e-9
          5.106565068543643e-9 5.086064452475972e-9 5.211787495533141e-9 5.016438885175225e-9 4.9979931738739386e-9 5.179915128356893e-9
          4.980476296703417e-9 5.148291576718378e-9 4.6048694632556565e-9 4.773951208142994e-9 4.544182336968295e-9 5.350111510360519e-9
          5.498101865145428e-9 5.290753971184657e-9 5.399620071310913e-9 4.927145441143175e-9 5.065580587462497e-9 4.880870424685676e-9
          3.132074141123164e-9 3.264553287863934e-9 3.2586237849448244e-9 3.399639215282832e-9 3.5589256722076406e-9 3.7037244865619516e-9
          1.8754324637659645e-9 2.123433104218984e-9 2.1954799164476075e-9 2.673745309026058e-9 3.3908938365552136e-9 3.531079721204146e-9
          3.5239626982199234e-9 3.656226300713048e-9 3.833322447405918e-9 3.9448144302875626e-9 2.013948851196366e-9 2.2843528327302795e-9
          2.3857543596783036e-9 2.8660630978377276e-9 3.841159847552979e-9 3.981239607889236e-9 3.994085066191789e-9 4.122202776621226e-9
          3.2243362507608772e-9 3.336179112541017e-9 3.6259976714587924e-9 4.101676347903413e-9 4.198943484924035e-9 4.233518578521037e-9
          4.32133509246563e-9 3.4350274072456984e-9 3.5177139633870855e-9 3.847624226302264e-9 4.322168699557343e-9 4.486057095817989e-9
          4.361762099183028e-9 4.503332961449481e-9 3.8584692290617306e-9 4.048886670167556e-9 3.988177554999357e-9 4.644374384473989e-9
          4.7966315203846054e-9 4.640404829861624e-9 4.769556500692623e-9 4.239186318045636e-9 4.430050863483303e-9 4.327679288415013e-9
          4.187307008090588e-9 4.317008882433995e-9 4.314723770106041e-9 4.439872095802936e-9 4.5535571009114695e-9 4.527132390035865e-9
          3.3979442251836234e-9 3.5786752653719324e-9 3.6334485568426614e-9 3.794089006637456e-9 3.2070077035979786e-9 3.3709505247986965e-9
          3.4393707223862024e-9 3.753068250354109e-9 3.9145052042831454e-9 3.955395621797861e-9 4.116639725848012e-9 3.5242457932223182e-9
          3.66163871666114e-9 3.740855280783028e-9 4.082260107814352e-9 4.213131116575756e-9 4.315019516781546e-9 4.431273355342006e-9
          3.977213207538117e-9 4.109253350717517e-9 4.315315263457052e-9 4.337078176886003e-9 4.452525190801191e-9 4.53080972359468e-9
          4.607399926719115e-9 4.23428425796907e-9 4.3514932806909125e-9 4.534487057153496e-9 4.938457607078518e-9 5.054749674618116e-9
          4.881454238152049e-9 4.963255329077664e-9 4.619771847291099e-9 4.795884704881332e-9 4.6940835540958426e-9 5.1353068494140025e-9
          5.17776654288027e-9 5.0093849183826e-9 5.017670037108702e-9 4.949890730076079e-9 5.0740560590154755e-9 4.993870089029049e-9
          4.651062431246837e-9 4.7275008024062294e-9 4.6339760675728286e-9 4.776325427055418e-9 4.7771807188777605e-9 4.621075705273703e-9
          4.0594806704018675e-9 4.189452994753739e-9 4.273094126354672e-9 4.415966291961193e-9 3.781551357973081e-9 3.8857396155217106e-9