<?xml version="1.0"?>
<VTKFile type="UnstructuredGrid" version="0.1" byte_order="LittleEndian" header_type="UInt32" compressor="vtkZLibDataCompressor">
  <UnstructuredGrid>
    <Piece NumberOfPoints="1197" NumberOfCells="785">
      <PointData>
        <DataArray type="Int32" Name="libmesh_node_id" format="ascii" RangeMin="1413" RangeMax="11678">
          1413 1511 1514 1517 1695 1698
          1700 1701 1703 1706 1718 1719
          1720 1721 1722 1723 1724 1726
          1727 1735 1741 1756 1757 1760
          1761 1763 1765 1887 1890 1892
          1893 1902 2344 2345 2346 2357
          2361 2362 2363 2364 2365 2366
          2367 2368 2369 2370 2386 2398
          2399 2401 2402 2403 2427 2431
          2435 2436 2437 2438 2439 2440
          2441 2443 2444 2452 2453 2459
          2460 2463 2464 2466 2468 2473
          2478 2493 2495 2497 2499 2534
          2535 2538 2539 2540 2541 2542
          2543 2572 2574 2682 2683 2686
          2687 2688 2689 2690 2691 2692
          2693 3484 3492 3493 3494 3497
          3530 3531 3534 3536 3538 3539
          3540 3541 3542 3543 3544 3545
          3546 3547 3645 3646 3649 3679
          3680 3683 3744 3746 3748 3750
          3751 3752 3753 3754 3755 3756
          3759 3760 3765 3767 3768 3769
          3770 3771 3772 3773 3774 3775
          3776 3778 3780 3782 3784 3785
          3786 3787 3788 3789 3790 3798
          3799 3800 3801 3802 3803 3804
          3882 3883 3886 3890 3891 3892
          3893 3894 3895 3896 3897 3898
          3899 3907 3908 3909 3910 3911
          3912 3913 3946 3947 3951 3956
          3962 3963 3964 3966 3967 3968
          3969 3971 3994 3995 3998 4028
          4029 4032 4122 4123 4124 4125
          4126 4127 4128 4139 4140 4141
          4142 4143 4144 4145 4146 4147
          4148 4153 4154 4158 4159 4160
          4161 4162 4163 4164 4165 4173
          4174 4175 4176 4177 4178 4179
          4182 4183 4186 4323 4324 4325
          4326 4327 4328 4329 4330 4331
          4332 4341 4372 4374 4378 4379
          4397 4398 4401 4403 4405 4406
          4407 4408 4409 4410 4411 4412
          4413 4414 4432 4433 4434 4435
          4436 4437 4438 4533 4534 4537
          4538 4539 4540 4541 4542 4543
          4544 4589 4593 4596 4597 4598
          4599 4600 4601 4602 4644 4645
          4646 4647 4648 4649 4650 4651
          4652 4653 4654 4655 4656 4657
          4658 4659 4660 7014 7015 7016
          7019 7024 7025 7026 7029 7132
          7133 7136 7138 7158 7160 7161
          7162 7163 7164 7165 7166 7167
          7168 7169 7170 7171 7172 7173
          7174 7175 7176 7177 7178 7179
          7884 7885 7888 7891 7892 7895
          7912 7913 7915 7916 7919 7920
          7921 7922 7923 8131 8132 8133
          8135 8136 8137 8138 8139 8140
          8141 8142 8143 8159 8160 8161
          8163 8164 8165 8166 8167 8168
          8169 8170 8171 8649 8651 8653
          8663 8665 8667 8677 8679 8681
          8691 8693 8695 8697 8698 8699
          8700 8701 8702 8703 8704 8705
          8706 8707 8708 8709 8710 8711
          8712 8713 8714 8715 8716 8717
          8718 8719 8720 8721 8722 8723
          8724 8725 8726 8727 8728 8729
          8730 8731 8732 8733 8734 8735
          8736 8737 8738 8739 8740 8741
          8742 8743 8744 8745 8746 8747
          8748 8749 8750 8751 8752 8753
          8754 8755 8756 8757 8758 8771
          8772 8775 8777 8807 8809 8811
          8827 8828 8829 8830 8831 8832
          8833 8834 8835 8836 8837 8838
          8839 8840 8841 8842 8843 8844
          8845 8846 8847 8848 8849 8850
          8851 8852 8853 8854 8855 8856
          8857 8858 8859 8860 8863 8864
          8867 8868 8869 8871 8872 8873
          8874 8875 8876 8877 8878 8879
          8880 8889 8891 8893 8903 8905
          8907 8917 8919 8921 8931 8933
          8935 8937 8938 8939 8940 8941
          8942 8943 8944 8945 8946 8947
          8948 8949 8950 8951 8952 8953
          8954 8955 8956 8957 8958 8959
          8960 8961 8962 8963 8964 8965
          8966 8967 8968 8969 8970 8971
          8972 8973 8974 8975 8976 8977
          8978 8979 8980 8981 8982 8983
          8984 8985 8986 8987 8988 8989
          8990 8991 8992 9001 9003 9005
          9029 9033 9049 9050 9051 9052
          9053 9054 9055 9056 9057 9058
          9059 9060 9061 9062 9063 9064
          9066 9067 9068 9070 9071 9072
          9073 9074 9075 9076 9077 9078
          9079 9080 9081 9082 9083 9084
          9085 9086 9087 9088 9089 9090
          9091 9092 9094 9095 9096 9098
          9099 9100 9101 9102 9103 9104
          9396 9447 9449 9451 9453 9454
          9455 9456 9457 9458 9459 9460
          9461 9462 9464 9466 9468 9470
          9471 9472 9473 9474 9475 9476
          9597 9598 9599 9602 9612 9623
          9624 9625 9626 9627 9628 9629
          9630 9631 9632 9785 9786 9789
          9792 9796 9813 9814 9815 9816
          9817 9820 9821 9822 9823 9824
          9851 9878 9880 9882 10040 10041
          10042 10043 10044 10045 10046 10047
          10048 10049 10050 10051 10052 10053
          10068 10069 10070 10071 10072 10073
          10074 10075 10076 10077 10078 10079
          10080 10081 10096 10098 10100 10102
          10124 10126 10128 10130 10665 10666
          10667 10668 10669 10670 10671 10672
          10673 10676 10677 10679 10680 10681
          10682 10683 10684 10685 10686 10687
          10688 10689 10690 10691 10692 10693
          10694 10695 10696 10697 10698 10699
          10700 10701 10702 10703 10704 10705
          10706 10707 10708 10709 10710 10711
          10712 10713 10714 10715 10716 10717
          10718 10719 10720 10721 10722 10723
          10724 10725 10726 10727 10728 10729
          10737 10739 10750 10751 10754 10755
          10757 10759 10770 10772 10774 10776
          10784 10786 10788 10790 10798 10799
          10800 10801 10802 10803 10804 10805
          10806 10807 10808 10809 10810 10811
          10812 10813 10814 10815 10816 10817
          10818 10819 10820 10821 10822 10823
          10824 10825 10826 10827 10828 10829
          10830 10831 10832 10833 10834 10835
          10836 10837 10838 10839 10840 10841
          10842 10843 10844 10845 10846 10847
          10848 10849 10850 10851 10852 10853
          10856 10857 10859 10861 10872 10873
          10874 10875 10876 10877 10878 10879
          10880 10881 10882 10883 10884 10885
          10886 10887 10888 10889 10890 10891
          10892 10893 10894 10895 10896 10897
          10898 10899 10900 10901 10902 10903
          10904 10905 10906 10907 10908 10909
          10910 10911 10912 10913 10914 10915
          10916 10917 10918 10919 10920 10921
          10922 10923 10924 10925 10926 10927
          10928 10930 10932 10934 10942 10944
          10946 10948 10956 10958 10960 10962
          10970 10972 10974 10976 10984 10985
          10986 10987 10988 10989 10990 10991
          10992 10993 10994 10995 10996 10997
          10998 10999 11000 11001 11002 11003
          11004 11005 11006 11007 11008 11009
          11010 11011 11012 11013 11014 11015
          11016 11017 11018 11019 11020 11021
          11022 11023 11024 11025 11026 11027
          11028 11029 11030 11031 11032 11033
          11034 11035 11036 11037 11038 11039
          11040 11042 11044 11046 11054 11055
          11056 11057 11058 11059 11060 11061
          11062 11063 11064 11065 11066 11067
          11068 11069 11070 11071 11072 11073
          11074 11076 11078 11080 11088 11089
          11090 11091 11092 11093 11094 11095
          11096 11097 11098 11099 11100 11101
          11335 11336 11337 11338 11339 11340
          11341 11342 11343 11344 11652 11653
          11654 11655 11656 11657 11658 11659
          11660 11661 11662 11663 11664 11665
          11666 11667 11668 11669 11670 11671
          11672 11673 11674 11675 11676 11677
          11678 1897 1729 2461 2454 2462
          2465 2467 1736 2536 2496 2537
          3948 3965 2458 3970 4133 4149
          4134 4150 4151 4152 4155 4156
          4157 4214 4216 4181 4231 4233
          3957 4590 4591 3958 4592 4594
          4595 4129 4716 4717 4720 4721
          4237 4723 4725 9881 4005 10097
          10099 10101 4035 10125 10127 10129
          4039 10674 9793 10675 10678 9847
          10731 9848 10733 4001 10738 10735
          10736 4130 10734 10752 10753 10756
          10758 9879 10771 10773 10775 4136
          10785 10787 10789 4138 10854 10855
          10858 10860 10929 10931 10933 4166
          10943 10945 10947 4168 10957 10959
          10961 4170 10971 10973 10975 4172
          11041 11043 11045 4180 10871 11049
          11050 11053 11075 11077 11079 4184
          11083 11084 11087 4185 11310 11323
          11324 11327 4235
        </DataArray>
        <DataArray type="Float64" Name="bounds" format="ascii" RangeMin="0" RangeMax="0">
          0 0 0 0 0 0
          0 0 0 0 0 0
          0 0 0 0 0 0
          0 0 0 0 0 0
          0 0 0 0 0 0
          0 0 0 0 0 0
          0 0 0 0 0 0
          0 0 0 0 0 0
          0 0 0 0 0 0
          0 0 0 0 0 0
          0 0 0 0 0 0
          0 0 0 0 0 0
          0 0 0 0 0 0
          0 0 0 0 0 0
          0 0 0 0 0 0
          0 0 0 0 0 0
          0 0 0 0 0 0
          0 0 0 0 0 0
          0 0 0 0 0 0
          0 0 0 0 0 0
          0 0 0 0 0 0
          0 0 0 0 0 0
          0 0 0 0 0 0
          0 0 0 0 0 0
          0 0 0 0 0 0
          0 0 0 0 0 0
          0 0 0 0 0 0
          0 0 0 0 0 0
          0 0 0 0 0 0
          0 0 0 0 0 0
          0 0 0 0 0 0
          0 0 0 0 0 0
          0 0 0 0 0 0
          0 0 0 0 0 0
          0 0 0 0 0 0
          0 0 0 0 0 0
          0 0 0 0 0 0
          0 0 0 0 0 0
          0 0 0 0 0 0
          0 0 0 0 0 0
          0 0 0 0 0 0
          0 0 0 0 0 0
          0 0 0 0 0 0
          0 0 0 0 0 0
          0 0 0 0 0 0
          0 0 0 0 0 0
          0 0 0 0 0 0
          0 0 0 0 0 0
          0 0 0 0 0 0
          0 0 0 0 0 0
          0 0 0 0 0 0
          0 0 0 0 0 0
          0 0 0 0 0 0
          0 0 0 0 0 0
          0 0 0 0 0 0
          0 0 0 0 0 0
          0 0 0 0 0 0
          0 0 0 0 0 0
          0 0 0 0 0 0
          0 0 0 0 0 0
          0 0 0 0 0 0
          0 0 0 0 0 0
          0 0 0 0 0 0
          0 0 0 0 0 0
          0 0 0 0 0 0
          0 0 0 0 0 0
          0 0 0 0 0 0
          0 0 0 0 0 0
          0 0 0 0 0 0
          0 0 0 0 0 0
          0 0 0 0 0 0
          0 0 0 0 0 0
          0 0 0 0 0 0
          0 0 0 0 0 0
          0 0 0 0 0 0
          0 0 0 0 0 0
          0 0 0 0 0 0
          0 0 0 0 0 0
          0 0 0 0 0 0
          0 0 0 0 0 0
          0 0 0 0 0 0
          0 0 0 0 0 0
          0 0 0 0 0 0
          0 0 0 0 0 0
          0 0 0 0 0 0
          0 0 0 0 0 0
          0 0 0 0 0 0
          0 0 0 0 0 0
          0 0 0 0 0 0
          0 0 0 0 0 0
          0 0 0 0 0 0
          0 0 0 0 0 0
          0 0 0 0 0 0
          0 0 0 0 0 0
          0 0 0 0 0 0
          0 0 0 0 0 0
          0 0 0 0 0 0
          0 0 0 0 0 0
          0 0 0 0 0 0
          0 0 0 0 0 0
          0 0 0 0 0 0
          0 0 0 0 0 0
          0 0 0 0 0 0
          0 0 0 0 0 0
          0 0 0 0 0 0
          0 0 0 0 0 0
          0 0 0 0 0 0
          0 0 0 0 0 0
          0 0 0 0 0 0
          0 0 0 0 0 0
          0 0 0 0 0 0
          0 0 0 0 0 0
          0 0 0 0 0 0
          0 0 0 0 0 0
          0 0 0 0 0 0
          0 0 0 0 0 0
          0 0 0 0 0 0
          0 0 0 0 0 0
          0 0 0 0 0 0
          0 0 0 0 0 0
          0 0 0 0 0 0
          0 0 0 0 0 0
          0 0 0 0 0 0
          0 0 0 0 0 0
          0 0 0 0 0 0
          0 0 0 0 0 0
          0 0 0 0 0 0
          0 0 0 0 0 0
          0 0 0 0 0 0
          0 0 0 0 0 0
          0 0 0 0 0 0
          0 0 0 0 0 0
          0 0 0 0 0 0
          0 0 0 0 0 0
          0 0 0 0 0 0
          0 0 0 0 0 0
          0 0 0 0 0 0
          0 0 0 0 0 0
          0 0 0 0 0 0
          0 0 0 0 0 0
          0 0 0 0 0 0
          0 0 0 0 0 0
          0 0 0 0 0 0
          0 0 0 0 0 0
          0 0 0 0 0 0
          0 0 0 0 0 0
          0 0 0 0 0 0
          0 0 0 0 0 0
          0 0 0 0 0 0
          0 0 0 0 0 0
          0 0 0 0 0 0
          0 0 0 0 0 0
          0 0 0 0 0 0
          0 0 0 0 0 0
          0 0 0 0 0 0
          0 0 0 0 0 0
          0 0 0 0 0 0
          0 0 0 0 0 0
          0 0 0 0 0 0
          0 0 0 0 0 0
          0 0 0 0 0 0
          0 0 0 0 0 0
          0 0 0 0 0 0
          0 0 0 0 0 0
          0 0 0 0 0 0
          0 0 0 0 0 0
          0 0 0 0 0 0
          0 0 0 0 0 0
          0 0 0 0 0 0
          0 0 0 0 0 0
          0 0 0 0 0 0
          0 0 0 0 0 0
          0 0 0 0 0 0
          0 0 0 0 0 0
          0 0 0 0 0 0
          0 0 0 0 0 0
          0 0 0 0 0 0
          0 0 0 0 0 0
          0 0 0 0 0 0
          0 0 0 0 0 0
          0 0 0 0 0 0
          0 0 0 0 0 0
          0 0 0 0 0 0
          0 0 0 0 0 0
          0 0 0 0 0 0
          0 0 0 0 0 0
          0 0 0 0 0 0
          0 0 0 0 0 0
          0 0 0 0 0 0
          0 0 0 0 0 0
          0 0 0 0 0 0
          0 0 0 0 0 0
          0 0 0 0 0 0
          0 0 0 0 0 0
          0 0 0 0 0 0
          0 0 0 0 0 0
          0 0 0 0 0 0
          0 0 0 0 0 0
          0 0 0 0 0 0
          0 0 0
        </DataArray>
        <DataArray type="Float64" Name="gradient_error" format="ascii" RangeMin="2.73301971572317e-13" RangeMax="5.340247773175363e-10">
          7.147225825217294e-12 1.9728257580697758e-11 1.6680615567728166e-11 5.895203591449998e-12 1.6002266864558618e-10 3.461890805745265e-11
          7.503719163270287e-12 1.0825259031811011e-10 8.710605220317222e-12 2.461033786071213e-10 7.678513746849463e-11 6.76625878275677e-11
          1.4000382858245457e-11 1.0308823944472833e-11 5.847641686770093e-11 4.538918919403225e-11 1.128495113334765e-11 1.217539564837428e-11
          1.833077396222125e-11 3.963911273161134e-12 1.1158285775659214e-12 2.8680668304429196e-12 2.70003676935277e-12 2.7423231173933995e-12
          3.994583100719164e-12 3.2635483397644316e-12 4.73530643850309e-12 7.38035205543016e-11 2.4832855971305887e-11 9.123201356643939e-11
          2.0416642110801434e-11 4.677339016769029e-12 7.814326734780718e-11 5.529239926534382e-11 1.8353719336264824e-11 6.013910519300192e-11
          4.369952841314833e-11 2.8365027965010173e-11 1.4731894526970106e-11 9.451662086775877e-12 1.9532898040111108e-11 2.210971132717616e-11
          7.710003831300047e-12 1.7376894589749035e-11 7.712999000216347e-12 2.151664314891186e-11 8.398072225709292e-11 5.626694385497407e-11
          1.865364847976859e-11 4.8638049845599355e-12 1.4194474631110065e-10 4.9728358196616994e-11 6.468135104569863e-11 3.568464316324136e-11
          2.402805099188939e-11 2.0605687574548308e-11 8.249105227195528e-12 9.962833778869718e-12 1.795542214452053e-11 1.610827983911987e-11
          1.1343157970002252e-11 1.3480870321584464e-11 1.2566452724127924e-11 8.314395622080654e-12 5.377452872015147e-12 4.728944720238903e-12
          3.6058345963619284e-12 2.406824057798755e-12 3.0835420108175643e-12 2.998767658641425e-12 3.801539794377492e-12 2.407982404326329e-11
          7.529639093791056e-11 5.200757713871731e-12 3.4869091620867228e-12 1.4429182463816645e-11 2.5802698010033198e-12 3.3915973156450835e-12
          4.030873143702276e-12 2.6719019584721033e-12 5.0686040553275144e-12 1.4365497212918507e-12 4.3383508872840135e-12 1.2053574689756923e-12
          6.5054177469382005e-12 4.6787917100806233e-11 1.1595801814722019e-11 2.517901042529163e-11 5.152702648351251e-11 2.8771828258594596e-11
          9.796788200017437e-12 1.926849578272793e-11 3.9513617512013805e-12 6.821472181501376e-12 7.40437828722067e-12 1.102636046333256e-11
          4.075046494308368e-12 2.068538253730623e-11 1.811647369111161e-11 1.1570746103694891e-11 6.230596243662277e-12 1.3729904095822042e-11
          2.1396280427848848e-11 1.7716037356418042e-11 1.866697995689913e-11 1.795658942721348e-11 1.1794157432223371e-11 1.406395701349492e-11
          6.481621440919539e-12 7.743417789397092e-12 7.258558856967264e-12 1.4785430841468923e-11 8.3043045274397e-12 1.3969416212858155e-11
          7.675125501908083e-12 1.3906140946948011e-11 4.6772604306696135e-11 2.6158142205697252e-11 1.460564887060923e-10 3.3194003253430244e-10
          1.9656873994026872e-10 4.096791373657978e-10 4.4564852970274065e-11 2.2275146552740512e-11 1.2383125138687155e-10 2.580491923098073e-11
          1.434367881007906e-11 1.2772375745684749e-11 7.048351934107657e-12 7.378886276178375e-11 4.200707905641732e-11 3.309739554172858e-11
          1.5669044429678914e-11 1.2683291323838769e-11 2.3250774615489123e-11 1.1834003523678255e-11 9.926705889211306e-12 6.6263981769356526e-12
          5.484527291381024e-12 1.215168387128176e-11 1.0067717740643194e-11 7.089350479235586e-12 1.3496960378728152e-11 7.51892584685916e-12
          6.364122651664349e-12 2.626087427653356e-10 1.1168653311356599e-10 3.32225739623791e-10 1.6080555444046496e-10 9.364480683616341e-11
          6.713154227752206e-11 3.8535151585513123e-11 2.056885991176119e-10 1.2090939443300777e-10 8.60215581169798e-11 2.5049198891901e-11
          1.4188231612942971e-11 8.661688428874972e-12 4.823604021847868e-12 3.1422494401386147e-11 1.7898904911042508e-11 1.0532846485264643e-11
          1.0928437422857567e-11 9.235272037827358e-12 9.83914775724962e-12 6.1111277392303414e-12 6.639864678562834e-12 3.53079432251182e-12
          5.239302615162098e-12 3.9931027486098955e-12 5.427833465248085e-12 3.0018144785371744e-12 7.280901332166307e-12 5.449664554132086e-12
          9.315846830522089e-12 8.596570617435923e-12 4.7023840039157424e-12 1.3591157137197337e-11 7.43624006486339e-12 9.84670363294928e-12
          5.4117534413180405e-12 1.541318479523677e-11 4.999335856657263e-12 4.2722370441128335e-12 4.820941390953154e-12 1.2288810177545391e-12
          3.355454744828062e-12 5.06860346623344e-12 1.7504400224324962e-12 2.285673641325185e-12 4.367755745658056e-12 2.625418785152866e-12
          4.978056174444563e-12 4.01218311437742e-12 1.401829152886552e-11 7.1941460077849995e-12 4.603876278515276e-11 1.1033744849624346e-10
          5.87964374859617e-11 1.3982930211091623e-10 7.651410141841508e-12 3.908496264328476e-12 3.742788733871794e-12 2.3063864415106755e-12
          2.285807946548169e-11 1.1887843391532043e-11 1.0072465379052676e-11 3.474703179089572e-12 2.8870223252505264e-12 2.5775604448182846e-12
          2.411756829447107e-12 3.650878001732251e-12 3.7419976184765704e-12 2.754360635832369e-12 4.024088533510035e-12 2.498725351576214e-12
          3.2505670451890718e-12 1.5037894590958603e-12 2.494698609053122e-12 2.1507747068632848e-12 5.191176265511164e-11 2.7406865496358504e-11
          2.1124914466978314e-11 1.1055695723553122e-11 6.756622813342714e-11 3.591730933886636e-11 2.7426821199802966e-11 7.69406781345136e-12
          3.981684092384804e-12 3.1993225307627226e-12 2.7960898989477128e-12 9.757967526586585e-12 5.07940723255295e-12 3.1655681028086525e-12
          1.9092376767915318e-12 1.1659740790049483e-12 2.306541064043149e-12 3.63809758495362e-12 3.201327536945071e-12 3.0520860979244257e-12
          2.910769742005506e-12 2.7390184094269167e-12 3.8527329569593645e-12 1.9880923641521935e-12 2.8066130554497014e-12 2.483275768522985e-12
          4.36457581492277e-12 2.6221043878354993e-12 1.3507432956748665e-11 6.558608779885592e-12 1.6199468507657253e-11 6.0566361909238025e-12
          1.708096263209331e-11 1.7204735454345407e-11 9.465506871583e-12 1.7328508276597495e-11 5.815810652915685e-12 6.087194511741355e-12
          3.668928425223345e-12 3.3400152338161974e-12 3.943895068944698e-12 3.686751203006259e-12 2.42566773613866e-12 6.3585783705670264e-12
          3.0111020424090495e-12 3.4296073370678196e-12 1.3957755782865075e-12 2.2002456899911756e-12 9.224535834997526e-13 1.0978884434222038e-12
          1.1448951584070321e-12 1.4284543558172047e-12 8.799322171319191e-13 8.126870913758678e-12 1.4450632637207268e-11 1.0128832659171584e-11
          4.661777170511133e-12 8.206040711666701e-12 2.6806290758712113e-12 4.6596867103592594e-12 3.694273899222351e-12 5.678929668912768e-12
          3.1955928291918926e-12 9.64922794978133e-13 8.437913205252226e-13 1.5029463250335732e-12 2.4887385641931044e-12 1.1198130351052364e-12
          1.7218627100231874e-12 1.1580810364148922e-12 1.738441694976874e-12 1.2597584187241595e-12 1.996244073703788e-12 2.8595455733790125e-12
          1.4573491868782726e-12 1.9679663357095393e-12 1.372990539219717e-12 1.7550686295387959e-12 1.3167274473505598e-12 1.741390240007955e-12
          2.04844668496551e-12 8.732845929952126e-13 1.0302991725078445e-12 1.0632415401746508e-12 1.085652144781361e-12 5.985152393786432e-13
          2.355503129923065e-12 1.1873137520204766e-12 1.1080627493880713e-12 6.7212921349732584e-12 9.747173790858643e-12 7.281746360263067e-12
          1.8308987638275185e-11 3.686188986878322e-12 5.373731222156291e-12 3.9307165594453295e-12 1.0201334340957096e-11 7.363830915950812e-12
          1.022736994064636e-11 8.50290883025975e-12 1.8879692998570804e-11 1.1944809176333738e-11 5.606476523005693e-12 7.673897461496253e-12
          4.1988374264752314e-12 5.728698477734054e-12 5.162635589687031e-12 6.663279150142563e-12 4.97876799283558e-12 1.4199638948680524e-11
          1.0604684949477166e-11 1.2153486125326347e-11 3.0837120725416087e-12 4.2274931198072654e-12 2.2562489553031296e-12 3.0917854731862885e-12
          2.855458882101047e-12 3.677256004968953e-12 2.69243915301176e-12 7.866232667408498e-12 5.7842895426758516e-12 6.689049198570887e-12
          3.3848289467960325e-11 2.5545014116138458e-11 6.155866214256725e-11 1.9088510125774494e-11 1.4129107672857363e-11 3.5162329859926746e-11
          1.0975937608867235e-10 8.403592909458288e-11 1.9525843217678316e-10 1.8912281783402732e-10 6.361016392522593e-11 4.760863293149008e-11
          1.4935944983272003e-10 1.1283336407913119e-10 1.1142150389846205e-10 3.1891936537180407e-10 3.026038934628005e-10 2.358240097325018e-10
          4.4737030109188846e-10 4.224784650567963e-10 2.4621950717848816e-10 1.8754485367720014e-10 1.8137382776279691e-10 1.3770743739144086e-10
          3.483956429950935e-10 2.6745104620242737e-10 2.5718811695198577e-10 5.195445952062622e-10 4.974989446543639e-10 3.9316440828046466e-10
          5.340247773175363e-10 5.172561974510059e-10 4.07304791488694e-10 3.146053064844068e-10 3.062668813799659e-10 2.3523652219494993e-10
          4.197995346747761e-10 3.2509263324017016e-10 3.197934697422974e-10 3.4296065221897045e-11 2.5784372626311e-11 6.061290900619635e-11
          1.8808221166835542e-11 1.3366192023341956e-11 3.190395057892712e-11 1.0506874488504637e-10 7.559797380179006e-11 1.75905692832137e-10
          5.2896578455312936e-11 3.608609825063117e-11 8.459989951255395e-11 2.6085592062901223e-11 1.9630137310970547e-11 1.9534101322445254e-11
          1.4645565598388066e-11 4.646165484163482e-11 3.5239566113532414e-11 3.40884073990729e-11 1.464282925145412e-11 1.082765803306358e-11
          1.0903261418784391e-11 8.05394293086957e-12 2.6451400153077246e-11 1.965164026574748e-11 1.9336402598908453e-11 1.0353184520523564e-11
          1.419815492260784e-11 7.669299017510635e-12 1.062044645144752e-11 7.424807264198975e-12 1.007610355490426e-11 7.524566301562104e-12
          2.4347152331740765e-11 1.8391229314146287e-11 1.6951739998178044e-11 5.675659346325191e-12 7.894162540532214e-12 4.18111927389259e-12
          5.8231423401489586e-12 4.066535298460816e-12 5.584296385746015e-12 4.111847688392683e-12 1.3755552670061356e-11 1.0187612026123004e-11
          9.533045097093066e-12 8.11664104707695e-11 6.200126046160472e-11 5.824249877566159e-11 4.438619427951992e-11 1.3705729782677475e-10
          1.0551531692538243e-10 9.614180839941255e-11 4.683879171511285e-11 3.499686995727928e-11 3.346355614212469e-11 2.495925974758269e-11
          8.02781188506178e-11 6.0367833590578e-11 5.599064205336104e-11 4.064153934991726e-11 3.0898115011934305e-11 2.76453510675974e-11
          2.0961529695682255e-11 6.545644192077577e-11 5.0085810635289545e-11 4.338663029699643e-11 2.3245297461679436e-11 1.7305864211951803e-11
          1.573296427519435e-11 1.1689730552157004e-11 3.790434051166454e-11 2.8371972486702622e-11 2.498020434617808e-11 6.982205505836688e-12
          9.261743254593244e-12 6.879020749581784e-12 1.524028388320086e-11 2.41239483217245e-11 1.5737909256271e-11 3.653962012093246e-11
          5.234932640382206e-12 6.9440402455831715e-12 3.89755699842974e-12 5.1776524866066386e-12 4.36941347874116e-12 5.61368960503233e-12
          4.182345387317286e-12 1.1519262603781455e-11 8.628430930097911e-12 8.564101526445717e-12 2.882585211079899e-12 3.838059470781257e-12
          2.115124850260357e-12 2.8233641123840915e-12 2.4221456055027217e-12 3.0987061404370466e-12 2.2796547250829036e-12 6.4224093077539615e-12
          4.7437328472156e-12 4.737635142310951e-12 1.8412611247032368e-11 1.3902682814264047e-11 1.19418145085946e-11 8.97641190079238e-12
          2.8078807009901253e-11 2.1353366475608974e-11 1.7808622062899082e-11 1.0404421427975011e-11 7.715146294745264e-12 6.694305274947375e-12
          4.949548346949834e-12 1.6070567614317117e-11 1.1970010334594816e-11 1.0124870499688982e-11 4.533155043034414e-12 5.7184793033822536e-12
          3.971563240284783e-12 1.1118309313569994e-11 8.4134756551993e-12 3.3422870845658553e-12 4.227794226498467e-12 2.444877214972293e-12
          3.10048172977974e-12 2.6883265851699237e-12 3.2879400712843155e-12 2.391182004120182e-12 6.267378295020471e-12 4.623142172832746e-12
          4.2069956565464036e-12 2.750778054641461e-10 1.904185983507328e-10 3.8102830795242347e-10 1.274933489587538e-10 8.288225360097072e-11
          1.7417215709029225e-10 4.5276895298239634e-10 3.147411268291616e-10 4.746608404936582e-10 2.092691455833115e-10 1.3383470933764726e-10
          2.2170929225287178e-10 2.1621382655477995e-10 1.6778472448097334e-10 1.4898241815773466e-10 1.1515310970660833e-10 3.017847530194591e-10
          2.3582011397212253e-10 2.068087713062036e-10 1.2857762736108855e-10 9.731999916008627e-11 8.794134279596816e-11 6.636403983885658e-11
          1.8185472267874008e-10 1.384308541549055e-10 1.2347708375355024e-10 9.932146173690115e-11 7.647938704498368e-11 6.430370274414582e-11
          4.93355346839133e-11 1.364592694713439e-10 1.0562882222722232e-10 8.709050200328727e-11 5.821375045363932e-11 4.3803692110118023e-11
          3.7432340102737616e-11 2.8086591588074166e-11 8.078953810706498e-11 6.105890625615347e-11 5.115476825460846e-11 3.6045510499310796e-10
          2.830065204930111e-10 2.489231461626526e-10 1.943118856288927e-10 3.7857649729000574e-10 2.977444811010833e-10 2.631380867949197e-10
          2.191946464544858e-10 1.6752006883692174e-10 1.4974362759290605e-10 1.1394321242008401e-10 2.3097811503166834e-10 1.7678727885795758e-10
          1.5871127185398923e-10 1.64550449840346e-10 1.278002706153147e-10 1.0469406770515663e-10 8.094045147623034e-11 1.7454429973130007e-10
          1.3571541487653346e-10 1.111558982824858e-10 9.805105444079782e-11 7.431732295361235e-11 6.184663667320895e-11 4.6707570565141484e-11
          1.042340078693906e-10 7.908194241981145e-11 6.578990417955386e-11 5.253370482954423e-11 3.2601344289347936e-11 6.960276797316814e-11
          8.284726099766206e-11 8.778576534660844e-11 4.059687066893498e-11 3.103630850856586e-11 2.5097023095569346e-11 1.9117938193991418e-11
          5.4031707871691863e-11 4.1482569905531895e-11 3.275611368651778e-11 2.3473135781526813e-11 1.7562363471806928e-11 1.4411188909548233e-11
          1.075171846963244e-11 3.1497521911932166e-11 2.3651674318754263e-11 1.895220349968732e-11 1.5258839793802155e-11 1.1591068085533923e-11
          6.866091735854147e-12 1.9493539570400728e-11 1.484175445454424e-11 8.698456531485676e-12 6.4619230977783736e-12 5.109807708741303e-12
          3.772625280937827e-12 1.1185604376317274e-11 8.34729400274793e-12 6.497544922165115e-12 6.449741455568058e-11 4.9649770599700685e-11
          3.8713269723267465e-11 2.967628424666256e-11 6.840738582333085e-11 5.270653719736717e-11 4.095757373202227e-11 3.779239340283107e-11
          2.84439794396587e-11 2.2503887835984433e-11 1.6880922614994248e-11 4.0152437287141917e-11 3.024374678580025e-11 2.384579666642673e-11
          2.2775629374178703e-11 1.7382326264662936e-11 1.002164826845878e-11 2.4013228044359013e-11 1.834013204463673e-11 1.3128187691925064e-11
          9.81296599023185e-12 7.530565672935473e-12 5.6027308963416144e-12 1.3860624472577069e-11 1.0364992069446278e-11 7.91894021290307e-12
          3.294638050391279e-12 4.015018022299311e-12 3.009391638964916e-12 4.978450623057391e-12 2.578817978419293e-12 2.97644024799789e-12
          1.895316289126831e-12 2.1904588390476364e-12 2.059159424589188e-12 2.245985380687541e-12 1.6532426213967433e-12 3.7078252765570755e-12
          2.7394113259932483e-12 2.6642015585590676e-12 5.691536852600187e-12 4.094454692209125e-12 5.961412644094624e-12 4.243273776767972e-12
          3.142885535113508e-12 3.0316299093325946e-12 2.2423168984777973e-12 4.4449595179982794e-12 3.29254980720896e-12 3.1676680383329487e-12
          2.0166764170577218e-12 2.8391717702693962e-12 2.1958223783535194e-12 5.456934158739489e-12 3.139250959674791e-12 1.6863974931682938e-12
          2.22717988413489e-12 1.4815273057943232e-12 1.8673957908023937e-12 1.5452388145047204e-12 1.9439730961503253e-12 1.6534386500727746e-12
          4.192905793715167e-12 3.4609516947178547e-12 3.5766507055882994e-12 1.0379804644419152e-11 7.540446005901733e-12 1.925227508734445e-11
          5.396470938821774e-12 1.0098000176027073e-11 3.523623644673831e-11 2.5790033238095666e-11 8.420192472548587e-11 6.208003716342407e-11