<?xml version="1.0"?>
<VTKFile type="UnstructuredGrid" version="0.1" byte_order="LittleEndian" header_type="UInt32" compressor="vtkZLibDataCompressor">
  <UnstructuredGrid>
    <Piece NumberOfPoints="838" NumberOfCells="543">
      <PointData>
        <DataArray type="Int32" Name="libmesh_node_id" format="ascii" RangeMin="1012" RangeMax="7517">
          1672 1673 1674 1675 1682 1683
          1686 1687 1692 1693 2690 2691
          2692 2693 2694 2695 2696 2697
          2698 2699 2700 2701 2702 2703
          2704 2705 2706 2707 2711 2714
          2715 2718 2719 2720 2722 2723
          2725 2727 2728 2729 2730 2731
          2732 2733 2734 2735 2736 2737
          2748 2750 2752 2754 2765 2766
          2767 2768 2769 2770 2771 2772
          2773 2774 2785 2787 2789 2791
          2881 2882 2888 2921 2925 3188
          3263 3264 3267 3268 6174 6175
          6176 6179 6182 6184 6185 6186
          6187 6188 6189 6190 6191 6192
          6193 6194 6195 6196 6197 6200
          6201 6204 6206 6208 6209 6210
          6211 6212 6213 6214 6215 6216
          6217 6218 6219 6220 6221 6222
          6223 6224 6225 6226 6227 6228
          6229 6230 6231 6232 6233 6234
          6235 6236 6237 6238 6239 6240
          6241 6244 6245 6246 6247 6248
          6250 6251 6252 6253 6254 6255
          6256 6257 6258 6259 6260 6261
          6262 6263 6264 6265 6266 6267
          6268 6269 6270 6271 6274 6275
          6277 6280 6282 6283 6284 6285
          6286 6287 6288 6289 6290 6291
          6293 6295 6297 6299 6300 6301
          6302 6303 6304 6305 6308 6309
          6311 6314 6316 6317 6318 6319
          6320 6321 6322 6323 6324 6325
          6327 6329 6331 6333 6334 6335
          6336 6337 6338 6339 6340 6341
          6342 6343 6344 6345 6346 6347
          6349 6364 6365 6366 6368 6370
          6381 6382 6385 6387 6388 6390
          6401 6403 6405 6407 6416 6417
          6418 6420 6421 6422 6423 6424
          6426 6427 6428 6429 6430 6431
          6432 6433 6434 6435 6436 6437
          6440 6441 6443 6445 6447 6448
          6449 6451 6452 6453 6454 6455
          6457 6458 6459 6460 6461 6462
          6463 6464 6465 6466 6467 6469
          6471 6473 6474 6475 6481 6514
          6518 6544 6545 6547 6550 6552
          6553 6554 6555 6556 6557 6558
          6559 6560 6561 6563 6565 6567
          6569 6570 6571 6572 6573 6574
          6575 6578 6579 6581 6584 6586
          6587 6588 6589 6590 6591 6592
          6593 6594 6595 6597 6599 6601
          6603 6604 6605 6606 6607 6608
          6609 6610 6611 6614 6616 6617
          6619 6630 6632 6634 6636 6644
          6645 6648 6650 6651 6653 6664
          6666 6668 6670 6679 6680 6681
          6683 6684 6685 6686 6687 6689
          6690 6691 6692 6693 6694 6695
          6696 6697 6698 6699 6701 6703
          6705 6707 6709 6711 6713 6714
          6715 6717 6718 6719 6720 6721
          6722 6723 6724 6725 6726 6727
          6729 6731 6733 6734 6738 6762
          6766 7300 7301 7302 7303 7304
          7305 7306 7307 7308 7309 7310
          7311 7314 7315 7317 7319 7320
          7321 7322 7323 7324 7325 7326
          7327 7328 7330 7331 7332 7333
          7334 7335 7336 7337 7340 7341
          7342 7343 7344 7345 7346 7347
          7349 7351 7353 7354 7355 7358
          7359 7361 7365 7462 7463 7464
          7465 7466 7467 7468 7469 7471
          7473 7475 7476 7477 7480 7481
          7483 7487 7490 7491 7492 7493
          7494 7495 7496 7497 7499 7501
          7503 7504 7505 7508 7509 7511
          7515 1293 1300 1301 1294 1012
          1162 1163 1128 1564 1565 1566
          1676 1677 1678 1679 1680 1569
          1681 1849 1586 1850 1587 2323
          2324 2325 2328 2708 2709 2710
          2712 2713 1164 2716 1684 2717
          2345 2346 2721 2349 2724 2726
          1685 3189 3190 3191 3192 3193
          3194 2755 3138 3139 3265 3266
          3142 3269 1130 2590 2883 2885
          1592 1710 6170 6171 6172 6173
          6177 6178 6180 6181 6183 6198
          6199 6202 6203 6205 6207 6242
          6243 4190 4191 4194 6249 4196
          2351 4210 4211 4214 4216 6272
          6273 6276 6278 6279 6281 6292
          6294 6296 6298 6306 6307 6310
          6312 6313 6315 6326 6328 6330
          6332 2738 6348 2739 6350 6351
          6352 6353 6357 6358 6360 6361
          6363 6367 6369 2742 6371 6372
          6375 6376 6378 6380 6383 6384
          6386 2744 6389 2745 6402 6404
          6406 2747 6415 4927 4929 6419
          4931 2479 6425 2749 4941 4943
          4945 2481 6438 6439 6442 6444
          2751 6446 4955 4957 6450 4959
          2483 6456 2753 4969 4971 4973
          1609 6468 6470 6472 1690 6476
          6477 6478 6479 6480 6482 6483
          2756 6515 6516 6517 6519 6520
          2762 6542 6543 6546 6548 6549
          6551 6562 6564 6566 6568 6576
          6577 6580 6582 6583 6585 6596
          6598 6600 6602 6612 6613 6615
          2775 6618 2776 6631 6633 6635
          2779 6646 6647 6649 2781 6652
          2782 6665 6667 6669 2784 6678
          5175 5177 6682 5179 2513 6688
          2786 5189 5191 5193 2515 6700
          6702 6704 2788 6706 5203 6708
          5205 6710 6712 6716 2790 5217
          5219 2517 5221 1136 6728 6730
          6732 1695 6735 6736 6737 6739
          6740 2792 6763 6764 6765 6767
          6768 2796 5687 5688 5691 5693
          2591 7312 7313 7316 7318 2884
          5707 5708 5711 5713 7329 2594
          2886 7338 7339 2887 5723 5725
          5727 2596 7348 7350 7352 2889
          5737 7356 5739 7357 5741 7360
          1622 2890 7362 7363 7364 7366
          7367 1711 5908 5910 5912 2626
          7470 7472 7474 2922 5922 7478
          5924 7479 5926 7482 2628 2923
          7484 7485 7486 7488 7489 2924
          5936 5938 5940 2630 7498 7500
          7502 2926 5950 7506 5952 7507
          5954 7510 1626 2927 7512 7513
          7514 7516 7517 1717
        </DataArray>
        <DataArray type="Float64" Name="bounds" format="ascii" RangeMin="0" RangeMax="0">
          0 0 0 0 0 0
          0 0 0 0 0 0
          0 0 0 0 0 0
          0 0 0 0 0 0
          0 0 0 0 0 0
          0 0 0 0 0 0
          0 0 0 0 0 0
          0 0 0 0 0 0
          0 0 0 0 0 0
          0 0 0 0 0 0
          0 0 0 0 0 0
          0 0 0 0 0 0
          0 0 0 0 0 0
          0 0 0 0 0 0
          0 0 0 0 0 0
          0 0 0 0 0 0
          0 0 0 0 0 0
          0 0 0 0 0 0
          0 0 0 0 0 0
          0 0 0 0 0 0
          0 0 0 0 0 0
          0 0 0 0 0 0
          0 0 0 0 0 0
          0 0 0 0 0 0
          0 0 0 0 0 0
          0 0 0 0 0 0
          0 0 0 0 0 0
          0 0 0 0 0 0
          0 0 0 0 0 0
          0 0 0 0 0 0
          0 0 0 0 0 0
          0 0 0 0 0 0
          0 0 0 0 0 0
          0 0 0 0 0 0
          0 0 0 0 0 0
          0 0 0 0 0 0
          0 0 0 0 0 0
          0 0 0 0 0 0
          0 0 0 0 0 0
          0 0 0 0 0 0
          0 0 0 0 0 0
          0 0 0 0 0 0
          0 0 0 0 0 0
          0 0 0 0 0 0
          0 0 0 0 0 0
          0 0 0 0 0 0
          0 0 0 0 0 0
          0 0 0 0 0 0
          0 0 0 0 0 0
          0 0 0 0 0 0
          0 0 0 0 0 0
          0 0 0 0 0 0
          0 0 0 0 0 0
          0 0 0 0 0 0
          0 0 0 0 0 0
          0 0 0 0 0 0
          0 0 0 0 0 0
          0 0 0 0 0 0
          0 0 0 0 0 0
          0 0 0 0 0 0
          0 0 0 0 0 0
          0 0 0 0 0 0
          0 0 0 0 0 0
          0 0 0 0 0 0
          0 0 0 0 0 0
          0 0 0 0 0 0
          0 0 0 0 0 0
          0 0 0 0 0 0
          0 0 0 0 0 0
          0 0 0 0 0 0
          0 0 0 0 0 0
          0 0 0 0 0 0
          0 0 0 0 0 0
          0 0 0 0 0 0
          0 0 0 0 0 0
          0 0 0 0 0 0
          0 0 0 0 0 0
          0 0 0 0 0 0
          0 0 0 0 0 0
          0 0 0 0 0 0
          0 0 0 0 0 0
          0 0 0 0 0 0
          0 0 0 0 0 0
          0 0 0 0 0 0
          0 0 0 0 0 0
          0 0 0 0 0 0
          0 0 0 0 0 0
          0 0 0 0 0 0
          0 0 0 0 0 0
          0 0 0 0 0 0
          0 0 0 0 0 0
          0 0 0 0 0 0
          0 0 0 0 0 0
          0 0 0 0 0 0
          0 0 0 0 0 0
          0 0 0 0 0 0
          0 0 0 0 0 0
          0 0 0 0 0 0
          0 0 0 0 0 0
          0 0 0 0 0 0
          0 0 0 0 0 0
          0 0 0 0 0 0
          0 0 0 0 0 0
          0 0 0 0 0 0
          0 0 0 0 0 0
          0 0 0 0 0 0
          0 0 0 0 0 0
          0 0 0 0 0 0
          0 0 0 0 0 0
          0 0 0 0 0 0
          0 0 0 0 0 0
          0 0 0 0 0 0
          0 0 0 0 0 0
          0 0 0 0 0 0
          0 0 0 0 0 0
          0 0 0 0 0 0
          0 0 0 0 0 0
          0 0 0 0 0 0
          0 0 0 0 0 0
          0 0 0 0 0 0
          0 0 0 0 0 0
          0 0 0 0 0 0
          0 0 0 0 0 0
          0 0 0 0 0 0
          0 0 0 0 0 0
          0 0 0 0 0 0
          0 0 0 0 0 0
          0 0 0 0 0 0
          0 0 0 0 0 0
          0 0 0 0 0 0
          0 0 0 0 0 0
          0 0 0 0 0 0
          0 0 0 0 0 0
          0 0 0 0 0 0
          0 0 0 0 0 0
          0 0 0 0 0 0
          0 0 0 0 0 0
          0 0 0 0 0 0
          0 0 0 0 0 0
          0 0 0 0
        </DataArray>
        <DataArray type="Float64" Name="gradient_error" format="ascii" RangeMin="4.656693180220993e-12" RangeMax="1.8050953515671614e-9">
          8.405882780591923e-11 7.652217295533906e-11 5.613442787502569e-11 4.9928829630984246e-11 2.2924873873641605e-11 2.2475319457595864e-11
          3.189507471690143e-10 2.2587294971647193e-10 7.985324151070922e-10 6.61606278186131e-10 5.5606833596590656e-11 5.3378156697811344e-11
          3.581464522751189e-11 3.430119197671425e-11 2.695621932542144e-11 1.8038787708364222e-11 1.722981810203341e-11 4.71106408031389e-11
          3.017651007634198e-11 2.0250731161047438e-11 4.58619866424871e-11 4.323993513163091e-11 2.1567359665555062e-11 3.625823137057249e-11
          1.2799895256150175e-11 1.219100208591766e-11 1.4809415151490436e-11 1.4130272347881307e-11 1.0719351026631626e-11 1.6514115212807296e-11
          1.563618732428322e-11 3.795424904887309e-11 3.2167011047515326e-11 1.8699262841684967e-11 2.881951169016141e-11 4.2451354681618266e-11
          3.3912050137911154e-11 4.041960551007441e-11 1.699092506025077e-10 1.5835012213471219e-10 8.665337640337795e-11 8.068261189174503e-11
          1.284672434754663e-10 6.525546506693604e-11 6.042356629747862e-10 5.554286522687061e-10 2.9242763093091194e-10 4.319939008978001e-10
          9.123848863705666e-11 5.732817815672228e-11 2.860276991774281e-10 1.6365756338900112e-10 1.4010000018056995e-9 1.2983066515854277e-9
          7.847460733915103e-10 7.22390946839796e-10 1.02110672473312e-9 5.584016339477527e-10 1.3283032232369454e-9 1.313659187742886e-9
          7.745361575047918e-10 1.1661128709954068e-9 6.680389105843026e-10 3.62853414641611e-10 8.353638209678227e-10 4.717378525383933e-10
          3.6064112890164256e-11 3.229700128096664e-11 8.294311979268486e-11 1.6836621413387655e-10 2.1772432175908194e-10 9.294379980453936e-12
          2.257919295006313e-11 4.032656177470225e-11 2.035605881030384e-11 3.234693464724175e-11 1.5812825494561214e-11 2.3646464529221973e-11
          2.332444755517249e-11 2.2394045118753624e-11 4.519036998177202e-11 1.123173470843824e-11 1.106992327213113e-11 1.6713965573885428e-11
          1.6478661132561212e-11 7.7454410721816e-12 1.1669208646387767e-11 1.1500772537735864e-11 1.0685944825512663e-11 1.582075183906375e-11
          1.1050404981538595e-11 3.2663534479381375e-11 3.218100768806744e-11 2.2583624126376482e-11 3.0764750360681153e-11 1.4317396639318778e-11
          2.093817992982393e-11 1.9095369723731996e-11 4.0187203541852686e-11 1.019042053897274e-11 1.4775913660465073e-11 7.37228548687551e-12
          1.0267712860289269e-11 9.576803712778558e-12 1.3409666619244036e-11 9.945864227887914e-12 2.856310030801032e-11 1.98831980262525e-11
          2.572959961723936e-11 5.678959280336313e-12 5.596581486051124e-12 7.990791947361772e-12 7.879612089041009e-12 4.844412045738987e-12
          6.448017206703622e-12 6.363074375736402e-12 5.415603041631242e-12 7.575385853336517e-12 6.115534270763475e-12 1.5828887921462196e-11
          1.5594347206607183e-11 1.2258869339777565e-11 1.4887663901948484e-11 5.421227312969027e-12 7.087282618370794e-12 4.656693180220993e-12
          5.819367271083577e-12 5.525452234441502e-12 6.7922257607888e-12 5.6857975454093876e-12 1.3642849298247866e-11 1.0758838742938947e-11
          1.3761665559584722e-11 1.2270520369798293e-11 1.684640362240605e-11 1.4740981329463734e-11 2.0320303244638428e-11 1.55687515800637e-11
          3.16721405908146e-11 3.772506356811524e-11 9.057605514856016e-12 1.1817061551319065e-11 7.768239868009819e-12 9.742950983454165e-12
          8.87866686689909e-12 1.0968470198189708e-11 9.18221365641522e-12 2.230651371488881e-11 1.7971092428957982e-11 2.1311421787580864e-11
          1.3209605997113656e-11 1.7084345450267002e-11 1.1556968591745151e-11 1.4367616124776138e-11 1.2576906059736191e-11 1.5492261426646573e-11
          1.3214513510584632e-11 3.102853191659524e-11 2.5522234142646692e-11 2.805728388765454e-11 8.83947446820888e-11 8.698659749620919e-11
          8.291237633581607e-11 1.6693669915425725e-10 6.32699286879402e-11 6.22534736336197e-11 4.4652803787481544e-11 4.392919696760645e-11
          5.931625124677319e-11 4.183152416231216e-11 1.223157115563084e-10 1.201596762668245e-10 8.511605492034245e-11 1.1393749553207578e-10
          7.657961250469249e-11 6.85655621297511e-11 1.4507718317219345e-10 5.482509867370457e-11 3.866728829630905e-11 4.915909196465921e-11
          3.46844338248373e-11 1.043209386220987e-10 7.382847665423747e-11 9.228980730585383e-11 3.248529181322491e-10 3.185950297253633e-10
          3.005741008571406e-10 5.916361927094496e-10 2.3573162133619856e-10 2.311401756575843e-10 1.6802034546714166e-10 1.6472065182715256e-10
          2.1792647263307185e-10 1.5522870658423398e-10 4.4344445845267e-10 4.340365595293496e-10 3.120928636881794e-10 4.070326945944635e-10
          2.7289626065767786e-10 2.3860614864689705e-10 5.000674919632687e-10 1.976586167168574e-10 1.4068401564046912e-10 1.725954328152834e-10
          1.2272316909581192e-10 3.6583827127841363e-10 2.624831029196032e-10 3.153467695543634e-10 3.1167881578173e-11 3.0660415469221267e-11
          2.1359535625035786e-11 2.1011795936212174e-11 2.917796645519373e-11 1.998760632238693e-11 6.040764013583895e-11 5.933010680006585e-11
          5.6221913953101206e-11 2.6888168585452106e-11 1.8374110816670486e-11 2.399352878015588e-11 5.1422822658116194e-11 4.542727815667594e-11
          1.1770039758329055e-10 1.1537466972123479e-10 1.0868722135122003e-10 2.2502044026871568e-10 2.2013295686068034e-10 2.0612841436319856e-10
          9.844668458919998e-11 8.581351174870829e-11 1.8483394078769253e-10 1.5885007374496037e-10 5.968328074998419e-11 6.95406521261565e-11
          5.0459889773811695e-11 1.100251497156967e-10 1.2531927596657426e-10 4.270655440872164e-11 3.0043660958921565e-11 3.591025487163054e-11
          7.895572738686922e-11 5.5774005868661727e-11 6.539724291840108e-11 5.7045399225091225e-11 4.127423376456194e-11 4.5371847454117336e-11
          3.273966687237868e-11 1.0094979526655669e-10 7.337399173188414e-11 7.900150170453454e-11 2.0790702873512606e-11 2.924968469885073e-11
          1.6571285770722472e-11 2.3181947863939366e-11 5.252062428798979e-11 4.09736225164551e-11 2.011276004354454e-10 2.2324414208146216e-10
          1.6368459500128988e-10 3.584127706668242e-10 3.8670361596765407e-10 1.452612270969833e-10 1.0316634417480518e-10 1.1801851288588207e-10
          2.6098023643887594e-10 1.8657140964189716e-10 2.077205074954019e-10 1.7614432153728938e-10 1.2885999452429808e-10 1.347543381474521e-10
          9.836477467207914e-11 2.985089140557399e-10 2.200437742608476e-10 2.2275022324192715e-10 9.274492881378724e-11 7.067458738091952e-11
          1.5937447251840535e-10 1.1822784159416285e-10 1.4362781128035546e-11 2.070684221640173e-11 3.87997413069565e-11 7.20763481286807e-11
          1.3101928586572433e-10 1.0216241901663546e-9 9.998996206623039e-10 9.373054739320895e-10 1.3748967535702655e-9 7.607450550200113e-10
          7.441305959422906e-10 5.539424280564224e-10 5.415773037777513e-10 6.963536163214126e-10 5.060799735408957e-10 1.0612291363726343e-9
          1.0405167273320083e-9 7.688068250177516e-10 9.799830850014558e-10 8.411892836278915e-10 7.22494726528301e-10 1.176896628312115e-9
          6.232637810061009e-10 4.5195083393773877e-10 5.334750784178145e-10 3.857482146542577e-10 8.847240838291286e-10 6.498298327833687e-10
          7.63662804524387e-10 1.4346514245632553e-9 1.4213907700999872e-9 1.3765810723759285e-9 1.3272600747520225e-9 1.110762783023451e-9
          1.0984899167850625e-9 8.381902661699551e-10 8.275607149914922e-10 1.0585758211403198e-9 7.938977272507461e-10 1.0439092908525462e-9
          1.040127781397606e-9 7.936331036259953e-10 1.0218638305584171e-9 1.2904326455041938e-9 1.1587419186207536e-9 1.2652975538303808e-9
          9.853588124336765e-10 7.342767217865754e-10 8.776670370134109e-10 6.492706202466114e-10 9.746812363673337e-10 7.322716387889639e-10
          8.889778479443585e-10 3.9476597871999384e-10 3.857988302946994e-10 3.600927540396689e-10 5.668764388716922e-10 5.549698790388793e-10
          5.204083375773972e-10 3.209985212769126e-10 2.733586883429397e-10 4.666892568328141e-10 3.9950327286475616e-10 6.168254935795134e-10
          6.081044171125561e-10 5.810170489682926e-10 5.949553131409105e-10 5.899847280749888e-10 5.723924907025018e-10 5.343255406102125e-10
          4.694250678265126e-10 5.368934288935858e-10 4.81007345168039e-10 5.939044752613771e-10 6.257694074618373e-10 4.676167855852985e-10
          8.458142747731117e-10 8.846970532776957e-10 4.3680687571705785e-10 3.1484397781882757e-10 3.4250976824437356e-10 6.28914070553357e-10
          4.575991246407788e-10 4.937658191695308e-10 4.751980075036988e-10 3.5332367857123464e-10 3.472767775940677e-10 2.569832825160114e-10
          6.712375343006593e-10 5.033879796838608e-10 4.869572961533129e-10 2.577473968347562e-10 1.8675327445315365e-10 3.6992297046185495e-10
          2.6524115418912956e-10 9.89037645135574e-10 7.992228346998364e-10 1.0170796185468808e-9 7.428537906338158e-10 5.454498345760007e-10
          5.953857695284656e-10 7.675203171129571e-10 5.660207471604471e-10 6.24443475977405e-10 8.094197588281916e-10 6.111565049538425e-10
          5.91980398791942e-10 4.434446322093715e-10 8.531245080128602e-10 6.459231128896229e-10 6.284665643409055e-10 4.5183869508673903e-10
          3.256448136872579e-10 4.787345734582537e-10 3.4705272440032337e-10 2.2255307174540434e-10 3.260332164379748e-10 3.9179925549146887e-10
          4.0820376681456436e-10 2.5532674664947715e-11 3.510171087390399e-11 1.840652022601724e-11 2.531757868406912e-11 1.9593047745196343e-11
          2.6597352384827718e-11 1.9121021194223584e-11 6.01762218122269e-11 4.359508514636146e-11 4.467018463985205e-11 1.3027015550823045e-11
          1.7962402592788636e-11 1.0073263606080216e-11 1.3543619727522491e-11 3.1173199963313945e-11 2.304093239960059e-11 1.509638906898996e-11
          1.971348516437289e-11 1.0620367727049624e-11 1.4036801791864533e-11 1.3240294264240526e-11 1.6645558843453365e-11 1.1764432688711846e-11
          3.2249889924585555e-11 2.328303098490926e-11 7.72732397201171e-12 9.968844006804792e-12 6.727502977045774e-12 8.3493836388935e-12
          6.764738649768215e-12 8.439855991990374e-12 7.250457381319153e-12 1.6521365711466366e-11 1.0020429270433686e-10 7.299479634797149e-11
          7.261058962884639e-11 5.2778692988319744e-11 1.612182240878821e-10 1.180770723753337e-10 1.1359234805342041e-10 5.242092939590901e-11
          3.7882822451520004e-11 8.50808733406415e-11 5.961237903667887e-11 5.1430867900374865e-11 3.731236385415989e-11 7.819269038295171e-11
          5.691304573761571e-11 2.6690765422121707e-11 4.0802065328284185e-11 2.452313799472193e-10 1.8067522356587677e-10 1.681541182111398e-10
          1.233891393890648e-10 3.3927478058240743e-10 2.513597656553534e-10 2.2840279095091425e-10 1.308377196886541e-10 8.906434789942996e-11
          1.8288458617312788e-10 1.2199885284695214e-10 1.1255044384675603e-10 8.227660229201544e-11 1.4960911278273503e-10 1.0979009965496979e-10
          5.921008101423611e-11 7.926798243566274e-11 4.1262035910687357e-10 3.0695078497809537e-10 2.7613312766524797e-10 2.0420679010595453e-10
          4.3944435763468693e-10 3.27406400571911e-10 2.9406668074655407e-10 2.2411786690346237e-10 1.4838005816339669e-10 2.393735026566386e-10
          1.583641043111949e-10 1.7896809278164746e-10 1.3168330288364663e-10 1.90126004136768e-10 1.4002542116133382e-10 9.529021686410051e-11
          1.0140966369168797e-10 3.7015596022502713e-10 8.712068961055295e-11 7.458097866428353e-11 3.170180719164832e-10 4.5034153256636984e-10
          7.770288041790404e-11 6.413324116500459e-11 3.5841198339808043e-10 2.423646948920878e-10 1.8771530441747798e-10 1.6608727137403595e-10
          2.384736205282759e-11 1.56680964409199e-11 1.460656254697953e-11 5.801610279011625e-11 3.6463987389179157e-11 1.1713727159923694e-10
          1.3655215004888668e-11 3.628450115290274e-11 1.1114069280777633e-10 4.273060014241089e-11 8.518714802267488e-11 1.0154899628900078e-10
          6.820204984269696e-11 6.526144313719716e-11 5.7391548993528944e-11 5.610162643083502e-12 1.3530181984752765e-11 1.2990544717372652e-11
          1.7749414576473796e-11 1.1600148681803289e-11 1.3799585610120849e-11 1.3129058000568053e-11 1.1369889571733467e-11 1.8242557468293753e-11
          7.335384069808029e-11 4.654936091352495e-11 2.915083715088532e-11 6.63015112685393e-11 2.964417698346235e-11 2.903333516761771e-11
          2.794723411148742e-11 1.9704957170227352e-11 4.939517499900954e-12 9.553217718620083e-12 7.915258546686587e-12 1.4964083407073652e-11
          8.21645002148034e-12 1.9131870281392595e-11 4.082945902377662e-11 7.628871414260038e-11 1.2300327040749573e-11 2.0800858191832945e-11
          5.56946596225225e-11 1.6720757308343793e-11 6.334126730207886e-11 6.942964529223545e-11 2.256857841629791e-11 3.94164762855777e-11
          8.14460576784928e-11 4.096080490620177e-11 2.2213699470692936e-11 2.19245292681779e-11 3.2833512482609174e-11 3.239017920910468e-11
          2.1098018722682466e-11 3.110672558103896e-11 6.349683608595223e-11 6.25755543725271e-11 5.989708572656718e-11 1.9804093149397126e-11
          2.909360740346672e-11 1.820697338059439e-11 2.652154924900237e-11 5.5701432308080774e-11 5.032602436610073e-11 1.650304778326647e-11
          2.354333296646923e-11 2.238291428737636e-11 3.235161648735437e-11 2.8045306863478455e-11 4.4226101593986523e-11 6.051951499653242e-11
          5.168516815067668e-11 1.7771561722613496e-11 2.3659546847022086e-11 2.1454574539946182e-11 4.263657915503867e-11 1.2166302933963682e-10
          1.1973966497416195e-10 1.1416357473597439e-10 2.321521061639299e-10 2.281284111177982e-10 2.164974840947927e-10 1.0547859550362339e-10
          9.449587767813358e-11 1.984970475937453e-10 1.759393785980231e-10 4.39409701195957e-10 4.3106652211816465e-10 4.07019189390926e-10
          8.061849607701375e-10 7.897396917422966e-10 7.424103358996516e-10 3.700235039049224e-10 3.240814458055439e-10 6.698364483663303e-10
          5.802412291241861e-10 4.1442602070935414e-11 4.0700589614653624e-11 3.855952984416305e-11 9.635654669395835e-12 9.488094107512415e-12
          1.4268645006763341e-11 1.4036065068150602e-11 9.045054919677692e-12 1.3354890630167734e-11 2.7989108587911667e-11 2.7487386421942194e-11
          2.603919570741095e-11 1.633830846676356e-11 3.5256265237983855e-11 3.113231769029517e-11 8.338749925606487e-12 1.22883601677559e-11
          7.445040178244903e-12 1.0944107893330665e-11 2.3804163673623237e-11 2.1014898208937878e-11 8.106791345877382e-11 7.945888497761323e-11
          7.483378799050908e-11 1.558221579013839e-10 1.524123378065407e-10 1.4264727894954023e-10 6.775516660733066e-11 5.902961820206477e-11
          1.2781484834243654e-10 1.0974214794276727e-10 8.224474272960121e-11 1.116499802246015e-10 9.431117175414602e-11 1.5087887152176684e-10
          2.0359714432377036e-10 1.6942173328757932e-10 2.5151029254390733e-11 4.6149426829013524e-11 7.75093798982827e-11 6.189774622693821e-11
          1.3674507725188354e-10 1.0723199186267681e-10 1.4397607551109758e-11 2.0444201206856088e-11 1.621090379735362e-11 3.702266575188416e-11
          2.884312799314998e-11 2.7371981647032405e-10 3.6595419192374765e-10 2.992859115248881e-10 4.829337267033142e-10 6.380149736299239e-10
          5.130184067332738e-10 8.37107722586158e-11 1.4819337547668136e-10 2.368133572047153e-10 1.8168393568209113e-10 3.9769819144954757e-10
          2.9799466547331013e-10 6.569453017944856e-11 4.9987787308192267e-11 1.1346661786814964e-10 8.400206206810971e-11 9.67541276135722e-12
          1.4077568513144485e-11 1.2040319628211193e-11 1.7327366839408673e-11 1.1800716233303588e-11 2.6578894104025082e-11 3.208219566858937e-11
          2.1974466972404812e-11 4.9550638965198974e-11 5.843036246475218e-11 4.014615244246725e-11 9.04177273332814e-11 1.0390785251779013e-10
          7.162753222272134e-11 1.3404766699429903e-9 1.312867088158798e-9 1.233141847983537e-9 1.8045856396661062e-9 1.7727200930548986e-9
          1.678792519439707e-9 1.1102015559152592e-9 9.574674813649966e-10 1.5286846835305031e-9 1.3340253498055891e-9 1.8050953515671614e-9
          1.7920284260730685e-9 1.7450536788234612e-9 1.6439037442137645e-9 1.6479317312233773e-9 1.6446771639857563e-9 1.6484639063262247e-9
          1.4933608971374147e-9 1.6012790213602762e-9 1.4925835653017901e-9 2.755601583234942e-10 2.6921483710968194e-10 2.5104577695800245e-10
          4.0032586283053545e-10 3.9168197702584684e-10 3.666589966403677e-10 2.2347398296383084e-10 1.899738191732737e-10 3.2795670078876066e-10
          2.7985802023009737e-10 4.4299034892169205e-10 4.361589930677367e-10 4.1524957790766084e-10 4.321033298588237e-10 4.2765177763160637e-10
          4.1273967666421735e-10 3.799685531816309e-10 3.319422117675094e-10 3.8444076096712835e-10 3.418690427968667e-10 7.907857950723505e-10
          1.0304469527923222e-9 8.202954127931535e-10 1.1123518820259182e-9 1.4297457851809523e-9 1.1461687304012396e-9 2.460642021517408e-10
          3.574659787887838e-10 6.266880053056126e-10 4.6065453804587867e-10 8.765742962576485e-10 6.407594453974004e-10 1.845774777326778e-10
          1.3333512006060016e-10 2.665400739866116e-10 1.90300279247243e-10 1.2865416496214252e-9 1.6344260246202067e-9 1.0492791084476418e-9
          1.3466340990852768e-9 1.3163864622471017e-9 1.09267622783393e-9 4.340591653430535e-10 4.566709454601551e-10 1.0490993335206554e-9
          7.743277470519385e-10 1.3968108457673767e-9 1.1024593956017255e-9 8.201965113923349e-10 3.2728327050061645e-10 2.345616083069971e-10
          3.475426364747973e-10 2.503819140849887e-10 1.543672501541996e-10 1.7348885235425894e-10 1.2009921526542504e-10 2.276234242087805e-10
          2.536457406168221e-10 1.765050052733931e-10 2.755055727356831e-10 3.098875707365644e-10 2.1679398550911015e-10 2.880865566829211e-10
          3.26956407555354e-10 2.2931792376078912e-10 3.508459137842858e-11 4.8038458255622576e-11 3.655681877499451e-11 8.186433411189847e-11
          6.093220937718586e-11 9.17946999825548e-12 1.2521934515414312e-11 1.0352088648786454e-11 2.1871834582574148e-11 1.99863325147496e-11
          2.1269584249183177e-11 2.7362512180064384e-11 2.329447027124479e-11 4.413963572890975e-11 2.5373476773300305e-11 5.698066173941055e-11
          2.991542060882226e-11 1.301360056236963e-11 1.2973622184199115e-11 1.89547891181342e-11 1.3548669022311553e-10 9.847031639309401e-11
          2.1652862545104528e-10 1.5314317748239554e-10 3.7062168119998106e-11 2.672406789963305e-11 6.032493774024554e-11 4.218336062321615e-11
          6.996928234136964e-11 3.5542318000316534e-11 4.8515667074507057e-11 2.5712209275576643e-11 1.0581906554291878e-10 5.279088242544986e-11
          7.1742911801004e-11 3.8274810438579664e-11 1.8739462809529788e-11 1.830064302558438e-11 1.2833969909373368e-11 2.8818770654723854e-11
          2.7361882678347795e-11 1.9283930525593434e-11 3.2705124943299034e-10 2.2536418644497634e-10 4.495324954222809e-10 3.044918743384819e-10
          9.315467087077769e-11 6.32514693641746e-11 1.307216650170311e-10 8.691634781382205e-11 1.5153490285447648e-10 7.390517459083469e-11
          9.995196370807399e-11 5.382054609387317e-11 2.0053598571560304e-10 9.59993251595308e-11 1.293216049127193e-10 7.015988807997846e-11
          4.19515462005693e-11 3.8616958058719096e-11 2.7307959459114138e-11 5.631413016548515e-11 5.049439412249028e-11 3.5796657615728863e-11
          5.44155530156655e-10 3.6675902494814077e-10 5.785283547878887e-10 3.90054849403238e-10 1.6067657144935623e-10 1.0595878722410584e-10
          1.7181434523313552e-10 1.1318831606805503e-10 2.3916429920489813e-10 1.1331093205275108e-10 1.5224776821107832e-10 8.300210490299253e-11
          2.538030349375708e-10 1.1990163066922597e-10 1.6095857576145505e-10 8.789908371286462e-11 6.782378250524027e-11 5.985457223123234e-11
          4.250207441803007e-11 7.222901269707685e-11 6.342884642020307e-11 4.506575069672564e-11
        </DataArray>
        <DataArray type="Float64" Name="gradient_matprop_error" format="ascii" RangeMin="0" RangeMax="0">
          0 0 0 0 0 0
          0 0 0 0 0 0
          0 0 0 0 0 0
          0 0 0 0 0 0
          0 0 0 0 0 0
          0 0 0 0 0 0
          0 0 0 0 0 0
          0 0 0 0 0 0
          0 0 0 0 0 0
          0 0 0 0 0 0
          0 0 0 0 0 0
          0 0 0 0 0 0
          0 0 0 0 0 0
          0 0 0 0 0 0
          0 0 0 0 0 0
          0 0 0 0 0 0
          0 0 0 0 0 0
          0 0 0 0 0 0
          0 0 0 0 0 0
          0 0 0 0 0 0
          0 0 0 0 0 0
          0 0 0 0 0 0
          0 0 0 0 0 0