<?xml version="1.0"?>
<VTKFile type="UnstructuredGrid" version="0.1" byte_order="LittleEndian" header_type="UInt32" compressor="vtkZLibDataCompressor">
  <UnstructuredGrid>
    <Piece NumberOfPoints="880" NumberOfCells="548">
      <PointData>
        <DataArray type="Int32" Name="libmesh_node_id" format="ascii" RangeMin="1013" RangeMax="7871">
          1165 1173 1175 1679 1680 1685
          1690 1691 1695 1711 1712 1713
          1716 1717 1718 1719 1724 1725
          1727 1729 1851 1852 1855 1856
          1860 1861 1909 1910 1913 1915
          2712 2717 2721 2724 2726 2749
          2751 2753 2755 2756 2759 2760
          2761 2762 2764 2786 2788 2790
          2792 2794 2795 2796 2798 2832
          2836 2869 2873 2883 2884 2887
          2889 2891 2892 2893 2894 2895
          2896 2897 2898 2899 2900 2909
          2911 2912 2913 2914 2915 2916
          2917 2918 2919 2920 2922 2924
          2926 2928 2929 2930 2931 2932
          2933 2934 2936 2938 2940 2942
          2943 2944 2945 2946 2947 2948
          2949 2950 2953 2954 2956 2958
          2969 2971 2972 2973 2975 2983
          2984 2985 2986 2987 2988 2989
          2990 2991 2992 3189 3192 3193
          3195 3196 3197 3198 3199 3200
          3201 3202 3204 3206 3207 3208
          3211 3265 3266 3269 3270 3271
          3272 3273 3274 3275 3276 3287
          3288 3289 3290 3291 3292 3293
          3294 3295 3296 6367 6425 6438
          6439 6442 6444 6456 6468 6470
          6472 6476 6477 6478 6479 6480
          6483 6484 6485 6488 6489 6493
          6494 6495 6496 6497 6498 6499
          6500 6501 6502 6503 6504 6505
          6506 6507 6508 6509 6510 6511
          6512 6513 6516 6517 6520 6523
          6527 6528 6529 6530 6531 6532
          6533 6534 6535 6536 6537 6538
          6539 6540 6541 6688 6700 6702
          6704 6716 6728 6730 6732 6736
          6737 6740 6743 6747 6748 6749
          6750 6751 6752 6753 6754 6755
          6756 6757 6758 6759 6760 6761
          6764 6765 6768 6771 6775 6776
          6777 6778 6779 6780 6781 6782
          6783 6784 6785 6786 6787 6788
          6789 6957 6958 6961 6962 6964
          6966 6991 6993 6994 6995 6997
          7202 7204 7205 7206 7208 7230
          7232 7233 7234 7236 7312 7313
          7316 7318 7338 7339 7348 7350
          7352 7362 7363 7364 7366 7367
          7368 7369 7370 7371 7372 7373
          7374 7375 7376 7377 7378 7379
          7380 7381 7382 7383 7384 7385
          7386 7387 7388 7389 7390 7391
          7392 7393 7394 7395 7396 7397
          7398 7399 7400 7401 7402 7403
          7404 7405 7406 7407 7408 7409
          7410 7411 7412 7413 7414 7415
          7416 7417 7418 7419 7420 7421
          7432 7433 7434 7435 7436 7437
          7438 7439 7440 7441 7442 7443
          7444 7445 7446 7447 7448 7449
          7450 7451 7452 7453 7454 7455
          7456 7457 7458 7459 7460 7461
          7470 7472 7474 7484 7485 7486
          7488 7489 7498 7500 7502 7512
          7513 7514 7516 7517 7518 7519
          7520 7521 7522 7523 7524 7525
          7526 7527 7528 7529 7530 7531
          7532 7533 7534 7535 7536 7537
          7538 7539 7540 7541 7542 7543
          7544 7545 7546 7547 7548 7549
          7550 7551 7552 7553 7554 7555
          7556 7557 7558 7559 7560 7561
          7562 7563 7564 7565 7566 7567
          7568 7569 7570 7571 7572 7573
          7581 7582 7583 7584 7585 7586
          7587 7598 7599 7600 7601 7602
          7603 7604 7605 7606 7607 7615
          7616 7617 7618 7619 7620 7621
          7629 7630 7631 7632 7633 7634
          7635 7636 7637 7638 7639 7640
          7641 7642 7643 7644 7645 7646
          7647 7648 7649 7650 7651 7652
          7653 7654 7655 7656 7657 7658
          7659 7660 7661 7662 7663 7664
          7665 7666 7667 7668 7669 7670
          7671 7672 7673 7674 7675 7676
          7677 7678 7679 7680 7681 7682
          7683 7684 7685 7686 7687 7688
          7689 7690 7691 7692 7695 7696
          7698 7700 7701 7702 7703 7704
          7705 7706 7707 7708 7709 7710
          7711 7712 7713 7714 7715 7716
          7717 7718 7719 7720 7731 7732
          7733 7734 7735 7736 7737 7738
          7740 7742 7744 7745 7746 7747
          7748 7749 7750 7751 7752 7753
          7754 7755 7756 7757 7758 7759
          7760 7761 7762 7763 7764 7765
          7766 7768 7770 7772 7773 7774
          7775 7776 7777 7778 7779 7780
          7781 7782 7783 7784 7785 7786
          7845 7846 7847 7848 7849 7850
          7851 7852 7853 7854 7855 7856
          7857 7858 7859 7860 7861 7862
          7863 7864 7865 7866 7867 7868
          7869 7870 7871 1294 1301 1306
          1297 1128 1163 1169 1013 1304
          1307 1166 1024 1310 1308 1170
          1171 1311 1309 1720 1722 1721
          1723 1726 1849 1681 1850 1853
          1854 1710 1714 1846 1847 1857
          1858 1848 1859 1862 1703 1907
          1715 1908 1911 1912 1914 1315
          1916 1917 1918 1919 1920 1921
          1922 1924 1032 1925 1926 2885
          2903 2901 2886 2904 2902 2907
          2906 2908 2910 2831 2951 2833
          2952 2955 2713 3191 1684 2757
          3194 2968 2978 3203 2979 3205
          2982 3209 3210 3250 3254 2827
          3279 3277 2937 3280 3278 2941
          3285 3284 3283 6375 6376 6486
          6377 6487 6490 2742 6380 6491
          6482 2743 6492 2758 6515 6521
          6522 6524 6519 6525 6526 2763
          6735 6741 6742 6744 6739 6745
          6746 2793 6763 6769 6770 6772
          6767 6773 6774 2797 6941 6942
          6959 6943 6960 6963 6946 2828
          6965 6968 6972 6974 6976 6979
          6980 6992 6983 2834 6996 6998
          7000 7002 7004 7190 7191 7203
          7194 2867 7207 7209 7211 7213
          7215 7218 7219 7231 7222 2871
          7235 7237 7239 7241 7243 7424
          7357 7425 7428 2890 7430 7479
          7575 7577 2923 7579 2935 7590
          7591 7594 7596 7507 7609 7611
          2927 7613 2939 7623 7625 7627
          7693 7001 7694 7697 1704 7699
          2957 7212 7739 7741 2870 7743
          2970 7240 7767 7769 1709 7771
          2974 7730 7804 7789 7805 7808
          7809 7793 7811 7813 7816 7828
          7830 7820 7832 7834
        </DataArray>
        <DataArray type="Float64" Name="bounds" format="ascii" RangeMin="0" RangeMax="0">
          0 0 0 0 0 0
          0 0 0 0 0 0
          0 0 0 0 0 0
          0 0 0 0 0 0
          0 0 0 0 0 0
          0 0 0 0 0 0
          0 0 0 0 0 0
          0 0 0 0 0 0
          0 0 0 0 0 0
          0 0 0 0 0 0
          0 0 0 0 0 0
          0 0 0 0 0 0
          0 0 0 0 0 0
          0 0 0 0 0 0
          0 0 0 0 0 0
          0 0 0 0 0 0
          0 0 0 0 0 0
          0 0 0 0 0 0
          0 0 0 0 0 0
          0 0 0 0 0 0
          0 0 0 0 0 0
          0 0 0 0 0 0
          0 0 0 0 0 0
          0 0 0 0 0 0
          0 0 0 0 0 0
          0 0 0 0 0 0
          0 0 0 0 0 0
          0 0 0 0 0 0
          0 0 0 0 0 0
          0 0 0 0 0 0
          0 0 0 0 0 0
          0 0 0 0 0 0
          0 0 0 0 0 0
          0 0 0 0 0 0
          0 0 0 0 0 0
          0 0 0 0 0 0
          0 0 0 0 0 0
          0 0 0 0 0 0
          0 0 0 0 0 0
          0 0 0 0 0 0
          0 0 0 0 0 0
          0 0 0 0 0 0
          0 0 0 0 0 0
          0 0 0 0 0 0
          0 0 0 0 0 0
          0 0 0 0 0 0
          0 0 0 0 0 0
          0 0 0 0 0 0
          0 0 0 0 0 0
          0 0 0 0 0 0
          0 0 0 0 0 0
          0 0 0 0 0 0
          0 0 0 0 0 0
          0 0 0 0 0 0
          0 0 0 0 0 0
          0 0 0 0 0 0
          0 0 0 0 0 0
          0 0 0 0 0 0
          0 0 0 0 0 0
          0 0 0 0 0 0
          0 0 0 0 0 0
          0 0 0 0 0 0
          0 0 0 0 0 0
          0 0 0 0 0 0
          0 0 0 0 0 0
          0 0 0 0 0 0
          0 0 0 0 0 0
          0 0 0 0 0 0
          0 0 0 0 0 0
          0 0 0 0 0 0
          0 0 0 0 0 0
          0 0 0 0 0 0
          0 0 0 0 0 0
          0 0 0 0 0 0
          0 0 0 0 0 0
          0 0 0 0 0 0
          0 0 0 0 0 0
          0 0 0 0 0 0
          0 0 0 0 0 0
          0 0 0 0 0 0
          0 0 0 0 0 0
          0 0 0 0 0 0
          0 0 0 0 0 0
          0 0 0 0 0 0
          0 0 0 0 0 0
          0 0 0 0 0 0
          0 0 0 0 0 0
          0 0 0 0 0 0
          0 0 0 0 0 0
          0 0 0 0 0 0
          0 0 0 0 0 0
          0 0 0 0 0 0
          0 0 0 0 0 0
          0 0 0 0 0 0
          0 0 0 0 0 0
          0 0 0 0 0 0
          0 0 0 0 0 0
          0 0 0 0 0 0
          0 0 0 0 0 0
          0 0 0 0 0 0
          0 0 0 0 0 0
          0 0 0 0 0 0
          0 0 0 0 0 0
          0 0 0 0 0 0
          0 0 0 0 0 0
          0 0 0 0 0 0
          0 0 0 0 0 0
          0 0 0 0 0 0
          0 0 0 0 0 0
          0 0 0 0 0 0
          0 0 0 0 0 0
          0 0 0 0 0 0
          0 0 0 0 0 0
          0 0 0 0 0 0
          0 0 0 0 0 0
          0 0 0 0 0 0
          0 0 0 0 0 0
          0 0 0 0 0 0
          0 0 0 0 0 0
          0 0 0 0 0 0
          0 0 0 0 0 0
          0 0 0 0 0 0
          0 0 0 0 0 0
          0 0 0 0 0 0
          0 0 0 0 0 0
          0 0 0 0 0 0
          0 0 0 0 0 0
          0 0 0 0 0 0
          0 0 0 0 0 0
          0 0 0 0 0 0
          0 0 0 0 0 0
          0 0 0 0 0 0
          0 0 0 0 0 0
          0 0 0 0 0 0
          0 0 0 0 0 0
          0 0 0 0 0 0
          0 0 0 0 0 0
          0 0 0 0 0 0
          0 0 0 0 0 0
          0 0 0 0 0 0
          0 0 0 0 0 0
          0 0 0 0 0 0
          0 0 0 0 0 0
          0 0 0 0 0 0
          0 0 0 0 0 0
          0 0 0 0 0 0
          0 0 0 0
        </DataArray>
        <DataArray type="Float64" Name="gradient_error" format="ascii" RangeMin="5.868220816178537e-13" RangeMax="4.566709454601551e-10">
          9.658776223033634e-12 5.627390250091201e-11 1.5565026435299056e-11 5.801610279011625e-11 3.6463987389179157e-11 2.794723411148742e-11
          8.400206206810971e-11 1.8203229621414455e-11 2.503819140849887e-10 1.9283930525593434e-11 1.4714780638728545e-11 5.016625032642703e-12
          1.5311963988272595e-11 4.506575069672564e-11 9.711930263025717e-12 1.9481379038610324e-11 6.294884887505176e-12 6.48779978167124e-12
          2.5076813214382205e-12 7.331858605562524e-12 1.3610386262883854e-11 1.591667651475745e-11 1.807692879622584e-11 5.5109775888187955e-12
          5.837719411012095e-12 6.5860710476064085e-12 2.1475420614862202e-11 1.7947911257283103e-11 1.5955911952814808e-11 1.4436868136178963e-11
          1.7749414576473796e-11 1.8242557468293753e-11 2.915083715088532e-11 2.964417698346235e-11 2.903333516761771e-11 4.6149426829013524e-11
          2.884312799314998e-11 1.4819337547668136e-10 1.9131870281392595e-11 2.1974466972404812e-11 1.3769365770279163e-11 1.3699565029241343e-11
          7.458297403841094e-12 7.162753222272134e-11 4.038514859690731e-11 3.574659787887838e-10 1.90300279247243e-10 4.566709454601551e-10
          1.765050052733931e-10 9.276307612097169e-11 4.2126047861527523e-11 2.2931792376078912e-10 1.231390979423082e-10 4.640921136696054e-12
          7.695442106638456e-12 1.7846704771104028e-11 2.393981525255783e-11 2.256857841629791e-11 1.99863325147496e-11 1.89547891181342e-11
          4.218336062321615e-11 1.539119221431771e-11 1.3653378856605186e-11 1.0235221854398158e-11 7.659904154309078e-12 1.8296867952223478e-11
          1.3493519911912947e-11 7.295778514110117e-12 2.0173349055136406e-11 9.067223718356076e-12 9.168895902852262e-12 1.5030329455110852e-11
          1.1902152054054079e-11 1.0527861139106042e-11 5.8690151398296415e-12 6.130539434641153e-12 8.614681197556661e-12 1.2098475512491068e-11
          5.790777592177189e-12 8.9634403093072e-12 7.094919386977307e-12 1.2228577447768702e-11 8.691634781382205e-11 3.5796657615728863e-11
          1.1318831606805503e-10 4.195973463689073e-11 1.896552107816831e-11 1.7146489906777847e-11 7.686301899639088e-12 5.490310806955505e-11
          2.4879370932212466e-11 2.16524812228256e-11 1.386510832417676e-11 1.692687431392992e-11 1.6796064890056733e-11 1.0873384066867112e-11
          9.475501753068761e-12 1.2525333890770253e-11 1.2789498110879685e-11 1.2980411800044183e-11 1.1147741808910015e-11 1.4399183283024522e-11
          7.913464173318795e-12 4.846163839380335e-12 4.509704708121369e-12 4.21639985587114e-12 3.8277122446316234e-12 3.958722440747055e-12
          8.023759466105902e-12 3.99110539033532e-12 2.860189584904453e-12 1.054354346689867e-11 4.10220321251467e-12 5.078140839592321e-12
          5.011197548950551e-12 3.59913561830401e-12 3.3897090433828232e-12 4.44911694570737e-12 6.754619726188907e-12 2.724101694923236e-12
          4.8255038461923505e-12 2.8753625123885772e-12 7.805810931699923e-12 1.9704957170227352e-11 7.915258546686587e-12 1.4964083407073652e-11
          2.5008497510978476e-12 3.744487639651771e-12 1.6815168875787814e-12 2.3310006105034288e-12 1.822265408043891e-12 2.508535389390371e-12
          1.6706684075775969e-12 1.6231236981719924e-12 1.0511797518300608e-12 1.1490010146134618e-12 1.2185830479578942e-12 8.790348182034813e-13
          1.2881650813023268e-12 1.2300327040749573e-11 2.0800858191832945e-11 1.6720757308343793e-11 6.35138297814795e-12 1.0241636731136286e-11
          4.429089036306539e-12 6.787686260961851e-12 5.604415686252488e-12 7.992960936083292e-12 5.640113504734932e-12 8.689096851134355e-12
          9.602568493108442e-12 5.865994143442531e-12 6.071370910863697e-12 6.4312822815774625e-12 6.648039427496976e-12 4.59942529180417e-12
          1.0516040135082528e-11 6.2767476782848624e-12 6.864796573416489e-12 1.633830846676356e-11 2.5151029254390733e-11 1.4397607551109758e-11
          2.0444201206856088e-11 1.621090379735362e-11 3.702266575188416e-11 8.37107722586158e-11 6.569453017944856e-11 4.9987787308192267e-11
          1.1346661786814964e-10 9.67541276135722e-12 1.4077568513144485e-11 1.2040319628211193e-11 1.7327366839408673e-11 1.1800716233303588e-11
          3.208219566858937e-11 6.445929097846784e-12 9.447497338019423e-12 5.487406369460421e-12 7.949023732659418e-12 1.4827734079994368e-11
          9.874884422857089e-12 1.4117010831061888e-11 6.783579613741365e-12 9.666879094890378e-12 7.962201899733348e-12 1.1217227232027651e-11
          7.705803345042308e-12 2.57218548456269e-11 1.7618567331544636e-11 2.001527527449779e-11 4.66641680710394e-12 6.557226701172185e-12
          3.1850571412506725e-12 4.355238715730246e-12 3.8499712565448666e-12 5.232675497455189e-12 3.816980322556657e-12 1.1905258066498891e-11
          7.878582212540562e-12 9.259506221899248e-12 5.843036246475218e-11 4.014615244246725e-11 1.0390785251779013e-10 2.715195673964521e-11
          4.855468831493927e-11 4.5810091774886625e-11 3.1459212852608117e-11 3.4814464879808776e-11 2.38889134818616e-11 7.943440724163096e-11
          5.469670433400814e-11 5.871557682521536e-11 2.1288841324014764e-11 1.417594760319549e-11 1.6179245892138353e-11 1.0765143637298115e-11
          3.7048499426266226e-11 2.4687385434491015e-11 2.7331132025225576e-11 2.460642021517408e-10 1.845774777326778e-10 1.3333512006060016e-10
          2.665400739866116e-10 4.340591653430535e-10 3.2728327050061645e-10 2.345616083069971e-10 3.475426364747973e-10 1.7348885235425894e-10
          1.2009921526542504e-10 2.536457406168221e-10 8.16585552927613e-11 1.2051017715015626e-10 1.2981403166086222e-10 8.969546614897653e-11
          9.355716364672622e-11 6.453188400445548e-11 1.8840881656386756e-10 1.3071397051160571e-10 1.3406190158157038e-10 6.090369311244584e-11
          4.064711887992559e-11 4.376496872970273e-11 2.9186425658778145e-11 8.903721921281064e-11 5.956265189631894e-11 6.306099710020975e-11
          3.098875707365644e-10 2.1679398550911015e-10 3.26956407555354e-10 1.487059332156422e-10 1.5765833250177608e-10 2.3240024955835614e-10
          1.6186669022453846e-10 1.6580191961656214e-10 1.1505364952346384e-10 2.472777259252259e-10 1.7253443267396872e-10 1.7723384148794914e-10
          1.1062687885145792e-10 7.42138596721396e-11 7.83995553840258e-11 5.247332165383519e-11 1.1810490975992596e-10 7.934203351403015e-11
          8.399964905543014e-11 2.0549330223654436e-12 2.808231852946676e-12 1.905160650768055e-12 2.4816072550587163e-12 5.120841275538298e-12
          4.4409793605898986e-12 9.27860232066702e-12 7.0268149968083435e-12 4.528714075772921e-12 1.6185497918998888e-11 1.193202398619691e-11
          2.6667696232092922e-11 1.9141331787173128e-11 1.2346498292713068e-11 3.9140609199424014e-11 2.7656883502604606e-11 4.888270972675311e-11
          3.4502648336221506e-11 2.228986426955433e-11 5.2325650454631627e-11 3.7031333151592765e-11 9.17946999825548e-12 1.2521934515414312e-11
          1.0352088648786454e-11 2.1871834582574148e-11 1.301360056236963e-11 1.2973622184199115e-11 3.7062168119998106e-11 2.672406789963305e-11
          6.032493774024554e-11 1.8739462809529788e-11 1.830064302558438e-11 1.2833969909373368e-11 2.8818770654723854e-11 2.7361882678347795e-11
          6.407950675103699e-12 8.630600938402779e-12 4.4429006924820094e-12 5.927849910464821e-12 5.7415472860512735e-12 7.40601588933466e-12
          5.092004182736131e-12 1.5073472998780995e-11 1.0288293248252718e-11 1.2384818902586561e-11 3.072648879625209e-12 4.008125679681025e-12
          2.5898644178119275e-12 3.260685008011568e-12 2.733077518138068e-12 3.4445093955689105e-12 2.853645728994879e-12 6.930219366331957e-12
          5.245826312689544e-12 5.671911240451587e-12 2.5751451993190103e-11 1.7629419642914747e-11 1.848786499114081e-11 1.2628104607177217e-11
          4.210097999160413e-11 2.8923969451712365e-11 2.9397029024142385e-11 1.1919474954355935e-11 7.914579257758765e-12 8.515763334432429e-12
          5.657042885302408e-12 1.955911363065247e-11 1.3020544852062426e-11 1.363193511436894e-11 9.938475261458106e-12 1.2935888085908357e-11
          6.768671729834032e-12 8.833650657080402e-12 6.924540505258794e-12 8.873907047165196e-12 6.061758438172961e-12 2.0050969565416214e-11
          1.374411893839763e-11 1.3398724810071712e-11 4.550954477057015e-12 5.9587338529740485e-12 3.023274378292958e-12 3.943682724926407e-12
          3.1687839346791227e-12 4.061812405075558e-12 2.9928433380249874e-12 9.30653135898396e-12 6.184063905675314e-12 6.184806438375006e-12
          9.762762037081024e-12 1.2245423079879487e-11 6.8201852031809835e-12 8.576000200679606e-12 8.0229606736525e-12 9.795568645523726e-12
          6.849054325303344e-12 1.796768859564384e-11 1.2634784258993137e-11 1.2768315304818337e-11 4.717518226718366e-12 5.947405931489427e-12
          3.262416972391245e-12 4.0898658860069385e-12 3.898511213126268e-12 4.770017900298823e-12 3.3090953942266023e-12 8.794033978447916e-12
          6.025474013728438e-12 6.208051093535169e-12 2.1732061847875253e-12 2.7096491812234066e-12 1.776830382491801e-12 2.1615428520733505e-12
          1.8139923769615477e-12 2.195955708803661e-12 1.7880058359033378e-12 4.00625165676027e-12 2.9167269416714004e-12 3.1501812552358353e-12
          9.315467087077769e-11 6.32514693641746e-11 1.307216650170311e-10 4.19515462005693e-11 3.8616958058719096e-11 2.7307959459114138e-11
          5.631413016548515e-11 5.049439412249028e-11 1.6067657144935623e-10 1.0595878722410584e-10 1.7181434523313552e-10 6.782378250524027e-11
          5.985457223123234e-11 4.250207441803007e-11 7.222901269707685e-11 6.342884642020307e-11 6.522527279413019e-11 4.492056992371206e-11
          4.4202442725083326e-11 3.04022146969884e-11 9.181804138782132e-11 6.33899465393874e-11 6.089385307044689e-11 3.043298797315284e-11
          2.028268326795493e-11 2.057979252626957e-11 1.371105552729263e-11 4.3023274058165215e-11 2.8709317707601186e-11 2.8440653051761857e-11
          2.9265446541597825e-11 2.0103490340231738e-11 1.90218356511839e-11 1.304253037175873e-11 3.9366256409471515e-11 2.7076987549343144e-11
          2.4981998539207286e-11 1.3609969016574247e-11 9.070664531693242e-12 8.811354569567282e-12 5.839016960318657e-12 1.832450953512458e-11
          1.2208341425613213e-11 1.1569403447813678e-11 1.1314404020573038e-10 7.827484334979278e-11 7.437667928839979e-11 5.132720478002914e-11
          1.211097924313903e-10 8.385804648258181e-11 7.951022371249844e-11 5.321348699853855e-11 3.5554666968950026e-11 3.482808079057698e-11
          2.324071757497764e-11 5.7050288221532226e-11 3.81411472000715e-11 3.727220074611885e-11 4.748283648165722e-11 3.269529357197361e-11
          2.970081016843043e-11 2.0403583105335085e-11 5.059541500709321e-11 3.4853984433255925e-11 3.150711852974226e-11 2.214441416425271e-11
          1.4758139658552317e-11 1.3776261385100753e-11 9.151779227734418e-12 2.361319780232792e-11 1.5736888789473926e-11 1.462165301243069e-11
          2.4788243238380198e-11 1.7493769998091792e-11 1.5581592177408997e-11 1.0980026265138132e-11 3.168847358308156e-11 2.2424416079609983e-11
          1.9658136323117843e-11 8.580759289095376e-12 9.778406254915026e-12 6.107884434871436e-12 6.915803805014886e-12 7.080024063178715e-12
          7.6718732281458e-12 5.454409234633374e-12 1.2011598318111876e-11 8.452869563121149e-12 9.023356645904558e-12 3.7026847168819837e-11
          2.6243847833220258e-11 2.264155345655676e-11 1.5998615514352755e-11 3.904594057962721e-11 2.7688650183596084e-11 2.376163397316579e-11
          1.3664966019831728e-11 9.628105760267546e-12 1.0220190326285772e-11 7.1982360277894796e-12 1.4282788624174378e-11 1.0074195569451129e-11
          1.0657389753875311e-11 1.2217353204679364e-11 8.367474600791596e-12 7.589577486529304e-12 5.8458800895366065e-12 1.5710497003498563e-11
          1.0778557105349167e-11 9.636622296822338e-12 5.575791157296539e-12 3.655004048788505e-12 4.2916542961776516e-12 2.809469813332555e-12
          7.171046138425312e-12 4.7168942559935105e-12 5.444482331711818e-12 4.047320154242569e-12 4.66784405074393e-12 3.2456389168304768e-12
          3.7465358852187e-12 3.305218513719928e-12 3.692135925285165e-12 3.025637940921329e-12 5.8147275576013415e-12 4.699708883468201e-12
          4.481490498119892e-12 1.8416127919270087e-11 1.2658992284952954e-11 1.1137970515002406e-11 8.627623305414425e-12 1.943519392026643e-11
          1.3362186332956523e-11 1.1690537062851684e-11 8.42880152135242e-12 5.534716614150254e-12 6.362175377813564e-12 4.122279695913207e-12
          8.900681944586045e-12 5.843690062210847e-12 6.696251214732899e-12 6.6401591664772946e-12 5.382890005546348e-12 5.10562527241535e-12
          4.3371155442653445e-12 6.939231164997198e-12 5.613795097763217e-12 5.327322885441318e-12 3.816952142446934e-12 5.1587341442695756e-12
          2.4560270225226675e-12 3.3219052989962887e-12 2.766557536616512e-12 3.686271785888844e-12 2.371611821351473e-12 8.531776784703658e-12
          5.502188168830574e-12 5.937563730291031e-12 1.5477776721052335e-12 2.1030043308338507e-12 1.1216559184931505e-12 1.49793567180351e-12
          3.498041742554566e-12 2.4345557777448673e-12 1.9534314259428907e-12 2.553123243570895e-12 1.2672519854946519e-12 1.6494047181547966e-12
          1.6256743287776502e-12 2.07054246742488e-12 1.3456764860660448e-12 4.031031038406979e-12 2.59581453731464e-12 2.9460804151729196e-12
          8.018768677291503e-13 1.0428189497569444e-12 6.443431373558392e-13 8.174486937772477e-13 6.750172020339033e-13 8.562152393509102e-13
          6.903654607154918e-13 1.6504767374046836e-12 1.1636606154019237e-12 1.3269779291850628e-12 1.3298710599314969e-11 8.57934978602426e-12
          8.988040827584032e-12 5.798204731689651e-12 1.8836612447249108e-11 1.2151896722783093e-11 1.2439528111915715e-11 5.4485487841433665e-12
          3.685449387322833e-12 7.707438894865145e-12 5.086751716224999e-12 5.956533698837959e-12 3.837054010120252e-12 3.8028485457388684e-12
          2.7704765149083607e-12 8.030163665030065e-12 5.1794159196092395e-12 5.039382115473244e-12 2.427238598545514e-12 1.5073909475371445e-12
          1.9107591567366697e-12 1.1946031835824557e-12 3.2680415430145906e-12 2.032391686565475e-12 2.228341746661971e-12 2.3349983443259387e-11
          1.5072974208216638e-11 1.5251637082315538e-11 9.842858643866671e-12 2.5061125767335386e-11 1.618426178072438e-11 1.6331158170546822e-11
          9.563900598936212e-12 6.244315808685662e-12 1.0272168480882202e-11 6.691130829191128e-12 9.686568349662236e-12 6.25183309207134e-12
          5.994683471871708e-12 3.8441773488849476e-12 1.0316629751325199e-11 6.658870741350365e-12 6.35488448455134e-12 3.9753611496896364e-12
          2.476418047386144e-12 2.4258107819848195e-12 1.729143903616372e-12 4.251923967416492e-12 2.65262081871207e-12 2.6115968098622475e-12
          2.008793176818332e-12 2.373286044610146e-12 1.6223925232806552e-12 1.8838288583270255e-12 1.6384359437414068e-12 1.8679271588588924e-12
          1.5350944942291586e-12 3.0777350721318265e-12 2.1711577209233725e-12 2.338906006078511e-12 3.6176481216554565e-12 2.3298858195913397e-12
          2.7053072612744903e-12 1.7855061591526944e-12 3.817605011449221e-12 2.4756676544843197e-12 2.830220884368337e-12 1.375310899465069e-12
          1.464406840342492e-12 1.0922490676925528e-12 1.1376345817833537e-12 1.1291127040033378e-12 1.1497246534313012e-12 9.168839952450634e-13
          1.5535027812199147e-12 1.1830200958741548e-12 1.1703366028592646e-12 3.170180719164832e-10 7.458097866428353e-11 6.204126771801411e-11
          2.458425471254263e-10 3.5841198339808043e-10 6.413324116500459e-11 6.826210944668335e-11 2.35672674839423e-10 1.6815511457144778e-11
          1.5615361636319857e-11 1.1606338811206353e-11 4.723697266173235e-11 2.5098054361947033e-11 8.505740329260242e-11 4.0487628552136094e-11
          9.5450736246152e-12 2.5047103813913102e-11 7.668658438216095e-11 6.595108197277251e-12 2.668485024413459e-12 3.4570165288835372e-12
          2.1715616660630605e-12 3.4816667659822185e-12 3.628450115290274e-11 1.3655215004888668e-11 4.273060014241089e-11 2.5522314830331877e-11
          5.633441960616658e-11 4.096080490620177e-11 6.616310435922983e-11 5.916282348827041e-12 6.271041736768038e-12 7.577790212142538e-12
          2.7475007516946227e-12 2.268150465692887e-12 2.857530312323461e-12 2.9810160031042395e-12 5.1391697540692335e-12 6.386615844002152e-11
          3.9003909083921734e-11 4.7555753330865084e-11 3.348956799162252e-11 4.144682751466702e-11 3.153902545756443e-11 6.970606416167169e-11
          4.940408703771152e-11 6.015789208426734e-12 7.1431883932279994e-12 3.973241333943738e-12 4.068725356421698e-12 4.601821807415543e-12
          4.763342740698055e-12 8.270587578029265e-12 4.438338671710698e-12 4.164209378899658e-12 4.924863673980566e-12 3.94164762855777e-11
          2.437747625044285e-11 4.9470626536373524e-11 2.991542060882226e-11 2.1875657637807912e-11 4.4111383063531006e-11 2.5127240698393765e-11
          5.0098477644826404e-11 2.9986642608373205e-11 4.039714532626683e-11 5.441580011443123e-12 3.3759066802693897e-12 2.2734638070730082e-12
          2.3732188325679703e-12 2.4652117832247622e-12 1.1600148681803289e-11 9.553217718620083e-12 1.1369889571733467e-11 8.923729597518222e-12
          8.21645002148034e-12 1.931124369943248e-12 1.874039749096231e-12 1.910933766065915e-12 1.3665238089020213e-12 1.1913847752757337e-12
          1.916408270271057e-12 2.1987438339598376e-12 1.3315897987214064e-12 4.424010072443824e-12 3.797834779612912e-12 3.908386432966335e-12
          1.8320473619716008e-11 3.4624256087412816e-11 3.345753929250195e-11 2.0438069654010932e-11 3.9343246884790604e-11 3.89390863896441e-11
          2.255566568830586e-11 4.40622376821684e-11 1.338028664156156e-11 7.445040178244903e-12 1.0944107893330665e-11 4.277284914777389e-12
          7.246433325110597e-12 6.271926007794061e-12 5.293787700402816e-12 3.113231769029517e-11 2.1014898208937878e-11 1.7938604144798367e-11
          2.6578894104025082e-11 1.3974090795633172e-11 1.1928108614238958e-11 9.852498447485865e-12 4.9550638965198974e-11 3.352585141491488e-11
          2.2327886478118808e-11 1.8075948190362836e-11 9.04177273332814e-11 6.133808923494584e-11 4.0913204606369445e-11 3.237144548553922e-11
          1.543672501541996e-10 1.0511118478526212e-10 7.028453987717603e-11 5.454761466475601e-11 2.276234242087805e-10 1.5581563875898393e-10
          1.0462689082794462e-10 8.075749047886163e-11 2.755055727356831e-10 1.8978240377216908e-10 1.2814317743460256e-10 1.0005329836703857e-10
          2.880865566829211e-10 1.99103281245428e-10 1.3484136658349953e-10 1.062978877636498e-10 2.3986301922366276e-12 3.4578134329346187e-12
          1.3050326270359831e-12 2.231968009526804e-12 1.797128350766104e-12 1.5815700370205686e-12 6.449844618061977e-12 4.161298677688642e-12
          3.2981165168608502e-12 1.1466908348683775e-12 1.016632463050255e-12 2.0959933838872715e-12 1.8081833174032776e-12 1.184676478875353e-11
          7.647767286121707e-12 5.985147212662869e-12 2.1228312083104815e-11 1.3694540738969032e-11 1.0440440631982763e-11 3.810426993283065e-12
          2.8726551189276716e-12 6.62543091184454e-12 4.883930405756725e-12 3.5805782113661865e-11 2.3098849729674653e-11 1.7200816275246664e-11
          5.313361315930553e-11 3.43312266601198e-11 2.5269833851445356e-11 1.0908280136992338e-11 7.832040790066322e-12 1.6030613769870154e-11
          1.1320243363495524e-11 6.605592948824138e-11 4.2806354085937455e-11 3.1620064271529236e-11 7.031040973400149e-11 4.5640685184165745e-11
          3.388449759279583e-11 2.008973684234529e-11 1.4149495640767175e-11 2.1549388966343464e-11 1.5205508368715606e-11 1.392318994132586e-11
          2.5712209275576643e-11 1.734284923157448e-11 1.3963828538125775e-11 3.8274810438579664e-11 2.5256760164967456e-11 5.382054609387317e-11
          3.467085109084692e-11 2.1848111722427645e-11 7.015988807997846e-11 4.416060266423576e-11 2.7480429505151607e-11 1.1922706046365505e-11
          1.3671904686975018e-11 1.0682957816555592e-11 1.687041951897336e-11 8.300210490299253e-11 5.1506180031474465e-11 3.1593521112282577e-11