<?xml version="1.0"?>
<VTKFile type="UnstructuredGrid" version="0.1" byte_order="LittleEndian" header_type="UInt32" compressor="vtkZLibDataCompressor">
  <UnstructuredGrid>
    <Piece NumberOfPoints="2275" NumberOfCells="1592">
      <PointData>
        <DataArray type="Int32" Name="libmesh_node_id" format="ascii" RangeMin="878" RangeMax="22182">
          878 1938 1940 1942 1945 1953
          1955 1957 1959 4076 4196 4197
          4200 4202 4203 4204 4205 4230
          4231 4232 4233 4234 4236 4237
          4238 4239 4243 4247 4249 4251
          4253 4254 4255 4256 4257 4258
          4259 4260 4261 4262 4263 4264
          4265 4266 4274 4275 4276 4277
          4278 4279 4280 4285 4287 6372
          6374 6378 6379 6380 6382 6388
          6389 6906 6907 6908 6909 6910
          6911 6912 6913 6914 6915 6916
          6917 6920 6922 6923 6925 6930
          6931 6932 6937 6939 6940 6941
          6942 6943 6944 6945 6946 6947
          6948 6949 6950 6951 6952 6953
          6954 6955 6956 6957 6958 6959
          6960 6961 6962 6963 6964 6965
          6966 6967 6968 6969 6971 6972
          6973 6976 6980 6981 6982 6983
          6984 6985 6990 6991 6997 7014
          7015 7018 7019 7021 7025 7088
          7089 7094 7110 7111 7112 7113
          7114 7115 7116 7117 7118 7119
          7120 7121 7122 7123 7124 7125
          7126 7127 7128 7129 7130 7131
          7132 7133 7134 7135 7136 7137
          7138 7139 7141 7142 7143 7144
          7145 7146 7147 7148 7149 7150
          7151 7152 7153 7154 7155 7156
          7157 7158 7159 7160 7161 7162
          7163 7164 7165 7166 7167 7168
          7169 7170 7171 7172 7173 7175
          7176 7177 7181 7182 7183 7184
          7185 7186 7194 7195 7196 7197
          7198 7199 7200 7201 7202 7203
          7204 7205 7206 7207 7211 7214
          7215 7218 7219 7220 7228 7229
          7230 7231 7232 7233 7234 7235
          7237 7239 7241 7242 7243 7244
          7245 7246 7247 7248 7249 7251
          7253 7255 7256 7257 7258 7259
          7260 7261 7264 7268 7278 7282
          7290 7291 7292 7293 7294 7295
          7298 7300 7301 7302 7310 7311
          7312 7313 7314 7315 7316 7317
          7319 7321 7323 7708 7709 7712
          7714 7715 7717 7728 7732 7893
          7894 7897 7899 7900 7902 7913
          7917 7927 7928 7931 7933 7934
          7936 7947 7951 13730 13731 13732
          13733 13737 13738 13739 13740 13744
          13745 13746 13747 13748 13749 13750
          13751 13752 13753 13754 13755 13756
          13757 13758 13759 13760 13761 13762
          13763 13764 13765 13766 13767 13769
          13776 13777 13778 13786 13787 13804
          13805 13806 13807 13808 13809 13810
          13811 13812 13813 13814 13815 13818
          13820 13821 13823 13824 13825 13828
          13829 13831 13835 16116 16117 16118
          16119 16120 16121 16122 16123 16124
          16125 16126 16127 16128 16129 16130
          16131 16132 16133 16134 16135 16136
          16137 16138 16139 16140 16141 16142
          16143 16144 16145 16146 16147 16148
          16149 16150 16151 16152 16153 16154
          16155 16156 16157 16158 16159 16160
          16161 16162 16163 16164 16165 16166
          16167 16168 16169 16170 16171 16172
          16173 16174 16175 16176 16177 16178
          16179 16180 16181 16182 16183 16184
          16185 16186 16187 16188 16189 16190
          16191 16192 16193 16196 16198 16199
          16201 16202 16203 16204 16205 16206
          16207 16208 16209 16211 16213 16215
          16216 16217 16218 16219 16220 16221
          16222 16223 16224 16225 16226 16227
          16230 16232 16233 16235 16236 16237
          16238 16239 16240 16241 16242 16243
          16245 16247 16249 16250 16252 16256
          16257 16258 16259 16260 16261 16262
          16263 16266 16267 16269 16273 16290
          16291 16292 16293 16294 16295 16296
          16297 16299 16301 16303 16304 16305
          16306 16307 16308 16309 16310 16311
          16313 16315 16317 16318 16319 16320
          16321 16322 16323 16324 16325 16326
          16327 16328 16329 16330 16331 16332
          16333 16334 16335 16336 16337 16338
          16339 16340 16341 16342 16343 16344
          16345 16346 16347 16348 16349 16350
          16351 16352 16353 16354 16355 16356
          16357 16358 16359 16360 16361 16362
          16363 16364 16365 16366 16367 16368
          16369 16370 16371 16372 16373 16374
          16375 16376 16377 16378 16379 16380
          16381 16382 16383 16384 16385 16386
          16387 16388 16389 16390 16391 16392
          16393 16394 16395 16396 16397 16400
          16402 16403 16404 16405 16406 16407
          16408 16409 16410 16411 16412 16413
          16415 16417 16418 16419 16420 16421
          16422 16423 16424 16425 16426 16427
          16428 16429 16430 16431 16432 16433
          16434 16435 16436 16437 16438 16439
          16440 16441 16442 16443 16444 16445
          16446 16447 16448 16449 16450 16451
          16452 16453 16454 16455 16456 16457
          16458 16459 16460 16461 16462 16463
          16464 16465 16466 16467 16468 16469
          16470 16471 16472 16473 16474 16475
          16476 16477 16478 16479 16480 16481
          16482 16483 16484 16485 16487 16489
          16490 16491 16492 16493 16494 16495
          16496 16497 16498 16499 16501 16503
          16505 16506 16507 16508 16509 16510
          16511 16512 16513 16514 16515 16516
          16517 16518 16519 16520 16521 16522
          16523 16524 16525 16526 16527 16529
          16531 16533 16540 16541 16542 16543
          16545 16574 16575 16576 16577 16578
          16579 16580 16581 16583 16585 16587
          16670 16671 16672 16673 16675 16676
          16677 16678 16679 16681 16682 16683
          16684 16685 16686 16687 16688 16689
          16691 16693 16695 16710 16711 16712
          16713 16714 16715 16716 16717 16719
          16721 16723 17087 17101 17115 17116
          17118 17121 17131 17135 17217 17218
          17219 17220 17221 17222 17223 17224
          17225 17226 17227 17228 17229 17230
          17231 17232 17233 17234 17235 17236
          17237 17238 17239 17240 17241 17242
          17243 17244 17245 17246 17247 17248
          17249 17250 17251 17252 17253 17254
          17255 17256 17257 17258 17259 17260
          17261 17262 17263 17264 17265 17266
          17267 17268 17269 17270 17271 17272
          17273 17274 17275 17276 17277 17278
          17279 17280 17281 17282 17283 17284
          17285 17286 17287 17288 17289 17290
          17291 17292 17293 17294 17295 17296
          17297 17298 17299 17300 17301 17302
          17303 17304 17305 17306 17307 17308
          17309 17310 17311 17312 17313 17314
          17315 17316 17317 17318 17319 17320
          17321 17322 17323 17324 17325 17326
          17327 17328 17329 17330 17331 17332
          17333 17334 17335 17336 17337 17338
          17339 17340 17341 17342 17343 17344
          17345 17346 17347 17348 17349 17350
          17351 17352 17353 17354 17355 17356
          17357 17358 17359 17360 17361 17362
          17363 17364 17365 17366 17367 17368
          17369 17370 17371 17372 17373 17374
          17375 17376 17377 17378 17379 17380
          17381 17382 17383 17384 17385 17386
          17387 17388 17389 17390 17391 17392
          17393 17394 17395 17396 17397 17398
          17399 17400 17401 17402 17403 17404
          17405 17406 17407 17408 17410 17412
          17414 17415 17416 17417 17418 17419
          17420 17421 17422 17423 17424 17425
          17426 17427 17428 17429 17430 17431
          17432 17433 17434 17435 17436 17438
          17440 17442 17443 17444 17445 17446
          17447 17448 17449 17450 17451 17452
          17453 17454 17455 17456 17457 17458
          17459 17460 17461 17462 17463 17464
          17465 17466 17467 17468 17469 17470
          17471 17472 17473 17474 17475 17476
          17477 17478 17479 17480 17481 17482
          17483 17484 17485 17486 17487 17488
          17489 17490 17491 17492 17493 17494
          17495 17496 17497 17498 17499 17500
          17501 17502 17503 17504 17505 17506
          17507 17508 17509 17510 17511 17512
          17513 17514 17515 17516 17517 17518
          17519 17520 17521 17522 17523 17524
          17525 17526 17527 17528 17529 17530
          17531 17532 17533 17534 17535 17536
          17537 17538 17539 17540 17541 17542
          17543 17544 17545 17546 17547 17548
          17549 17550 17551 17552 17553 17554
          17555 17556 17557 17558 17559 17560
          17561 17562 17563 17564 17565 17566
          17567 17568 17569 17570 17571 17572
          17573 17574 17575 17576 17577 17578
          17579 17580 17581 17582 17583 17584
          17585 17586 17587 17588 17589 17590
          17591 17592 17593 17594 17595 17596
          17597 17598 17599 17600 17601 17602
          17603 17604 17605 17606 17607 17608
          17609 17610 17611 17612 17613 17614
          17615 17616 17617 17618 17619 17620
          17621 17622 17623 17624 17625 17626
          17627 17628 17629 17630 17631 17632
          17633 17634 17636 17638 17640 17641
          17642 17643 17644 17645 17646 17647
          17648 17649 17650 17651 17652 17653
          17654 17655 17656 17657 17658 17659
          17660 17661 17662 17664 17666 17668
          17669 17670 17671 17672 17673 17674
          17675 17676 17677 17678 17679 17680
          17681 17682 17683 17684 17685 17686
          17687 17688 17690 17692 17694 17695
          17697 17699 17701 17709 17710 17711
          17712 17713 17714 17715 17716 17718
          17720 17722 17723 17725 17727 17728
          17729 17737 17738 17739 17740 17742
          17743 17744 17745 17746 17747 17748
          17749 17751 17753 17755 17763 17767
          17777 17779 17781 17783 17791 17793
          17795 17797 17805 17806 17807 17808
          17809 17810 17811 17812 17813 17814
          17815 17816 17817 17818 17819 17820
          17821 17822 17823 17824 17826 17828
          17830 17831 17832 17833 17834 17835
          17836 17837 17845 17846 17847 17848
          17849 17850 17851 17852 17854 17856
          17858 17859 17860 17861 17862 17863
          17864 17865 17873 17874 17875 17876
          17877 17878 17879 17880 17881 17882
          17883 17884 17885 17886 17887 17888
          17889 17890 17891 17899 17900 17901
          17902 17903 17904 17905 17913 17914
          17915 17916 17917 17918 17919 17927
          17928 17929 17930 17931 17932 17933
          18012 18013 18014 18029 18031 18033
          18035 18043 18044 18045 18046 18047
          18048 18049 18050 18051 18052 18053
          18054 18055 18063 18064 18065 18066
          18067 18068 18069 20624 20625 20626
          20627 20642 20643 20644 20652 20653
          20654 20655 20656 20657 20658 20659
          20660 20661 20672 20673 20674 20675
          20676 20677 20678 20758 20759 20760
          20782 20783 20784 20785 20786 20787
          20788 21744 21745 21746 21747 21748
          21749 21750 21751 21752 21753 21764
          21765 21766 21767 21768 21769 21770
          21778 21779 21780 21781 21782 21783
          21784 21785 21786 21787 21794 21795
          21797 21798 21799 21800 21801 21802
          21803 21804 21809 21811 21880 21881
          21882 21883 21884 21885 21886 21908
          21909 21910 21911 21912 21913 21914
          21919 21921 21992 21993 21994 21995
          21996 21997 21998 21999 22000 22001
          22002 22003 22006 22008 22009 22011
          22012 22013 22014 22015 22016 22017
          22018 22019 22021 22023 22025 22026
          22027 22028 22029 22030 22031 22032
          22033 22034 22035 22036 22037 22040
          22042 22043 22045 22046 22047 22048
          22049 22050 22051 22052 22053 22055
          22057 22059 22128 22129 22130 22131
          22132 22133 22134 22135 22137 22139
          22141 22156 22157 22158 22159 22160
          22161 22162 22163 22165 22167 22169
          1169 1170 1280 1278 1174 879
          1285 1284 1914 1923 1925 1947
          1949 1924 1954 1956 1951 1958
          4206 4207 4209 4208 4210 4211
          4212 4240 4241 4242 4244 4245
          4246 1166 4086 4105 4097 4148
          1905 4106 4107 1931 4115 4117
          4267 4269 4271 4273 4182 1172
          4281 4283 4282 4284 4286 4062
          6344 6345 6305 6322 6373 6323
          4070 6346 6375 6376 6325 6328
          6381 4068 6377 4077 6396 6336
          6853 6926 6866 6397 6927 4189
          6870 6928 6868 4191 6929 6887
          6900 6902 6904 1937 6986 6974
          6987 6988 6975 6992 6989 4213
          7016 7017 7020 4217 7004 6979
          7028 7006 7030 7032 7034 7070
          7072 7074 4225 7104 7106 7108
          1943 7033 7216 4219 7217 6466
          6485 6477 6978 7002 7262 6487
          6486 7263 7265 7266 7267 7276
          7277 7279 7280 7281 7296 7297
          7299 7303 7305 7307 7309 7308
          7318 7320 7322 13552 13566 13567
          13569 1902 13572 13734 13770 13771
          13735 13772 13773 13774 13736 13779
          13775 6383 13780 13781 13782 13783
          6384 13788 13784 13789 13785 6385
          13816 13817 13819 1167 13822 6390
          13794 13743 13795 13796 13826 13768
          6386 13827 13830 6391 13801 13802
          13832 13803 13833 6387 13834 13836
          13837 4078 15856 15857 15859 6850
          15862 6851 13578 15872 15874 15876
          15890 15891 15893 4188 15896 6856
          15906 15908 15910 16194 16195 16197
          6918 16200 6919 16210 16212 16214
          6921 16228 16229 16231 4198 16234
          6924 16244 16246 16248 4199 13882
          13846 13883 13884 16264 16251 6403
          16265 16268 6933 13889 13890 16270
          13891 16271 6404 16272 16274 16275
          6934 16298 16300 16302 6938 16280
          16255 16281 16282 6935 16287 16288
          16312 16289 6936 16314 16316 4201
          16004 16005 16007 6884 16010 6885
          16020 16022 16024 16038 16039 16041
          1936 16044 6890 16054 16056 16058
          4194 16398 16399 16401 16414 16416
          16100 16110 16112 16114 16486 16488
          16500 16502 16504 6970 16528 16530
          16532 1939 16550 16536 16551 16552
          6993 16557 16558 16582 16559 6994
          16584 16586 6998 16564 16539 16588
          16565 16589 16566 16590 16544 16592
          16593 16594 16571 16595 16572 16596
          16599 16600 16690 16692 16694 7022
          16696 16697 16698 16674 16700 16701
          16702 16703 16704 16707 16708 16718
          16720 16722 7026 16724 16725 16726
          16680 16728 16729 16730 16731 16732
          16735 16736 17079 17081 17082 17080
          17085 17086 17084 17083 17088 17097
          17096 17100 17099 17098 7091 17102
          17113 17114 17117 17119 17120 17122
          17130 17133 17132 17134 4228 17136
          16886 16887 16889 7054 16892 7055
          16902 16904 16906 7057 16920 16921
          16923 4222 16926 7060 16936 16938
          16940 4223 16981 16983 16985 16995
          16997 16999 17409 17411 17413 7140
          17437 17439 17441 4235 17197 17199
          17201 17211 17213 17215 17635 17637
          17639 7174 17663 17665 17667 1944
          17689 17691 17693 7208 17696 7027
          17698 17700 7209 17702 17703 17706
          17707 17717 17719 17721 7212 17724
          17726 7213 17730 17731 17734 17735
          17732 17736 16782 16746 16783 17750
          16784 7039 17752 17754 7221 16796
          16749 16797 17764 16798 17765 17741
          7041 17766 17768 17769 7223 17778
          17780 17782 7225 17792 17794 17796
          7227 17825 17827 17829 7236 17838
          17839 17840 17842 17843 17844 17853
          17855 17857 7240 17866 17867 17868
          17870 17871 17872 17788 17892 17790
          17894 17896 17898 17802 17906 17804
          17908 17910 17912 17920 17922 17924
          17926 17934 17936 17938 17940 18019
          18011 18020 18030 18021 18032 18034
          18040 18056 18042 18058 18060 18062
          18070 18072 18074 18076 20618 20619
          20620 20621 20622 20623 20628 20629
          20634 20635 20632 20637 20638 20639
          20640 20641 20645 20649 20647 20651
          20662 20663 20666 20668 20669 20671
          20679 20681 20683 20685 20754 20755
          20756 20757 20761 20765 20763 20767
          20768 20772 20769 20773 20775 20779
          20789 20791 20793 20795 20796 20797
          20800 20801 20803 20807 21754 21755
          21758 21760 21761 21763 21771 21773
          21775 21777 21788 21789 21792 21790
          21791 4393 21796 21793 7901 21805
          21807 21806 21810 21808 4394 21887
          21889 21891 21893 21894 21895 21898
          21899 21901 21905 21915 21917 21916
          21920 21918 7918 21922 21923 21926
          21927 21929 21933 21930 21934 22004
          22005 22007 7929 22010 7930 22020
          22022 22024 7932 22038 22039 22041
          4399 22044 7935 22054 22056 22058
          4400 22136 22138 22140 7948 22142
          22143 22146 22147 22149 22150 22153
          22154 22164 22166 22168 7952 22170
          22171 22174 22175 22177 22178 22181
          22182
        </DataArray>
        <DataArray type="Float64" Name="bounds" format="ascii" RangeMin="0" RangeMax="0">
          0 0 0 0 0 0
          0 0 0 0 0 0
          0 0 0 0 0 0
          0 0 0 0 0 0
          0 0 0 0 0 0
          0 0 0 0 0 0
          0 0 0 0 0 0
          0 0 0 0 0 0
          0 0 0 0 0 0
          0 0 0 0 0 0
          0 0 0 0 0 0
          0 0 0 0 0 0
          0 0 0 0 0 0
          0 0 0 0 0 0
          0 0 0 0 0 0
          0 0 0 0 0 0
          0 0 0 0 0 0
          0 0 0 0 0 0
          0 0 0 0 0 0
          0 0 0 0 0 0
          0 0 0 0 0 0
          0 0 0 0 0 0
          0 0 0 0 0 0
          0 0 0 0 0 0
          0 0 0 0 0 0
          0 0 0 0 0 0
          0 0 0 0 0 0
          0 0 0 0 0 0
          0 0 0 0 0 0
          0 0 0 0 0 0
          0 0 0 0 0 0
          0 0 0 0 0 0
          0 0 0 0 0 0
          0 0 0 0 0 0
          0 0 0 0 0 0
          0 0 0 0 0 0
          0 0 0 0 0 0
          0 0 0 0 0 0
          0 0 0 0 0 0
          0 0 0 0 0 0
          0 0 0 0 0 0
          0 0 0 0 0 0
          0 0 0 0 0 0
          0 0 0 0 0 0
          0 0 0 0 0 0
          0 0 0 0 0 0
          0 0 0 0 0 0
          0 0 0 0 0 0
          0 0 0 0 0 0
          0 0 0 0 0 0
          0 0 0 0 0 0
          0 0 0 0 0 0
          0 0 0 0 0 0
          0 0 0 0 0 0
          0 0 0 0 0 0
          0 0 0 0 0 0
          0 0 0 0 0 0
          0 0 0 0 0 0
          0 0 0 0 0 0
          0 0 0 0 0 0
          0 0 0 0 0 0
          0 0 0 0 0 0
          0 0 0 0 0 0
          0 0 0 0 0 0
          0 0 0 0 0 0
          0 0 0 0 0 0
          0 0 0 0 0 0
          0 0 0 0 0 0
          0 0 0 0 0 0
          0 0 0 0 0 0
          0 0 0 0 0 0
          0 0 0 0 0 0
          0 0 0 0 0 0
          0 0 0 0 0 0
          0 0 0 0 0 0
          0 0 0 0 0 0
          0 0 0 0 0 0
          0 0 0 0 0 0
          0 0 0 0 0 0
          0 0 0 0 0 0
          0 0 0 0 0 0
          0 0 0 0 0 0
          0 0 0 0 0 0
          0 0 0 0 0 0
          0 0 0 0 0 0
          0 0 0 0 0 0
          0 0 0 0 0 0
          0 0 0 0 0 0
          0 0 0 0 0 0
          0 0 0 0 0 0
          0 0 0 0 0 0
          0 0 0 0 0 0
          0 0 0 0 0 0
          0 0 0 0 0 0
          0 0 0 0 0 0
          0 0 0 0 0 0
          0 0 0 0 0 0
          0 0 0 0 0 0
          0 0 0 0 0 0
          0 0 0 0 0 0
          0 0 0 0 0 0
          0 0 0 0 0 0
          0 0 0 0 0 0
          0 0 0 0 0 0
          0 0 0 0 0 0
          0 0 0 0 0 0
          0 0 0 0 0 0
          0 0 0 0 0 0
          0 0 0 0 0 0
          0 0 0 0 0 0
          0 0 0 0 0 0
          0 0 0 0 0 0
          0 0 0 0 0 0
          0 0 0 0 0 0
          0 0 0 0 0 0
          0 0 0 0 0 0
          0 0 0 0 0 0
          0 0 0 0 0 0
          0 0 0 0 0 0
          0 0 0 0 0 0
          0 0 0 0 0 0
          0 0 0 0 0 0
          0 0 0 0 0 0
          0 0 0 0 0 0
          0 0 0 0 0 0
          0 0 0 0 0 0
          0 0 0 0 0 0
          0 0 0 0 0 0
          0 0 0 0 0 0
          0 0 0 0 0 0
          0 0 0 0 0 0
          0 0 0 0 0 0
          0 0 0 0 0 0
          0 0 0 0 0 0
          0 0 0 0 0 0
          0 0 0 0 0 0
          0 0 0 0 0 0
          0 0 0 0 0 0
          0 0 0 0 0 0
          0 0 0 0 0 0
          0 0 0 0 0 0
          0 0 0 0 0 0
          0 0 0 0 0 0
          0 0 0 0 0 0
          0 0 0 0 0 0
          0 0 0 0 0 0
          0 0 0 0 0 0
          0 0 0 0 0 0
          0 0 0 0 0 0
          0 0 0 0 0 0
          0 0 0 0 0 0
          0 0 0 0 0 0
          0 0 0 0 0 0
          0 0 0 0 0 0
          0 0 0 0 0 0
          0 0 0 0 0 0
          0 0 0 0 0 0
          0 0 0 0 0 0
          0 0 0 0 0 0
          0 0 0 0 0 0
          0 0 0 0 0 0
          0 0 0 0 0 0
          0 0 0 0 0 0
          0 0 0 0 0 0
          0 0 0 0 0 0
          0 0 0 0 0 0
          0 0 0 0 0 0
          0 0 0 0 0 0
          0 0 0 0 0 0
          0 0 0 0 0 0
          0 0 0 0 0 0
          0 0 0 0 0 0
          0 0 0 0 0 0
          0 0 0 0 0 0
          0 0 0 0 0 0
          0 0 0 0 0 0
          0 0 0 0 0 0
          0 0 0 0 0 0
          0 0 0 0 0 0
          0 0 0 0 0 0
          0 0 0 0 0 0
          0 0 0 0 0 0
          0 0 0 0 0 0
          0 0 0 0 0 0
          0 0 0 0 0 0
          0 0 0 0 0 0
          0 0 0 0 0 0
          0 0 0 0 0 0
          0 0 0 0 0 0
          0 0 0 0 0 0
          0 0 0 0 0 0
          0 0 0 0 0 0
          0 0 0 0 0 0
          0 0 0 0 0 0
          0 0 0 0 0 0
          0 0 0 0 0 0
          0 0 0 0 0 0
          0 0 0 0 0 0
          0 0 0 0 0 0
          0 0 0 0 0 0
          0 0 0 0 0 0
          0 0 0 0 0 0
          0 0 0 0 0 0
          0 0 0 0 0 0
          0 0 0 0 0 0
          0 0 0 0 0 0
          0 0 0 0 0 0
          0 0 0 0 0 0
          0 0 0 0 0 0
          0 0 0 0 0 0
          0 0 0 0 0 0
          0 0 0 0 0 0
          0 0 0 0 0 0
          0 0 0 0 0 0
          0 0 0 0 0 0
          0 0 0 0 0 0
          0 0 0 0 0 0
          0 0 0 0 0 0
          0 0 0 0 0 0
          0 0 0 0 0 0
          0 0 0 0 0 0
          0 0 0 0 0 0
          0 0 0 0 0 0
          0 0 0 0 0 0
          0 0 0 0 0 0
          0 0 0 0 0 0
          0 0 0 0 0 0
          0 0 0 0 0 0
          0 0 0 0 0 0
          0 0 0 0 0 0
          0 0 0 0 0 0
          0 0 0 0 0 0
          0 0 0 0 0 0
          0 0 0 0 0 0
          0 0 0 0 0 0
          0 0 0 0 0 0
          0 0 0 0 0 0
          0 0 0 0 0 0
          0 0 0 0 0 0
          0 0 0 0 0 0
          0 0 0 0 0 0
          0 0 0 0 0 0
          0 0 0 0 0 0
          0 0 0 0 0 0
          0 0 0 0 0 0
          0 0 0 0 0 0
          0 0 0 0 0 0
          0 0 0 0 0 0
          0 0 0 0 0 0
          0 0 0 0 0 0
          0 0 0 0 0 0
          0 0 0 0 0 0
          0 0 0 0 0 0
          0 0 0 0 0 0
          0 0 0 0 0 0
          0 0 0 0 0 0
          0 0 0 0 0 0
          0 0 0 0 0 0
          0 0 0 0 0 0
          0 0 0 0 0 0
          0 0 0 0 0 0
          0 0 0 0 0 0
          0 0 0 0 0 0
          0 0 0 0 0 0
          0 0 0 0 0 0
          0 0 0 0 0 0
          0 0 0 0 0 0
          0 0 0 0 0 0
          0 0 0 0 0 0
          0 0 0 0 0 0
          0 0 0 0 0 0
          0 0 0 0 0 0
          0 0 0 0 0 0
          0 0 0 0 0 0
          0 0 0 0 0 0
          0 0 0 0 0 0
          0 0 0 0 0 0
          0 0 0 0 0 0
          0 0 0 0 0 0
          0 0 0 0 0 0
          0 0 0 0 0 0
          0 0 0 0 0 0
          0 0 0 0 0 0
          0 0 0 0 0 0
          0 0 0 0 0 0
          0 0 0 0 0 0
          0 0 0 0 0 0
          0 0 0 0 0 0
          0 0 0 0 0 0
          0 0 0 0 0 0
          0 0 0 0 0 0
          0 0 0 0 0 0
          0 0 0 0 0 0
          0 0 0 0 0 0
          0 0 0 0 0 0
          0 0 0 0 0 0
          0 0 0 0 0 0
          0 0 0 0 0 0
          0 0 0 0 0 0
          0 0 0 0 0 0
          0 0 0 0 0 0
          0 0 0 0 0 0
          0 0 0 0 0 0
          0 0 0 0 0 0
          0 0 0 0 0 0
          0 0 0 0 0 0
          0 0 0 0 0 0
          0 0 0 0 0 0
          0 0 0 0 0 0
          0 0 0 0 0 0
          0 0 0 0 0 0
          0 0 0 0 0 0
          0 0 0 0 0 0
          0 0 0 0 0 0
          0 0 0 0 0 0
          0 0 0 0 0 0
          0 0 0 0 0 0
          0 0 0 0 0 0
          0 0 0 0 0 0
          0 0 0 0 0 0
          0 0 0 0 0 0
          0 0 0 0 0 0
          0 0 0 0 0 0
          0 0 0 0 0 0
          0 0 0 0 0 0
          0 0 0 0 0 0
          0 0 0 0 0 0
          0 0 0 0 0 0
          0 0 0 0 0 0
          0 0 0 0 0 0
          0 0 0 0 0 0
          0 0 0 0 0 0
          0 0 0 0 0 0
          0 0 0 0 0 0
          0 0 0 0 0 0
          0 0 0 0 0 0
          0 0 0 0 0 0
          0 0 0 0 0 0
          0 0 0 0 0 0
          0 0 0 0 0 0
          0 0 0 0 0 0
          0 0 0 0 0 0
          0 0 0 0 0 0
          0 0 0 0 0 0
          0 0 0 0 0 0
          0 0 0 0 0 0
          0 0 0 0 0 0
          0 0 0 0 0 0
          0 0 0 0 0 0
          0 0 0 0 0 0
          0 0 0 0 0 0
          0 0 0 0 0 0
          0 0 0 0 0 0
          0 0 0 0 0 0
          0 0 0 0 0 0
          0 0 0 0 0 0
          0 0 0 0 0 0
          0 0 0 0 0 0
          0 0 0 0 0 0
          0 0 0 0 0 0
          0 0 0 0 0 0
          0 0 0 0 0 0
          0 0 0 0 0 0
          0 0 0 0 0 0
          0 0 0 0 0 0
          0 0 0 0 0 0
          0 0 0 0 0 0
          0 0 0 0 0 0
          0 0 0 0 0 0
          0 0 0 0 0 0
          0 0 0 0 0 0
          0 0 0 0 0 0
          0 0 0 0 0 0
          0 0 0 0 0 0
          0 0 0 0 0 0
          0 0 0 0 0 0
          0 0 0 0 0 0
          0 0 0 0 0 0
          0 0 0 0 0 0
          0
        </DataArray>
        <DataArray type="Float64" Name="gradient_error" format="ascii" RangeMin="3.339204636003254e-23" RangeMax="4.4373711122872317e-7">
          4.141165643116356e-8 3.2572404974459014e-8 3.2037531075384594e-8 1.0730920021107877e-8 3.8132605747683e-8 2.5110574276521274e-9
          1.9482370311151516e-9 2.9443449825498645e-9 2.2478119140490217e-9 1.963097040099282e-8 2.76152186768842e-8 8.843212198828126e-8
          3.81593178595144e-8 3.4888533584788406e-8 8.549604472688888e-8 2.7101357290366458e-8 5.3815103417719174e-8 2.8642659381802835e-8
          6.210474033329309e-8 3.8793401112480345e-8 3.349493269518685e-8 6.873915781254762e-8 2.1998333048803656e-8 6.358218486952767e-8
          3.603341834750202e-8 7.379548123482712e-8 3.676129023700285e-8 1.0587237400300206e-8 1.2340207880372431e-9 1.1383595510202556e-8
          1.2968965673390367e-9 1.752861223828844e-8 1.3474841979964024e-8 2.2621237000749976e-8 2.637223964309925e-8 2.034767824789052e-8
          2.7957664295800194e-8 1.2748618172801631e-8 4.4285424709750744e-9 8.574895820453158e-9 2.3505179174404915e-9 1.66184411501229e-8
          5.894785194593713e-9 1.116324837900683e-8 1.9735754833030037e-8 7.256853379662787e-9 1.2865342597904566e-8 3.512799908640549e-9
          2.1105300016470806e-8 7.885578681926726e-9 1.3490721539890001e-8 7.12707027767277e-10 1.0932006153101442e-9 9.142802454148677e-8
          5.677139950100503e-8 1.738049034199327e-8 1.1617361576919095e-7 9.074497515405711e-8 1.8916120746090675e-8 2.371592788809432e-8
          3.070979437721623e-8 2.114796621466683e-8 6.91684074864223e-8 2.1427246211943766e-8 7.019320998422317e-8 1.5225486955186717e-7
          1.034235467149158e-7 2.448705610081448e-8 4.251752726866342e-8 4.502127450584203e-8 1.5158579568259218e-7 2.4361133011083587e-8
          3.7355806330912014e-8 2.397233827776052e-8 2.6165887510737443e-8 4.2714278435689704e-8 2.9690070150351725e-8 1.8272020788408518e-7
          9.264852206196018e-8 7.811131591270444e-8 1.1715970991385388e-8 3.928576006797401e-9 2.6673670664192106e-8 4.9291482143395944e-8
          3.180593213055845e-8 5.1471255220060434e-8 1.4241765881131712e-7 1.071812993226962e-7 2.8039541247037398e-8 5.646223154156974e-8
          5.872988563136136e-8 8.737826026625014e-8 3.2357410166534494e-8 4.816235538158856e-8 3.075159245512187e-8 3.9594049104280426e-8
          3.5969318384071325e-8 2.3207099117769124e-8 3.8853888802727515e-8 5.388665836228933e-8 4.4056721311229117e-8 4.22978850681623e-8
          1.8156787216342756e-7 1.1198974643660721e-7 9.442272427866042e-8 4.566534402605208e-8 1.3595732647429535e-7 9.045812321478573e-8
          1.1271664208831405e-7 1.4211766412297608e-8 8.054326464968023e-9 4.815563727864341e-9 1.6531053119530783e-8 9.491331762401482e-9
          5.663097286004525e-9 4.211586417251962e-8 5.137457553422791e-8 2.536936824263363e-8 6.024157977910554e-8 7.65661683034136e-9
          3.6590511470030833e-9 8.94400343295226e-9 3.4697423996458846e-8 1.4846660316881122e-8 1.2236576336408854e-9 4.243605919801493e-8
          1.823435957098998e-8 4.997335000092364e-8 2.1631891904185112e-8 1.5093073735138088e-9 1.8018571450008377e-9 3.976768435736308e-23
          4.542171278271825e-8 4.335101448555514e-8 1.7173886675679183e-8 6.190336761309729e-8 3.595749258699835e-8 6.55735519932265e-8
          5.940395718493024e-8 5.8716584447714586e-8 1.222226223727034e-9 5.956383520381448e-8 7.025368106239338e-8 6.235411867140901e-8
          4.3796870228667804e-8 5.956087658493333e-8 3.5502797062283354e-8 4.775743325849997e-8 4.778160229069406e-8 3.065518984816227e-8
          4.6991656931128077e-8 6.394596997115317e-8 5.0646116705067975e-8 5.182905963407576e-8 1.1623232723857668e-7 6.21347120574216e-8
          1.3044385016800627e-7 6.227742364072763e-8 1.2771916948105744e-7 6.877579761882193e-8 1.4342295295573693e-7 1.8654660348182238e-8
          1.0791201358614617e-8 6.468494903207723e-9 2.0499372143799023e-8 1.183493357324438e-8 7.132638096170465e-9 3.339204636003254e-23
          5.545835876639482e-8 2.0147041784036372e-8 7.067806810686207e-8 6.288829526704619e-8 6.361158212942799e-8 7.156015859498902e-9