<?xml version="1.0"?>
<VTKFile type="UnstructuredGrid" version="0.1" byte_order="LittleEndian" header_type="UInt32" compressor="vtkZLibDataCompressor">
  <UnstructuredGrid>
    <Piece NumberOfPoints="2314" NumberOfCells="1588">
      <PointData>
        <DataArray type="Int32" Name="libmesh_node_id" format="ascii" RangeMin="318" RangeMax="23204">
          318 319 320 321 458 459
          460 461 462 463 495 496
          497 599 601 602 603 604
          605 635 636 637 663 664
          740 741 742 743 744 745
          775 776 777 803 804 880
          881 882 883 884 885 915
          916 917 943 944 1064 1076
          1077 1078 1080 1081 1082 1175
          1176 1177 1178 1179 1180 1181
          1182 1183 1184 1203 1208 1209
          1210 1213 1214 1215 1216 1217
          1218 1283 1285 1287 1288 1289
          1290 1291 1292 1293 1294 1295
          1296 1965 1968 1970 1971 1972
          1973 1975 1976 1977 1978 1982
          1983 1986 1988 2020 2021 2022
          2023 2024 2025 2026 2027 2028
          2029 2030 2031 2032 2033 2073
          2074 2077 2078 2079 2080 2081
          2082 2083 2084 2085 2086 2087
          2088 2089 2090 2091 2092 2093
          2094 2277 2278 2279 2282 2285
          2286 2291 2292 2293 2294 2295
          2296 2426 2427 2428 2429 2430
          2431 2432 2433 2434 2435 2436
          2437 2438 2439 2440 2441 2442
          2443 2444 2445 2446 2447 2448
          2449 4321 4340 4341 4342 4343
          4344 4352 4353 4355 4357 4361
          4362 4364 4365 4366 4367 4369
          4370 4371 4372 4373 4374 4375
          4376 4377 4378 4387 4389 4391
          4393 4394 4395 4396 4398 4399
          4400 4401 4403 4404 4405 4406
          4407 4408 4409 4410 4411 4412
          4420 4421 4423 4424 4425 4525
          4526 4527 4528 4529 4530 4531
          4532 4533 4534 4551 4588 4589
          4590 4591 4592 4594 4595 4597
          4598 4599 4601 4602 4619 4838
          4839 4840 4841 4842 4843 4844
          4845 4846 4847 4848 4849 4850
          4851 4855 4863 4864 4865 4866
          4867 4868 4869 4870 4871 4872
          4873 4874 4875 4876 4877 4878
          4879 4880 4881 4882 7581 7593
          7594 7595 7596 7602 7672 7690
          7691 7692 7693 7705 7706 7710
          7711 7713 7716 7718 7719 7720
          7721 7722 7723 7724 7725 7726
          7727 7729 7733 7735 7736 7738
          7739 7740 7742 7743 7744 7745
          7746 7747 7748 7749 7750 7751
          7752 7753 7754 7755 7756 7757
          7758 7759 7760 7761 7762 7763
          7764 7765 7766 7767 7768 7769
          7770 7771 7772 7773 7774 7775
          7776 7777 7778 7779 7780 7781
          7782 7783 7784 7785 7786 7787
          7788 7789 7790 7791 7792 7793
          7794 7795 7796 7797 7798 7799
          7800 7801 7802 7803 7804 7805
          7806 7807 7808 7809 7810 7811
          7812 7869 7870 7873 7874 7876
          7877 7880 7881 7895 7896 7898
          7901 7903 7904 7905 7906 7907
          7908 7909 7910 7911 7912 7914
          7918 7920 7921 7923 7924 7925
          7929 7930 7932 7935 7937 7938
          7939 7940 7941 7942 7943 7944
          7945 7946 7948 7952 7954 7955
          7957 7958 7959 7961 7962 7963
          7964 7965 7966 7967 7968 7969
          7970 7971 7972 7973 7974 7975
          7976 7977 7978 7979 7980 7981
          7982 7983 7984 7985 7986 7987
          7988 7989 7990 7991 7992 7993
          7994 7995 7996 7997 7998 7999
          8000 8001 8002 8003 8004 8005
          8006 8007 8008 8009 8010 8011
          8012 8013 8014 8015 8016 8017
          8018 8019 8020 8021 8022 8023
          8024 8025 8026 8027 8028 8085
          8086 8087 8088 8089 8090 8091
          8099 8100 8101 8102 8103 8104
          8105 8184 8188 8189 8191 8192
          8193 8194 8195 8203 8204 8205
          8206 8207 8208 8209 8299 8300
          8301 8304 8305 8306 8307 8308
          8309 8310 8311 8312 8313 8314
          8315 8317 8318 8319 8320 8321
          8322 8323 8324 8325 8326 8327
          8328 8329 8330 8331 8332 8333
          8334 8335 8490 8491 8492 8493
          8494 8495 8496 8507 8508 8509
          8517 8518 8519 8520 8521 8522
          8523 8528 8529 8530 8531 8532
          8533 8534 8535 8536 8537 8538
          8539 8540 8541 8542 8543 8544
          8545 8546 8547 8548 19778 19779
          19780 19781 19793 19794 19795 19826
          19827 19828 19829 19834 19835 19836
          19876 19877 19878 19890 19891 19892
          20474 20475 20477 20478 20479 20480
          20481 20482 20483 20484 20485 20486
          20487 20488 20489 20490 20491 20493
          20495 20496 20497 20498 20499 20500
          20501 20502 20503 20504 20505 20590
          20591 20592 20593 20594 20595 20596
          20597 20598 20599 20600 20601 20602
          20603 20605 20609 20611 20612 20613
          20614 20615 20616 20617 20628 20629
          20630 20631 20632 20633 20634 20635
          20636 20637 20645 20646 20647 20648
          20649 20650 20651 20662 20663 20664
          20665 20666 20667 20668 20669 20670
          20671 20679 20680 20681 20682 20683
          20684 20685 20686 20687 20688 20689
          20690 20691 20692 20693 20694 20695
          20696 20697 20698 20699 20700 20701
          20702 20703 20704 20705 20706 20707
          20708 20709 20710 20711 20712 20713
          20714 20715 20716 20717 20718 20719
          20720 20721 20722 20723 20724 20725
          20726 20727 20728 20729 20730 20731
          20732 20733 20734 20735 20736 20737
          20738 20739 20740 20741 20742 20743
          20744 20745 20746 20747 20748 20749
          20750 20751 20752 20753 20761 20762
          20763 20764 20765 20766 20767 20789
          20790 20791 20792 20793 20794 20795
          20810 20811 20812 20813 20814 20815
          20816 20817 20818 20819 20820 20821
          20822 20823 20825 20829 20831 20832
          20833 20834 20835 20836 20837 20838
          20839 20840 20841 20842 20843 20844
          20845 20846 20847 20848 20849 20850
          20851 20853 20857 20859 20860 20861
          20862 20863 20864 20865 20874 20876
          20877 20878 20879 20880 20881 20882
          20883 20884 20885 20891 20893 20894
          20895 20896 20897 20898 20899 20900
          20901 20902 20903 20904 20905 20906
          20907 20908 20909 20910 20911 20912
          20913 20914 20915 20916 20917 20918
          20919 20920 20921 20922 20923 20924
          20925 20926 20927 20928 20929 20930
          20931 20932 20933 20934 20935 20936
          20937 20938 20939 20940 20941 20942
          20943 20944 20945 20946 20947 20948
          20949 20950 20951 20952 20953 20954
          20955 20956 20957 20958 20959 20960
          20961 20962 20963 20964 20965 20966
          20967 20973 20975 20976 20977 20978
          20979 20980 20981 20987 20989 20990
          20991 20992 20993 20994 20995 20996
          20997 20998 20999 21000 21001 21002
          21003 21004 21005 21006 21007 21008
          21009 21010 21011 21012 21013 21014
          21015 21016 21017 21018 21019 21020
          21021 21022 21023 21024 21025 21026
          21027 21028 21029 21030 21031 21032
          21033 21034 21035 21036 21037 21038
          21039 21040 21041 21042 21043 21044
          21045 21046 21047 21048 21049 21050
          21051 21052 21053 21054 21055 21056
          21057 21058 21059 21060 21061 21062
          21063 21064 21065 21066 21067 21068
          21069 21070 21071 21072 21073 21074
          21075 21076 21077 21078 21079 21080
          21081 21082 21083 21084 21085 21086
          21087 21088 21089 21090 21091 21092
          21093 21094 21095 21096 21097 21098
          21099 21100 21101 21102 21103 21104
          21105 21106 21107 21108 21109 21110
          21111 21112 21113 21114 21115 21116
          21117 21118 21119 21120 21121 21122
          21123 21124 21125 21126 21127 21128
          21129 21130 21131 21132 21133 21134
          21135 21136 21137 21138 21139 21140
          21141 21142 21143 21144 21145 21146
          21147 21148 21149 21150 21151 21152
          21153 21154 21155 21156 21157 21158
          21159 21160 21161 21162 21163 21164
          21165 21166 21167 21168 21169 21170
          21171 21172 21173 21174 21175 21176
          21177 21178 21179 21180 21181 21182
          21183 21184 21185 21186 21187 21188
          21189 21190 21191 21192 21193 21194
          21195 21196 21197 21198 21199 21200
          21201 21202 21203 21204 21205 21206
          21207 21208 21209 21210 21211 21212
          21213 21214 21215 21216 21217 21218
          21219 21220 21221 21222 21648 21654
          21655 21656 21664 21665 21666 21667
          21668 21669 21670 21671 21672 21673
          21674 21675 21676 21677 21678 21679
          21680 21681 21682 21683 21685 21686
          21687 21688 21689 21690 21691 21692
          21693 21694 21695 21696 21697 21698
          21699 21700 21703 21704 21706 21707
          21708 21709 21710 21711 21712 21713
          21714 21715 21716 21717 21718 21719
          21720 21721 21724 21725 21754 21755
          21756 21757 21758 21759 21760 21761
          21762 21763 21771 21772 21773 21774
          21775 21776 21777 21788 21789 21790
          21791 21792 21793 21796 21805 21806
          21807 21808 21810 21812 21813 21814
          21815 21816 21817 21818 21819 21820
          21821 21822 21823 21824 21825 21826
          21827 21828 21829 21830 21831 21832
          21833 21834 21835 21836 21837 21838
          21839 21840 21841 21842 21843 21844
          21845 21846 21847 21848 21849 21850
          21851 21852 21853 21854 21855 21856
          21857 21858 21859 21860 21861 21862
          21863 21864 21865 21866 21867 21868
          21869 21870 21871 21872 21873 21874
          21875 21876 21877 21878 21879 21887
          21888 21889 21890 21891 21892 21893
          21915 21916 21917 21918 21920 21936
          21937 21938 21939 21940 21941 21942
          21943 21944 21945 21946 21947 21948
          21949 21951 21955 21957 21958 21959
          21960 21961 21962 21963 21964 21965
          21966 21967 21968 21969 21970 21971
          21972 21973 21974 21975 21976 21977
          21979 21983 21985 21986 21987 21988
          21989 21990 21991 22004 22005 22007
          22010 22020 22022 22024 22038 22039
          22041 22044 22054 22056 22058 22060
          22061 22062 22063 22064 22065 22066
          22067 22068 22069 22070 22071 22072
          22073 22074 22075 22076 22077 22078
          22079 22080 22081 22082 22083 22084
          22085 22086 22087 22088 22089 22090
          22091 22092 22093 22094 22095 22096
          22097 22098 22099 22100 22101 22102
          22103 22104 22105 22106 22107 22108
          22109 22110 22111 22112 22113 22114
          22115 22116 22117 22118 22119 22120
          22121 22122 22123 22124 22125 22126
          22127 22136 22138 22140 22164 22166
          22168 22184 22185 22186 22187 22188
          22189 22190 22191 22192 22193 22194
          22195 22196 22197 22199 22203 22205
          22206 22207 22208 22209 22210 22211
          22212 22213 22214 22215 22216 22217
          22218 22219 22220 22221 22222 22223
          22224 22225 22227 22231 22233 22234
          22235 22236 22237 22238 22239 22240
          22241 22242 22243 22244 22245 22246
          22247 22248 22249 22250 22251 22252
          22253 22254 22255 22256 22257 22258
          22259 22260 22261 22262 22263 22264
          22265 22266 22267 22268 22269 22270
          22271 22272 22273 22274 22275 22276
          22277 22278 22279 22280 22281 22282
          22283 22284 22285 22286 22287 22288
          22289 22290 22291 22292 22293 22294
          22295 22296 22297 22298 22299 22300
          22301 22302 22303 22304 22305 22306
          22307 22308 22309 22310 22311 22312
          22313 22314 22315 22316 22317 22318
          22319 22320 22321 22322 22323 22324
          22325 22326 22327 22328 22329 22330
          22331 22332 22333 22334 22335 22336
          22337 22338 22339 22340 22341 22342
          22343 22344 22345 22346 22347 22348
          22349 22350 22351 22352 22353 22354
          22355 22356 22357 22358 22359 22360
          22361 22362 22363 22364 22365 22366
          22367 22368 22369 22370 22371 22372
          22373 22374 22375 22376 22377 22378
          22379 22380 22381 22382 22383 22384
          22385 22386 22387 22388 22389 22390
          22391 22392 22393 22394 22395 22396
          22397 22398 22399 22400 22401 22402
          22403 22404 22405 22406 22407 22408
          22409 22410 22411 22412 22413 22414
          22415 22416 22417 22418 22419 22420
          22421 22422 22423 22424 22425 22426
          22427 22428 22429 22430 22431 22432
          22433 22434 22435 22436 22437 22438
          22439 22440 22441 22442 22443 22444
          22445 22446 22447 22448 22449 22450
          22451 22452 22453 22454 22455 22456
          22457 22458 22459 22460 22461 22462
          22463 22464 22465 22466 22467 22468
          22469 22470 22471 22472 22473 22474
          22475 22476 22477 22478 22479 22480
          22481 22482 22483 22484 22485 22486
          22487 22488 22489 22490 22491 22492
          22493 22494 22495 22496 22497 22498
          22499 22500 22501 22502 22503 22504
          22505 22506 22507 22508 22509 22510
          22511 22512 22513 22514 22515 22516
          22517 22518 22519 22520 22521 22522
          22523 22524 22525 22526 22527 22528
          22529 22530 22531 22532 22533 22534
          22535 22536 22537 22538 22539 22540
          22541 22542 22543 22544 22545 22546
          22547 22548 22549 22550 22551 22552
          22553 22554 22555 22556 22557 22558
          22559 22560 22561 22562 22563 22564
          22565 22566 22567 22568 22569 22570
          22571 22572 22573 22574 22575 22576
          22577 22578 22579 22580 22581 22582
          22583 22584 22585 22586 22587 22588
          22589 22590 22591 22592 22593 22594
          22595 22596 22597 22598 22599 22600
          22601 22602 22603 22604 22605 22606
          22607 22608 22609 22610 22611 23063
          23064 23065 23066 23067 23068 23069
          23070 23071 23072 23073 23074 23075
          23076 23077 23078 23081 23082 23084
          23085 23086 23087 23088 23089 23090
          23091 23092 23093 23094 23095 23096
          23097 23098 23099 23100 23101 23102
          23103 23104 23105 23106 23107 23108
          23109 23111 23112 23113 23115 23116
          23117 23118 23119 23120 23121 23136
          23137 23138 23139 23140 23141 23142
          23143 23144 23145 23146 23147 23148
          23149 23150 23151 23153 23154 23155
          23157 23158 23159 23160 23161 23162
          23163 23164 23165 23166 23167 23168
          23169 23170 23171 23172 23173 23174
          23175 23176 23177 23178 23179 23181
          23182 23183 23185 23186 23187 23188
          23189 23190 23191 600 1070 1073
          1072 1075 1204 1211 1212 1205
          1069 1059 739 1279 1170 1280
          879 1980 1984 1981 1985 1987
          1989 1074 2273 2274 2275 2276
          2280 2281 2283 2284 1531 1533
          1536 2268 2287 2269 2288 2272
          2289 2290 1532 1537 1918 1963
          1964 1919 1922 1924 4315 4317
          4319 4316 4318 4320 4322 4323
          4324 4354 4356 4358 4386 4388
          4390 4392 4422 4426 4545 4547
          4549 4546 4548 4550 4586 4587
          4429 4430 4433 4593 4435 4596
          4438 4440 4600 4442 4613 4615
          4617 4614 4616 4618 4620 4621
          4622 4852 4853 4854 4856 4857
          4858 4859 4860 4862 4861 7872
          7871 7875 7879 7878 7882 7891
          7890 8093 8092 8097 8096 8107
          8106 8111 8110 1521 1489 1522
          8190 8185 1523 1527 8295 8296
          8297 8298 8302 8303 4348 8316
          7476 7626 7628 7630 8497 8499
          8498 20604 20608 20607 20606 7707
          20610 20776 20775 20780 20779 20804
          20803 20808 20807 20824 20827 20826
          20828 7737 20830 20852 20855 20854
          20856 7741 20858 21314 21308 21318
          21312 21315 21319 21496 21490 21497
          21500 21494 21501 21524 21518 21525
          21528 21522 21529 21317 7825 21329
          21333 21331 21684 4380 21499 7849
          21511 21701 21513 21702 21515 21705
          7851 21527 7853 21539 21722 21541
          21723 21543 21726 4384 21902 21901
          21906 21905 21930 21929 21950 21953
          21952 21954 7922 21956 21978 21981
          21980 21982 21934 7926 21984 22198
          22150 22201 22200 22202 22154 7956
          22204 22226 22178 22229 22228 22230
          22182 7960 22232 22675 22669 22676
          22679 22673 22680 22703 22697 22704
          22707 22701 22708 22902 22896 22903
          22906 22900 22907 22930 22924 22931
          22934 22928 22935 22678 8037 22690
          23079 22692 23080 22694 23083 8039
          22706 8041 22718 23110 22720 22722
          23114 4414 23123 23122 23127 23126
          23130 23129 23134 23133 22905 8065
          22917 23152 22919 22921 23156 8067
          22933 8069 22945 23180 22947 22949
          23184 4418 23193 23192 23197 23196
          23200 23199 23204 23203
        </DataArray>
        <DataArray type="Float64" Name="bounds" format="ascii" RangeMin="0" RangeMax="0">
          0 0 0 0 0 0
          0 0 0 0 0 0
          0 0 0 0 0 0
          0 0 0 0 0 0
          0 0 0 0 0 0
          0 0 0 0 0 0
          0 0 0 0 0 0
          0 0 0 0 0 0
          0 0 0 0 0 0
          0 0 0 0 0 0
          0 0 0 0 0 0
          0 0 0 0 0 0
          0 0 0 0 0 0
          0 0 0 0 0 0
          0 0 0 0 0 0
          0 0 0 0 0 0
          0 0 0 0 0 0
          0 0 0 0 0 0
          0 0 0 0 0 0
          0 0 0 0 0 0
          0 0 0 0 0 0
          0 0 0 0 0 0
          0 0 0 0 0 0
          0 0 0 0 0 0
          0 0 0 0 0 0
          0 0 0 0 0 0
          0 0 0 0 0 0
          0 0 0 0 0 0
          0 0 0 0 0 0
          0 0 0 0 0 0
          0 0 0 0 0 0
          0 0 0 0 0 0
          0 0 0 0 0 0
          0 0 0 0 0 0
          0 0 0 0 0 0
          0 0 0 0 0 0
          0 0 0 0 0 0
          0 0 0 0 0 0
          0 0 0 0 0 0
          0 0 0 0 0 0
          0 0 0 0 0 0
          0 0 0 0 0 0
          0 0 0 0 0 0
          0 0 0 0 0 0
          0 0 0 0 0 0
          0 0 0 0 0 0
          0 0 0 0 0 0
          0 0 0 0 0 0
          0 0 0 0 0 0
          0 0 0 0 0 0
          0 0 0 0 0 0
          0 0 0 0 0 0
          0 0 0 0 0 0
          0 0 0 0 0 0
          0 0 0 0 0 0
          0 0 0 0 0 0
          0 0 0 0 0 0
          0 0 0 0 0 0
          0 0 0 0 0 0
          0 0 0 0 0 0
          0 0 0 0 0 0
          0 0 0 0 0 0
          0 0 0 0 0 0
          0 0 0 0 0 0
          0 0 0 0 0 0
          0 0 0 0 0 0
          0 0 0 0 0 0
          0 0 0 0 0 0
          0 0 0 0 0 0
          0 0 0 0 0 0
          0 0 0 0 0 0
          0 0 0 0 0 0
          0 0 0 0 0 0
          0 0 0 0 0 0
          0 0 0 0 0 0
          0 0 0 0 0 0
          0 0 0 0 0 0
          0 0 0 0 0 0
          0 0 0 0 0 0
          0 0 0 0 0 0
          0 0 0 0 0 0
          0 0 0 0 0 0
          0 0 0 0 0 0
          0 0 0 0 0 0
          0 0 0 0 0 0
          0 0 0 0 0 0
          0 0 0 0 0 0
          0 0 0 0 0 0
          0 0 0 0 0 0
          0 0 0 0 0 0
          0 0 0 0 0 0
          0 0 0 0 0 0
          0 0 0 0 0 0
          0 0 0 0 0 0
          0 0 0 0 0 0
          0 0 0 0 0 0
          0 0 0 0 0 0
          0 0 0 0 0 0
          0 0 0 0 0 0
          0 0 0 0 0 0
          0 0 0 0 0 0
          0 0 0 0 0 0
          0 0 0 0 0 0
          0 0 0 0 0 0
          0 0 0 0 0 0
          0 0 0 0 0 0
          0 0 0 0 0 0
          0 0 0 0 0 0
          0 0 0 0 0 0
          0 0 0 0 0 0
          0 0 0 0 0 0
          0 0 0 0 0 0
          0 0 0 0 0 0
          0 0 0 0 0 0
          0 0 0 0 0 0
          0 0 0 0 0 0
          0 0 0 0 0 0
          0 0 0 0 0 0
          0 0 0 0 0 0
          0 0 0 0 0 0
          0 0 0 0 0 0
          0 0 0 0 0 0
          0 0 0 0 0 0
          0 0 0 0 0 0
          0 0 0 0 0 0
          0 0 0 0 0 0
          0 0 0 0 0 0
          0 0 0 0 0 0
          0 0 0 0 0 0
          0 0 0 0 0 0
          0 0 0 0 0 0
          0 0 0 0 0 0
          0 0 0 0 0 0
          0 0 0 0 0 0
          0 0 0 0 0 0
          0 0 0 0 0 0
          0 0 0 0 0 0
          0 0 0 0 0 0
          0 0 0 0 0 0
          0 0 0 0 0 0
          0 0 0 0 0 0
          0 0 0 0 0 0
          0 0 0 0 0 0
          0 0 0 0 0 0
          0 0 0 0 0 0
          0 0 0 0 0 0
          0 0 0 0 0 0
          0 0 0 0 0 0
          0 0 0 0 0 0
          0 0 0 0 0 0
          0 0 0 0 0 0
          0 0 0 0 0 0
          0 0 0 0 0 0
          0 0 0 0 0 0
          0 0 0 0 0 0
          0 0 0 0 0 0
          0 0 0 0 0 0
          0 0 0 0 0 0
          0 0 0 0 0 0
          0 0 0 0 0 0
          0 0 0 0 0 0
          0 0 0 0 0 0
          0 0 0 0 0 0
          0 0 0 0 0 0
          0 0 0 0 0 0
          0 0 0 0 0 0
          0 0 0 0 0 0
          0 0 0 0 0 0
          0 0 0 0 0 0
          0 0 0 0 0 0
          0 0 0 0 0 0
          0 0 0 0 0 0
          0 0 0 0 0 0
          0 0 0 0 0 0
          0 0 0 0 0 0
          0 0 0 0 0 0
          0 0 0 0 0 0
          0 0 0 0 0 0
          0 0 0 0 0 0
          0 0 0 0 0 0
          0 0 0 0 0 0
          0 0 0 0 0 0
          0 0 0 0 0 0
          0 0 0 0 0 0
          0 0 0 0 0 0
          0 0 0 0 0 0
          0 0 0 0 0 0
          0 0 0 0 0 0
          0 0 0 0 0 0
          0 0 0 0 0 0
          0 0 0 0 0 0
          0 0 0 0 0 0
          0 0 0 0 0 0
          0 0 0 0 0 0
          0 0 0 0 0 0
          0 0 0 0 0 0
          0 0 0 0 0 0
          0 0 0 0 0 0
          0 0 0 0 0 0
          0 0 0 0 0 0
          0 0 0 0 0 0
          0 0 0 0 0 0
          0 0 0 0 0 0
          0 0 0 0 0 0
          0 0 0 0 0 0
          0 0 0 0 0 0
          0 0 0 0 0 0
          0 0 0 0 0 0
          0 0 0 0 0 0
          0 0 0 0 0 0
          0 0 0 0 0 0
          0 0 0 0 0 0
          0 0 0 0 0 0
          0 0 0 0 0 0
          0 0 0 0 0 0
          0 0 0 0 0 0
          0 0 0 0 0 0
          0 0 0 0 0 0
          0 0 0 0 0 0
          0 0 0 0 0 0
          0 0 0 0 0 0
          0 0 0 0 0 0
          0 0 0 0 0 0
          0 0 0 0 0 0
          0 0 0 0 0 0
          0 0 0 0 0 0
          0 0 0 0 0 0
          0 0 0 0 0 0
          0 0 0 0 0 0
          0 0 0 0 0 0
          0 0 0 0 0 0
          0 0 0 0 0 0
          0 0 0 0 0 0
          0 0 0 0 0 0
          0 0 0 0 0 0
          0 0 0 0 0 0
          0 0 0 0 0 0
          0 0 0 0 0 0
          0 0 0 0 0 0
          0 0 0 0 0 0
          0 0 0 0 0 0
          0 0 0 0 0 0
          0 0 0 0 0 0
          0 0 0 0 0 0
          0 0 0 0 0 0
          0 0 0 0 0 0
          0 0 0 0 0 0
          0 0 0 0 0 0
          0 0 0 0 0 0
          0 0 0 0 0 0
          0 0 0 0 0 0
          0 0 0 0 0 0
          0 0 0 0 0 0
          0 0 0 0 0 0
          0 0 0 0 0 0
          0 0 0 0 0 0
          0 0 0 0 0 0
          0 0 0 0 0 0
          0 0 0 0 0 0
          0 0 0 0 0 0
          0 0 0 0 0 0
          0 0 0 0 0 0
          0 0 0 0 0 0
          0 0 0 0 0 0
          0 0 0 0 0 0
          0 0 0 0 0 0
          0 0 0 0 0 0
          0 0 0 0 0 0
          0 0 0 0 0 0
          0 0 0 0 0 0
          0 0 0 0 0 0
          0 0 0 0 0 0
          0 0 0 0 0 0
          0 0 0 0 0 0
          0 0 0 0 0 0
          0 0 0 0 0 0
          0 0 0 0 0 0
          0 0 0 0 0 0
          0 0 0 0 0 0
          0 0 0 0 0 0
          0 0 0 0 0 0
          0 0 0 0 0 0
          0 0 0 0 0 0
          0 0 0 0 0 0
          0 0 0 0 0 0
          0 0 0 0 0 0
          0 0 0 0 0 0
          0 0 0 0 0 0
          0 0 0 0 0 0
          0 0 0 0 0 0
          0 0 0 0 0 0
          0 0 0 0 0 0
          0 0 0 0 0 0
          0 0 0 0 0 0
          0 0 0 0 0 0
          0 0 0 0 0 0
          0 0 0 0 0 0
          0 0 0 0 0 0
          0 0 0 0 0 0
          0 0 0 0 0 0
          0 0 0 0 0 0
          0 0 0 0 0 0
          0 0 0 0 0 0
          0 0 0 0 0 0
          0 0 0 0 0 0
          0 0 0 0 0 0
          0 0 0 0 0 0
          0 0 0 0 0 0
          0 0 0 0 0 0
          0 0 0 0 0 0
          0 0 0 0 0 0
          0 0 0 0 0 0
          0 0 0 0 0 0
          0 0 0 0 0 0
          0 0 0 0 0 0
          0 0 0 0 0 0
          0 0 0 0 0 0
          0 0 0 0 0 0
          0 0 0 0 0 0
          0 0 0 0 0 0
          0 0 0 0 0 0
          0 0 0 0 0 0
          0 0 0 0 0 0
          0 0 0 0 0 0
          0 0 0 0 0 0
          0 0 0 0 0 0
          0 0 0 0 0 0
          0 0 0 0 0 0
          0 0 0 0 0 0
          0 0 0 0 0 0
          0 0 0 0 0 0
          0 0 0 0 0 0
          0 0 0 0 0 0
          0 0 0 0 0 0
          0 0 0 0 0 0
          0 0 0 0 0 0
          0 0 0 0 0 0
          0 0 0 0 0 0
          0 0 0 0 0 0
          0 0 0 0 0 0
          0 0 0 0 0 0
          0 0 0 0 0 0
          0 0 0 0 0 0
          0 0 0 0 0 0
          0 0 0 0 0 0
          0 0 0 0 0 0
          0 0 0 0 0 0
          0 0 0 0 0 0
          0 0 0 0 0 0
          0 0 0 0 0 0
          0 0 0 0 0 0
          0 0 0 0 0 0
          0 0 0 0 0 0
          0 0 0 0 0 0
          0 0 0 0 0 0
          0 0 0 0 0 0
          0 0 0 0 0 0
          0 0 0 0 0 0
          0 0 0 0 0 0
          0 0 0 0 0 0
          0 0 0 0 0 0
          0 0 0 0 0 0
          0 0 0 0 0 0
          0 0 0 0 0 0
          0 0 0 0 0 0
          0 0 0 0 0 0
          0 0 0 0 0 0
          0 0 0 0 0 0
          0 0 0 0 0 0
          0 0 0 0 0 0
          0 0 0 0 0 0
          0 0 0 0 0 0
          0 0 0 0 0 0
          0 0 0 0 0 0
          0 0 0 0 0 0
          0 0 0 0 0 0
          0 0 0 0 0 0
          0 0 0 0 0 0
          0 0 0 0 0 0
          0 0 0 0 0 0
          0 0 0 0 0 0
          0 0 0 0 0 0
          0 0 0 0 0 0
          0 0 0 0 0 0
          0 0 0 0 0 0
          0 0 0 0
        </DataArray>
        <DataArray type="Float64" Name="gradient_error" format="ascii" RangeMin="1.0129804958500587e-13" RangeMax="2.4586629974218013e-8">
          1.949867380573956e-12 2.0495865216919815e-12 3.402826638407428e-13 2.7023215592585237e-13 4.1238237243340564e-12 5.307504052627408e-12
          6.261113333975684e-13 7.246032591941277e-13 3.9637006013462104e-13 3.9851345898373944e-13 6.83205166258804e-12 6.211419891599887e-13
          3.009997158584094e-13 1.2985835428418485e-11 1.666416673341565e-12 5.338052326897278e-13 1.3553527050112672e-12 2.517202802064962e-13
          2.62221661762163e-13 1.5681886039408882e-11 2.1073903238648244e-12 1.4538194658130767e-12 1.3709511382171428e-11 1.3283919946598436e-12
          8.809707084463452e-13 8.527640611617196e-12 6.188397144320269e-13 3.722878545116664e-12 5.976020483072523e-13 7.043289988775255e-13
          1.033683316117542e-10 2.1867844374567525e-11 4.4898163141531235e-12 1.0596097164129846e-10 2.3102795326385482e-11 5.988862660043286e-12
          1.0943840343589523e-11 1.1160638029946181e-12 5.383910447806015e-12 7.837681460210081e-13 9.758337263843486e-13 2.1381474148176304e-10
          4.327731420759799e-11 6.5756076360554296e-12 1.8979876482608296e-10 4.412286949551561e-11 4.514075716040026e-11 4.232375578947531e-12
          1.9572229319864624e-11 4.032047657986951e-12 3.1221073695655458e-12 2.2506489607719693e-12 3.841350611733261e-11 8.939225076028108e-12
          1.6162073405585618e-12 3.3692283670152656e-12 2.156717717111587e-12 5.735382276426432e-11 8.72766133139231e-12 2.632135301045753e-11
          2.413213635182834e-12 3.0475916882846807e-12 8.099405666647692e-11 3.3478026687828183e-12 3.745297951450746e-12 1.2072863804201562e-12
          7.773820653057089e-13 2.0549107460980439e-13 3.240718720638571e-13 2.9462014668259695e-13 3.4747775019126165e-13 6.177473573250804e-13
          2.6516842130133683e-13 1.1777036887237774e-10 3.651777633182326e-10 4.027694676918192e-11 7.34402305278355e-11 1.0514909103923915e-11
          1.8631303327715046e-11 1.5476615837610448e-11 4.830731408926013e-11 1.7216135979503678e-11 9.94416792632069e-11 2.2241228041239474e-11
          7.471796045684619e-11 2.0549162812182517e-12 2.861498479604338e-12 1.539870484134498e-9 4.668150318693849e-11 2.00518981579637e-11
          5.199468926869716e-12 2.2404767724937707e-12 2.0807964587536713e-9 6.306666124062401e-11 6.711851671792328e-12 9.58516130825729e-12
          1.7083099609780823e-11 2.9535313548162567e-11 2.162509807446644e-11 1.926755712094719e-13 4.3513220371816024e-13 2.1062598985939137e-13
          6.243514647466659e-13 2.5877515466551127e-13 1.0129804958500587e-13 3.852408351486153e-13 6.775888362268486e-13 1.0380769396339404e-12
          6.691836207122247e-13 6.532225157641213e-13 1.2198531508164704e-12 7.105067069516295e-13 1.7864837858688197e-12 1.8650025164373105e-11
          4.8130161699712095e-11 2.0370654912277984e-11 6.840281751294286e-12 1.9977696748597006e-11 7.644932752809576e-13 3.3864664344690828e-12
          3.051030942422886e-12 6.053797447984859e-12 1.4487810498524494e-12 2.0777680540096458e-12 2.2778619363540084e-12 6.581617897124431e-13
          1.1351462743666607e-12 2.4779558186983714e-12 1.612130759020878e-12 3.0776674850003595e-12 2.929588296850247e-12 1.3609856504617816e-12
          2.7815091087001352e-12 2.517532823344308e-13 4.3708270395658424e-13 3.2400251698871005e-13 2.1092233002083587e-13 5.281710312021642e-13
          1.2515607333842516e-12 8.83473340915716e-12 1.759786362738232e-11 1.1329043336819972e-11 1.4794608524125336e-11 7.99073401332411e-12
          2.6021145306401318e-11 1.298416982926259e-12 1.0904307726386777e-12 1.4531907945282193e-12 1.0214941280910434e-12 1.2438744797380764e-12
          6.097663612161351e-13 2.9319634828506007e-12 1.7030105462067926e-12 2.1936353604756456e-12 1.2100484677616464e-12 2.799233073635377e-11
          7.02038726288723e-12 4.94603801857794e-11 1.0885069579374083e-11 5.448334158633375e-12 3.043019458619939e-12 5.606265147414244e-12