<?xml version="1.0"?>
<VTKFile type="UnstructuredGrid" version="0.1" byte_order="LittleEndian" header_type="UInt32" compressor="vtkZLibDataCompressor">
  <UnstructuredGrid>
    <Piece NumberOfPoints="2239" NumberOfCells="1593">
      <PointData>
        <DataArray type="Int32" Name="libmesh_node_id" format="ascii" RangeMin="739" RangeMax="20248">
          739 1066 1067 1068 1166 1168
          1169 1170 1277 1278 1279 1280
          1511 1512 1513 1891 1896 1897
          1898 1899 1900 1901 1903 1904
          1905 1908 1909 1912 1914 1916
          1917 1918 1919 1920 1921 1922
          1923 1924 1925 1964 2613 2614
          2615 2625 2630 2631 2632 2637
          2638 2639 2702 2704 4022 4027
          4029 4030 4031 4033 4034 4035
          4040 4041 4042 4043 4044 4045
          4046 4047 4048 4049 4050 4051
          4052 4053 4054 4055 4056 4057
          4058 4059 4061 4062 4063 4064
          4065 4068 4069 4070 4071 4072
          4073 4074 4075 4077 4078 4079
          4080 4081 4082 4083 4084 4085
          4086 4087 4088 4089 4090 4091
          4092 4093 4094 4095 4096 4097
          4098 4099 4100 4101 4102 4103
          4104 4105 4106 4107 4108 4109
          4110 4111 4112 4113 4114 4115
          4116 4117 4206 4207 4208 4209
          4308 4310 4311 4312 4313 4314
          4345 4347 4348 4427 4431 4576
          4577 4578 4579 4580 4581 4582
          4583 4584 4585 4620 4622 4852
          4853 4854 4856 4857 4858 4859
          4860 4861 5042 5086 5101 5103
          5110 5116 5120 5139 5140 5141
          5146 5147 5148 5156 5157 5158
          5166 5167 5168 5324 5387 5389
          5404 5405 5406 6148 6150 6151
          6152 6153 6154 6155 6156 6157
          6158 6159 6164 6169 6180 6181
          6182 6183 6184 6185 6186 6187
          6188 6189 6190 6191 6192 6193
          6194 6195 6196 6197 6198 6199
          6200 6201 6202 6203 6204 6205
          6206 6207 6208 6209 6210 6211
          6212 6213 6214 6215 6216 6217
          6218 6219 6220 6221 6222 6223
          6224 6225 6226 6227 6228 6229
          6230 6231 6232 6233 6234 6235
          6236 6237 6238 6239 6240 6241
          6242 6243 6244 6245 6246 6247
          6248 6249 6250 6251 6252 6253
          6254 6255 6256 6257 6258 6259
          6260 6261 6262 6263 6264 6265
          6266 6267 6268 6269 6270 6271
          6272 6273 6274 6275 6276 6277
          6278 6279 6280 6281 6282 6283
          6284 6285 6286 6287 6288 6289
          6290 6291 6292 6293 6294 6295
          6300 6301 6302 6305 6307 6308
          6309 6323 6325 6333 6334 6336
          6338 6339 6340 6341 6342 6343
          6344 6345 6346 6347 6348 6349
          6350 6351 6352 6353 6354 6355
          6356 6357 6358 6359 6360 6361
          6362 6363 6364 6365 6366 6367
          6368 6369 6370 6371 6373 6375
          6376 6377 6381 6383 6385 6386
          6387 6391 6392 6393 6394 6395
          6396 6397 6398 6399 6400 6401
          6402 6403 6404 6405 6406 6407
          6408 6409 6410 6411 6412 6413
          6414 6415 6416 6417 6418 6419
          6420 6421 6422 6423 6424 6425
          6426 6427 6428 6429 6430 6431
          6432 6433 6434 6435 6436 6437
          6438 6439 6440 6441 6442 6443
          6444 6445 6446 6447 6448 6449
          6450 6451 6452 6453 6454 6455
          6456 6457 6458 6459 6460 6461
          6462 6463 6464 6465 6466 6467
          6468 6469 6470 6471 6472 6473
          6474 6475 6476 6477 6478 6479
          6480 6481 6482 6483 6484 6485
          6486 6487 6488 6489 6490 6491
          6492 6493 6494 6495 6496 6497
          6866 6868 6926 6927 6928 6929
          6933 6934 6935 6936 6974 6975
          6977 6978 6979 6986 6987 6988
          6989 6992 6993 6994 6995 6996
          7000 7002 7004 7006 7346 7348
          7350 7378 7380 7382 7384 7426
          7428 7429 7430 7432 7435 7439
          7440 7441 7442 7443 7444 7445
          7446 7447 7448 7449 7450 7451
          7452 7453 7456 7457 7460 7461
          7462 7463 7464 7465 7466 7467
          7468 7469 7471 7472 7473 7474
          7475 7476 7477 7508 7510 7514
          7544 7548 7604 7605 7606 7607
          7608 7610 7613 7618 7619 7620
          7621 7622 7623 7624 7625 7626
          7627 7628 7629 7631 7632 7634
          7635 7636 7638 7646 7647 7648
          7649 7650 7652 8113 8115 8117
          8418 8419 8420 8421 8422 8423
          8424 8425 8426 8427 8462 8464
          8597 8598 8599 8600 8601 8602
          8603 8604 8605 8606 8607 8608
          8609 8610 8611 8612 8613 8614
          8615 8616 8617 8618 8619 8620
          8621 8622 8623 8624 8625 8626
          8627 8628 8629 8630 8631 8632
          8633 8634 8635 8636 8637 9332
          9339 9423 9426 9459 9460 9461
          9466 9467 9468 9473 9474 9475
          9480 9481 9482 9489 9514 9515
          9516 9521 9522 9523 10340 10569
          10570 10571 10578 10583 10584 10585
          10590 10591 10592 10634 10635 10636
          13049 13050 13052 13054 13055 13056
          13063 13070 13073 13074 13075 13076
          13077 13080 13081 13082 13083 13084
          13087 13088 13091 13094 13095 13098
          13099 13100 13101 13102 13103 13104
          13105 13106 13107 13108 13109 13110
          13111 13112 13116 13119 13120 13121
          13122 13123 13124 13125 13126 13133
          13134 13135 13136 13143 13144 13145
          13146 13151 13152 13153 13158 13159
          13160 13161 13162 13163 13164 13165
          13166 13167 13168 13169 13170 13171
          13172 13173 13174 13175 13176 13177
          13178 13179 13180 13181 13182 13183
          13184 13185 13186 13187 13188 13189
          13190 13191 13192 13193 13194 13196
          13197 13198 13199 13200 13201 13202
          13203 13204 13205 13206 13209 13210
          13211 13212 13213 13216 13217 13218
          13219 13220 13221 13222 13223 13224
          13225 13226 13227 13228 13229 13230
          13231 13232 13233 13234 13235 13236
          13237 13238 13239 13240 13241 13242
          13243 13244 13245 13246 13247 13248
          13249 13250 13251 13252 13253 13254
          13255 13256 13257 13258 13259 13260
          13261 13262 13263 13264 13265 13266
          13267 13268 13269 13270 13271 13272
          13273 13274 13275 13276 13277 13278
          13279 13280 13281 13282 13283 13284
          13285 13286 13287 13288 13289 13290
          13291 13292 13293 13294 13295 13296
          13297 13298 13299 13300 13301 13302
          13303 13304 13305 13306 13307 13308
          13309 13310 13311 13312 13313 13314
          13315 13316 13317 13318 13319 13320
          13321 13322 13323 13324 13325 13326
          13327 13328 13329 13330 13331 13332
          13333 13334 13335 13336 13337 13338
          13339 13340 13341 13342 13343 13344
          13345 13346 13347 13348 13349 13350
          13351 13352 13353 13354 13355 13356
          13357 13358 13359 13360 13361 13362
          13363 13364 13365 13366 13367 13368
          13369 13370 13371 13372 13373 13374
          13375 13376 13377 13378 13379 13380
          13381 13382 13383 13384 13385 13386
          13387 13388 13389 13390 13391 13392
          13393 13394 13395 13396 13397 13398
          13399 13400 13401 13402 13403 13404
          13405 13406 13407 13408 13409 13410
          13411 13412 13413 13414 13415 13416
          13417 13418 13419 13420 13421 13422
          13423 13424 13425 13426 13427 13428
          13429 13430 13431 13432 13433 13434
          13435 13436 13437 13438 13439 13440
          13441 13442 13443 13444 13445 13446
          13447 13448 13449 13450 13451 13452
          13453 13454 13455 13456 13457 13458
          13459 13460 13461 13462 13463 13464
          13465 13466 13467 13468 13469 13470
          13471 13472 13473 13474 13475 13476
          13477 13478 13479 13480 13481 13482
          13483 13484 13485 13486 13487 13488
          13489 13490 13491 13492 13493 13494
          13495 13496 13497 13498 13499 13500
          13501 13502 13503 13504 13505 13506
          13507 13508 13509 13510 13511 13512
          13513 13514 13515 13516 13517 13580
          13581 13582 13583 13584 13585 13586
          13587 13588 13589 13590 13591 13592
          13593 13594 13595 13596 13597 13598
          13599 13600 13601 13602 13603 13604
          13605 13606 13607 13608 13609 13610
          13611 13612 13613 13614 13615 13616
          13617 13618 13619 13620 13621 13622
          13623 13624 13625 13626 13627 13628
          13629 13630 13631 13632 13633 13634
          13635 13636 13637 13638 13639 13640
          13641 13642 13643 13644 13645 13646
          13647 13648 13649 13650 13651 13652
          13653 13654 13655 13656 13657 13658
          13659 13660 13661 13662 13663 13664
          13665 13666 13667 13668 13669 13670
          13671 13672 13673 13674 13675 13676
          13677 13678 13679 13680 13681 13682
          13683 13684 13685 13686 13687 13688
          13689 13690 13691 13692 13693 13694
          13695 13696 13697 13698 13699 13700
          13701 13702 13703 13704 13705 13706
          13707 13708 13709 13710 13711 13712
          13713 13714 13715 13716 13717 13718
          13719 13720 13721 13722 13723 13724
          13725 13726 13727 13728 13729 13734
          13735 13736 13741 13742 13743 13768
          13770 13771 13772 13773 13774 13775
          13779 13780 13781 13782 13783 13784
          13785 13789 13790 13791 13792 13793
          13794 13795 13796 13797 13798 13799
          13800 13801 13802 13803 13826 13827
          13830 13833 13834 13837 13838 13839
          13840 13841 13842 13843 13844 13845
          13846 13847 13848 13849 13850 13851
          13852 13853 13854 13855 13856 13857
          13858 13859 13860 13861 13862 13863
          13864 13865 13866 13867 13868 13869
          13870 13871 13872 13873 13874 13875
          13876 13877 13878 13879 13880 13881
          13882 13883 13884 13885 13886 13887
          13888 13889 13890 13891 13892 13893
          13894 13895 13896 13897 13898 13899
          13900 13901 13902 13903 13904 13905
          13906 13907 13908 13909 13910 13911
          13912 13913 13914 13915 13916 13917
          13918 13919 13920 13921 13922 13923
          13924 13925 13926 13927 13928 13929
          13930 13931 13932 13933 13934 13935
          13936 13937 13938 13939 13940 13941
          13942 13943 13944 13945 13946 13947
          13948 13949 13950 13951 13952 13953
          13954 13955 13956 13957 13958 13959
          13960 13961 13962 13963 13964 13965
          13966 13967 13968 13969 13970 13971
          13972 13973 13974 13975 13976 13977
          13978 13979 13980 13981 13982 13983
          13984 13985 13986 13987 13988 13989
          13990 13991 13992 13993 13994 13995
          13996 13997 13998 13999 14000 14001
          14002 14003 14004 14005 14006 14007
          14008 14009 14010 14011 14012 14013
          14014 14015 14016 14017 14018 14019
          14020 14021 14022 14023 14024 14025
          14026 14027 14028 14029 14030 14031
          14032 14033 14034 14035 14036 14037
          14038 14039 14040 14041 14042 14043
          14044 14045 14046 14047 14048 14049
          14050 14051 14052 14053 14054 14055
          14056 14057 14058 14059 14060 14061
          14062 14063 14064 14065 14066 14067
          14068 14069 14070 14071 14072 14073
          14074 14075 14076 14077 14078 14079
          14080 14081 14082 14083 14084 14085
          14086 14087 14088 14089 14090 14091
          14092 14093 14094 14095 14096 14097
          14098 14099 14100 14101 14102 14103
          14104 14105 14106 14107 14108 14109
          14110 14111 14112 14113 14114 14115
          14116 14117 14118 14119 14120 14121
          14122 14123 14124 14125 14126 14127
          14128 14129 14130 14131 14132 14133
          14134 14135 14136 14137 14138 14139
          14140 14141 14142 14143 14144 14145
          14146 14147 14148 14149 14150 14151
          14152 14153 14154 14155 14156 14157
          14158 14159 14160 14161 14162 14163
          14164 14165 14166 14167 14168 14169
          14170 14171 14172 14173 14174 14175
          14176 14177 14178 14179 14180 14181
          14182 14183 14184 14185 14186 14187
          14188 14189 14190 14191 14192 14193
          14194 14195 14196 14197 14198 14199
          14200 14201 16251 16253 16254 16255
          16264 16265 16268 16271 16272 16275
          16276 16277 16278 16279 16280 16281
          16282 16283 16284 16285 16286 16287
          16288 16289 16534 16535 16536 16537
          16538 16539 16546 16547 16548 16549
          16550 16551 16552 16553 16554 16555
          16556 16557 16558 16559 16560 16561
          16562 16563 16564 16565 16566 16567
          16568 16569 16570 16571 16572 16573
          16602 16614 16615 16621 16622 18229
          18230 18233 18240 18247 18257 18258
          18259 18260 18261 18264 18266 18268
          18463 18464 18467 18475 18476 18477
          18478 18479 18480 18481 18482 18484
          18486 18488 18489 18491 18492 18493
          18495 18498 18502 18503 18504 18505
          18506 18507 18508 18509 18510 18512
          18514 18516 18775 18776 18777 18778
          18779 18780 18781 18784 18786 18788
          18789 18790 18791 18792 18793 18794
          18795 18796 18797 18798 18799 18800
          18801 18802 18803 18804 18805 18806
          18807 18808 18809 18810 18812 18814
          18816 18817 18818 18819 18820 18821
          18822 18823 18824 18825 18826 18827
          18828 18829 18830 18870 18871 18872
          18883 18884 18885 18886 18887 18888
          18889 18890 18891 18892 18893 18894
          18895 18896 18897 18898 18899 18900
          18901 18902 18903 18904 18905 18906
          18907 18908 18909 18910 18911 18912
          18913 18914 18915 18916 18917 18918
          18919 18920 18921 18923 18925 18927
          18928 18929 18930 18931 18932 18933
          18934 18935 18936 18937 18938 18939
          18940 18941 18942 18943 18944 18945
          18946 18947 18948 18949 18951 18952
          18953 18955 18956 18957 18958 18959
          18960 18961 18962 18963 18964 18965
          18966 18967 18968 18969 18984 18985
          18986 18987 18988 18989 18990 19012
          19013 19014 19015 19016 19017 19018
          19026 19027 19028 19029 19030 19031
          19032 19033 19034 19035 19036 19037
          19038 19039 19040 19041 19042 19043
          19044 19045 19046 19047 19048 19049
          19050 19051 19052 19053 19054 19055
          19056 19057 19058 19059 19060 19061
          19062 19063 19064 19065 19066 19067
          19068 19069 19070 19071 19072 19073
          19074 19075 19076 19077 19078 19079
          19080 19081 19082 19083 19084 19085
          19086 19087 19241 19243 19244 19245
          19247 19250 19254 19255 19256 19257
          19258 19259 19260 19261 19262 19264
          19266 19268 19269 19271 19272 19273
          19275 19278 19283 19284 19285 19286
          19287 19288 19289 19290 19292 19294
          19296 19489 19491 19493 19495 19503
          19504 19505 19506 19507 19508 19509
          19517 19519 19531 19532 19533 19534
          19535 19537 19893 19894 19895 19896
          19897 19898 19899 19900 19902 19903
          19904 19906 19907 19908 19909 19910
          19911 19912 19913 19914 19915 19916
          19917 19918 19919 19920 19921 19922
          19923 19924 19925 19926 19927 19928
          19930 19932 19934 19935 19936 19937
          19938 19939 19940 19941 19942 19943
          19944 19945 19946 19947 19948 19963
          19964 19965 19966 19967 19968 19969
          19991 19993 20005 20006 20007 20008
          20009 20010 20011 20012 20013 20014
          20015 20016 20017 20018 20019 20020
          20021 20022 20023 20024 20025 20026
          20027 20028 20029 20030 20031 20032
          20033 20034 20035 20036 20037 20038
          20039 20040 20041 20042 20043 20044
          20045 20046 20047 20048 20049 20050
          20051 20052 20053 20054 20055 20056
          20057 20058 20059 20060 20061 20062
          20063 20064 20065 20066 20067 20068
          20069 20070 20071 20072 20073 20074
          20075 20076 20077 20088 20089 20090
          20091 20092 20093 20094 20102 20103
          20104 20105 20106 20107 20108 20109
          20110 20111 20112 20113 20115 20116
          20117 20118 20119 20120 20121 20122
          20130 20131 20132 20133 20134 20135
          20136 20200 20201 20202 20203 20204
          20205 20206 20207 20208 20209 20210
          20211 20212 20213 20214 20215 20216
          20217 20218 20219 20220 20221 20222
          20223 20224 20225 20226 20227 20228
          20229 20230 20231 20232 20233 20234
          20242 20243 20244 20245 20246 20247
          20248
        </DataArray>
        <DataArray type="Float64" Name="bounds" format="ascii" RangeMin="0" RangeMax="0">
          0 0 0 0 0 0
          0 0 0 0 0 0
          0 0 0 0 0 0
          0 0 0 0 0 0
          0 0 0 0 0 0
          0 0 0 0 0 0
          0 0 0 0 0 0
          0 0 0 0 0 0
          0 0 0 0 0 0
          0 0 0 0 0 0
          0 0 0 0 0 0
          0 0 0 0 0 0
          0 0 0 0 0 0
          0 0 0 0 0 0
          0 0 0 0 0 0
          0 0 0 0 0 0
          0 0 0 0 0 0
          0 0 0 0 0 0
          0 0 0 0 0 0
          0 0 0 0 0 0
          0 0 0 0 0 0
          0 0 0 0 0 0
          0 0 0 0 0 0
          0 0 0 0 0 0
          0 0 0 0 0 0
          0 0 0 0 0 0
          0 0 0 0 0 0
          0 0 0 0 0 0
          0 0 0 0 0 0
          0 0 0 0 0 0
          0 0 0 0 0 0
          0 0 0 0 0 0
          0 0 0 0 0 0
          0 0 0 0 0 0
          0 0 0 0 0 0
          0 0 0 0 0 0
          0 0 0 0 0 0
          0 0 0 0 0 0
          0 0 0 0 0 0
          0 0 0 0 0 0
          0 0 0 0 0 0
          0 0 0 0 0 0
          0 0 0 0 0 0
          0 0 0 0 0 0
          0 0 0 0 0 0
          0 0 0 0 0 0
          0 0 0 0 0 0
          0 0 0 0 0 0
          0 0 0 0 0 0
          0 0 0 0 0 0
          0 0 0 0 0 0
          0 0 0 0 0 0
          0 0 0 0 0 0
          0 0 0 0 0 0
          0 0 0 0 0 0
          0 0 0 0 0 0
          0 0 0 0 0 0
          0 0 0 0 0 0
          0 0 0 0 0 0
          0 0 0 0 0 0
          0 0 0 0 0 0
          0 0 0 0 0 0
          0 0 0 0 0 0
          0 0 0 0 0 0
          0 0 0 0 0 0
          0 0 0 0 0 0
          0 0 0 0 0 0
          0 0 0 0 0 0
          0 0 0 0 0 0
          0 0 0 0 0 0
          0 0 0 0 0 0
          0 0 0 0 0 0
          0 0 0 0 0 0
          0 0 0 0 0 0
          0 0 0 0 0 0
          0 0 0 0 0 0
          0 0 0 0 0 0
          0 0 0 0 0 0
          0 0 0 0 0 0
          0 0 0 0 0 0
          0 0 0 0 0 0
          0 0 0 0 0 0
          0 0 0 0 0 0
          0 0 0 0 0 0
          0 0 0 0 0 0
          0 0 0 0 0 0
          0 0 0 0 0 0
          0 0 0 0 0 0
          0 0 0 0 0 0
          0 0 0 0 0 0
          0 0 0 0 0 0
          0 0 0 0 0 0
          0 0 0 0 0 0
          0 0 0 0 0 0
          0 0 0 0 0 0
          0 0 0 0 0 0
          0 0 0 0 0 0
          0 0 0 0 0 0
          0 0 0 0 0 0
          0 0 0 0 0 0
          0 0 0 0 0 0
          0 0 0 0 0 0
          0 0 0 0 0 0
          0 0 0 0 0 0
          0 0 0 0 0 0
          0 0 0 0 0 0
          0 0 0 0 0 0
          0 0 0 0 0 0
          0 0 0 0 0 0
          0 0 0 0 0 0
          0 0 0 0 0 0
          0 0 0 0 0 0
          0 0 0 0 0 0
          0 0 0 0 0 0
          0 0 0 0 0 0
          0 0 0 0 0 0
          0 0 0 0 0 0
          0 0 0 0 0 0
          0 0 0 0 0 0
          0 0 0 0 0 0
          0 0 0 0 0 0
          0 0 0 0 0 0
          0 0 0 0 0 0
          0 0 0 0 0 0
          0 0 0 0 0 0
          0 0 0 0 0 0
          0 0 0 0 0 0
          0 0 0 0 0 0
          0 0 0 0 0 0
          0 0 0 0 0 0
          0 0 0 0 0 0
          0 0 0 0 0 0
          0 0 0 0 0 0
          0 0 0 0 0 0
          0 0 0 0 0 0
          0 0 0 0 0 0
          0 0 0 0 0 0
          0 0 0 0 0 0
          0 0 0 0 0 0
          0 0 0 0 0 0
          0 0 0 0 0 0
          0 0 0 0 0 0
          0 0 0 0 0 0
          0 0 0 0 0 0
          0 0 0 0 0 0
          0 0 0 0 0 0
          0 0 0 0 0 0
          0 0 0 0 0 0
          0 0 0 0 0 0
          0 0 0 0 0 0
          0 0 0 0 0 0
          0 0 0 0 0 0
          0 0 0 0 0 0
          0 0 0 0 0 0
          0 0 0 0 0 0
          0 0 0 0 0 0
          0 0 0 0 0 0
          0 0 0 0 0 0
          0 0 0 0 0 0
          0 0 0 0 0 0
          0 0 0 0 0 0
          0 0 0 0 0 0
          0 0 0 0 0 0
          0 0 0 0 0 0
          0 0 0 0 0 0
          0 0 0 0 0 0
          0 0 0 0 0 0
          0 0 0 0 0 0
          0 0 0 0 0 0
          0 0 0 0 0 0
          0 0 0 0 0 0
          0 0 0 0 0 0
          0 0 0 0 0 0
          0 0 0 0 0 0
          0 0 0 0 0 0
          0 0 0 0 0 0
          0 0 0 0 0 0
          0 0 0 0 0 0
          0 0 0 0 0 0
          0 0 0 0 0 0
          0 0 0 0 0 0
          0 0 0 0 0 0
          0 0 0 0 0 0
          0 0 0 0 0 0
          0 0 0 0 0 0
          0 0 0 0 0 0
          0 0 0 0 0 0
          0 0 0 0 0 0
          0 0 0 0 0 0
          0 0 0 0 0 0
          0 0 0 0 0 0
          0 0 0 0 0 0
          0 0 0 0 0 0
          0 0 0 0 0 0
          0 0 0 0 0 0
          0 0 0 0 0 0
          0 0 0 0 0 0
          0 0 0 0 0 0
          0 0 0 0 0 0
          0 0 0 0 0 0
          0 0 0 0 0 0
          0 0 0 0 0 0
          0 0 0 0 0 0
          0 0 0 0 0 0
          0 0 0 0 0 0
          0 0 0 0 0 0
          0 0 0 0 0 0
          0 0 0 0 0 0
          0 0 0 0 0 0
          0 0 0 0 0 0
          0 0 0 0 0 0
          0 0 0 0 0 0
          0 0 0 0 0 0
          0 0 0 0 0 0
          0 0 0 0 0 0
          0 0 0 0 0 0
          0 0 0 0 0 0
          0 0 0 0 0 0
          0 0 0 0 0 0
          0 0 0 0 0 0
          0 0 0 0 0 0
          0 0 0 0 0 0
          0 0 0 0 0 0
          0 0 0 0 0 0
          0 0 0 0 0 0
          0 0 0 0 0 0
          0 0 0 0 0 0
          0 0 0 0 0 0
          0 0 0 0 0 0
          0 0 0 0 0 0
          0 0 0 0 0 0
          0 0 0 0 0 0
          0 0 0 0 0 0
          0 0 0 0 0 0
          0 0 0 0 0 0
          0 0 0 0 0 0
          0 0 0 0 0 0
          0 0 0 0 0 0
          0 0 0 0 0 0
          0 0 0 0 0 0
          0 0 0 0 0 0
          0 0 0 0 0 0
          0 0 0 0 0 0
          0 0 0 0 0 0
          0 0 0 0 0 0
          0 0 0 0 0 0
          0 0 0 0 0 0
          0 0 0 0 0 0
          0 0 0 0 0 0
          0 0 0 0 0 0
          0 0 0 0 0 0
          0 0 0 0 0 0
          0 0 0 0 0 0
          0 0 0 0 0 0
          0 0 0 0 0 0
          0 0 0 0 0 0
          0 0 0 0 0 0
          0 0 0 0 0 0
          0 0 0 0 0 0
          0 0 0 0 0 0
          0 0 0 0 0 0
          0 0 0 0 0 0
          0 0 0 0 0 0
          0 0 0 0 0 0
          0 0 0 0 0 0
          0 0 0 0 0 0
          0 0 0 0 0 0
          0 0 0 0 0 0
          0 0 0 0 0 0
          0 0 0 0 0 0
          0 0 0 0 0 0
          0 0 0 0 0 0
          0 0 0 0 0 0
          0 0 0 0 0 0
          0 0 0 0 0 0
          0 0 0 0 0 0
          0 0 0 0 0 0
          0 0 0 0 0 0
          0 0 0 0 0 0
          0 0 0 0 0 0
          0 0 0 0 0 0
          0 0 0 0 0 0
          0 0 0 0 0 0
          0 0 0 0 0 0
          0 0 0 0 0 0
          0 0 0 0 0 0
          0 0 0 0 0 0
          0 0 0 0 0 0
          0 0 0 0 0 0
          0 0 0 0 0 0
          0 0 0 0 0 0
          0 0 0 0 0 0
          0 0 0 0 0 0
          0 0 0 0 0 0
          0 0 0 0 0 0
          0 0 0 0 0 0
          0 0 0 0 0 0
          0 0 0 0 0 0
          0 0 0 0 0 0
          0 0 0 0 0 0
          0 0 0 0 0 0
          0 0 0 0 0 0
          0 0 0 0 0 0
          0 0 0 0 0 0
          0 0 0 0 0 0
          0 0 0 0 0 0
          0 0 0 0 0 0
          0 0 0 0 0 0
          0 0 0 0 0 0
          0 0 0 0 0 0
          0 0 0 0 0 0
          0 0 0 0 0 0
          0 0 0 0 0 0
          0 0 0 0 0 0
          0 0 0 0 0 0
          0 0 0 0 0 0
          0 0 0 0 0 0
          0 0 0 0 0 0
          0 0 0 0 0 0
          0 0 0 0 0 0
          0 0 0 0 0 0
          0 0 0 0 0 0
          0 0 0 0 0 0
          0 0 0 0 0 0
          0 0 0 0 0 0
          0 0 0 0 0 0
          0 0 0 0 0 0
          0 0 0 0 0 0
          0 0 0 0 0 0
          0 0 0 0 0 0
          0 0 0 0 0 0
          0 0 0 0 0 0
          0 0 0 0 0 0
          0 0 0 0 0 0
          0 0 0 0 0 0
          0 0 0 0 0 0
          0 0 0 0 0 0
          0 0 0 0 0 0
          0 0 0 0 0 0
          0 0 0 0 0 0
          0 0 0 0 0 0
          0 0 0 0 0 0
          0 0 0 0 0 0
          0 0 0 0 0 0
          0 0 0 0 0 0
          0 0 0 0 0 0
          0 0 0 0 0 0
          0 0 0 0 0 0
          0 0 0 0 0 0
          0 0 0 0 0 0
          0 0 0 0 0 0
          0 0 0 0 0 0
          0 0 0 0 0 0
          0 0 0 0 0 0
          0 0 0 0 0 0
          0 0 0 0 0 0
          0 0 0 0 0 0
          0 0 0 0 0 0
          0 0 0 0 0 0
          0 0 0 0 0 0
          0 0 0 0 0 0
          0 0 0 0 0 0
          0 0 0 0 0 0
          0 0 0 0 0 0
          0 0 0 0 0 0
          0 0 0 0 0 0
          0 0 0 0 0 0
          0 0 0 0 0 0
          0 0 0 0 0 0
          0 0 0 0 0 0
          0 0 0 0 0 0
          0 0 0 0 0 0
          0 0 0 0 0 0
          0
        </DataArray>
        <DataArray type="Float64" Name="gradient_error" format="ascii" RangeMin="2.782331848852792e-13" RangeMax="5.696986317242708e-7">
          1.1673454443264897e-10 7.246714272775689e-8 1.6687867685068356e-11 1.3008185809847227e-9 1.0423191532554787e-7 9.471412172212507e-12
          2.6291092782369422e-9 5.557094370489371e-10 5.154309716387638e-10 1.4675868007964812e-9 1.0503059907900437e-10 2.4881433162059514e-10
          2.064073119898027e-8 3.3050028073651575e-11 2.1219769359446968e-9 9.337935573984156e-8 3.4060153236662484e-7 1.2243400439671774e-7
          5.909385199577027e-9 2.5713373468817515e-10 5.728797015504038e-9 1.0421683607940125e-11 2.2603953045115918e-7 1.1235133903654405e-9
          1.554293454778964e-8 4.2054611983289885e-9 1.837743505773034e-8 3.2604366196351064e-9 5.191695402410952e-8 1.3668024187985674e-9
          1.7128467629713982e-9 5.918094690083115e-11 1.9863876774191785e-10 7.182106223266359e-10 1.5490790881451195e-9 2.990882928530026e-10
          1.6288068510219164e-9 4.2765928277877983e-10 1.7037798857983886e-9 2.815585397787216e-12 8.738865532723361e-8 4.935308053483925e-8
          4.207903457001414e-8 9.389620113270158e-10 1.3242985136173556e-8 4.821105040874465e-9 7.993280603556672e-9 1.423221814950857e-10
          3.0929626130363516e-12 1.4338830159567662e-10 9.017352793355789e-13 4.908288972339092e-12 4.707360467790706e-8 2.1947896054975566e-7
          1.2628052613358881e-7 1.077590309519431e-7 5.463559159030324e-8 4.6521915090909105e-7 2.736269105257137e-7 2.3663181274754578e-7
          2.6974261823123993e-9 9.874475618246159e-11 4.3229580882602345e-8 3.464594250599007e-8 2.9917422110474563e-9 6.693375804478949e-9
          3.117228446051314e-8 1.1956991164559312e-8 1.8603680998333277e-8 3.4929607762182064e-9 6.235067815968342e-8 2.5955498073579254e-8
          2.0501575908936882e-8 3.7363402756726874e-10 8.786676745895012e-12 2.853265659129114e-10 1.0030017044753019e-11 8.758544715193401e-10
          2.1782586492282503e-11 4.5537766155711224e-10 5.696986317242708e-7 3.1208161137741945e-7 3.5485977710999493e-7 4.4486826145358644e-7
          2.304024558183462e-7 2.3781527846004225e-7 4.264604978824691e-7 8.019517121488134e-8 6.883376287611266e-8 1.1569946992285025e-8
          6.618579027487295e-9 1.3986167033528061e-8 5.789672865992695e-10 1.1506192592591622e-7 1.2213144525186184e-8 2.4402369718187458e-8
          1.1649016528900368e-7 4.987689915475192e-8 2.3718591715419586e-8 9.131633842830543e-9 2.0466107405324397e-7 8.947756766720407e-8
          3.9109002880238965e-8 1.8207496404356e-9 4.702473001468372e-11 4.4829876248167744e-10 1.6635822831206632e-11 3.3843573171697463e-9
          8.888091069805982e-11 4.680878604417381e-10 4.568118501923433e-9 6.730876480254538e-9 4.423929398246631e-9 1.1747599962030438e-8
          3.2962685640721874e-9 4.898672317102098e-9 1.355874722841429e-9 1.915764396159788e-9 1.6180777175207396e-9 2.858756048871442e-9
          9.430720966724188e-10 8.563819882539364e-9 2.982547060375351e-9 5.581346459516964e-9 5.681744382001303e-10 4.204228138622507e-10
          5.6595975204235953e-11 5.675422444284887e-11 4.2076990709478556e-10 3.772544290347063e-10 9.76987616649124e-11 2.889039868982826e-10
          7.128549037511122e-11 4.5582965305981094e-10 3.240523085060964e-7 1.4557749493015674e-7 5.983307523710581e-8 2.401631468524525e-8
          1.4849899836957767e-12 4.4047248977813e-12 1.97542957473178e-12 3.1871160023868583e-12 1.9792212999071923e-12 3.1636407607655207e-12
          6.96673825383337e-12 2.9159753760981348e-12 1.8991126070421337e-12 2.023244984538401e-11 3.695029360282105e-11 3.3378133148020997e-10
          7.274480586536476e-10 5.437408006882468e-10 1.9442801779371542e-10 4.0748418409339346e-10 3.268101209689721e-11 4.596823178155675e-11
          1.5548649066577423e-10 3.424749741312283e-10 7.828584165433819e-11 7.792951713242991e-12 6.829039203847306e-12 8.40272067779684e-12
          4.068579124655924e-12 9.938923132589983e-12 9.86602029395272e-12 5.189671392659094e-12 1.5736798719269314e-11 1.422778036589104e-11
          6.1797190999960104e-12 2.459172862438556e-11 5.950103220059026e-9 9.580103122278371e-9 5.070483722764083e-9 2.3350390167246994e-9
          7.379701859372807e-11 1.0284541433390766e-9 2.4179308052564486e-10 8.509789281938351e-10 3.633742836444716e-10 4.0349263060107043e-10
          2.4939393644023953e-11 1.000042230550501e-11 8.664523047218719e-12 1.8018828990988194e-10 6.986887794706791e-11 1.2829847623803643e-10
          1.2904643797332035e-11 4.358133206434292e-12 2.0605463254456585e-11 1.4202163442999304e-11 4.067666236195079e-12 1.3861630695075841e-12