<?xml version="1.0"?>
<VTKFile type="UnstructuredGrid" version="0.1" byte_order="LittleEndian" header_type="UInt32" compressor="vtkZLibDataCompressor">
  <UnstructuredGrid>
    <Piece NumberOfPoints="539" NumberOfCells="307">
      <PointData>
        <DataArray type="Int32" Name="libmesh_node_id" format="ascii" RangeMin="366" RangeMax="3260">
          366 437 438 444 567 568
          569 572 575 716 717 738
          743 1028 1029 1030 1031 1032
          1034 1035 1036 1037 1038 1039
          1050 1051 1052 1053 1054 1055
          1058 1059 1070 1071 1072 1073
          1076 1077 1078 1080 1081 1082
          1083 1087 1088 1090 1091 1093
          1108 1109 1112 1114 1115 1117
          1128 1129 1132 1133 1135 1137
          1666 1668 1669 1670 1671 1673
          1675 1676 1677 1748 1749 1751
          1754 1756 1757 1758 1759 1760
          1761 1762 1763 1764 1765 1767
          1769 1771 1773 1774 1775 1776
          1777 1778 1779 1785 1790 1791
          1792 1793 1794 1795 1796 1797
          1798 1799 1801 1803 1805 1807
          1808 1809 1810 1811 1812 1813
          1814 1815 1816 1817 1822 1823
          1824 1825 1827 1849 1850 1851
          1852 1853 1854 1855 1856 1857
          1858 1869 1870 1871 1872 1873
          1874 1875 1876 1878 1880 1882
          1883 1884 1885 1886 1887 1888
          1889 1890 1891 1892 1903 1904
          1905 1906 1907 1908 1909 1910
          1912 1914 1916 2809 2810 2811
          2812 2813 2814 2815 2816 2817
          2818 2819 2820 2821 2822 2823
          2824 2825 2826 2827 2828 2829
          2830 2831 2832 2833 2834 2835
          2836 2905 2906 2907 2908 2909
          2910 2911 2912 2913 2914 2915
          2916 2917 2918 2919 2920 2921
          2922 2923 2924 2925 2926 2927
          2928 2929 2930 2931 2932 2933
          2934 2935 2936 2937 2938 2939
          2940 2941 2942 2943 2944 2945
          2946 2947 2948 2949 2950 2951
          2952 2953 2954 2955 2956 2957
          2958 2959 2960 2961 2962 2963
          2964 2965 2966 2967 2968 2969
          2970 2971 2972 2987 2988 2989
          2990 2991 2992 2993 2994 2995
          2996 2997 2998 2999 3000 3001
          3002 3003 3004 3005 3006 3007
          3008 3009 3010 3011 3012 3013
          3014 3015 3016 3017 3018 3019
          3020 3021 3022 3023 3024 3025
          3026 3027 3028 3029 3030 3031
          3032 3033 3034 3035 3036 3037
          3038 3039 3040 3041 3042 3044
          3053 3058 3069 3071 3075 3076
          3078 3079 3080 3081 3082 3083
          3084 3085 3086 3087 3088 3089
          3090 3091 3092 3093 3094 3095
          3096 3097 3098 3099 3100 3101
          3102 3103 3104 3105 3106 3107
          3108 3109 3110 3111 3112 3113
          3114 3115 3116 3117 3118 3119
          3120 3121 3122 3123 3124 3125
          3126 3127 3128 3129 3130 3131
          3132 3133 3134 3135 3136 3137
          3138 3139 3140 3141 3142 3143
          3144 3145 3146 3147 3148 3151
          3153 3154 3156 3167 3169 3171
          3173 3181 3182 3185 3187 3188
          3190 3201 3203 3205 3207 3215
          3216 3217 3218 3219 3220 3221
          3222 3223 3224 3225 3226 3227
          3228 3229 3230 3231 3232 3233
          3234 3235 3236 3237 3238 3239
          3240 3242 3244 3246 3247 3248
          3249 3250 3251 3252 3253 3254
          3256 3258 3260 578 584 580
          585 747 748 577 766 590
          772 1084 1085 1086 1089 579
          1092 1130 1113 1131 1134 588
          1136 1818 1819 1859 1860 1821
          1863 1866 1868 1826 1864 1877
          1879 1111 1881 1897 1911 1913
          1915 3049 3050 3043 3051 3052
          3054 3055 3056 3057 1865 3149
          3150 3152 1893 3155 1894 3070
          3168 3170 3172 3183 3184 3186
          1899 3189 1900 3202 3204 3206
          1902 3074 3176 3077 3177 3241
          3243 3180 1898 3245 3210 3211
          3255 3257 3214 1116 3259
        </DataArray>
        <DataArray type="Float64" Name="bounds" format="ascii" RangeMin="0" RangeMax="0">
          0 0 0 0 0 0
          0 0 0 0 0 0
          0 0 0 0 0 0
          0 0 0 0 0 0
          0 0 0 0 0 0
          0 0 0 0 0 0
          0 0 0 0 0 0
          0 0 0 0 0 0
          0 0 0 0 0 0
          0 0 0 0 0 0
          0 0 0 0 0 0
          0 0 0 0 0 0
          0 0 0 0 0 0
          0 0 0 0 0 0
          0 0 0 0 0 0
          0 0 0 0 0 0
          0 0 0 0 0 0
          0 0 0 0 0 0
          0 0 0 0 0 0
          0 0 0 0 0 0
          0 0 0 0 0 0
          0 0 0 0 0 0
          0 0 0 0 0 0
          0 0 0 0 0 0
          0 0 0 0 0 0
          0 0 0 0 0 0
          0 0 0 0 0 0
          0 0 0 0 0 0
          0 0 0 0 0 0
          0 0 0 0 0 0
          0 0 0 0 0 0
          0 0 0 0 0 0
          0 0 0 0 0 0
          0 0 0 0 0 0
          0 0 0 0 0 0
          0 0 0 0 0 0
          0 0 0 0 0 0
          0 0 0 0 0 0
          0 0 0 0 0 0
          0 0 0 0 0 0
          0 0 0 0 0 0
          0 0 0 0 0 0
          0 0 0 0 0 0
          0 0 0 0 0 0
          0 0 0 0 0 0
          0 0 0 0 0 0
          0 0 0 0 0 0
          0 0 0 0 0 0
          0 0 0 0 0 0
          0 0 0 0 0 0
          0 0 0 0 0 0
          0 0 0 0 0 0
          0 0 0 0 0 0
          0 0 0 0 0 0
          0 0 0 0 0 0
          0 0 0 0 0 0
          0 0 0 0 0 0
          0 0 0 0 0 0
          0 0 0 0 0 0
          0 0 0 0 0 0
          0 0 0 0 0 0
          0 0 0 0 0 0
          0 0 0 0 0 0
          0 0 0 0 0 0
          0 0 0 0 0 0
          0 0 0 0 0 0
          0 0 0 0 0 0
          0 0 0 0 0 0
          0 0 0 0 0 0
          0 0 0 0 0 0
          0 0 0 0 0 0
          0 0 0 0 0 0
          0 0 0 0 0 0
          0 0 0 0 0 0
          0 0 0 0 0 0
          0 0 0 0 0 0
          0 0 0 0 0 0
          0 0 0 0 0 0
          0 0 0 0 0 0
          0 0 0 0 0 0
          0 0 0 0 0 0
          0 0 0 0 0 0
          0 0 0 0 0 0
          0 0 0 0 0 0
          0 0 0 0 0 0
          0 0 0 0 0 0
          0 0 0 0 0 0
          0 0 0 0 0 0
          0 0 0 0 0 0
          0 0 0 0 0
        </DataArray>
        <DataArray type="Float64" Name="gradient_error" format="ascii" RangeMin="2.9163496388536214e-9" RangeMax="4.424356034791408e-7">
          6.259177400663995e-9 1.766103134742894e-8 6.544963082694804e-8 3.513306621575338e-8 7.419018138103682e-8 2.8361483276718266e-7
          2.084386841311993e-7 7.19795988974699e-8 4.24176091001088e-7 1.5434050753621635e-8 1.5400591391273005e-8 7.54355933082535e-9
          8.989984235258272e-9 2.2604151763491157e-7 1.8810447439966678e-7 1.7375736427816613e-8 1.9770727836475522e-7 1.6087655347342557e-7
          1.5016743116442193e-7 1.2404582858209595e-7 3.013930687402849e-7 2.4123093577827124e-7 2.2013004696143383e-7 2.386294173750657e-7
          1.059874183526398e-7 1.5152747565472852e-7 2.2001248989208373e-8 1.730396024811688e-7 3.386545102678683e-7 3.139931700581398e-7
          2.2331874793339936e-8 4.424356034791408e-7 2.1684363551714864e-7 3.0252915239761213e-7 1.7912490495658452e-7 2.596822783295381e-7
          4.8462209268815367e-8 3.8821466927807573e-7 3.402396517024917e-7 1.134995987571017e-8 1.4170994621027662e-8 1.6433851392960196e-7
          1.298318442813051e-7 1.6992029366345155e-8 9.532517463300829e-8 2.5502427334304623e-7 1.895644283946755e-7 1.618379486126076e-7
          2.669970581002836e-8 1.9923287853332554e-7 2.7264416036063427e-7 9.533934604617303e-9 2.918269369641922e-8 3.838185504522665e-7
          1.3656605295573034e-7 2.0654416003315948e-7 2.4768003819717248e-8 2.537082628999191e-8 2.765222671105887e-7 2.5973648760266583e-8
          1.5739131082089046e-7 1.7368991744102955e-7 1.6346711847448967e-7 1.6913037130542142e-7 1.3456184064697058e-7 9.995786250786437e-8
          9.827835910051011e-8 9.544235056512956e-8 8.067735641502886e-8 1.8140223757983774e-7 1.7741101871636918e-7 1.5998467854964506e-7
          1.0875322176609493e-7 1.4457911203725648e-7 1.6360194636914604e-7 1.0531494556061973e-7 1.4886674127433377e-7 1.6681386871773353e-7
          1.7364323066664627e-7 6.54690353768345e-8 9.233584692117104e-8 7.529277473422876e-8 1.6172880473553073e-7 1.256215185531484e-7
          1.0469347985990728e-7 1.7090365558229836e-7 1.271293832597457e-7 1.2782763212031286e-7 1.0337191103186876e-7 1.0089371695368603e-7
          1.7899017592344246e-7 1.8725765553845372e-7 1.5416032905378974e-7 6.778194563493258e-8 9.578090522463389e-9 1.2800714843304033e-8
          1.1526874367469477e-8 1.493808750444452e-8 7.269712819755685e-8 7.858104581010691e-8 5.180772593276476e-9 1.0265814815906221e-8
          1.2354165547302291e-8 2.0519802750040188e-8 1.517500536771426e-7 1.869988755416257e-7 1.1310068403219594e-7 1.6099110309740206e-7
          1.707492348551662e-7 1.9644567441854388e-7 2.0540056547930536e-7 1.201304232378923e-7 1.2747071022045726e-7 2.1063715637821693e-7
          1.8782442568558824e-7 1.7379185165070507e-7 1.7650396226484129e-7 1.357666147088452e-7 9.111009207570221e-8 8.523865185743056e-8
          7.044623234953594e-8 7.804111868370653e-8 5.58700621699149e-8 1.1012801377015159e-7 1.5644862477553864e-7 1.1437528480231989e-7
          1.6380027963436873e-7 1.8039749620047552e-7 1.8650622275733968e-7 2.396170476320528e-8 8.14022281015711e-8 8.867756227954736e-8
          1.8560353064464765e-7 1.2736983519524125e-7 1.2538695866151753e-7 9.691198657557885e-8 9.128704240518128e-8 1.953108742039643e-7
          2.0247645124904893e-7 1.5850356835899921e-7 1.2122752202968368e-7 8.38988723854152e-8 1.7190840589723007e-7 1.5298552736549633e-7
          1.3833327237697175e-8 1.783974927688802e-8 1.6756016999781965e-8 2.1616953994111718e-8 8.547984980564003e-8 9.372541053478692e-8
          7.650821161950894e-9 1.493444672680146e-8 1.8362741119222462e-8 2.516374157093367e-8 1.8054245189262052e-7 1.8965795584461746e-7
          2.1310422822426585e-7 2.1831260418477534e-7 1.3432945204525338e-7 1.401515482681785e-7 2.3257906053215505e-7 1.6221557304886722e-7
          2.191938293208391e-7 1.4406885165831965e-7 2.4434428651160103e-7 2.7203498519467316e-8 2.8147368727478448e-8 2.798400504772173e-8
          2.9401422062895325e-8 2.7820641367965012e-8 2.7142865294141452e-8 2.702928561059542e-8 2.6915705927049387e-8 1.5603849901621686e-8
          1.6721509621970508e-8 2.025582117380987e-8 2.0493878320929897e-8 2.7601061121325134e-8 2.7628889369202693e-8 2.8592089665210192e-8
          2.8786757734533962e-8 2.765671761708025e-8 2.898142580385773e-8 2.1452233238457288e-8 2.2214309503679373e-8 2.2923605805189378e-8
          2.3514577624677018e-8 2.4499859333498086e-8 2.5406683621748053e-8 2.5851131367455707e-8 2.640432258004965e-8 2.7476295976834134e-8
          2.8217683823871165e-8 1.2852178652935847e-8 1.3744424145076528e-8 1.3382203928198937e-8 1.4323780083495455e-8 1.691100097083254e-8
          1.7502043863342944e-8 8.785696102231524e-9 9.599233489878974e-9 1.0452679632159811e-8 1.1954585461532821e-8 1.3979225816027379e-8
          1.496972004984931e-8 1.482742030992369e-8 1.5832474078981403e-8 1.8230929159109375e-8 1.9166992138045714e-8 1.0504495910255592e-8
          1.1429992695825916e-8 1.250505206840629e-8 1.3788861330588346e-8 2.192653645551391e-8 2.2662003788436785e-8 2.4667740606579947e-8
          2.5585276088979662e-8 1.6867362350365316e-8 1.7525960667164903e-8 2.2331483629539594e-8 2.3537780093387207e-8 2.455878071679213e-8
          2.6573916152226915e-8 2.7621105005531946e-8 1.836951757316028e-8 1.9420529485702927e-8 2.3833136562969823e-8 6.0978816456819275e-9
          7.340570032884371e-9 6.667572810467297e-9 8.030726786805298e-9 9.969382023429452e-9 1.0912935701884116e-8 4.724878491150817e-9
          6.250011754193343e-9 6.847459066428846e-9 9.35771674452845e-9 7.294595350364204e-9 8.791923343975668e-9 7.992101642476154e-9
          9.633905597692019e-9 1.1951757475079358e-8 1.3096206853021935e-8 5.688937550529223e-9 7.50845607932303e-9 8.247537012328106e-9
          1.1262181103282995e-8 1.3544132157208843e-8 1.4388475644753099e-8 2.079118130626652e-8 2.14873996709013e-8 1.2706753191216788e-8
          1.3642353910301915e-8 1.9827312091075732e-8 1.5434334235851654e-8 1.668032345315619e-8 2.2308595091226876e-8 2.3290995058069788e-8
          1.4800870932107525e-8 1.6160853391656644e-8 2.133255957829035e-8 2.7322040286116947e-8 2.840733138485943e-8 2.8126278993997934e-8
          2.958014776151951e-8 3.084554379462057e-8 3.0694489767209764e-8 2.7051617297043893e-8 2.805268365974857e-8 2.8253630669200353e-8
          2.9475528626575808e-8 2.6781194307970846e-8 2.7698035934637716e-8 2.838098234440277e-8 2.913606724033715e-8 3.032107770589649e-8
          3.090934915735227e-8 3.25041080488298e-8 2.8691986719154794e-8 2.979661161717241e-8 3.1124208547494775e-8 3.08626013904522e-8
          3.0727315973305256e-8 3.223352904959329e-8 3.0592030556158316e-8 3.421537737945902e-8 3.3940127541085853e-8 3.572879477163302e-8
          3.366487770271269e-8 2.9665747447710998e-8 2.9919217423006405e-8 3.079136266708398e-8 3.112178896114379e-8 3.01726873983018e-8
          3.1452215255203604e-8 2.2909904598276623e-8 2.3853740738633915e-8 2.491278892828801e-8 2.5393860654043247e-8 3.2028331659276445e-8
          3.2441727009786224e-8 3.3439963693194676e-8 3.391026010145154e-8 3.2855122360296004e-8 3.4380556509708395e-8 2.5185751984059182e-8
          2.6154595880255345e-8 2.765931620724387e-8 2.776938068687255e-8 2.8602248629664775e-8 2.98541247938645e-8 3.0618069055182213e-8
          3.132390752603937e-8 3.3055184101562605e-8 3.358655254436408e-8 3.778783672373477e-8 3.750860038450555e-8 3.722936404527634e-8
          3.6039569998920164e-8 3.1167131200271467e-8 3.5067768888624514e-8 3.745262677580753e-8 3.69379166636594e-8 3.774077109116263e-8
          3.5375553116578625e-8 1.5973300037751947e-8 1.6953945851778886e-8 1.7371323860314157e-8 1.831346749987339e-8 2.028956574882005e-8
          2.1605339694174678e-8 1.2623517927283449e-8 1.3693956301691708e-8 1.5040813101907254e-8 1.62812864071589e-8 1.901899112401506e-8
          1.9933733530060353e-8 2.0899076262995655e-8 2.18184840572567e-8 2.317137029403342e-8 2.502394175934434e-8 1.5197886783487574e-8
          1.656750821615742e-8 1.8307471625556782e-8 1.9609632060563805e-8 2.5699986711395087e-8 2.700338198590107e-8 2.875543359095588e-8
          3.005169572288542e-8 2.0676682279170838e-8 2.215334802739222e-8 2.5881351520115123e-8 2.8543669762665307e-8 3.037295970814143e-8
          3.1593074873369426e-8 3.3435927749111924e-8 2.388307939192832e-8 2.591005291284069e-8 2.878610085921386e-8 8.778717275765202e-9
          1.0580260199732342e-8 9.673556981837248e-9 1.165736188774373e-8 1.438114751292326e-8 1.5842782592133077e-8 6.906083080883958e-9
          9.08413689507875e-9 1.0044503587538007e-8 1.3564734848326592e-8 1.0702771233150295e-8 1.2897135677343849e-8 1.1898195606949198e-8
          1.433880781604772e-8 1.751081362936551e-8 1.9427617637736156e-8 8.517533118331077e-9 1.1160856700469468e-8 1.247273351227759e-8
          1.6513716204301068e-8 1.8119925734191002e-8 1.9761247793927707e-8 2.4486822641570487e-8 2.594774239329886e-8 1.7684211703165724e-8
          1.936843871100862e-8 2.359801706633307e-8 2.1631910894331322e-8 2.3782211056399386e-8 2.7701716011391244e-8 2.975539013878147e-8
          2.1261095004097262e-8 2.343505160183765e-8 2.7024079335149086e-8 2.302117900342074e-8 2.3985729814741964e-8 2.720442604568889e-8
          1.855892866481262e-8 2.031537629863362e-8 2.3929577121689727e-8 3.2519005204246146e-8 3.557943894317769e-8 2.8283136944483452e-8
          3.2951244199851475e-8 1.3293256927286368e-8 1.6030085902297578e-8 2.16623345617855e-8 1.0728990399255393e-8 1.4025513447140584e-8
          2.054855814744411e-8 2.6281056920058867e-8 3.212211370821508e-8 2.5966081471018606e-8 3.1670486671926866e-8 3.220717678881425e-8
          3.3709934435209506e-8 3.3880671857530804e-8 3.53898537195786e-8 3.723272334618558e-8 3.738945348462823e-8 3.163302017289514e-8
          3.3130256397274654e-8 3.4151754628884265e-8 3.584312520519106e-8 3.105886355697603e-8 3.25505783593398e-8 3.4422837400237726e-8
          3.4844564803869073e-8 3.675289044819405e-8 3.761939223642469e-8 3.948360748129785e-8 3.4299275888159547e-8 3.62730575502025e-8
          3.7849330988221166e-8 3.9382097728310344e-8 3.7728943581506096e-8 3.920618310815601e-8 4.151483322962147e-8 4.111652077284172e-8
          4.028281847572845e-8 3.8176321575454534e-8 4.32900899447831e-8 4.300957340325902e-8 3.882419452502869e-8 4.109891297600724e-8
          4.140852122748274e-8 4.3422645629203774e-8 3.844220594190137e-8 4.0838715504062925e-8 4.1700521682123765e-8 4.361375671926989e-8
          4.5540517315972895e-8 4.3472199409267845e-8 4.603897785975819e-8 3.109191858814654e-8 3.5244674713335875e-8 1.0841227772519471e-7
          2.8252551680701436e-8 7.223610575887175e-9 6.8738221099891774e-9 1.2438814328995349e-8 2.9163496388536214e-9 7.4371441560419186e-9
          3.1644659548083073e-9 1.1748398538314483e-8 1.2396276877106258e-7 9.51533087888289e-8 6.634384880659523e-8 2.1398840516133178e-7
          1.5003178889812733e-7 9.320659499705551e-8 2.1292103584805897e-7 1.4706828845704727e-7 1.095970326235591e-8 3.166498251667895e-7
          2.0092998191703903e-7 1.9481953750543836e-7 1.7637264503696555e-7 1.1719314011416607e-7 1.7019644685536135e-7 1.2906896388299543e-7
          1.910082826972913e-7 9.729254060616457e-8 1.780504824663915e-7 6.946324825573642e-8 1.9287800771103457e-7 1.1411763745610001e-7
          7.431623380582968e-8 1.5390112621019051e-7 1.3448468663176818e-7 6.880153192705308e-8 1.2869226240421955e-7 2.125062982199891e-7
          1.445027613642416e-7 3.5075232102992876e-8 3.555740105095652e-8 3.930610259882002e-8 3.695267465644699e-8 3.740848213484884e-8
          3.786428961325069e-8 2.8572325807392282e-8 2.949078355353937e-8 3.1676109610586145e-8 3.0812331630357943e-8 2.5449548141207686e-8
          2.6481597202865803e-8 2.979260638177869e-8 2.066065500481302e-8 2.265212130874229e-8 2.664207735220063e-8 3.738517351503924e-8
          3.492076018295017e-8 3.8858386536282784e-8 3.099029488254034e-8 1.4914705785631053e-8 1.8021842793356367e-8 2.4293811490095005e-8
          1.2121141173335752e-8 1.5861279824665122e-8 2.31426756392786e-8 2.921795853339391e-8 3.487622710524509e-8 2.891167415256823e-8
          3.451171485283066e-8 4.1135481153228765e-8 4.123299308054854e-8 3.905805681976187e-8 4.3854774803312215e-8 4.1974600806877506e-8
          3.9267818962750955e-8 3.986958659906518e-8 4.300674906735096e-8 4.564489919334548e-8 3.806599938162855e-8 4.1602613661605495e-8
          4.6343293344701346e-8 4.7804217377024306e-8 3.7723330572995044e-8 4.134968303991027e-8 4.6287933096704884e-8
        </DataArray>
        <DataArray type="Float64" Name="gradient_matprop_error" format="ascii" RangeMin="0" RangeMax="0">
          0 0 0 0 0 0
          0 0 0 0 0 0
          0 0 0 0 0 0
          0 0 0 0 0 0
          0 0 0 0 0 0
          0 0 0 0 0 0
          0 0 0 0 0 0
          0 0 0 0 0 0
          0 0 0 0 0 0
          0 0 0 0 0 0
          0 0 0 0 0 0
          0 0 0 0 0 0
          0 0 0 0 0 0
          0 0 0 0 0 0
          0 0 0 0 0 0
          0 0 0 0 0 0
          0 0 0 0 0 0
          0 0 0 0 0 0
          0 0 0 0 0 0
          0 0 0 0 0 0
          0 0 0 0 0 0
          0 0 0 0 0 0
          0 0 0 0 0 0
          0 0 0 0 0 0
          0 0 0 0 0 0
          0 0 0 0 0 0
          0 0 0 0 0 0
          0 0 0 0 0 0
          0 0 0 0 0 0
          0 0 0 0 0 0
          0 0 0 0 0 0
          0 0 0 0 0 0
          0 0 0 0 0 0
          0 0 0 0 0 0
          0 0 0 0 0 0
          0 0 0 0 0 0
          0 0 0 0 0 0
          0 0 0 0 0 0
          0 0 0 0 0 0
          0 0 0 0 0 0
          0 0 0 0 0 0
          0 0 0 0 0 0
          0 0 0 0 0 0
          0 0 0 0 0 0
          0 0 0 0 0 0
          0 0 0 0 0 0
          0 0 0 0 0 0
          0 0 0 0 0 0
          0 0 0 0 0 0
          0 0 0 0 0 0
          0 0 0 0 0 0
          0 0 0 0 0 0
          0 0 0 0 0 0
          0 0 0 0 0 0
          0 0 0 0 0 0
          0 0 0 0 0 0
          0 0 0 0 0 0
          0 0 0 0 0 0
          0 0 0 0 0 0
          0 0 0 0 0 0
          0 0 0 0 0 0
          0 0 0 0 0 0
          0 0 0 0 0 0
          0 0 0 0 0 0
          0 0 0 0 0 0
          0 0 0 0 0 0
          0 0 0 0 0 0
          0 0 0 0 0 0
          0 0 0 0 0 0
          0 0 0 0 0 0
          0 0 0 0 0 0
          0 0 0 0 0 0
          0 0 0 0 0 0
          0 0 0 0 0 0
          0 0 0 0 0 0
          0 0 0 0 0 0
          0 0 0 0 0 0
          0 0 0 0 0 0
          0 0 0 0 0 0
          0 0 0 0 0 0
          0 0 0 0 0 0
          0 0 0 0 0 0
          0 0 0 0 0 0
          0 0 0 0 0 0
          0 0 0 0 0 0
          0 0 0 0 0 0
          0 0 0 0 0 0
          0 0 0 0 0 0
          0 0 0 0 0 0
          0 0 0 0 0
        </DataArray>
        <DataArray type="Float64" Name="initial_marker" format="ascii" RangeMin="0" RangeMax="2">
          2 0 0 0 0 2
          1 0 2 0 0 0
          0 1 1 0 1 1
          1 1 2 2 2 1.3333333333333333
          2 2 2 2 1.5 1.5
          2 2 0 0.5 0 0.5
          0 1 1 0 0 1
          1 0 1 2 2 1.3333333333333333
          2 2 1.5 2 2 2
          0 0.5 0 0 1 0
          2 2 2 2 2 2
          2 2 2 2 2 2
          2 2 2 2 2 2
          2 2 2 2 2 2
          2 2 2 2 2 2
          2 2 2 2 2 2
          2 2 2 2 2 2
          2 2 2 2 2 2
          2 2 2 2 2 2
          2 2 2 2 2 2
          2 2 2 2 2 2
          2 2 2 2 2 2
          2 2 2 2 2 2
          2 2 2 2 2 2
          2 2 2 2 2 2
          2 2 2 2 2 2
          2 2 2 2 2 2
          2 2 2 2 2 2
          2 2 2 2 2 2
          2 2 2 2 2 2
          2 2 2 2 2 2
          2 2 2 2 2 2
          2 2 2 2 2 2
          2 2 2 2 2 2
          2 2 2 2 2 2
          2 2 2 2 2 2
          2 2 2 2 2 2
          2 2 2 2 2 2
          2 2 2 2 2 2
          2 2 2 2 2 2
          2 2 2 2 2 2
          2 2 2 2 2 2
          2 2 2 2 2 2
          2 2 2 2 2 2
          2 2 2 2 2 2
          2 2 2 2 2 2
          2 2 2 2 2 2
          2 2 2 2 2 2
          2 2 2 2 2 2
          2 2 2 2 2 2
          2 2 2 2 2 2
          2 2 2 2 2 2
          2 2 2 2 2 2
          2 2 2 2 2 2
          2 2 2 2 2 2
          2 2 2 2 2 2
          2 2 2 2 2 2
          2 2 2 2 2 2
          2 2 2 2 2 2
          2 2 2 2 2 2
          2 2 2 2 2 2
          2 2 2 2 2 2
          2 2 2 2 2 2
          2 2 2 2 2 2
          2 2 2 2 2 2
          2 2 2 2 2 2
          2 2 2 2 2 2
          2 2 2 2 2 2
          2 2 2 2 2 2
          2 2 2 2 2 2
          2 2 2 2 2 2
          2 2 2 2 2 2
          2 2 2 2 2 2
          2 2 2 2 2 2
          2 2 2 2 2 2
          2 2 2 0 0 1
          0 0 0 0 0 0
          0 0 1 1 1 2
          2 0 1.5 0.5 0 2
          1 2 2 2 2 2
          2 2 2 2 2 2
          2 2 2 2 2 2
          2 2 2 2 2 2
          2 2 2 2 2 2
          2 2 2 2 2 2
          2 2 2 2 2 2
          2 2 2 2 2 2
          2 2 2 2 2 2
          2 2 2 2 2 2
          2 2 2 2 2
        </DataArray>
        <DataArray type="Float64" Name="markers_norefine" format="ascii" RangeMin="0" RangeMax="2">
          2 0 0 0 0 0
          0 0 0 0 0 0
          0 0 0 0 0 0
          0 0 0 0 0 0
          1 0 2 0 0 0
          2 0 0 0 0 0
          0 0 0 0 0 0
          0 0 0 0 0 0
          2 0.5 0 2 2 0
          0 0 0 0 0 0
          0 0 0 0 0 0
          0 0 0 0 0 0
          1 0 0 0 0 0
          0 1 1 1 0 0
          0 0 0 0 0 0
          0 0 0 1 2 2
          2 2 1.5 1.5 2 2
          2 2 0 0 0 0
          0 0 0 0 0 0
          0 0 0 0 0 0
          0 0 0 0 0 0
          0 0 0 2 1.5 1.5
          0.25 0 0 0 0 0
          0 0 0 0 0 0
          2 2 2 2 1.5 1.5
          2 2 2 2 0 0
          0 0 0 0 0 0
          0 0 0 0 0 0
          0 0 0 0 0 2
          2 1.3333333333333333 2 0.5 0.25 1
          0.5 0 0 1.5 1.25 1.5
          1.3333333333333333 1 1 0 1 1
          0 2 2 2 2 2
          2 2 2 2 2 2
          2 2 2 2 2 2
          2 2 2 1.5 1.5 1
          1 2 2 1.6666666666666667 1.5 1.5
          1 1 2 2 2 2
          2 2 2 2 2 2
          2 2 2 2 2 2
          2 2 2 2 2 2
          2 2 2 1.75 2 2
          2 2 2 2 2 2
          2 2 2 0.5 1 0
          1 1 0 0.75 1 0
          0 1 1 0 1 1
          0 0 1 1 0 0
          0 0 0 0 0 0
          0 1 0.75 1 1 0.5
          1 2 1.75 2 1.6666666666666667 1
          1 1 1 1 1 2
          2 2 2 1 1.5 0
          2 2 2 0 0 0
          1 2 2 2 0 0
          0 2 2 2 2 2
          2 2 2 2 2 2
          2 2 2 2 2 2
          2 2 2 1.5 1.75 1
          1.5 2 2 2 2 2
          2 2 2 2 2 2
          2 2 2 2 2 2
          2 2 2 2 2 2
          2 2 2 2 2 2
          2 2 2 2 2 2
          2 2 2 2 2 2
          2 2 2 2 2 2
          2 2 2 2 2 2
          2 2 2 2 2 2
          2 2 2 2 2 1
          1 0 1 1 0 1
          1 0 0 1 1 0
          1 1 0 0 1 1
          0 0.5 0 1 1 0
          0.5 0 1 0 1 1
          0 0 1 1 0 1
          0 1 0 0 0 0
          0 0 0 0 0 0
          0 0 0 0 0 0
          0 0 0 0 0 0
          0 0 0 0 0 0
          0 1.5 0.5 0 0 0
          0 0.5 0 1.75 0 0
          0 1 1 0 1 1
          1 2 2 2 2 2
          2 2 2 2 2 2
          2 1.6666666666666667 2 2 2 2
          2 2 2 2 2 2
          2 1 1.5 0 1.5 0.5
          0 2 2 1 2 2
          1 0 2 2 1
        </DataArray>
        <DataArray type="Float64" Name="markers_mustrefine" format="ascii" RangeMin="0" RangeMax="2">
          2 0 0 0 0 2
          1 0 2 0 0 0
          0 1 1 0 1 1
          1 1 2 2 2 1.3333333333333333
          2 2 2 2 1.5 1.5
          2 2 0 0.5 0 0.5
          0 1 1 0 0 1
          1 0 1 2 2 1.3333333333333333
          2 2 1.5 2 2 2
          0 0.5 0 0 1 0
          2 2 2 2 2 2
          2 2 2 2 2 2
          2 2 2 2 2 2
          2 2 2 2 2 2
          2 2 2 2 2 2
          2 2 2 2 2 2
          2 2 2 2 2 2
          2 2 2 2 2 2
          2 2 2 2 2 2
          2 2 2 2 2 2
          2 2 2 2 2 2
          2 2 2 2 2 2
          2 2 2 2 2 2
          2 2 2 2 2 2
          2 2 2 2 2 2
          2 2 2 2 2 2
          2 2 2 2 2 2
          2 2 2 2 2 2
          2 2 2 2 2 2
          2 2 2 2 2 2
          2 2 2 2 2 2
          2 2 2 2 2 2
          2 2 2 2 2 2
          2 2 2 2 2 2
          2 2 2 2 2 2
          2 2 2 2 2 2
          2 2 2 2 2 2
          2 2 2 2 2 2
          2 2 2 2 2 2
          2 2 2 2 2 2
          2 2 2 2 2 2
          2 2 2 2 2 2
          2 2 2 2 2 2
          2 2 2 2 2 2
          2 2 2 2 2 2
          2 2 2 2 2 2
          2 2 2 2 2 2
          2 2 2 2 2 2
          2 2 2 2 2 2
          2 2 2 2 2 2
          2 2 2 2 2 2
          2 2 2 2 2 2
          2 2 2 2 2 2
          2 2 2 2 2 2
          2 2 2 2 2 2
          2 2 2 2 2 2
          2 2 2 2 2 2
          2 2 2 2 2 2
          2 2 2 2 2 2
          2 2 2 2 2 2
          2 2 2 2 2 2
          2 2 2 2 2 2
          2 2 2 2 2 2
          2 2 2 2 2 2
          2 2 2 2 2 2
          2 2 2 2 2 2
          2 2 2 2 2 2
          2 2 2 2 2 2
          2 2 2 2 2 2
          2 2 2 2 2 2
          2 2 2 2 2 2
          2 2 2 2 2 2
          2 2 2 2 2 2
          2 2 2 2 2 2
          2 2 2 2 2 2
          2 2 2 0 0 1
          0 0 0 0 0 0
          0 0 1 1 1 2
          2 0 1.5 0.5 0 2
          1 2 2 2 2 2
          2 2 2 2 2 2
          2 2 2 2 2 2
          2 2 2 2 2 2
          2 2 2 2 2 2
          2 2 2 2 2 2
          2 2 2 2 2 2
          2 2 2 2 2 2
          2 2 2 2 2 2
          2 2 2 2 2 2
          2 2 2 2 2
        </DataArray>
        <DataArray type="Float64" Name="gradient_marker" format="ascii" RangeMin="0" RangeMax="1">
          0 0.5 1 0.5 0.75 1
          0.75 0.75 1 1 1 1
          1 0.5 0.5 0 0.5 0.5
          0.5 0.5 1 0.75 0.75 0.6666666666666666
          0.5 0.75 0 0.75 0.75 0.75
          0 1 0.5 0.5 0.5 0.5
          0 0.5 0.5 0 0 0.5
          0.5 0 0.5 1 0.75 0.6666666666666666
          0 0.75 0.75 0 0 1
          0.5 0.5 0 0 0.5 0
          1 1 1 1 0.5 0
          0 0 0 1 1 0.75
          0.5 0.75 0.875 0.5 0.75 0.75
          0.75 0.25 0.375 0.25 0.75 0.25
          0 0.75 0.25 0.25 0 0
          0.75 0.75 0.5 0.25 0 0
          0 0 0.25 0.25 0 0
          0 0 0.75 1 0.5 0.75
          0.75 1 1 0.5 0.5 1
          1 1 1 0.5 0 0
          0 0 0 0.5 0.75 0.5
          0.75 0.75 0.75 0 0.25 0.25
          0.75 0.25 0.25 0 0 0.75
          0.75 0.5 0.25 0 0.625 0.5
          0 0 0 0 0.25 0.25
          0 0 0 0 0.75 0.75
          1 1 0.5 0.5 1 0.625
          1 0.5 1 0 0 0
          0 0 0 0 0 0
          0 0 0 0 0 0
          0 0 0 0 0 0
          0 0 0 0 0 0
          0 0 0 0 0 0
          0 0 0 0 0 0
          0 0 0 0 0 0
          0 0 0 0 0 0
          0 0 0 0 0 0
          0 0 0 0 0 0
          0 0 0 0 0 0
          0 0 0 0 0 0
          0 0 0 0 0 0
          0 0 0 0 0 0
          0 0 0 0 0 0
          0 0 0 0 0 0
          0 0 0 0 0 0
          0 0 0 0 0 0
          0 0 0 0 0 0
          0 0 0 0 0 0
          0 0 0 0 0 0
          0 0 0 0 0 0
          0 0 0 0 0 0
          0 0 0 0 0 0
          0 0 0 0 0 0
          0 0 0 0 0 0
          0 0 0 0 0 0
          0 0 0 0 0 0
          0 0 0 0 0 0
          0 0 0 0 0 0
          0 0 0 0 0 0
          0 0 0 0 0 0
          0 0 0 0 0 0
          0 0 0 0 0 0
          0 0 0 0 0 0
          0 0 0 0 0 0
          0 0 0 0 0 0
          0 0 0 0 0 0
          0 0 0 0 0 0
          0 0 0 0 0 0
          0 0 0 0 0 0
          0 0 0 0 0 0
          0 0 0 0 0 0
          0 0 0 0 0 0
          0 0 0 0 0 0
          0 0 0 0 0 0
          0 0 0 0 0 0
          0 0 0 0.75 1 0.625
          0.75 1 1 0.5 1 0.5
          1 0 0.5 0.375 0.25 1
          0.625 0.5 0.75 0.5 0 1
          0.5 1 1 0.5 0.75 0.5
          0.75 0.25 0.625 0 0.75 0.25
          0 0.5 0.5 0.125 0.5 1
          0.5 0 0 0 0 0
          0 0 0 0 0 0
          0 0 0 0 0 0
          0 0 0 0 0 0
          0 0 0 0 0 0
          0 0 0 0 0 0
          0 0 0 0 0 0
          0 0 0 0 0
        </DataArray>
        <DataArray type="Float64" Name="gradient_matprop_marker" format="ascii" RangeMin="0" RangeMax="0">
          0 0 0 0 0 0
          0 0 0 0 0 0
          0 0 0 0 0 0
          0 0 0 0 0 0