<?xml version="1.0"?>
<VTKFile type="UnstructuredGrid" version="0.1" byte_order="LittleEndian" header_type="UInt32" compressor="vtkZLibDataCompressor">
  <UnstructuredGrid>
    <Piece NumberOfPoints="624" NumberOfCells="314">
      <PointData>
        <DataArray type="Int32" Name="libmesh_node_id" format="ascii" RangeMin="193" RangeMax="2634">
          193 194 195 196 250 251
          252 253 277 278 307 308
          309 310 334 335 364 365
          367 391 392 422 423 424
          427 430 432 433 434 435
          436 439 440 441 443 445
          535 536 537 538 539 540
          541 542 543 544 545 546
          547 548 549 550 551 552
          553 556 557 558 559 560
          562 563 570 571 576 626
          627 628 632 633 634 635
          636 637 638 639 640 641
          642 651 653 654 655 656
          657 658 659 660 661 662
          663 664 665 666 667 671
          672 676 693 694 695 696
          697 699 700 701 702 703
          704 705 706 707 708 709
          710 711 712 713 714 715
          718 719 720 721 722 723
          724 725 726 727 728 729
          730 731 732 733 734 735
          736 737 739 740 741 742
          744 745 746 752 753 765
          769 770 774 906 907 908
          911 914 916 917 918 919
          920 921 922 923 924 925
          926 927 928 929 932 933
          935 938 940 941 942 943
          944 945 946 947 948 949
          950 951 952 953 954 955
          956 957 958 959 960 961
          962 963 964 965 966 967
          968 971 972 974 975 977
          978 979 980 981 982 983
          984 985 986 987 988 989
          992 994 995 997 998 999
          1000 1001 1004 1005 1006 1007
          1008 1009 1011 1012 1026 1027
          1033 1064 1065 1066 1069 1074
          1075 1079 1334 1335 1338 1456
          1457 1460 1462 1464 1465 1466
          1467 1468 1469 1470 1471 1472
          1473 1474 1475 1476 1477 1478
          1479 1480 1481 1482 1483 1484
          1485 1486 1487 1488 1489 1490
          1491 1492 1493 1494 1495 1496
          1548 1549 1550 1551 1552 1553
          1554 1555 1557 1559 1560 1561
          1562 1563 1564 1565 1566 1567
          1568 1569 1570 1571 1572 1573
          1574 1575 1576 1577 1578 1579
          1580 1581 1582 1583 1584 1585
          1586 1587 1588 1589 1590 1591
          1592 1593 1594 1595 1596 1597
          1598 1599 1602 1604 1605 1607
          1608 1609 1610 1613 1615 1616
          1617 1618 1619 1620 1621 1622
          1623 1624 1625 1626 1627 1630
          1632 1633 1635 1636 1637 1638
          1639 1640 1641 1642 1643 1645
          1647 1649 2345 2346 2349 2350
          2351 2352 2353 2488 2489 2490
          2491 2492 2493 2494 2495 2496
          2497 2498 2499 2500 2501 2502
          2503 2504 2505 2506 2507 2508
          2509 2510 2511 2512 2513 2514
          2515 2516 2517 2518 2519 2520
          2521 2522 2523 2524 2525 2526
          2527 2529 2530 2531 2532 2533
          2534 2535 2536 2537 2538 2539
          2540 2541 2542 2543 2544 2545
          2546 2547 2548 2549 2550 2551
          2552 2553 2554 2555 2556 2557
          2558 2559 2560 2561 2562 2563
          2564 2565 2566 2567 2568 2569
          2570 2571 2572 2573 2574 2575
          2576 2577 2578 2579 2580 2581
          2582 2583 2584 2585 2586 2589
          2591 2592 2594 2595 2596 2597
          2598 2600 2601 2602 2603 2604
          2605 2606 2607 2608 2609 2610
          2611 2612 2615 2617 2618 2620
          2621 2622 2623 2624 2625 2626
          2627 2628 2630 2632 2634 438
          447 453 449 454 564 555
          566 567 569 572 645 646
          446 668 459 674 716 717
          437 738 444 743 747 748
          749 750 751 754 578 584
          581 585 766 767 586 768
          771 772 773 969 970 973
          554 976 991 993 1002 1003
          561 1010 1013 1014 1015 1016
          1017 1018 1019 1020 1028 1029
          1030 1031 1032 1034 1021 1035
          1060 1061 1062 1063 1067 1068
          1070 1071 1072 1073 1076 1077
          1078 1556 1600 1601 1603 990
          1606 1629 1631 1614 1644 1646
          996 1648 2528 2587 2588 2590
          1628 2593 2613 2614 2616 442
          2619 1634 2599 2629 2631 2633
        </DataArray>
        <DataArray type="Float64" Name="bounds" format="ascii" RangeMin="0" RangeMax="0">
          0 0 0 0 0 0
          0 0 0 0 0 0
          0 0 0 0 0 0
          0 0 0 0 0 0
          0 0 0 0 0 0
          0 0 0 0 0 0
          0 0 0 0 0 0
          0 0 0 0 0 0
          0 0 0 0 0 0
          0 0 0 0 0 0
          0 0 0 0 0 0
          0 0 0 0 0 0
          0 0 0 0 0 0
          0 0 0 0 0 0
          0 0 0 0 0 0
          0 0 0 0 0 0
          0 0 0 0 0 0
          0 0 0 0 0 0
          0 0 0 0 0 0
          0 0 0 0 0 0
          0 0 0 0 0 0
          0 0 0 0 0 0
          0 0 0 0 0 0
          0 0 0 0 0 0
          0 0 0 0 0 0
          0 0 0 0 0 0
          0 0 0 0 0 0
          0 0 0 0 0 0
          0 0 0 0 0 0
          0 0 0 0 0 0
          0 0 0 0 0 0
          0 0 0 0 0 0
          0 0 0 0 0 0
          0 0 0 0 0 0
          0 0 0 0 0 0
          0 0 0 0 0 0
          0 0 0 0 0 0
          0 0 0 0 0 0
          0 0 0 0 0 0
          0 0 0 0 0 0
          0 0 0 0 0 0
          0 0 0 0 0 0
          0 0 0 0 0 0
          0 0 0 0 0 0
          0 0 0 0 0 0
          0 0 0 0 0 0
          0 0 0 0 0 0
          0 0 0 0 0 0
          0 0 0 0 0 0
          0 0 0 0 0 0
          0 0 0 0 0 0
          0 0 0 0 0 0
          0 0 0 0 0 0
          0 0 0 0 0 0
          0 0 0 0 0 0
          0 0 0 0 0 0
          0 0 0 0 0 0
          0 0 0 0 0 0
          0 0 0 0 0 0
          0 0 0 0 0 0
          0 0 0 0 0 0
          0 0 0 0 0 0
          0 0 0 0 0 0
          0 0 0 0 0 0
          0 0 0 0 0 0
          0 0 0 0 0 0
          0 0 0 0 0 0
          0 0 0 0 0 0
          0 0 0 0 0 0
          0 0 0 0 0 0
          0 0 0 0 0 0
          0 0 0 0 0 0
          0 0 0 0 0 0
          0 0 0 0 0 0
          0 0 0 0 0 0
          0 0 0 0 0 0
          0 0 0 0 0 0
          0 0 0 0 0 0
          0 0 0 0 0 0
          0 0 0 0 0 0
          0 0 0 0 0 0
          0 0 0 0 0 0
          0 0 0 0 0 0
          0 0 0 0 0 0
          0 0 0 0 0 0
          0 0 0 0 0 0
          0 0 0 0 0 0
          0 0 0 0 0 0
          0 0 0 0 0 0
          0 0 0 0 0 0
          0 0 0 0 0 0
          0 0 0 0 0 0
          0 0 0 0 0 0
          0 0 0 0 0 0
          0 0 0 0 0 0
          0 0 0 0 0 0
          0 0 0 0 0 0
          0 0 0 0 0 0
          0 0 0 0 0 0
          0 0 0 0 0 0
          0 0 0 0 0 0
          0 0 0 0 0 0
          0 0 0 0 0 0
          0 0 0 0 0 0
        </DataArray>
        <DataArray type="Float64" Name="gradient_error" format="ascii" RangeMin="1.3512842292198555e-10" RangeMax="7.450600285195602e-7">
          5.653450724201947e-10 5.074517134932506e-10 2.389209884351987e-10 2.0641548581465332e-10 1.1602567640307125e-9 1.0087739562834914e-9
          3.8761403513118604e-10 4.905504387457148e-10 1.3750685627535923e-9 5.767126977992388e-10 7.399437087548144e-9 3.0728097153721956e-9
          3.4161969721604425e-9 2.6757429338910176e-9 1.14367736727157e-9 6.302799758987216e-10 2.9189809581432264e-7 1.4356962086618473e-8
          2.0020771238235454e-9 1.2417730731856415e-9 4.3899207698554133e-10 5.000925101875544e-9 9.08500649285702e-8 3.503391660086333e-8
          5.0604858999962e-9 2.7737262907419427e-7 5.635406133270168e-9 4.7394924092420196e-9 5.715442566991761e-8 8.092883458293652e-8
          3.767051608906203e-9 3.2282650511718102e-9 3.6832988773913824e-9 2.9893471083465156e-9 1.4674568963963962e-7 7.538051122205754e-9
          1.1909683013290856e-7 7.988328956835214e-8 5.45429889302338e-7 4.1601403685599213e-7 6.017867529398515e-8 6.086697686636838e-7
          4.354185885056266e-7 6.652264836547795e-8 2.0645983292122126e-7 1.6111869493286706e-7 4.4155691346753986e-7 6.130242114832348e-7
          6.99775555236523e-7 3.36651684840121e-7 7.1471850860101e-8 5.424134192603003e-8 6.770112673811431e-7 4.468842970500728e-7
          1.0986826892653744e-7 3.241370764222598e-8 1.1654502102428654e-7 1.3205171286412743e-7 2.97701407639345e-9 5.845046371140625e-7
          2.1277005061849746e-7 3.6259009707046664e-8 1.4860884066437729e-7 1.3388290954367503e-7 8.533500137886571e-8 9.145945832436799e-10
          3.843385736000542e-9 2.5363554573110655e-9 1.22932517862159e-9 7.182643162669677e-10 5.635863490438428e-10 2.0115220161991895e-9
          1.6059151864978807e-9 4.1178980679539737e-10 1.187193799492842e-9 1.1999485353877543e-9 4.089083818207178e-10 1.200308356796572e-9
          1.2127032712826666e-9 5.848963609086919e-10 8.133193822900885e-10 5.760346302291483e-10 1.665094972069307e-9 1.7366519440739064e-9
          9.005685251930761e-10 1.0601628631632637e-9 3.463116211867348e-10 6.748615472492139e-10 7.542974551157103e-10 4.1448984921913466e-10
          2.5168705618485256e-9 2.8972692579186646e-9 1.2197572011334511e-9 1.003411473311693e-9 4.287321735893577e-10 1.9355264391107704e-10
          1.6434053341653128e-10 1.3512842292198555e-10 4.492960029643094e-8 3.2673603782989336e-8 6.454158546469699e-9 2.559699222612889e-8
          1.8114779479980305e-8 2.041760726954773e-8 1.0632566733831723e-8 6.4593384807059896e-9 5.342115006846113e-9 2.0593103551874355e-8
          1.78127430700116e-8 7.607377230561802e-9 2.6273495547886833e-8 2.6049940276165447e-8 4.224891532986237e-9 1.503238258814885e-8
          2.5826385004444054e-8 7.694584065520077e-9 7.550637925068206e-9 2.4699121702173237e-8 2.4798662470148057e-8 4.760303265078592e-9
          7.406691784616337e-9 2.4898203238122866e-8 1.5367132028924372e-8 2.274736018657508e-8 4.521252324217832e-8 5.833421633743628e-8
          9.508938807730623e-8 9.86846501508009e-9 3.0600733212973486e-8 4.6976154673045555e-9 1.1378470112945425e-8 1.5820732056071884e-8
          7.02777581573166e-9 9.39210724882975e-8 1.4496625291243412e-7 5.133300141086688e-8 1.8059324758586293e-8 7.900063992700639e-9
          1.5517990263573456e-8 6.097134426392428e-9 2.811290716782862e-9 4.051446269295845e-9 2.0624706082300037e-9 2.3135916534446273e-8
          5.291601821808828e-9 2.283658538352131e-9 2.1428622531513345e-9 2.0020659679505384e-9 6.52403364409118e-9 2.668233322898936e-9
          1.0238232128936677e-9 8.571111386546521e-10 6.903990644156365e-10 1.459978824802968e-7 3.0532172155497856e-7 2.7754386847706006e-7
          2.0344974463883914e-7 5.193580038309012e-7 1.5143322199716097e-7 1.3624252982119545e-7 3.056431667993827e-7 2.759049994691207e-7
          1.2531758695944358e-7 3.04701417334703e-7 2.728299464709877e-7 9.787238511383949e-8 1.9795209508042154e-7 1.9094053947406625e-7
          5.76332780709672e-7 5.451523010393989e-7 5.717991577798195e-7 4.2635075259879224e-7 5.419090951150528e-7 5.901446076063029e-7
          5.716915944035277e-7 5.50663062024627e-7 5.932309276093091e-7 6.405869947705253e-7 5.219157630554228e-7 6.316796181498001e-7
          6.049495887003027e-7 6.396568017370616e-7 4.936494054008786e-7 6.064368565792989e-7 5.403004498265796e-7 6.552294772500246e-7
          1.2465128031613184e-7 1.1322777420584048e-7 3.024076054407993e-7 2.6817030110752213e-7 1.0019176054692345e-7 2.982726102691604e-7
          2.618627212964547e-7 8.378050507594793e-8 1.8219151679431617e-7 1.7179337918873597e-7 6.420074302861294e-7 5.990011929111409e-7
          6.266046986641105e-7 4.426996569451593e-7 8.967851067807128e-8 8.683383561212791e-8 2.9211903315548077e-7 2.5408550618841673e-7
          7.276202000943912e-8 7.516778624598858e-8 1.5987251417702602e-7 5.020308645205813e-7 5.468632071207094e-7 4.465128052132038e-7
          4.468877381571015e-7 6.231396862115782e-7 4.833067656327894e-7 5.661457315026103e-7 6.749284069485972e-7 6.052163793233494e-7
          3.0116193418867303e-8 4.699646258175875e-7 3.015828837601012e-7 7.450600285195602e-7 2.866021993393313e-7 3.988163435217982e-7
          5.280524229963045e-7 1.5639514877584261e-9 7.112716576629022e-8 4.113588256868355e-7 2.08888832494102e-7 2.2268527181985673e-7
          3.8481881614852884e-7 3.9061280247327863e-7 1.1870317778351001e-7 1.955712586881939e-7 2.1580158543976086e-7 1.7119180724307702e-7
          4.6126468480137346e-7 4.6175015319640575e-7 2.3150591047480133e-7 4.970453472539088e-8 1.5463204868256535e-8 2.6030676567729427e-8
          3.659814826720232e-8 1.1700524983769765e-7 1.4226814114684314e-7 1.1040218556838077e-7 1.6753103245598862e-7 6.550057389937152e-8
          7.799428597266328e-8 9.048799804595503e-8 6.832899763257905e-8 1.327138617196331e-7 1.970987258066872e-7 2.520170688154461e-7
          3.850035501526795e-7 2.6500403159585667e-7 4.3608049049241445e-7 2.479225858231471e-7 3.89516119555289e-7 2.4189398794124584e-7
          3.9221114861405566e-7 1.5711548781783546e-7 2.570761236417142e-7 2.464724318013613e-7 4.4515575320251213e-7 4.526611209116096e-7
          2.9907685966269427e-7 4.850716051626999e-8 5.1272677704261645e-8 9.427726003234438e-8 1.016497386351258e-7 4.7418040909299604e-8
          8.665656639943081e-8 3.125757897619327e-8 5.810448325030143e-8 6.237687392939153e-8 5.517920674513868e-8 2.3363223559057344e-7
          1.3786011282698063e-7 4.867862681249923e-8 7.90416721525095e-8 4.996382591329624e-8 7.525034412876003e-8 3.101084167920587e-8
          5.439029517231972e-8 5.461890887658912e-8 3.9286094952828374e-7 2.327645132680495e-7 4.5850478742383944e-7 2.747601884065473e-7
          7.541619796913201e-8 7.031062004240112e-8 7.31403673066573e-8 7.597011457091351e-8 7.086453664418262e-8 1.164713964548314e-7
          1.2280833983051505e-7 1.1889807311230067e-7 1.1498780639408627e-7 8.065782711594879e-8 8.200096173076272e-8 9.241675246478932e-8
          8.334409634557662e-8 9.624888881035507e-8 9.902845595426314e-8 1.0409725631245577e-7 1.0180802309817121e-7 1.1400659828176937e-7
          7.012496930915258e-8 7.64583513130871e-8 6.038542519702906e-8 7.690589818870834e-8 8.279173331702164e-8 9.348376982967698e-8
          5.959211150235637e-8 7.091574089541152e-8 6.14481543785226e-8 8.223937028846666e-8 5.239690184977605e-8 7.640667829326045e-8
          5.45557516740426e-8 7.978931693626949e-8 1.0025182735305418e-7 1.0936243314865666e-7 3.9417756014126486e-9 5.3645872365516265e-8
          5.5134763384067394e-8 9.869563160793716e-8 1.1798146033304626e-7 1.1731648037055551e-7 1.2195632238432316e-7 1.2384131457528549e-7
          1.2012113771523413e-7 1.1640096085518278e-7 1.0553225555327853e-7 1.0894407867460334e-7 1.010878268813494e-7 1.1617543613473656e-7
          1.264207420781349e-7 1.2362388192163438e-7 1.208270217651339e-7 7.230395694470926e-8 9.887330574785286e-8 1.28695962723647e-7
          1.1853321387094347e-7 1.2614643148560772e-7 1.1707145726834194e-7 1.3220600918287364e-7 1.2903757767411498e-7 5.647383984480654e-8
          7.112549659578297e-8 3.3150507355989864e-8 4.99196754134831e-8 1.0341212663448892e-7 9.714055660810434e-8 2.1113747030728827e-9
          3.228774909766326e-8 8.143680184751187e-9 9.06492554930063e-8 7.772526532649332e-9 3.9323749454459796e-8 1.0233925882757379e-7
          1.3502114177707252e-9 7.112208531615001e-9 7.494545283050887e-8 1.2139441601560185e-7 1.280440607334619e-7 1.212245238573773e-7
          1.2799184423315465e-7 1.2425561816026026e-7 1.2994168998131612e-7 1.253775904464127e-7 1.3445742330467113e-7 1.3355940868031072e-7
          1.3670883742646862e-7 1.3808123968650646e-7 5.966044381916702e-8 1.148839858185573e-7 7.263449775857792e-8 5.5100339225853046e-8
          1.0853451248204066e-7 3.5507745869257045e-8 6.733166694209687e-8 7.758100379281665e-9 7.142787010080441e-9 7.446155511286944e-9
          7.749524012493445e-9 7.134210643292222e-9 8.214179880054164e-9 8.227874209523728e-9 8.709542272887696e-9 8.241568538993292e-9
          8.43756418972829e-9 8.653580284280307e-9 8.494572026911064e-9 8.869596378832324e-9 6.770270418097624e-9 7.505635009771924e-9
          6.243345245304842e-9 7.489243317570853e-9 8.240999601446225e-9 8.735141389836864e-9 5.326360956141084e-9 6.783395810020121e-9
          6.26894436225401e-9 8.240430663899158e-9 5.9286944501129704e-9 7.2902315699726155e-9 5.584566740012293e-9 7.017488607093723e-9
          8.65176868983226e-9 8.450410474175155e-9 3.41982471049765e-9 5.9268828556649255e-9 5.5404051872763835e-9 8.433941000832199e-9
          1.4359879959157232e-8 1.4027216250187562e-8 1.4473943497453506e-8 1.4660700375005886e-8 1.4920670744719453e-8 1.4994960193876865e-8
          1.4873315186131091e-8 1.475167017838532e-8 7.85428348898878e-9 8.325468740478392e-9 8.074915393425486e-9 8.796653991968002e-9
          1.3098353567988087e-8 1.3783212038958011e-8 1.4468070509927936e-8 6.863821944764643e-9 7.621482258370421e-9 9.08720576288388e-9
          1.0588112902814053e-8 1.3100230777181305e-8 1.330389953267304e-8 1.3534387100083092e-8 1.3810715831694167e-8 5.191431158873599e-9
          6.707703338394623e-9 4.763399419703709e-9 6.308785736948598e-9 8.223975517915645e-9 9.415382409549846e-9 2.5285788287584184e-9
          5.0899379363108545e-9 4.542656080471708e-9 7.65129704386329e-9 4.325213082064417e-9 5.786790383051853e-9 3.8383559517634675e-9
          5.247280083281419e-9 9.750954130402038e-9 9.242899084986227e-9 1.786604219364192e-9 3.952098507733287e-9 3.4670235816164153e-9
          8.913795357990025e-9 1.2961738312969871e-8 1.3385673505677174e-8 1.2823245848758437e-8 1.2992711174343676e-8 1.3012795677466928e-8
          1.3731881771922564e-8 1.4195997399760772e-8 1.2681522816014317e-8 1.2491204254850763e-8 1.3653047712150962e-8 1.2982167033082217e-8
          1.3656108602837325e-8 1.2840828067386666e-8 1.3443742574433833e-8 1.4330050172592435e-8 1.4046657081481e-8 8.568341619189206e-9
          9.628514769862783e-9 9.052164155170022e-9 1.1350667463528075e-8 1.2723995463389829e-8 1.3321549516265415e-8 1.3919103569141004e-8
          7.18051765309852e-9 8.567212761811902e-9 1.0775727547011605e-8 1.357729581803318e-8 1.359156651421776e-8 1.4479965086554859e-8
          1.356198396139932e-8 1.4704601022814393e-8 3.3182897314067004e-9 4.761686932540096e-9 2.894188955979905e-9 4.337610497566978e-9
          8.881120841982937e-9 8.531380390332015e-9 1.437014040411861e-9 3.104618033575772e-9 2.797677458655692e-9 7.605955288906472e-9
          2.5891225524452987e-9 3.9516195053937394e-9 8.14204534525637e-9 1.2702405315963494e-9 2.538597333563416e-9 6.663767849943678e-9
          1.2983481696421492e-8 1.2929219271677956e-8 1.4409805842550601e-8 1.4576709801845932e-8 1.2389667574809805e-8 1.2266872029138152e-8
          1.4339646598546347e-8 1.2840228871567486e-8 1.4710483510964412e-8 1.211847378173565e-8 1.4716365999114429e-8 6.544963082694804e-8
          1.3372419616510069e-9 1.5088726694042216e-9 7.039030442714942e-9 1.136941356691321e-9 1.3105038940743405e-7 3.9011861833498847e-7
          2.949413514028425e-7 7.419018138103682e-8 2.084386841311993e-7 7.19795988974699e-8 5.907232235407352e-10 5.878097922247136e-10
          8.762174190030203e-10 4.124018023432439e-10 4.4886032503695723e-10 3.960714310971301e-10 1.5434050753621635e-8 1.5400591391273005e-8
          1.766103134742894e-8 7.54355933082535e-9 3.513306621575338e-8 8.989984235258272e-9 7.223610575887175e-9 6.8738221099891774e-9
          6.442744634289775e-10 2.1137155224511458e-9 1.8731892599634033e-9 1.6626140053692483e-9 3.109191858814654e-8 3.5244674713335875e-8
          7.711780648465924e-9 2.8252551680701436e-8 2.9163496388536214e-9 6.931183043540218e-10 6.7467899432699105e-9 8.450380724419076e-10
          2.801098758666618e-10 3.1644659548083073e-9 9.969578405297932e-10 2.830296469407342e-7 2.4406867795039104e-7 1.6869906576700887e-7
          3.118508493712478e-7 3.591752848969197e-7 2.2686735969898204e-7 4.4468067214646146e-7 2.2932768191008154e-7 3.7479043654513476e-7
          4.273064521527659e-7 4.55857781397259e-7 5.6729388711614735e-8 2.6933808663709365e-7 2.3014425907236103e-7 4.0237286820831614e-8
          2.5033449645659575e-7 2.1144859109815016e-7 6.375424269783858e-8 1.9095043150762838e-7 2.2604151763491157e-7 1.8810447439966678e-7
          1.7375736427816613e-8 1.9770727836475522e-7 1.6087655347342557e-7 1.5016743116442193e-7 1.7256268573970456e-7 1.2404582858209595e-7
          2.739798323966365e-7 3.586917248213898e-7 2.483730854629462e-7 3.350378131511964e-7 4.434036172461432e-7 4.2170254083944663e-7
          2.1684363551714864e-7 3.0252915239761213e-7 1.7912490495658452e-7 2.596822783295381e-7 4.8462209268815367e-8 3.8821466927807573e-7
          3.402396517024917e-7 1.2369263997784992e-7 1.3228614254417614e-7 1.3040845899513897e-7 1.2611373635355558e-7 7.622966349273819e-8
          1.047159466375331e-7 4.022069782093683e-8 1.0750064047180153e-7 1.33472502826263e-7 1.4105891073048607e-7 1.393297967876592e-7
          7.865356782978341e-8 1.4360788049277808e-7 1.51477010173197e-8 1.2529739537544128e-8 1.3246693489253472e-8 1.3963647440962816e-8
          6.646927868891309e-9 8.097445110612976e-9 2.353915831201838e-9 3.592483373552671e-9 7.72369215929421e-9 1.2161154470875648e-9
          2.335762487066633e-9 6.239188898298167e-9 1.3529521516570301e-8 1.2735469134821852e-8 1.4854604866958788e-8 1.1941416753073403e-8
        </DataArray>
        <DataArray type="Float64" Name="gradient_matprop_error" format="ascii" RangeMin="0" RangeMax="0">
          0 0 0 0 0 0
          0 0 0 0 0 0
          0 0 0 0 0 0
          0 0 0 0 0 0
          0 0 0 0 0 0
          0 0 0 0 0 0
          0 0 0 0 0 0
          0 0 0 0 0 0
          0 0 0 0 0 0
          0 0 0 0 0 0
          0 0 0 0 0 0
          0 0 0 0 0 0
          0 0 0 0 0 0
          0 0 0 0 0 0
          0 0 0 0 0 0
          0 0 0 0 0 0
          0 0 0 0 0 0
          0 0 0 0 0 0
          0 0 0 0 0 0
          0 0 0 0 0 0
          0 0 0 0 0 0
          0 0 0 0 0 0
          0 0 0 0 0 0
          0 0 0 0 0 0
          0 0 0 0 0 0
          0 0 0 0 0 0
          0 0 0 0 0 0
          0 0 0 0 0 0
          0 0 0 0 0 0
          0 0 0 0 0 0
          0 0 0 0 0 0
          0 0 0 0 0 0
          0 0 0 0 0 0
          0 0 0 0 0 0
          0 0 0 0 0 0
          0 0 0 0 0 0
          0 0 0 0 0 0
          0 0 0 0 0 0
          0 0 0 0 0 0
          0 0 0 0 0 0
          0 0 0 0 0 0
          0 0 0 0 0 0
          0 0 0 0 0 0
          0 0 0 0 0 0
          0 0 0 0 0 0
          0 0 0 0 0 0
          0 0 0 0 0 0
          0 0 0 0 0 0
          0 0 0 0 0 0
          0 0 0 0 0 0
          0 0 0 0 0 0
          0 0 0 0 0 0
          0 0 0 0 0 0
          0 0 0 0 0 0
          0 0 0 0 0 0
          0 0 0 0 0 0
          0 0 0 0 0 0
          0 0 0 0 0 0
          0 0 0 0 0 0
          0 0 0 0 0 0
          0 0 0 0 0 0
          0 0 0 0 0 0
          0 0 0 0 0 0
          0 0 0 0 0 0
          0 0 0 0 0 0
          0 0 0 0 0 0
          0 0 0 0 0 0
          0 0 0 0 0 0
          0 0 0 0 0 0
          0 0 0 0 0 0
          0 0 0 0 0 0
          0 0 0 0 0 0
          0 0 0 0 0 0
          0 0 0 0 0 0
          0 0 0 0 0 0
          0 0 0 0 0 0
          0 0 0 0 0 0
          0 0 0 0 0 0
          0 0 0 0 0 0
          0 0 0 0 0 0
          0 0 0 0 0 0
          0 0 0 0 0 0
          0 0 0 0 0 0
          0 0 0 0 0 0
          0 0 0 0 0 0
          0 0 0 0 0 0
          0 0 0 0 0 0
          0 0 0 0 0 0
          0 0 0 0 0 0
          0 0 0 0 0 0
          0 0 0 0 0 0
          0 0 0 0 0 0
          0 0 0 0 0 0
          0 0 0 0 0 0
          0 0 0 0 0 0
          0 0 0 0 0 0
          0 0 0 0 0 0
          0 0 0 0 0 0
          0 0 0 0 0 0
          0 0 0 0 0 0
          0 0 0 0 0 0
          0 0 0 0 0 0
          0 0 0 0 0 0
          0 0 0 0 0 0
        </DataArray>
        <DataArray type="Float64" Name="initial_marker" format="ascii" RangeMin="0" RangeMax="2">
          0 0 0 0 0 0
          0 0 0 0 0 0
          0 0 0 0 2 0
          0 0 0 0 0 0
          0 0 0 0 0 0
          0 0 0 0 0 0
          0 0 2 0.5 0 2
          0.5 0 0 0 2 1
          1 0 0 0 2 1
          0 0 0 0 2 1.5
          0 0 0 0 0 0
          0 0 0 0 0 0
          0 0 0 0 0 0
          0 0 0 0 0 0
          0 0 0 0 0 0
          0 0 0 0 0 0
          0 0 0 0 0 0
          0 0 0 0 0 0
          0 0 0 0 0 0
          0 0 0 0 0 0
          0 0 0 0 0 0
          0 0 0 0 0 0
          0 0 0 0 0 0
          0 0 0 0 0 0
          0 0 0 0 0 0
          0 0 0 0 1 0.5
          0 1.5 0 0 1 0.5
          0 1 0.5 0 0 0
          2 1.5 1.5 0.5 2 2
          1 2 2 2 2 2
          1 1 2 2 2 1
          0 0 1 0.75 0 1
          1 0 0.25 0.5 2 1.75
          2 0.75 0 0 1 1
          0 0 0.5 2 2 1
          2 2 2 2 1 1.25
          2 2 2 1 2 2
          1.5 2 2 2 0 0
          0.5 0.25 0 0 0 0
          1 0.5 0 0 0 0
          0 0 0 0 0 0
          0 0 0 0 0 0
          0 0 0 0 0 0
          0 0 0 0 0 0
          0 0 0 0 0 0
          0 0 0 0 0 0
          0 0 0 0 0 0
          0 0 0 0 0 0
          2 2 2 2 2 2
          2 2 2 2 2 2
          2 2 2 2 2 2
          2 2 2 2 2 2
          2 2 2 2 2 2
          2 2 2 2 2 2
          2 2 2 2 2 2
          2 2 2 2 2 2
          2 2 2 2 2 2
          2 2 2 2 2 2
          2 2 2 2 2 2
          2 2 2 2 2 2
          2 2 2 2 2 2
          2 2 2 2 2 2
          2 2 0 0 0 0
          0 0 0 2 2 2
          2 2 2 2 2 2
          2 2 2 2 2 2
          2 2 2 2 2 2
          2 2 2 2 2 2
          2 2 2 2 2 2
          2 2 2 2 2 2
          2 2 2 2 2 2
          2 2 2 2 2 2
          2 2 2 2 2 2
          2 2 2 2 2 2
          2 2 2 2 2 2
          2 2 2 2 2 2
          2 2 2 2 2 2
          2 2 2 2 2 2
          2 2 2 2 2 2
          2 2 2 2 2 2
          2 2 2 2 2 2
          2 2 2 2 2 2
          2 2 2 2 2 2
          2 2 2 2 2 2
          2 2 2 2 2 2
          2 2 2 2 2 0
          0 0 0 0 0 1
          1 0 1 0 0 0
          0 0 0 0 0 0
          0 0 0 0 0 0
          0 0 0 0 0 0
          0 0 0 0 0 0
          0 0 0 1 1 0.6666666666666666
          2 2 2 1.5 0 0.5
          2 1 0 1 1 0
          1 1 0 1 1 1
          0 1 1 1 1 1
          0 0.5 0 0.5 1 1
          0 0.5 0 0.5 0 1
          1 2 2 2 2 2
          2 2 2 2 2 2
          2 2 2 2 2 2
          2 2 2 2 2 2
          2 2 2 2 2 2
        </DataArray>
        <DataArray type="Float64" Name="markers_norefine" format="ascii" RangeMin="0" RangeMax="2">
          0 0 0 0 0 0
          0 0 0 0 0 0
          0 0 0 0 0 0
          0 0 0 0 0 0
          0 0 0 0 0 0
          0 0 0 0 0 0
          0 0 0 0 0 0
          0 0 0 0 0 0
          0 0 0 0 0 0
          0 0 0 0 2 0
          0 0 0 0 0 0
          0 0 0 0 0 0
          0 0 0 0 0 0
          0 0 0 0 0 0
          0 0 0 0 0 0
          0 0 0 0 0 0
          0 0 0 0 0 0
          0 0 0 0 0 0
          0 0 0 0 0 0
          0 0 0 0 0 0
          0 0 0 0 0 0
          0 0 0 0 0 0
          0 0 0 0 0 0
          0 0 0 0 0 0
          0 0 0 0 0 0
          0 0 0 0 0 0
          0 0 0 0 0 0
          0 0 0 0 0 0
          0 0 0 0 0 0
          0 0 0 0 0 0
          0 0 0 0 0 0
          0 0 0 0 0 0
          0 0 0 0 0 0
          0 0 0 0 0 0
          0 0 0 0 0 0
          0 0 0 0 0 0
          1 0 0 0 0 0
          0 2 0 0 0 0
          0 0 0 0 0 0
          0 0 0 0 0 0
          0 0 0 0 0 0
          0 0 0 0 0 0
          0 0 0 0 0 0
          0 0 0 0 0 0
          0 0 0 0 0 0
          0 0 0 0 0 0
          0 0 0 0 0 0
          0 0 0 0 0 0
          0 0 0 0 0 0
          0 0 0 0 0 0
          0 0 0 0 0 0
          0 0 0 0 0 0
          0 0 0 0 0.5 0
          1 0 0 0 2 0.5
          1 0 0 0 0 0
          0 0 0 0 0 0
          0 0 0 0 0 0
          0 0 0 0 0 1
          0.5 1.5 0.5 0 0 2
          1 2 0 2 1.25 0
          2 2 0 0 0 0
          0 0 0 0 0 0
          0 0 0 0 0 0
          0 0 0 0 1 0.5
          0 1 0 0 0.5 0
          2 1 1 0 1 0.5
          1.5 1 0 0.5 2 1
          1.5 0 2 1.5 2 1.5
          1 1 2 2 2 2
          0 0 0 0 0 0
          0 0 2 1.5 2 1
          1 0.5 0 2 2 1.6666666666666667
          1 0 0 0 0 2
          1.75 2 2 1.5 1.3333333333333333 2
          2 2 2 2 2 2
          2 1.25 1.5 2 2 2
          1.5 0 0 0 0.25 0.5
          0 0 0.5 1 0 1
          0.5 1 0.75 0 0.5 2
          1.5 1.75 1 1 1 1
          2 2 2 0.5 1 0
          1 0 2 2 2 2
          1.75 2 2 2 2 2
          2 2 2 2 2 2
          0.75 1 0 0 1 1
          0 1 0 1 0 0
          0 0 0 0 0 0
          0 0 0 0 0 0
          0 0 0 0 0 0
          0 0 0 0 0 0
          0 0 0 0 0 0
          0 0 0 0 0 0
          0 0 0 0 0 0
          0 0 0 0 0 0
          0 0 0 0 0 0
          0 0 0 0 0 0
          0 0 0 0 0 0
          0 0 0 0 0 0
          0 0 0 0 0 0
          0 0 0 0 0 0
          0 1.5 0 0 0 0
          0 0 0 1 1 1
          2 2 2 2 2 2
          2 2 1 1 0 1
        </DataArray>
        <DataArray type="Float64" Name="markers_mustrefine" format="ascii" RangeMin="0" RangeMax="2">
          0 0 0 0 0 0
          0 0 0 0 0 0
          0 0 0 0 2 0
          0 0 0 0 0 0
          0 0 0 0 0 0
          0 0 0 0 0 0
          0 0 2 0.5 0 2
          0.5 0 0 0 2 1
          1 0 0 0 2 1
          0 0 0 0 2 1.5
          0 0 0 0 0 0
          0 0 0 0 0 0
          0 0 0 0 0 0
          0 0 0 0 0 0
          0 0 0 0 0 0
          0 0 0 0 0 0
          0 0 0 0 0 0
          0 0 0 0 0 0
          0 0 0 0 0 0
          0 0 0 0 0 0
          0 0 0 0 0 0
          0 0 0 0 0 0
          0 0 0 0 0 0
          0 0 0 0 0 0
          0 0 0 0 0 0
          0 0 0 0 1 0.5
          0 1.5 0 0 1 0.5
          0 1 0.5 0 0 0
          2 1.5 1.5 0.5 2 2
          1 2 2 2 2 2
          1 1 2 2 2 1
          0 0 1 0.75 0 1
          1 0 0.25 0.5 2 1.75
          2 0.75 0 0 1 1
          0 0 0.5 2 2 1
          2 2 2 2 1 1.25
          2 2 2 1 2 2
          1.5 2 2 2 0 0
          0.5 0.25 0 0 0 0
          1 0.5 0 0 0 0
          0 0 0 0 0 0
          0 0 0 0 0 0
          0 0 0 0 0 0
          0 0 0 0 0 0
          0 0 0 0 0 0
          0 0 0 0 0 0
          0 0 0 0 0 0
          0 0 0 0 0 0
          2 2 2 2 2 2
          2 2 2 2 2 2
          2 2 2 2 2 2
          2 2 2 2 2 2
          2 2 2 2 2 2
          2 2 2 2 2 2
          2 2 2 2 2 2