<?xml version="1.0"?>
<VTKFile type="UnstructuredGrid" version="0.1" byte_order="LittleEndian" header_type="UInt32" compressor="vtkZLibDataCompressor">
  <UnstructuredGrid>
    <Piece NumberOfPoints="419" NumberOfCells="217">
      <PointData>
        <DataArray type="Int32" Name="libmesh_node_id" format="ascii" RangeMin="96" RangeMax="3738">
          98 99 100 101 114 115
          128 129 130 131 144 145
          158 159 160 161 174 175
          188 189 190 191 204 205
          210 211 212 213 214 215
          216 217 218 219 220 221
          222 223 224 225 226 227
          228 267 268 270 285 286
          287 288 289 290 291 292
          293 294 295 296 297 298
          299 300 301 302 303 304
          305 306 307 308 309 310
          311 312 313 314 315 316
          317 318 319 320 321 325
          326 329 331 376 377 380
          386 399 401 406 409 424
          425 426 427 428 433 434
          504 505 506 507 508 509
          510 511 512 513 514 515
          516 517 518 519 520 521
          522 523 524 525 526 527
          528 529 530 531 532 533
          534 535 536 537 538 539
          540 541 542 543 544 545
          546 547 548 549 550 551
          552 553 554 555 556 557
          558 559 560 561 562 563
          564 565 566 567 568 583
          584 585 586 587 588 589
          590 591 592 781 782 783
          784 785 786 787 788 789
          790 791 792 793 794 795
          796 797 798 799 800 801
          802 803 804 805 806 807
          808 809 810 811 812 813
          814 815 816 817 818 819
          820 821 822 823 824 825
          826 827 828 829 830 831
          832 833 834 835 836 839
          851 852 854 855 856 857
          858 859 860 861 862 863
          864 865 866 867 868 869
          870 871 872 873 874 875
          876 877 878 879 880 881
          882 883 884 885 886 887
          888 889 890 891 892 893
          894 895 896 897 898 899
          900 901 902 903 904 905
          906 907 908 909 910 911
          912 913 914 915 916 917
          918 919 920 921 922 923
          924 925 926 927 928 929
          930 931 932 933 934 935
          936 937 938 939 940 941
          942 1606 1607 1608 1609 1610
          1611 1612 1613 1614 1615 1616
          1617 1618 1619 1620 1621 1622
          1623 1624 1625 1626 1627 1628
          1629 1630 1631 1632 1633 1634
          1635 1636 1637 1638 1639 1640
          1641 1642 3635 3636 3642 3687
          3689 3691 3692 3694 3696 3729
          3730 3734 3737 96 97 126
          127 113 143 157 173 257
          258 261 262 264 265 853
          3637 3638 3639 3640 3641 3643
          3644 3688 266 3690 3693 187
          3695 203 3711 3712 3716 3717
          3714 3719 3721 3722 3724 3725
          3727 3731 3732 3735 3738
        </DataArray>
        <DataArray type="Float64" Name="bounds" format="ascii" RangeMin="0" RangeMax="0">
          0 0 0 0 0 0
          0 0 0 0 0 0
          0 0 0 0 0 0
          0 0 0 0 0 0
          0 0 0 0 0 0
          0 0 0 0 0 0
          0 0 0 0 0 0
          0 0 0 0 0 0
          0 0 0 0 0 0
          0 0 0 0 0 0
          0 0 0 0 0 0
          0 0 0 0 0 0
          0 0 0 0 0 0
          0 0 0 0 0 0
          0 0 0 0 0 0
          0 0 0 0 0 0
          0 0 0 0 0 0
          0 0 0 0 0 0
          0 0 0 0 0 0
          0 0 0 0 0 0
          0 0 0 0 0 0
          0 0 0 0 0 0
          0 0 0 0 0 0
          0 0 0 0 0 0
          0 0 0 0 0 0
          0 0 0 0 0 0
          0 0 0 0 0 0
          0 0 0 0 0 0
          0 0 0 0 0 0
          0 0 0 0 0 0
          0 0 0 0 0 0
          0 0 0 0 0 0
          0 0 0 0 0 0
          0 0 0 0 0 0
          0 0 0 0 0 0
          0 0 0 0 0 0
          0 0 0 0 0 0
          0 0 0 0 0 0
          0 0 0 0 0 0
          0 0 0 0 0 0
          0 0 0 0 0 0
          0 0 0 0 0 0
          0 0 0 0 0 0
          0 0 0 0 0 0
          0 0 0 0 0 0
          0 0 0 0 0 0
          0 0 0 0 0 0
          0 0 0 0 0 0
          0 0 0 0 0 0
          0 0 0 0 0 0
          0 0 0 0 0 0
          0 0 0 0 0 0
          0 0 0 0 0 0
          0 0 0 0 0 0
          0 0 0 0 0 0
          0 0 0 0 0 0
          0 0 0 0 0 0
          0 0 0 0 0 0
          0 0 0 0 0 0
          0 0 0 0 0 0
          0 0 0 0 0 0
          0 0 0 0 0 0
          0 0 0 0 0 0
          0 0 0 0 0 0
          0 0 0 0 0 0
          0 0 0 0 0 0
          0 0 0 0 0 0
          0 0 0 0 0 0
          0 0 0 0 0 0
          0 0 0 0 0
        </DataArray>
        <DataArray type="Float64" Name="gradient_error" format="ascii" RangeMin="8.79522582208954e-10" RangeMax="0.0000019362239877723633">
          6.7501977193062245e-9 4.2460847181281695e-9 3.764647358096139e-9 2.3220849701525465e-9 1.7419717169501147e-9 8.79522582208954e-10
          2.4352505024653735e-8 9.41999434477207e-9 4.1159464249132645e-9 4.279409901166464e-9 1.0070590893206073e-8 4.826803975526632e-9
          5.523665075517254e-7 9.947464612896074e-8 1.2158055372434679e-8 2.115004133334485e-8 1.117295953260351e-8 4.664390163991545e-9
          0.0000010306905821735188 7.215695886010473e-7 3.7459499206728906e-7 1.090320503988899e-8 4.9075193697166944e-8 2.4294649412797374e-9
          5.493151550410861e-8 7.219311914659037e-8 3.5485249527923217e-7 0.0000014484487037528356 2.6304150914045895e-7 4.119416480107618e-7
          9.197439691218841e-7 2.2392726170307567e-8 1.9050372901593022e-7 7.414495736576537e-8 6.640723517974072e-8 7.57059992964117e-8
          4.3213965308440177e-7 2.138643592793245e-8 2.250627191354828e-7 3.39550700785999e-7 0.000001674989999689245 2.5130208855564814e-7
          6.728987186741519e-8 0.0000014845767821950787 0.000001554457912360689 7.605872306969977e-7 7.04254571562209e-7 6.937530141404168e-7
          0.000001133572713806634 0.0000014889123721467322 7.35916315976506e-7 9.62556363003783e-7 0.000001565626047735154 4.4914987058882493e-7
          3.699510786675465e-7 5.427515572191584e-7 5.370046851748966e-7 7.569564202171213e-7 0.0000012033586478259044 4.980667332906546e-7
          1.86364925033423e-7 7.75502393341388e-7 0.0000015511093843090485 3.831380332531454e-7 8.044125295423326e-7 2.338754498770194e-7
          2.9172009797154685e-7 4.326056180232451e-7 4.537594098672774e-7 1.279787710939682e-7 5.118895629652808e-7 3.823799108809783e-7
          2.832136848518786e-7 3.354952932264678e-7 1.6493184532161497e-7 2.8257615812257013e-7 4.508049643435112e-7 5.378679649271911e-7
          3.0442212506553457e-7 1.415014972696715e-7 9.11081278682804e-8 6.123060323214236e-7 4.1242807199402454e-7 5.1710971432708687e-8
          1.1832208771750168e-7 6.481947400525673e-7 1.88944231759269e-7 1.862778349208033e-9 6.708651663325484e-9 6.039591599905108e-9
          5.370531536484732e-9 3.988430029136639e-9 5.176370734037112e-9 1.7666694274838886e-9 6.364311438937583e-9 1.1021776946464294e-8
          9.959759672541018e-8 6.264940537211937e-8 4.593270787929176e-8 7.224577644908885e-8 2.9216010386464144e-8 4.489395617276752e-8
          3.419870828514566e-7 3.3304234168714065e-7 3.213361518049246e-7 2.6328266133701083e-7 2.8117191543314934e-7 3.2582868587848656e-7
          3.034007325736629e-7 3.6182310717827724e-7 3.0451256566699467e-7 3.525504339875887e-7 3.1124790376772494e-7 3.4294212891828723e-7
          3.2808868504525275e-7 3.7259955925614745e-7 2.0221120687653832e-7 2.826028211403757e-7 2.6438873730273225e-7 3.0660490973992206e-7
          3.541217640860946e-7 3.9967211425116446e-7 3.897517553212939e-7 3.352789849886819e-7 3.867262833786777e-7 4.189225726425803e-7
          3.732329053186607e-7 4.2579239694051475e-7 3.622919579558178e-7 4.019035599057172e-7 4.3270920973247736e-7 2.507404323566832e-7
          3.383362626004843e-7 3.776193195375571e-7 4.1499304392260016e-7 4.697661621220837e-7 4.5088855585051344e-7 4.1984170075904333e-7
          4.71372185027519e-7 4.865924898210876e-7 4.771115373978045e-7 5.273031097081546e-7 3.613643925556969e-7 4.665321372416433e-7
          5.045047648489873e-7 3.225867960344385e-7 4.260039697567708e-7 4.855682190000757e-7 4.915369484230062e-7 1.8314090180250593e-7
          1.6208276561007652e-7 1.7450052594240182e-7 3.195544120744077e-7 3.2451163669923347e-7 2.9077820491295017e-7 2.8932375258417163e-7
          1.4701502199116907e-7 3.266848638967246e-7 2.892220924626297e-7 1.1027877126831187e-7 2.0249622963718202e-7 2.0805301161369806e-7
          1.940055863866927e-7 5.595547262368937e-7 5.260116135892718e-7 5.683110660416978e-7 3.987722109928741e-7 5.485075021967069e-7
          5.962428401318049e-7 5.095465527635924e-7 6.14968595099101e-7 5.465770650535544e-7 5.915969695158648e-7 4.4378792351558743e-7
          5.599360973008899e-7 5.251030631009458e-7 5.903233961274129e-7 1.6603378813216723e-8 1.0302218668528682e-8 2.2362774598483924e-8
          1.204072107991025e-7 5.0441426816432206e-8 3.210396262758284e-8 7.258938607150463e-8 4.001058523840638e-9 1.376649843873347e-8
          2.4771561343906792e-8 1.0406086397920655e-8 1.8583928864325214e-8 3.5087789525887954e-8 8.120414222754226e-8 2.9830269701524785e-9
          1.1712819784626278e-8 2.706720539231067e-8 5.976949265385525e-8 1.438243555907593e-7 2.044261259910008e-8 9.398258612869556e-8
          7.542962393391115e-8 1.1565052004022868e-7 2.1945795033142267e-7 2.0024591959457835e-7 1.561895147934674e-7 1.7373351904009183e-7
          2.434199912087497e-8 1.678710847138994e-7 1.2512637012296523e-7 5.6876661739126735e-8 1.1213310999235647e-7 1.28009087748761e-7
          8.238165553203106e-8 1.3584920112967533e-8 1.286528000114505e-8 1.3673297119423576e-7 9.825648623424028e-8 1.2145639889322565e-8
          5.978000127424484e-8 8.237163146192239e-8 1.1187883385568815e-7 1.3558343024250892e-7 1.7304856459445382e-7 6.040932672439401e-8
          1.0090030364255227e-7 1.2945024272847675e-8 1.2145002305170457e-8 3.1760614158830237e-8 9.820397160550485e-9 1.8879522902309547e-7
          2.3421829533321945e-7 1.4139128056071054e-7 1.1344980337493242e-8 3.920572933765489e-8 6.616215445081408e-8 9.311857956397329e-8
          0.0000018319167110711698 0.0000015294375176662195 0.0000015944257640103389 0.000001767433123744472 0.000001674512139880644 0.0000015413494868599175
          0.0000012269583242612693 0.0000015815911560168163 0.0000011156587895261602 0.0000017029495364177744 0.0000018195867620950688 0.000001635915884332226
          0.0000019362239877723633 2.3212530522043304e-7 2.1616891150925786e-7 2.2520799023873418e-7 2.7448317092070625e-7 2.7798342346679296e-7
          2.565995221334708e-7 2.5219549498216044e-7 2.0408955694727729e-7 2.8593207508913754e-7 2.6461990653428824e-7 2.002125177980827e-7
          2.3521562080014875e-7 2.2990781904361468e-7 2.4330773797943894e-7 3.0303501111660144e-7 2.989650682855823e-7 2.702100530844838e-7
          2.5594449444377263e-7 2.554627315354602e-7 2.776724921446151e-7 2.634769614361488e-7 2.948951254545631e-7 2.9988225275377004e-7
          2.71009428428525e-7 2.0789045195431892e-7 2.5637991600364794e-7 2.567438697878138e-7 3.0486938005297696e-7 2.1114266637073717e-7
          1.9944794643553475e-7 2.953346786261928e-7 2.7191757646062574e-7 1.943473748644824e-7 3.045957305051369e-7 2.791135229030854e-7
          1.8775322650033238e-7 2.485004742950587e-7 2.238481285223371e-7 2.0292506375817023e-7 1.8555106544021982e-7 3.1268039125934477e-7
          2.852938884214898e-7 1.3932736002358465e-7 2.1026440953734903e-7 2.677264531077433e-7 2.6108163904821785e-7 2.958729556656594e-7
          2.8661010654753603e-7 2.3821489696024257e-7 3.048756413889013e-7 2.0823982513087995e-7 2.2611237328855796e-7 2.286093968909599e-7
          2.2268475187521663e-7 3.2401945822357546e-7 3.1213857404685427e-7 3.3577311007842477e-7 2.4398492144623596e-7 2.223125210373514e-7
          3.126818408474043e-7 2.2067394280186913e-7 3.1808085357362254e-7 1.5390720654225226e-7 2.1520207650751663e-7 2.0464685946777528e-7
          3.4626682789100933e-7 3.552616760272887e-7 2.388809024151093e-7 2.1513525667219492e-7 3.203887951671977e-7 2.0617551998458486e-7
          3.188339704641765e-7 1.251945923002917e-7 1.9160163829418948e-7 1.7479241371249596e-7 3.617673098316012e-7 3.644958760594842e-7
          2.1897209849456906e-7 1.4873799268879037e-7 1.683827661179355e-7 2.1527353508226557e-7 2.3768244784962146e-7 7.260767972365612e-8
          1.0382215367969787e-7 1.577852245820669e-7 2.818090774757407e-7 3.0698212958130734e-7 1.3503662763573962e-7 2.508848383872494e-7
          2.4425586667803434e-7 2.763893986474212e-7 2.7079168124477994e-7 2.162211665169735e-7 2.3737999578209168e-7 2.443549149744316e-7
          3.0189395890759297e-7 2.9732749581152553e-7 2.5853882504720987e-7 8.380018634421005e-8 9.533723733583053e-8 1.246641873075568e-7
          1.3101279140890128e-7 6.684852372781857e-8 1.1364818910580025e-7 5.712271976352016e-8 8.670694112405037e-8 9.774382785285883e-8
          7.028344807814012e-8 5.737625816996195e-8 1.0431824550577878e-7 4.960225040436503e-8 9.439061275233298e-8 3.521960322094731e-8
          6.068880486386037e-8 5.252937375981535e-8 3.810076637226188e-8 2.2647093941629624e-8 7.193421510997375e-9 2.1926094856626936e-8
          8.709539972656254e-8 4.989411623812363e-9 2.542689870405932e-8 1.5226470459649816e-7 4.5864385784306266e-8 2.3556681288471746e-7
          3.1040999317677065e-7 2.5039003719405264e-7 3.8525317346882396e-7 7.490213634889717e-9 5.196198073932223e-9 1.5911493974565696e-8
          1.1068222462467753e-8 2.9021825129747303e-9 1.3399132995614393e-8 1.7179804703391395e-7 1.3124676551734446e-8 5.901108601601796e-7
          4.0813808033802874e-7 0.0000013507889592796635 9.57684089261927e-7 1.8055940670492362e-7 4.83037938989718e-7 0.0000010608498849023709
          1.2650235304407866e-8 9.149584979138179e-8 1.3537688627778442e-7 8.323409590209725e-8 6.142619301030173e-8 3.109130552641007e-8
          3.135653622922166e-8 1.9772243117210005e-8 2.3248647097801338e-7 5.4979956361012866e-8 1.4587655466991585e-8 2.1783289491564301e-7
          9.018766960481573e-8 2.4965001147383054e-8 9.689772755845654e-7 8.341686324457722e-7 0.0000014398758207991573 0.0000014108444522224169
          5.73265450916269e-7 8.917256684447721e-7 0.000001316733711089157 0.0000014711573067292694 0.0000010538905173611342 2.4599628155938364e-7
          3.206474863543927e-7 1.7091618898391851e-7 2.396567194649178e-7 3.952986911494017e-7 3.08397249945917e-7
        </DataArray>
        <DataArray type="Float64" Name="gradient_matprop_error" format="ascii" RangeMin="0" RangeMax="0">
          0 0 0 0 0 0
          0 0 0 0 0 0
          0 0 0 0 0 0
          0 0 0 0 0 0
          0 0 0 0 0 0
          0 0 0 0 0 0
          0 0 0 0 0 0
          0 0 0 0 0 0
          0 0 0 0 0 0
          0 0 0 0 0 0
          0 0 0 0 0 0
          0 0 0 0 0 0
          0 0 0 0 0 0
          0 0 0 0 0 0
          0 0 0 0 0 0
          0 0 0 0 0 0
          0 0 0 0 0 0
          0 0 0 0 0 0
          0 0 0 0 0 0
          0 0 0 0 0 0
          0 0 0 0 0 0
          0 0 0 0 0 0
          0 0 0 0 0 0
          0 0 0 0 0 0
          0 0 0 0 0 0
          0 0 0 0 0 0
          0 0 0 0 0 0
          0 0 0 0 0 0
          0 0 0 0 0 0
          0 0 0 0 0 0
          0 0 0 0 0 0
          0 0 0 0 0 0
          0 0 0 0 0 0
          0 0 0 0 0 0
          0 0 0 0 0 0
          0 0 0 0 0 0
          0 0 0 0 0 0
          0 0 0 0 0 0
          0 0 0 0 0 0
          0 0 0 0 0 0
          0 0 0 0 0 0
          0 0 0 0 0 0
          0 0 0 0 0 0
          0 0 0 0 0 0
          0 0 0 0 0 0
          0 0 0 0 0 0
          0 0 0 0 0 0
          0 0 0 0 0 0
          0 0 0 0 0 0
          0 0 0 0 0 0
          0 0 0 0 0 0
          0 0 0 0 0 0
          0 0 0 0 0 0
          0 0 0 0 0 0
          0 0 0 0 0 0
          0 0 0 0 0 0
          0 0 0 0 0 0
          0 0 0 0 0 0
          0 0 0 0 0 0
          0 0 0 0 0 0
          0 0 0 0 0 0
          0 0 0 0 0 0
          0 0 0 0 0 0
          0 0 0 0 0 0
          0 0 0 0 0 0
          0 0 0 0 0 0
          0 0 0 0 0 0
          0 0 0 0 0 0
          0 0 0 0 0 0
          0 0 0 0 0
        </DataArray>
        <DataArray type="Float64" Name="initial_marker" format="ascii" RangeMin="0" RangeMax="2">
          0 0 0 0 0 0
          0 0 0 0 0 0
          0 0 0 0 0 0
          0 0 2 0 0 0
          0 0 0 0 0 0
          0 0 0 0 0 0
          0 0 2 0 0 0
          0 0 0 0 0 0
          0 0 0 0 0 0
          1 0 0 0 0 0
          1 0 0 0.5 0 0
          0 1 0.5 0 1.5 0.5
          0 0 0 2 1 1
          0 0 0 2 0.5 0
          0 1 0 0 0 0
          0 0 0 0 0 0
          0 0 0 0 0 0
          0.5 0.25 0 0.5 1.5 0.75
          0.25 0.5 2 1.25 0 0
          0 0.25 2 1 0.5 1.5
          0 1 0.75 2 1.75 1
          2 2 0.3333333333333333 0.75 1 2
          2 2 1 1 1 2
          2 1.25 2 2 0.5 1
          1 2 2 2 1 0
          0 0 0.5 1 0.5 0.25
          0 1 0.5 0 0 0
          0 2 1.5 1.5 0.5 2
          2 2 2 1 1 2
          2 2 1 0 0 0
          0 0 0 0 0 0
          0 0 0 0 0 0
          0 0 0 0 0 0
          0 0 0 0 0 0
          0 0 0 0 0 0
          0 0 0 0 0 0
          0 0 0 0 0 0
          0 0 0 0 0 0
          0 0 0 0 0 0
          0 0 0 0 0 0
          0 0 0 0 0 0
          0 0 0 0 0 0
          0 0 0 0 0 0
          0 0 0 0 0 0
          0 0 0 0 0 0
          0 0 0 0 0 0
          0 0 0 0 0 0
          0 0 0 0 0 0
          0 0 0 0 0 0
          0 0 0 0 0 0
          0 0 0 0 0 0
          0 0 0 0 0 0
          0 0 0 0 0 0
          0 0 0 0 0 0
          0 0 0 0 0 0
          0 0 0 0 0 0
          0 0 0 0 0 0
          0 0 0 0 0 0
          0 0 0 0 0 0
          0 0 0 0 0 0
          0 0 0 0 0 0
          0 0 0 0 0 0
          0 0 0 0 0 0
          0 0 0 0 0 0
          0 0 0 0 0 0
          0 0 0 0 0 0
          0 0 0 0 0 0
          0 0 0 0 0 0
          0 0 0 0 0 0
          0 0 0 0 0
        </DataArray>
        <DataArray type="Float64" Name="markers_norefine" format="ascii" RangeMin="0" RangeMax="0">
          0 0 0 0 0 0
          0 0 0 0 0 0
          0 0 0 0 0 0
          0 0 0 0 0 0
          0 0 0 0 0 0
          0 0 0 0 0 0
          0 0 0 0 0 0
          0 0 0 0 0 0
          0 0 0 0 0 0
          0 0 0 0 0 0
          0 0 0 0 0 0
          0 0 0 0 0 0
          0 0 0 0 0 0
          0 0 0 0 0 0
          0 0 0 0 0 0
          0 0 0 0 0 0
          0 0 0 0 0 0
          0 0 0 0 0 0
          0 0 0 0 0 0
          0 0 0 0 0 0
          0 0 0 0 0 0
          0 0 0 0 0 0
          0 0 0 0 0 0
          0 0 0 0 0 0
          0 0 0 0 0 0
          0 0 0 0 0 0
          0 0 0 0 0 0
          0 0 0 0 0 0
          0 0 0 0 0 0
          0 0 0 0 0 0
          0 0 0 0 0 0
          0 0 0 0 0 0
          0 0 0 0 0 0
          0 0 0 0 0 0
          0 0 0 0 0 0
          0 0 0 0 0 0
          0 0 0 0 0 0
          0 0 0 0 0 0
          0 0 0 0 0 0
          0 0 0 0 0 0
          0 0 0 0 0 0
          0 0 0 0 0 0
          0 0 0 0 0 0
          0 0 0 0 0 0
          0 0 0 0 0 0
          0 0 0 0 0 0
          0 0 0 0 0 0
          0 0 0 0 0 0
          0 0 0 0 0 0
          0 0 0 0 0 0
          0 0 0 0 0 0
          0 0 0 0 0 0
          0 0 0 0 0 0
          0 0 0 0 0 0
          0 0 0 0 0 0
          0 0 0 0 0 0
          0 0 0 0 0 0
          0 0 0 0 0 0
          0 0 0 0 0 0
          0 0 0 0 0 0
          0 0 0 0 0 0
          0 0 0 0 0 0
          0 0 0 0 0 0
          0 0 0 0 0 0
          0 0 0 0 0 0
          0 0 0 0 0 0
          0 0 0 0 0 0
          0 0 0 0 0 0
          0 0 0 0 0 0
          0 0 0 0 0
        </DataArray>
        <DataArray type="Float64" Name="markers_mustrefine" format="ascii" RangeMin="0" RangeMax="2">
          0 0 0 0 0 0
          0 0 0 0 0 0
          0 0 0 0 0 0
          0 0 2 0 0 0
          0 0 0 0 0 0
          0 0 0 0 0 0
          0 0 2 0 0 0
          0 0 0 0 0 0
          0 0 0 0 0 0
          1 0 0 0 0 0
          1 0 0 0.5 0 0
          0 1 0.5 0 1.5 0.5
          0 0 0 2 1 1
          0 0 0 2 0.5 0
          0 1 0 0 0 0
          0 0 0 0 0 0
          0 0 0 0 0 0
          0.5 0.25 0 0.5 1.5 0.75
          0.25 0.5 2 1.25 0 0
          0 0.25 2 1 0.5 1.5
          0 1 0.75 2 1.75 1
          2 2 0.3333333333333333 0.75 1 2
          2 2 1 1 1 2
          2 1.25 2 2 0.5 1
          1 2 2 2 1 0
          0 0 0.5 1 0.5 0.25
          0 1 0.5 0 0 0
          0 2 1.5 1.5 0.5 2
          2 2 2 1 1 2
          2 2 1 0 0 0
          0 0 0 0 0 0
          0 0 0 0 0 0
          0 0 0 0 0 0
          0 0 0 0 0 0
          0 0 0 0 0 0
          0 0 0 0 0 0
          0 0 0 0 0 0
          0 0 0 0 0 0
          0 0 0 0 0 0
          0 0 0 0 0 0
          0 0 0 0 0 0
          0 0 0 0 0 0
          0 0 0 0 0 0
          0 0 0 0 0 0
          0 0 0 0 0 0
          0 0 0 0 0 0
          0 0 0 0 0 0
          0 0 0 0 0 0
          0 0 0 0 0 0
          0 0 0 0 0 0
          0 0 0 0 0 0
          0 0 0 0 0 0
          0 0 0 0 0 0
          0 0 0 0 0 0
          0 0 0 0 0 0
          0 0 0 0 0 0
          0 0 0 0 0 0
          0 0 0 0 0 0
          0 0 0 0 0 0
          0 0 0 0 0 0
          0 0 0 0 0 0
          0 0 0 0 0 0
          0 0 0 0 0 0
          0 0 0 0 0 0
          0 0 0 0 0 0
          0 0 0 0 0 0
          0 0 0 0 0 0
          0 0 0 0 0 0
          0 0 0 0 0 0
          0 0 0 0 0
        </DataArray>
        <DataArray type="Float64" Name="gradient_marker" format="ascii" RangeMin="0" RangeMax="1">
          1 1 1 1 1 1
          1 1 1 1 1 1
          1 1 1 1 1 1
          1 1 1 1 1 1
          1 1 1 1 1 1
          1 1 1 0.75 1 1
          1 1 1 1 1 1
          1 1 1 1 1 1
          1 1 1 1 1 1
          1 1 1 1 1 1
          1 1 1 1 1 1
          1 1 1 0.75 1 1
          0.8333333333333334 1 0.75 1 1 1
          1 1 0.625 1 1 0.6666666666666666
          0.75 1 1 1 1 1
          1 1 1 1 1 1
          1 1 1 1 1 1
          1 1 1 1 1 1
          1 1 1 1 1 1
          1 1 1 1 1 1
          1 1 1 1 1 1
          1 1 1 1 1 1
          1 1 1 1 1 1
          1 1 1 1 1 1
          1 1 1 1 1 1
          1 1 1 1 1 1
          0.75 1 0.875 0.5 0.75 0.75
          0.625 1 1 1 1 1
          1 0.75 0.875 1 1 1
          1 0.75 1 1 1 1
          1 1 1 1 1 1
          1 1 1 1 1 1
          1 1 1 1 1 1
          1 1 1 1 1 1
          1 1 1 1 1 1
          1 1 1 1 1 1
          1 1 1 1 1 1
          1 1 1 1 1 1
          1 1 1 1 1 1
          1 1 1 1 1 1
          1 1 1 1 1 1
          1 1 1 1 1 1
          1 1 1 1 1 1
          1 1 1 1 1 1
          1 1 1 1 1 1
          1 1 1 1 1 1
          1 1 1 1 1 1
          1 1 1 1 1 1
          1 0.75 0.875 1 1 1
          1 1 1 1 1 1
          1 1 1 1 1 0.875
          1 0.75 1 0.75 1 1
          1 1 1 0.75 1 0.75
          1 0.5 1 1 1 1
          1 1 1 1 1 1
          1 1 1 1 1 1
          1 1 1 1 1 1
          1 1 1 0.25 0.5 0.5
          0.75 0 0.25 0 0.25 0.5
          0 0 0.25 0 0.25 0
          0 0 1 1 1 1
          1 1 1 1 1 1
          1 1 1 1 1 1
          1 1 1 1 1 1
          1 1 1 1 1 1
          1 1 1 1 1 1
          1 1 1 1 1 1
          1 1 1 1 1 1
          1 1 1 1 1 1
          1 1 1 1 1
        </DataArray>
        <DataArray type="Float64" Name="gradient_matprop_marker" format="ascii" RangeMin="0" RangeMax="0">
          0 0 0 0 0 0
          0 0 0 0 0 0
          0 0 0 0 0 0
          0 0 0 0 0 0
          0 0 0 0 0 0
          0 0 0 0 0 0
          0 0 0 0 0 0
          0 0 0 0 0 0
          0 0 0 0 0 0
          0 0 0 0 0 0
          0 0 0 0 0 0
          0 0 0 0 0 0
          0 0 0 0 0 0
          0 0 0 0 0 0
          0 0 0 0 0 0
          0 0 0 0 0 0
          0 0 0 0 0 0
          0 0 0 0 0 0
          0 0 0 0 0 0
          0 0 0 0 0 0
          0 0 0 0 0 0
          0 0 0 0 0 0
          0 0 0 0 0 0
          0 0 0 0 0 0
          0 0 0 0 0 0
          0 0 0 0 0 0
          0 0 0 0 0 0
          0 0 0 0 0 0
          0 0 0 0 0 0
          0 0 0 0 0 0
          0 0 0 0 0 0
          0 0 0 0 0 0
          0 0 0 0 0 0
          0 0 0 0 0 0
          0 0 0 0 0 0
          0 0 0 0 0 0
          0 0 0 0 0 0
          0 0 0 0 0 0
          0 0 0 0 0 0
          0 0 0 0 0 0
          0 0 0 0 0 0
          0 0 0 0 0 0
          0 0 0 0 0 0
          0 0 0 0 0 0
          0 0 0 0 0 0
          0 0 0 0 0 0
          0 0 0 0 0 0
          0 0 0 0 0 0
          0 0 0 0 0 0
          0 0 0 0 0 0
          0 0 0 0 0 0
          0 0 0 0 0 0
          0 0 0 0 0 0
          0 0 0 0 0 0
          0 0 0 0 0 0
          0 0 0 0 0 0
          0 0 0 0 0 0
          0 0 0 0 0 0
          0 0 0 0 0 0
          0 0 0 0 0 0
          0 0 0 0 0 0
          0 0 0 0 0 0
          0 0 0 0 0 0
          0 0 0 0 0 0
          0 0 0 0 0 0
          0 0 0 0 0 0
          0 0 0 0 0 0
          0 0 0 0 0 0
          0 0 0 0 0 0
          0 0 0 0 0
        </DataArray>
        <DataArray type="Float64" Name="combo" format="ascii" RangeMin="0" RangeMax="1">
          1 1 1 1 1 1
          1 1 1 1 1 1
          1 1 1 1 1 1
          1 1 1 1 1 1
          1 1 1 1 1 1
          1 1 1 0.75 1 1
          1 1 1 1 1 1
          1 1 1 1 1 1
          1 1 1 1 1 1
          1 1 1 1 1 1
          1 1 1 1 1 1
          1 1 1 0.75 1 1
          0.8333333333333334 1 0.75 1 1 1
          1 1 0.625 1 1 0.6666666666666666
          0.75 1 1 1 1 1
          1 1 1 1 1 1
          1 1 1 1 1 1
          1 1 1 1 1 1
          1 1 1 1 1 1
          1 1 1 1 1 1
          1 1 1 1 1 1
          1 1 1 1 1 1
          1 1 1 1 1 1
          1 1 1 1 1 1
          1 1 1 1 1 1
          1 1 1 1 1 1
          0.75 1 0.875 0.5 0.75 0.75
          0.625 1 1 1 1 1
          1 0.75 0.875 1 1 1
          1 0.75 1 1 1 1
          1 1 1 1 1 1
          1 1 1 1 1 1
          1 1 1 1 1 1
          1 1 1 1 1 1
          1 1 1 1 1 1
          1 1 1 1 1 1
          1 1 1 1 1 1
          1 1 1 1 1 1
          1 1 1 1 1 1
          1 1 1 1 1 1
          1 1 1 1 1 1
          1 1 1 1 1 1
          1 1 1 1 1 1
          1 1 1 1 1 1
          1 1 1 1 1 1
          1 1 1 1 1 1
          1 1 1 1 1 1
          1 1 1 1 1 1
          1 0.75 0.875 1 1 1
          1 1 1 1 1 1
          1 1 1 1 1 0.875
          1 0.75 1 0.75 1 1
          1 1 1 0.75 1 0.75
          1 0.5 1 1 1 1
          1 1 1 1 1 1
          1 1 1 1 1 1
          1 1 1 1 1 1
          1 1 1 0.25 0.5 0.5
          0.75 0 0.25 0 0.25 0.5
          0 0 0.25 0 0.25 0
          0 0 1 1 1 1
          1 1 1 1 1 1
          1 1 1 1 1 1
          1 1 1 1 1 1
          1 1 1 1 1 1
          1 1 1 1 1 1
          1 1 1 1 1 1
          1 1 1 1 1 1
          1 1 1 1 1 1
          1 1 1 1 1
        </DataArray>
        <DataArray type="Float64" Name="dHdT" format="ascii" RangeMin="25.790111167078816" RangeMax="39.281462362895006">
          25.811352635283278 25.81141469702563 25.81142469436101 25.811456604163013 25.81147675876798 25.811488513965006
          25.815077379820533 25.81177693163085 25.811334256888905 25.811553919420355 25.811684284280673 25.811593010666602
          25.897438681340493 25.82137613288578 25.80226831626161 25.813490039527608 25.811964124658424 25.81165430810913
          36.8088841803808 25.931850780907276 36.90128431808829 25.803561510026853 25.817516276860474 25.811566825753495
          25.79748697321805 25.814767445383076 25.86248120280937 28.01606817904649 27.046015776621708 26.27818640106119
          26.437267894213278 25.81264210932312 26.677034808697872 25.932820783540574 25.818034326792127 25.816340465952916
          25.87723388288458 25.813264437824902 38.3158111560366 27.31359401077333 28.261894704073253 26.87876656185114
          25.80378222189045 34.34832257801686 28.242872190363766 25.96258902373377 27.632787907611323 27.12773763910034
          27.841111675635165 32.54773972899117 33.492850816672885 30.304406046518963 30.33760045808915 26.726566486830098
          34.1423727700597 30.45180444754295 26.53951290111361 27.260698773369683 27.99942007814234 26.835014514788444
          39.281462362895006 33.849248606037484 32.8003017256309 34.53592378586248 27.90635286800863 26.87161178459997
          26.544638384288476 34.13433024801391 30.49340689351078 26.327815706667483 33.96063068023814 30.370921553596958
          26.194889837147386 26.64726577438846 26.420752177527568 37.34391305988002 34.49518559357326 34.26799220852607
          27.110855228894103 26.458856632854314 26.180167752568686 33.668412213462105 29.951596803463694 25.912113220671994
          26.24810329075895 33.923830955103554 26.6134188066435 25.81153534515554 25.810343078272027 25.810697615227514
          25.811052152183002 25.811157778674733 25.810752680947623 25.811584601630777 25.810347583220512 25.80245078245473
          25.905668964094296 25.86714329433722 25.851495305320416 25.879340553132796 25.835847316303607 25.853012142171288
          34.052857703666696 33.04503901388604 33.60506818674222 37.812226473256295 37.70916203950701 36.54154480704048
          36.47235223378615 33.13757593848078 37.49925480441715 36.51421152177187 31.468067783317434 33.301024314030315
          33.82203744592869 33.3952107532875 38.8599132673692 37.81846977002953 37.94519243813612 37.58475280802107
          34.45175283896083 34.16429756242701 33.15227939510309 37.236972886067775 36.39262368915365 33.12304649470357
          36.97092008713082 36.23766403806355 31.50787928551519 33.40522538318171 33.36834040738841 37.79525067069278
          37.30130893675646 37.02070831210514 34.54430217504034 34.0632403869472 33.05681444070973 36.749019042407696
          36.086427006355265 32.946469778268195 36.61893834394056 35.96126216379326 30.519123471654147 33.29064410419574
          33.16640601795309 37.02409041329943 36.78797661468572 36.64967822003101 34.39766964662705 27.167406398475777
          26.983898684847553 27.13878949168435 29.461302964870054 29.310401825881524 28.72025319713684 28.879441470332615
          26.820421915593556 29.12182837070413 28.52913708044627 26.58034009909253 27.533034208729173 27.68821218466895
          27.365011683912137 33.82632927042117 32.78974651734913 32.5951030868668 30.18230162785961 36.63684695533148