<?xml version="1.0"?>
<VTKFile type="UnstructuredGrid" version="0.1" byte_order="LittleEndian" header_type="UInt32" compressor="vtkZLibDataCompressor">
  <UnstructuredGrid>
    <Piece NumberOfPoints="443" NumberOfCells="219">
      <PointData>
        <DataArray type="Int32" Name="libmesh_node_id" format="ascii" RangeMin="164" RangeMax="3634">
          164 165 194 195 196 244
          247 248 249 250 251 252
          255 256 271 272 273 274
          276 277 279 281 282 283
          284 360 361 362 363 364
          365 366 367 368 369 370
          371 372 373 413 415 419
          420 470 471 472 473 474
          475 476 477 478 479 486
          490 491 492 493 494 495
          496 497 498 499 500 501
          502 503 747 748 749 750
          751 752 755 759 760 762
          765 767 768 769 770 771
          772 773 774 775 776 777
          778 779 780 841 842 843
          844 845 846 847 848 849
          850 969 970 971 972 973
          974 975 976 977 978 979
          980 981 982 983 984 985
          986 987 988 989 990 991
          992 994 996 997 998 999
          1000 1001 1002 1003 1004 1005
          1489 1513 1514 1516 1519 1529
          1530 1531 1533 1534 1535 1536
          1537 1550 1551 1553 1556 1566
          1568 1570 1572 1573 1574 1575
          1576 1577 1578 1579 1580 1581
          1582 1583 1584 1585 1586 1587
          1588 1589 1590 1591 1592 1593
          1594 1595 1596 1597 1598 1599
          1600 1601 1602 1603 1604 1605
          1661 1662 1663 1664 1665 1666
          1667 1668 1669 1670 1671 1672
          1673 1674 1713 1714 1715 1716
          1717 1718 1719 1720 1721 1722
          1723 1724 1725 1726 1727 1728
          1729 1730 1731 1732 1733 3138
          3139 3141 3142 3144 3145 3146
          3147 3148 3149 3161 3163 3167
          3168 3169 3180 3181 3182 3183
          3184 3185 3186 3187 3188 3189
          3197 3198 3199 3200 3201 3202
          3203 3279 3280 3281 3282 3283
          3284 3285 3286 3287 3288 3367
          3368 3369 3370 3371 3372 3373
          3374 3375 3376 3384 3385 3386
          3387 3388 3389 3390 3401 3402
          3403 3404 3405 3406 3407 3408
          3409 3410 3418 3419 3420 3421
          3422 3423 3424 3488 3489 3490
          3491 3492 3493 3494 3512 3513
          3514 3515 3516 3517 3518 3526
          3527 3528 3529 3530 3531 3532
          3533 3534 3535 3536 3537 3538
          3539 3540 3541 3542 3543 3544
          3545 3546 3547 3548 3549 3550
          3551 3552 3553 3554 3555 3556
          3557 3558 3559 3560 3561 3562
          3563 3564 3565 3566 3567 3568
          3569 3570 3571 3572 3573 3574
          3575 3576 3577 3578 3579 3580
          3581 3582 3583 3584 3585 3586
          3587 3588 3589 3590 3591 3592
          3593 3594 3595 3596 3597 3598
          3599 3600 3601 3602 3603 3604
          3605 3606 3607 3608 3609 3610
          3611 3612 3613 3614 3615 3616
          3617 3618 3619 3620 3621 3622
          3623 3624 3625 3626 3627 3628
          3629 3630 3631 3632 3633 3634
          246 243 464 465 466 469
          350 482 355 483 254 488
          964 698 965 968 735
        </DataArray>
        <DataArray type="Float64" Name="bounds" format="ascii" RangeMin="0" RangeMax="0">
          0 0 0 0 0 0
          0 0 0 0 0 0
          0 0 0 0 0 0
          0 0 0 0 0 0
          0 0 0 0 0 0
          0 0 0 0 0 0
          0 0 0 0 0 0
          0 0 0 0 0 0
          0 0 0 0 0 0
          0 0 0 0 0 0
          0 0 0 0 0 0
          0 0 0 0 0 0
          0 0 0 0 0 0
          0 0 0 0 0 0
          0 0 0 0 0 0
          0 0 0 0 0 0
          0 0 0 0 0 0
          0 0 0 0 0 0
          0 0 0 0 0 0
          0 0 0 0 0 0
          0 0 0 0 0 0
          0 0 0 0 0 0
          0 0 0 0 0 0
          0 0 0 0 0 0
          0 0 0 0 0 0
          0 0 0 0 0 0
          0 0 0 0 0 0
          0 0 0 0 0 0
          0 0 0 0 0 0
          0 0 0 0 0 0
          0 0 0 0 0 0
          0 0 0 0 0 0
          0 0 0 0 0 0
          0 0 0 0 0 0
          0 0 0 0 0 0
          0 0 0 0 0 0
          0 0 0 0 0 0
          0 0 0 0 0 0
          0 0 0 0 0 0
          0 0 0 0 0 0
          0 0 0 0 0 0
          0 0 0 0 0 0
          0 0 0 0 0 0
          0 0 0 0 0 0
          0 0 0 0 0 0
          0 0 0 0 0 0
          0 0 0 0 0 0
          0 0 0 0 0 0
          0 0 0 0 0 0
          0 0 0 0 0 0
          0 0 0 0 0 0
          0 0 0 0 0 0
          0 0 0 0 0 0
          0 0 0 0 0 0
          0 0 0 0 0 0
          0 0 0 0 0 0
          0 0 0 0 0 0
          0 0 0 0 0 0
          0 0 0 0 0 0
          0 0 0 0 0 0
          0 0 0 0 0 0
          0 0 0 0 0 0
          0 0 0 0 0 0
          0 0 0 0 0 0
          0 0 0 0 0 0
          0 0 0 0 0 0
          0 0 0 0 0 0
          0 0 0 0 0 0
          0 0 0 0 0 0
          0 0 0 0 0 0
          0 0 0 0 0 0
          0 0 0 0 0 0
          0 0 0 0 0 0
          0 0 0 0 0
        </DataArray>
        <DataArray type="Float64" Name="gradient_error" format="ascii" RangeMin="1.308135305336429e-12" RangeMax="1.4864756392593611e-9">
          9.530909329727769e-11 2.7293836878295466e-10 3.566972806475702e-12 7.616146975500068e-11 6.36672612147405e-11 1.1994619523000625e-9
          2.237428972213863e-10 4.351842716323093e-11 1.76838626559603e-10 1.4864756392593611e-9 1.1434644324337517e-9 2.1102532469299277e-10
          5.985230486578877e-11 3.3647262272143204e-10 5.585228951201265e-11 5.030214364218827e-11 3.276085152985004e-11 4.2869139016027985e-11
          2.0416942896463016e-11 2.0434230649096494e-11 5.161021927815147e-11 8.048196746666162e-12 3.5269373462129825e-11 1.781131274693495e-11
          5.846844078393906e-11 1.2213482965822854e-10 1.442100477887301e-10 2.9761346141661036e-11 5.546663893845738e-11 5.826237166601422e-11
          1.0952750884411898e-11 2.5742475408092506e-11 2.0439684041514137e-10 1.976341178257161e-10 6.723802430987057e-11 2.0421050696009978e-10
          5.17769349728988e-11 1.175236978733646e-11 2.0668796686934083e-10 3.437095679715752e-10 8.05690995315584e-11 3.186358469495298e-10
          6.824722061387156e-11 3.847281218844236e-11 6.50511629176135e-11 1.1956048810029024e-10 1.4275727534921367e-10 3.405980873414478e-11
          4.095111405697086e-11 6.45936102198444e-11 9.162951364678464e-11 1.6595406259813716e-10 8.823610638271796e-11 2.034533176390415e-10
          8.553492888025912e-12 1.0770820011612501e-11 5.0716610881953e-12 9.18557072546544e-12 7.678206522214654e-12 3.3225752730844616e-12
          6.700837193966139e-12 1.298814713519909e-11 1.3234775896699519e-11 1.0079099114847817e-11 1.419664489034932e-12 7.566106455554433e-12
          5.723467865717624e-12 1.3481404658199948e-11 4.2161168604014756e-11 3.3232149723634096e-11 3.081179009899425e-11 1.7099072321652161e-10
          1.553319170585719e-10 4.3538339656871643e-11 2.3935680130822528e-11 7.726495490810866e-11 2.6088768741610956e-11 5.0213327408874693e-11
          5.623741033301841e-11 1.807563488323218e-11 1.5224248712838276e-11 1.3390051451616174e-11 1.5150152295461203e-11 9.655741905677328e-12
          7.79420989860911e-12 8.4579632365544e-12 1.4941122249853155e-11 1.706598980321765e-11 9.423102800125411e-12 8.425145244663802e-12
          1.1223268653595198e-11 7.044452916469034e-12 1.9781181035252937e-11 1.8940923270852687e-10 2.0016158936748144e-10 9.094417353851986e-11
          8.154629169864953e-11 9.28197432797019e-11 7.829620050226426e-11 4.5480796787567296e-11 2.10913946026436e-10 7.21484098587792e-11
          6.377265772482661e-11 1.1284667643370306e-11 1.053231650984903e-11 1.6469178898192397e-11 1.484925269450577e-11 8.168089798661202e-12
          8.064527420622083e-12 8.670207761616932e-12 9.779965376327753e-12 1.3229326490819143e-11 9.275888102611781e-12 1.2886544431757635e-10
          1.67268795010538e-10 5.848071231065979e-11 6.763803147038972e-11 1.0090273275911636e-10 1.309994790505676e-10 6.14419417973589e-11
          1.774434396364208e-10 7.13975060943333e-11 1.7987192297034043e-10 1.5258924390830991e-10 5.5762236370919356e-11 2.2992358956795166e-10
          5.181470553591108e-11 4.29747485732437e-11 1.739989284519796e-11 2.0379627950216768e-11 1.1421316007488306e-11 1.1589106890331534e-11
          1.4768516330310693e-11 1.7262412583544593e-11 1.3391580622328493e-11 2.3359363055235575e-11 1.175689777317476e-11 1.97563088367785e-11
          2.3492393612663544e-11 3.0477863644278806e-11 2.3705200722466694e-11 2.0637858567934267e-11 5.660736237387996e-11 4.607821510254154e-11
          1.9034293592337785e-11 2.288672599351093e-11 6.70495565917341e-11 2.0869738296989743e-11 5.5610901666626244e-11 2.7222923279130228e-11
          6.16191145963185e-11 1.6052349636742673e-10 1.1679171012984e-10 4.499667503821464e-11 1.4890564060738303e-10 3.739813588143396e-11
          4.739300969349536e-11 4.3878137674945554e-11 2.3206082822916377e-11 1.956558763209115e-11 1.9265477200999023e-11 1.5939355462988128e-11
          7.745242951886403e-12 1.5547996716008282e-11 1.308438110879228e-11 1.2098924591307998e-11 1.3200921918120362e-11 8.218161570206961e-12
          1.7111733632763204e-11 1.6503666938368286e-11 1.4014412363176064e-11 1.4876496172391123e-11 2.5889155306399655e-11 2.2015338981144334e-11
          6.883928433412716e-12 9.428561473228455e-12 1.4308304647465734e-11 1.2633211715380579e-11 3.260679700424506e-11 2.4213326384414793e-11
          6.649223918387712e-12 1.3354355367989136e-11 1.2526839295862457e-11 1.3152333063894766e-11 7.59054413750218e-12 1.0770019056882839e-11
          1.1443425827021158e-11 1.66011861820833e-11 6.901965204686827e-12 1.522685662496595e-11 1.2350695611342652e-11 1.8861156525374856e-11
          2.450402174128417e-12 2.3451595767440516e-12 2.5773354854675823e-12 2.4640472992769757e-12 1.6077090367383105e-12 1.308135305336429e-12
          1.4884116533094849e-12 2.2399169793596864e-12 2.350759113086369e-12 1.668688001282541e-12 2.7042687968067475e-12 2.5829350218099e-12
          1.3691142698806596e-12 2.4616012468130523e-12 6.542898159283282e-12 1.0279816147930492e-11 4.005783787336208e-12 4.998764779958772e-12
          4.813039577216489e-12 6.679337696233532e-12 4.181971921079901e-12 4.867852680816986e-12 4.202567402462907e-12 5.658768193769231e-12
          4.84400830642633e-12 2.759586467479116e-12 2.931103542932989e-12 2.7517003982748057e-12 3.5372821241088285e-12 4.0292484190834294e-12
          2.5722972536166225e-12 6.449683706721475e-12 5.485449210389752e-12 2.7438143290704955e-12 4.521214714058031e-12 2.4618225561339273e-11
          2.3019844399298088e-11 1.5519556611939474e-11 1.4566165317847282e-11 1.893450284684999e-11 1.2065790404993647e-11 5.2557757274286656e-11
          4.8868535725142826e-11 2.6098348510250825e-11 3.9400952632017785e-11 1.3792689530900689e-11 9.14892704968849e-12 2.7731610344696116e-11
          1.5111620800575322e-11 2.00067525068075e-11 1.0229881806467627e-10 9.464691356222073e-11 4.491054942212842e-11 4.1673613628051273e-11
          7.503312595890753e-11 3.333471147059319e-11 1.7825998722743164e-10 1.645142330539907e-10 7.149870835574795e-11 1.2906068750362975e-10
          5.164161908117974e-11 2.319224730556074e-11 3.1289887225865436e-11 1.6862076536005353e-11 8.682635296910732e-11 3.8668770532571954e-11
          5.125553143250481e-11 1.2819417252881915e-11 1.7189044553290308e-11 8.744120602640127e-12 1.1230038335339834e-11 9.29983618805269e-12
          1.2010309959159324e-11 8.177346070482028e-12 2.729742853050296e-11 1.4634830279749415e-11 1.8383604007501228e-11 2.7612093493972806e-10
          2.548532240285374e-10 1.1845834714376283e-10 1.0954663853426785e-10 1.990538084679351e-10 8.624990109331927e-11 3.761836590000396e-10
          3.4790704959065523e-10 1.4855954145436653e-10 2.7187342577511194e-10 1.3156993837047082e-10 5.8020995982019326e-11 7.560062311673308e-11
          3.404627962536118e-11 1.779425784892173e-10 7.776883745986057e-11 1.0027681071669787e-10 4.513809105093363e-10 4.1845473697277643e-10
          1.923529034067577e-10 1.782105654980568e-10 3.278205444001301e-10 1.4013721016261107e-10 4.792460147453801e-10 4.447602823796403e-10
          1.892926137815559e-10 3.48887466833101e-10 2.137291023204204e-10 9.287865184546173e-11 1.1915334195128167e-10 5.318391119664434e-11
          2.272330116481303e-10 9.85464294451699e-11 1.2622944886994053e-10 3.9171968907144464e-11 1.8008575415893477e-11 2.5760464503241033e-11
          1.2101711283237569e-11 5.080751828674352e-11 2.3331153016392902e-11 3.283016074957291e-11 5.954389125944508e-11 2.7184341100159515e-11
          3.8126777893123925e-11 1.7551970762087557e-11 6.278049855238481e-11 2.8629259613715832e-11 4.00677390088476e-11 1.31480051289426e-11
          1.2273653131957291e-11 1.880951268804486e-11 1.7514227110818802e-11 7.549619137364032e-12 1.107669684233843e-11 1.0348381664327921e-11
          1.0003569203837868e-11 1.4156431090015509e-11 8.403451083977804e-12 3.234967952050445e-11 3.005178410613806e-11 1.4175940653024633e-11
          2.4025115150078258e-11 7.236783548790785e-12 9.974891778708745e-12 4.672466530052164e-12 6.159555222884675e-12 5.865729824877814e-12
          7.855862910979217e-12 5.132274764131156e-12 1.6558669513956055e-11 9.892518350769511e-12 1.1437822771315914e-11 4.88650156680785e-11
          4.540267353672426e-11 1.9357421834718967e-11 1.785642443170107e-11 3.6142288963169926e-11 1.6812140177567543e-11 6.55408237261586e-11
          6.087698089583728e-11 2.3905383137760206e-11 4.8352278280398954e-11 6.023857117199314e-12 5.60022667244046e-12 7.43864398994866e-12
          6.876404985242115e-12 3.7105858321833195e-12 4.2269162238410155e-12 4.2764252305199255e-12 5.176596227681607e-12 6.314165980535571e-12
          4.3259342371988355e-12 9.975125419874545e-12 9.200247410417447e-12 5.33641095617821e-12 7.961826197350211e-12 2.4725303109898464e-11
          1.46109219899074e-11 1.483152217878459e-11 9.036602193897414e-12 3.291004619713727e-11 1.542994680830308e-11 1.9605770029831023e-11
          7.835916540648467e-11 7.269069906562103e-11 3.077806602102085e-11 2.854044859590222e-11 5.7574127235255555e-11 2.2689694774848878e-11
          8.313837590294735e-11 7.708401629042023e-11 3.029264089579513e-11 6.09873385120897e-11 1.1771065254426267e-11 1.0922027169666085e-11
          6.437966296393638e-12 6.085406303120895e-12 8.794194881429153e-12 5.1407148774044196e-12 1.2445310531801445e-11 1.1596142816541045e-11
          6.3402553227419016e-12 9.371518333527756e-12 3.902637841374697e-11 1.564663224988651e-11 2.304696112965953e-11 1.1351805097538567e-11
          4.1278931633730915e-11 1.6690069884314883e-11 2.431169039879263e-11 5.848461108560505e-12 6.1789647184721984e-12 4.045795522934118e-12
          3.855350802636469e-12 4.662182426991069e-12 4.842528758991994e-12 3.162118160312253e-12 6.509468328383894e-12 3.664906082338821e-12
          5.022875090992919e-12 6.845288356137415e-12 8.133996669951151e-12 4.734686223455076e-12 5.276419594828349e-12 5.0191032373816014e-12
          5.7113086811602134e-12 3.97591230634039e-12 1.0473849571356942e-11 6.50627176067205e-12 7.064832982044424e-12 1.2142396735747793e-11
          7.551067306936043e-12 8.117606293916737e-12 5.48013156297411e-12 1.2759799312546589e-11 7.90774405872961e-12 8.509060748683452e-12
          1.2377069244323896e-9 3.897058948260097e-10 2.016026337745032e-10 1.766953554374955e-10 3.2504290664242125e-10 4.834978769485813e-10
          6.044041191593143e-10 5.030168220289698e-10 9.50161280880141e-10 6.597298402005803e-10 1.4046711219343529e-9 8.164428583721907e-10
          5.066765438273048e-10 7.681203626537199e-10 7.641919371231797e-10 5.037395294586231e-10 7.857302394037463e-10
        </DataArray>
        <DataArray type="Float64" Name="gradient_matprop_error" format="ascii" RangeMin="0" RangeMax="0">
          0 0 0 0 0 0
          0 0 0 0 0 0
          0 0 0 0 0 0
          0 0 0 0 0 0
          0 0 0 0 0 0
          0 0 0 0 0 0
          0 0 0 0 0 0
          0 0 0 0 0 0
          0 0 0 0 0 0
          0 0 0 0 0 0
          0 0 0 0 0 0
          0 0 0 0 0 0
          0 0 0 0 0 0
          0 0 0 0 0 0
          0 0 0 0 0 0
          0 0 0 0 0 0
          0 0 0 0 0 0
          0 0 0 0 0 0
          0 0 0 0 0 0
          0 0 0 0 0 0
          0 0 0 0 0 0
          0 0 0 0 0 0
          0 0 0 0 0 0
          0 0 0 0 0 0
          0 0 0 0 0 0
          0 0 0 0 0 0
          0 0 0 0 0 0
          0 0 0 0 0 0
          0 0 0 0 0 0
          0 0 0 0 0 0
          0 0 0 0 0 0
          0 0 0 0 0 0
          0 0 0 0 0 0
          0 0 0 0 0 0
          0 0 0 0 0 0
          0 0 0 0 0 0
          0 0 0 0 0 0
          0 0 0 0 0 0
          0 0 0 0 0 0
          0 0 0 0 0 0
          0 0 0 0 0 0
          0 0 0 0 0 0
          0 0 0 0 0 0
          0 0 0 0 0 0
          0 0 0 0 0 0
          0 0 0 0 0 0
          0 0 0 0 0 0
          0 0 0 0 0 0
          0 0 0 0 0 0
          0 0 0 0 0 0
          0 0 0 0 0 0
          0 0 0 0 0 0
          0 0 0 0 0 0
          0 0 0 0 0 0
          0 0 0 0 0 0
          0 0 0 0 0 0
          0 0 0 0 0 0
          0 0 0 0 0 0
          0 0 0 0 0 0
          0 0 0 0 0 0
          0 0 0 0 0 0
          0 0 0 0 0 0
          0 0 0 0 0 0
          0 0 0 0 0 0
          0 0 0 0 0 0
          0 0 0 0 0 0
          0 0 0 0 0 0
          0 0 0 0 0 0
          0 0 0 0 0 0
          0 0 0 0 0 0
          0 0 0 0 0 0
          0 0 0 0 0 0
          0 0 0 0 0 0
          0 0 0 0 0
        </DataArray>
        <DataArray type="Float64" Name="initial_marker" format="ascii" RangeMin="0" RangeMax="2">
          0 0 0 0 0 0
          0 0 0 0 0 0
          0 0 0 0 0 0
          0 0 0 0 0 0
          0 0 0 0 0 0
          0 0 0 0 0 2
          0 0 0 0 0 0
          0 0 0 0 0 0
          0 0 0 0 0 0
          0 0 0 0 0 0
          0 0 0 0 0 0
          0 0 0 0 0 0
          0 0 0 2 1.5 0
          2 0 0 0 0 0
          0 0 0 0 0 0
          0 0 0 0 0 0
          0 0 0 0 0 0
          0 0 0 0 0 0
          0 0 0 0 0 0
          0 0 0 0 0 0
          0 0 0 0 0 0
          0 0 0 0 0 0
          0 0 0 0 0 0
          0 1.5 1 0.25 2 0
          0 0 0 0 0.75 0
          0 2 2 2 2 0.5
          0 0.5 0 0 0 0
          0 0 0 0 0 0
          1.5 0.75 0 0 2 1.75
          0 0 0.5 0 2 2
          0 0.5 0 0 0 0
          0 0 0 0 0 0
          0 0 0 0 0 0
          0 0 0 0 0 0
          0 0 0 0 0 0
          0 0 0 0 0 0
          0 0 0 0 0 0
          0 0 0 0 0 1
          1 1 1 0.75 0.5 2
          2 2 1.75 0.5 0 1.5
          0.6666666666666666 1.3333333333333333 2 2 2 2
          2 1.75 2 2 2 2
          2 1.5 1.75 1.3333333333333333 2 2
          2 0.5 0.75 0 0.5 0
          0 0 1.25 0.6666666666666666 0.5 2
          2 2 2 2 2 2
          2 2 2 2 2 2
          1.75 2 2 2 2 2
          2 2 2 2 2 2
          2 2 2 2 2 2
          2 2 2 1.75 1 1.5
          0.5 2 1.5 2 2 1.5
          2 1 2 1.5 2 1
          1 1.5 1.5 0 1 1
          0.5 1 0.5 2 2 1.6666666666666667
          1.75 0 0.5 0 0 0
          0.5 0 1.25 0.5 0.6666666666666666 2
          2 2 1.75 2 1.6666666666666667 2
          2 2 2 1 0.5 1
          0.75 0 0 0 0 0.5
          0 1 1 0 1 1.75
          1.5 1 0.5 2 1.6666666666666667 1.5
          2 2 2 2 2 2
          2 2 2 2 1 1
          0 0 1 0 1 1
          0 1 2 1.5 1.5 0.6666666666666666
          2 1.5 1.5 0.5 0.5 0
          0 0 0 0 0.5 0
          0 0 0.25 0 0 0
          0 0 0.5 0 0 0.5
          0 0 0 0.5 0 0
          0 0 0 0 0 0
          0 0 0 0 0 0
          0 0 0 0 0
        </DataArray>
        <DataArray type="Float64" Name="markers_norefine" format="ascii" RangeMin="0" RangeMax="0">
          0 0 0 0 0 0
          0 0 0 0 0 0
          0 0 0 0 0 0
          0 0 0 0 0 0
          0 0 0 0 0 0
          0 0 0 0 0 0
          0 0 0 0 0 0
          0 0 0 0 0 0
          0 0 0 0 0 0
          0 0 0 0 0 0
          0 0 0 0 0 0
          0 0 0 0 0 0
          0 0 0 0 0 0
          0 0 0 0 0 0
          0 0 0 0 0 0
          0 0 0 0 0 0
          0 0 0 0 0 0
          0 0 0 0 0 0
          0 0 0 0 0 0
          0 0 0 0 0 0
          0 0 0 0 0 0
          0 0 0 0 0 0
          0 0 0 0 0 0
          0 0 0 0 0 0
          0 0 0 0 0 0
          0 0 0 0 0 0
          0 0 0 0 0 0
          0 0 0 0 0 0
          0 0 0 0 0 0
          0 0 0 0 0 0
          0 0 0 0 0 0
          0 0 0 0 0 0
          0 0 0 0 0 0
          0 0 0 0 0 0
          0 0 0 0 0 0
          0 0 0 0 0 0
          0 0 0 0 0 0
          0 0 0 0 0 0
          0 0 0 0 0 0
          0 0 0 0 0 0
          0 0 0 0 0 0
          0 0 0 0 0 0
          0 0 0 0 0 0
          0 0 0 0 0 0
          0 0 0 0 0 0
          0 0 0 0 0 0
          0 0 0 0 0 0
          0 0 0 0 0 0
          0 0 0 0 0 0
          0 0 0 0 0 0
          0 0 0 0 0 0
          0 0 0 0 0 0
          0 0 0 0 0 0
          0 0 0 0 0 0
          0 0 0 0 0 0
          0 0 0 0 0 0
          0 0 0 0 0 0
          0 0 0 0 0 0
          0 0 0 0 0 0
          0 0 0 0 0 0
          0 0 0 0 0 0
          0 0 0 0 0 0
          0 0 0 0 0 0
          0 0 0 0 0 0
          0 0 0 0 0 0
          0 0 0 0 0 0
          0 0 0 0 0 0
          0 0 0 0 0 0
          0 0 0 0 0 0
          0 0 0 0 0 0
          0 0 0 0 0 0
          0 0 0 0 0 0
          0 0 0 0 0 0
          0 0 0 0 0
        </DataArray>
        <DataArray type="Float64" Name="markers_mustrefine" format="ascii" RangeMin="0" RangeMax="2">
          0 0 0 0 0 0
          0 0 0 0 0 0
          0 0 0 0 0 0
          0 0 0 0 0 0
          0 0 0 0 0 0
          0 0 0 0 0 2
          0 0 0 0 0 0
          0 0 0 0 0 0
          0 0 0 0 0 0
          0 0 0 0 0 0
          0 0 0 0 0 0
          0 0 0 0 0 0
          0 0 0 2 1.5 0
          2 0 0 0 0 0
          0 0 0 0 0 0
          0 0 0 0 0 0
          0 0 0 0 0 0
          0 0 0 0 0 0
          0 0 0 0 0 0
          0 0 0 0 0 0
          0 0 0 0 0 0
          0 0 0 0 0 0
          0 0 0 0 0 0
          0 1.5 1 0.25 2 0
          0 0 0 0 0.75 0
          0 2 2 2 2 0.5
          0 0.5 0 0 0 0
          0 0 0 0 0 0
          1.5 0.75 0 0 2 1.75
          0 0 0.5 0 2 2
          0 0.5 0 0 0 0
          0 0 0 0 0 0
          0 0 0 0 0 0
          0 0 0 0 0 0
          0 0 0 0 0 0
          0 0 0 0 0 0
          0 0 0 0 0 0
          0 0 0 0 0 1
          1 1 1 0.75 0.5 2
          2 2 1.75 0.5 0 1.5
          0.6666666666666666 1.3333333333333333 2 2 2 2
          2 1.75 2 2 2 2
          2 1.5 1.75 1.3333333333333333 2 2
          2 0.5 0.75 0 0.5 0
          0 0 1.25 0.6666666666666666 0.5 2
          2 2 2 2 2 2
          2 2 2 2 2 2
          1.75 2 2 2 2 2
          2 2 2 2 2 2
          2 2 2 2 2 2
          2 2 2 1.75 1 1.5
          0.5 2 1.5 2 2 1.5
          2 1 2 1.5 2 1
          1 1.5 1.5 0 1 1
          0.5 1 0.5 2 2 1.6666666666666667
          1.75 0 0.5 0 0 0
          0.5 0 1.25 0.5 0.6666666666666666 2
          2 2 1.75 2 1.6666666666666667 2
          2 2 2 1 0.5 1
          0.75 0 0 0 0 0.5
          0 1 1 0 1 1.75
          1.5 1 0.5 2 1.6666666666666667 1.5
          2 2 2 2 2 2
          2 2 2 2 1 1
          0 0 1 0 1 1
          0 1 2 1.5 1.5 0.6666666666666666
          2 1.5 1.5 0.5 0.5 0
          0 0 0 0 0.5 0
          0 0 0.25 0 0 0
          0 0 0.5 0 0 0.5
          0 0 0 0.5 0 0
          0 0 0 0 0 0
          0 0 0 0 0 0
          0 0 0 0 0
        </DataArray>
        <DataArray type="Float64" Name="gradient_marker" format="ascii" RangeMin="1" RangeMax="1">
          1 1 1 1 1 1
          1 1 1 1 1 1
          1 1 1 1 1 1
          1 1 1 1 1 1
          1 1 1 1 1 1
          1 1 1 1 1 1
          1 1 1 1 1 1
          1 1 1 1 1 1
          1 1 1 1 1 1
          1 1 1 1 1 1
          1 1 1 1 1 1
          1 1 1 1 1 1
          1 1 1 1 1 1
          1 1 1 1 1 1
          1 1 1 1 1 1
          1 1 1 1 1 1
          1 1 1 1 1 1
          1 1 1 1 1 1
          1 1 1 1 1 1
          1 1 1 1 1 1
          1 1 1 1 1 1
          1 1 1 1 1 1
          1 1 1 1 1 1
          1 1 1 1 1 1
          1 1 1 1 1 1
          1 1 1 1 1 1
          1 1 1 1 1 1
          1 1 1 1 1 1
          1 1 1 1 1 1
          1 1 1 1 1 1
          1 1 1 1 1 1
          1 1 1 1 1 1
          1 1 1 1 1 1
          1 1 1 1 1 1
          1 1 1 1 1 1
          1 1 1 1 1 1
          1 1 1 1 1 1
          1 1 1 1 1 1
          1 1 1 1 1 1
          1 1 1 1 1 1
          1 1 1 1 1 1
          1 1 1 1 1 1
          1 1 1 1 1 1
          1 1 1 1 1 1
          1 1 1 1 1 1
          1 1 1 1 1 1
          1 1 1 1 1 1
          1 1 1 1 1 1
          1 1 1 1 1 1
          1 1 1 1 1 1
          1 1 1 1 1 1
          1 1 1 1 1 1
          1 1 1 1 1 1
          1 1 1 1 1 1
          1 1 1 1 1 1
          1 1 1 1 1 1
          1 1 1 1 1 1
          1 1 1 1 1 1
          1 1 1 1 1 1
          1 1 1 1 1 1
          1 1 1 1 1 1
          1 1 1 1 1 1
          1 1 1 1 1 1
          1 1 1 1 1 1
          1 1 1 1 1 1
          1 1 1 1 1 1
          1 1 1 1 1 1
          1 1 1 1 1 1
          1 1 1 1 1 1
          1 1 1 1 1 1
          1 1 1 1 1 1
          1 1 1 1 1 1
          1 1 1 1 1 1
          1 1 1 1 1
        </DataArray>
        <DataArray type="Float64" Name="gradient_matprop_marker" format="ascii" RangeMin="0" RangeMax="0">
          0 0 0 0 0 0
          0 0 0 0 0 0
          0 0 0 0 0 0
          0 0 0 0 0 0
          0 0 0 0 0 0
          0 0 0 0 0 0
          0 0 0 0 0 0
          0 0 0 0 0 0
          0 0 0 0 0 0
          0 0 0 0 0 0
          0 0 0 0 0 0
          0 0 0 0 0 0
          0 0 0 0 0 0
          0 0 0 0 0 0
          0 0 0 0 0 0
          0 0 0 0 0 0
          0 0 0 0 0 0
          0 0 0 0 0 0
          0 0 0 0 0 0
          0 0 0 0 0 0
          0 0 0 0 0 0
          0 0 0 0 0 0
          0 0 0 0 0 0
          0 0 0 0 0 0
          0 0 0 0 0 0
          0 0 0 0 0 0
          0 0 0 0 0 0
          0 0 0 0 0 0
          0 0 0 0 0 0
          0 0 0 0 0 0
          0 0 0 0 0 0
          0 0 0 0 0 0
          0 0 0 0 0 0
          0 0 0 0 0 0
          0 0 0 0 0 0
          0 0 0 0 0 0
          0 0 0 0 0 0
          0 0 0 0 0 0
          0 0 0 0 0 0
          0 0 0 0 0 0
          0 0 0 0 0 0
          0 0 0 0 0 0
          0 0 0 0 0 0
          0 0 0 0 0 0
          0 0 0 0 0 0
          0 0 0 0 0 0
          0 0 0 0 0 0
          0 0 0 0 0 0
          0 0 0 0 0 0
          0 0 0 0 0 0
          0 0 0 0 0 0
          0 0 0 0 0 0
          0 0 0 0 0 0
          0 0 0 0 0 0
          0 0 0 0 0 0
          0 0 0 0 0 0
          0 0 0 0 0 0
          0 0 0 0 0 0
          0 0 0 0 0 0
          0 0 0 0 0 0
          0 0 0 0 0 0
          0 0 0 0 0 0
          0 0 0 0 0 0
          0 0 0 0 0 0
          0 0 0 0 0 0
          0 0 0 0 0 0
          0 0 0 0 0 0
          0 0 0 0 0 0
          0 0 0 0 0 0
          0 0 0 0 0 0
          0 0 0 0 0 0
          0 0 0 0 0 0
          0 0 0 0 0 0
          0 0 0 0 0
        </DataArray>
        <DataArray type="Float64" Name="combo" format="ascii" RangeMin="1" RangeMax="1">
          1 1 1 1 1 1
          1 1 1 1 1 1
          1 1 1 1 1 1
          1 1 1 1 1 1
          1 1 1 1 1 1
          1 1 1 1 1 1
          1 1 1 1 1 1
          1 1 1 1 1 1
          1 1 1 1 1 1
          1 1 1 1 1 1
          1 1 1 1 1 1
          1 1 1 1 1 1
          1 1 1 1 1 1
          1 1 1 1 1 1
          1 1 1 1 1 1
          1 1 1 1 1 1
          1 1 1 1 1 1
          1 1 1 1 1 1
          1 1 1 1 1 1
          1 1 1 1 1 1
          1 1 1 1 1 1
          1 1 1 1 1 1
          1 1 1 1 1 1
          1 1 1 1 1 1
          1 1 1 1 1 1
          1 1 1 1 1 1
          1 1 1 1 1 1
          1 1 1 1 1 1
          1 1 1 1 1 1
          1 1 1 1 1 1
          1 1 1 1 1 1
          1 1 1 1 1 1
          1 1 1 1 1 1
          1 1 1 1 1 1
          1 1 1 1 1 1
          1 1 1 1 1 1
          1 1 1 1 1 1
          1 1 1 1 1 1
          1 1 1 1 1 1
          1 1 1 1 1 1
          1 1 1 1 1 1
          1 1 1 1 1 1
          1 1 1 1 1 1
          1 1 1 1 1 1
          1 1 1 1 1 1
          1 1 1 1 1 1
          1 1 1 1 1 1
          1 1 1 1 1 1
          1 1 1 1 1 1
          1 1 1 1 1 1
          1 1 1 1 1 1
          1 1 1 1 1 1
          1 1 1 1 1 1
          1 1 1 1 1 1
          1 1 1 1 1 1
          1 1 1 1 1 1
          1 1 1 1 1 1
          1 1 1 1 1 1
          1 1 1 1 1 1
          1 1 1 1 1 1
          1 1 1 1 1 1
          1 1 1 1 1 1
          1 1 1 1 1 1
          1 1 1 1 1 1
          1 1 1 1 1 1
          1 1 1 1 1 1
          1 1 1 1 1 1
          1 1 1 1 1 1
          1 1 1 1 1 1
          1 1 1 1 1 1
          1 1 1 1 1 1
          1 1 1 1 1 1
          1 1 1 1 1 1
          1 1 1 1 1
        </DataArray>
        <DataArray type="Float64" Name="dHdT" format="ascii" RangeMin="25.811431314182855" RangeMax="25.910921670489692">
          25.81153627316359 25.81155222847545 25.81164176666035 25.811555380169516 25.811554979130033 25.81160438725912
          25.81156209879171 25.81160024491693 25.811642628611978 25.811635222424286 25.811627407206892 25.811572235675396
          25.81164209705513 25.811524695956507 25.811553241312218 25.81155185236284 25.811557927720123 25.811558481783578
          25.811553761413645 25.8115520187103 25.811556858727137 25.81156171030995 25.811564802892605 25.81155725067204
          25.811563254040813 25.811842339603373 25.811882844865035 25.81262331286773 25.81212846465692 25.811653065936138
          25.81163135683476 25.81164278239584 25.811940035750435 25.812012011596693 25.811681200465 25.852417261208764
          25.812921150681497 25.811639208546747 25.812065586866296 25.81151023551961 25.81153612528815 25.811503108878608
          25.81153290331104 25.8115263783301 25.811539102503403 25.811629794729978 25.811669150124924 25.811551927066656
          25.81158314138768 25.81160657981346 25.811551826676705 25.811708505519864 25.811630018239235 25.811596402786144
          25.81157528760833 25.811581568516758 25.811571752196816 25.81157942747452 25.811569709297938 25.811564451240052
          25.81156894907718 25.811587849425187 25.811587037124067 25.81157344691431 25.811567693622525 25.81157746341849