<?xml version="1.0"?>
<VTKFile type="UnstructuredGrid" version="0.1" byte_order="LittleEndian" header_type="UInt32" compressor="vtkZLibDataCompressor">
  <UnstructuredGrid>
    <Piece NumberOfPoints="387" NumberOfCells="184">
      <PointData>
        <DataArray type="Int32" Name="libmesh_node_id" format="ascii" RangeMin="12" RangeMax="3304">
          16 17 18 19 20 21
          22 23 24 25 26 27
          28 29 30 31 32 33
          34 35 44 45 46 47
          48 49 50 51 52 53
          62 63 64 65 66 67
          68 69 70 71 76 77
          78 79 80 89 90 91
          92 103 104 116 117 118
          119 130 131 143 144 145
          146 157 158 169 170 171
          173 184 185 189 190 191
          192 195 196 199 200 201
          202 205 207 297 298 299
          300 303 307 308 309 311
          312 314 315 316 317 318
          319 321 322 323 324 326
          328 333 336 341 342 345
          346 348 351 353 354 355
          363 383 384 385 390 582
          583 584 585 586 587 588
          589 590 591 616 617 618
          619 620 621 622 623 624
          625 636 637 638 643 645
          647 650 651 652 655 2947
          2948 2951 2952 2954 2955 3023
          3025 3027 3028 3030 3032 3033
          3034 3035 3036 3037 3038 3039
          3040 3041 3042 3043 3044 3045
          3046 3047 3048 3049 3050 3051
          3052 3053 3054 3055 3056 3057
          3058 3059 3060 3061 3062 3063
          3064 3065 3066 3067 3068 3069
          3070 3071 3072 3073 3074 3076
          3077 3079 3080 3081 3082 3083
          3084 3085 3087 3088 3089 3090
          3091 3092 3093 3094 3095 3096
          3097 3098 3099 3100 3101 3102
          3103 3104 3105 3106 3107 3108
          3109 3110 3111 3112 3113 3114
          3299 3300 3301 3302 3303 3304
          12 13 14 15 42 43
          60 61 75 87 88 93
          94 95 96 97 98 102
          105 106 107 114 115 120
          121 129 132 142 156 148
          159 193 194 198 209 215
          211 216 301 302 304 305
          306 310 208 212 313 320
          325 327 331 332 221 335
          338 339 340 343 344 347
          238 242 248 349 350 352
          356 357 358 359 360 361
          362 364 365 366 378 377
          380 379 381 382 386 388
          387 389 639 640 641 642
          644 237 246 646 247 648
          649 654 653 2949 2950 2953
          2956 141 2991 2994 2993 2995
          3024 3026 3029 3031 183 204
          3075 3078 168 3086 3136 2998
          3139 3264 3265 3266 3267 3268
          3269 3270 3271 3272 3283 3284
          3285 3287 3288 3291 3278 3292
          3295 2997 3297
        </DataArray>
        <DataArray type="Float64" Name="bounds" format="ascii" RangeMin="0" RangeMax="0">
          0 0 0 0 0 0
          0 0 0 0 0 0
          0 0 0 0 0 0
          0 0 0 0 0 0
          0 0 0 0 0 0
          0 0 0 0 0 0
          0 0 0 0 0 0
          0 0 0 0 0 0
          0 0 0 0 0 0
          0 0 0 0 0 0
          0 0 0 0 0 0
          0 0 0 0 0 0
          0 0 0 0 0 0
          0 0 0 0 0 0
          0 0 0 0 0 0
          0 0 0 0 0 0
          0 0 0 0 0 0
          0 0 0 0 0 0
          0 0 0 0 0 0
          0 0 0 0 0 0
          0 0 0 0 0 0
          0 0 0 0 0 0
          0 0 0 0 0 0
          0 0 0 0 0 0
          0 0 0 0 0 0
          0 0 0 0 0 0
          0 0 0 0 0 0
          0 0 0 0 0 0
          0 0 0 0 0 0
          0 0 0 0 0 0
          0 0 0 0 0 0
          0 0 0 0 0 0
          0 0 0 0 0 0
          0 0 0 0 0 0
          0 0 0 0 0 0
          0 0 0 0 0 0
          0 0 0 0 0 0
          0 0 0 0 0 0
          0 0 0 0 0 0
          0 0 0 0 0 0
          0 0 0 0 0 0
          0 0 0 0 0 0
          0 0 0 0 0 0
          0 0 0 0 0 0
          0 0 0 0 0 0
          0 0 0 0 0 0
          0 0 0 0 0 0
          0 0 0 0 0 0
          0 0 0 0 0 0
          0 0 0 0 0 0
          0 0 0 0 0 0
          0 0 0 0 0 0
          0 0 0 0 0 0
          0 0 0 0 0 0
          0 0 0 0 0 0
          0 0 0 0 0 0
          0 0 0 0 0 0
          0 0 0 0 0 0
          0 0 0 0 0 0
          0 0 0 0 0 0
          0 0 0 0 0 0
          0 0 0 0 0 0
          0 0 0 0 0 0
          0 0 0 0 0 0
          0 0 0
        </DataArray>
        <DataArray type="Float64" Name="gradient_error" format="ascii" RangeMin="4.917395432984337e-10" RangeMax="0.0000015199319413937092">
          2.414818392704672e-9 2.4265876241045125e-9 2.500467533475152e-9 2.4615412188886798e-9 2.443046495429585e-9 2.4391424442446323e-9
          2.4103969761310025e-9 2.419323423825045e-9 2.435055885750629e-9 2.4339695811799146e-9 2.4274481485287507e-9 2.4305247370547705e-9
          2.4324707582805505e-9 2.4326143925223428e-9 2.434023862130657e-9 2.434216265371734e-9 2.432875286228082e-9 2.4330487066615667e-9
          2.4335620426421654e-9 2.4335753245166196e-9 2.438356855504353e-9 2.4226149043022074e-9 2.43523839305968e-9 2.4282498715190876e-9
          2.4328832766092003e-9 2.4336013255807904e-9 2.432758026764135e-9 2.434408668612811e-9 2.433222127095051e-9 2.4335886063910737e-9
          2.971919585980101e-9 2.8547179320239504e-9 2.571807087553045e-9 2.550885825298133e-9 2.461392451474112e-9 2.4548845281256487e-9
          2.422254423130617e-9 2.4275861463713964e-9 2.420765805150754e-9 2.4275689009263283e-9 2.7375162780678e-9 2.529964563043221e-9
          2.4483766047771855e-9 2.4329178696121765e-9 2.4343719967019022e-9 5.828701423396684e-9 5.564652058018219e-9 2.6722099604514215e-9
          2.957574428519153e-9 5.300602692639752e-9 3.2429388965868845e-9 1.5123015365110466e-8 1.5149663093827737e-8 6.2778849990533445e-9
          6.717881397955589e-9 2.3620901138806067e-8 1.0962815452760257e-8 5.519039571209692e-7 1.7611529424004765e-7 3.711665400721687e-8
          5.3660888120311386e-8 2.2866387162288884e-8 1.0459047850108962e-8 2.631288148567077e-7 0.000001140284022444396 1.2142037467163208e-7
          1.95832905216464e-8 7.090407490305305e-9 1.674916479283137e-9 5.241242653131824e-7 3.5846223369935375e-7 4.265448913525595e-7
          0.0000011714189997288334 7.387923289447361e-7 6.722958321474606e-8 1.411089210684985e-7 1.2773324133141982e-7 2.1320491390974286e-7
          5.686805098207533e-8 9.80230376449245e-7 5.936955996863101e-8 1.7732649184702446e-9 1.5196500460230623e-9 6.172279139575092e-9
          3.140646525767332e-8 1.9527587311357504e-8 1.26603517357588e-9 2.7619925891814515e-9 7.64870936504168e-9 1.4929866544009994e-7
          2.722429812636261e-7 5.90440984403173e-7 6.968105952937279e-7 5.909414826865721e-7 5.987460073611166e-7 2.962326430464834e-7
          3.021816798577889e-7 7.40963084538328e-7 7.9595530122045e-7 6.480975343371667e-7 1.937182185980611e-7 3.9331979931413565e-9
          7.030532081179503e-9 2.257295645523185e-9 1.012786616921765e-8 8.694537013682437e-7 0.0000012330154619059572 0.0000011933270593175237
          7.001383353294184e-7 8.321009082574747e-7 0.000001233549878745891 5.588064823858387e-9 8.30792177350818e-9 2.297090150770415e-8
          1.1027778723157972e-8 1.325326041635249e-8 1.2069135745861658e-8 2.292104945345482e-8 1.0885011075370826e-8 2.1451744951888992e-8
          1.2602412169002705e-8 1.350176006488107e-8 8.004336065196733e-8 7.774304160766186e-8 4.601363867255872e-8 4.8627434029607284e-8
          3.753079386116417e-9 1.4284235737455587e-8 1.7211507407247244e-8 6.802090675807429e-9 1.2374980332418798e-8 1.6001265900034863e-8
          3.279925350306829e-8 5.11959509166912e-9 4.627379886347572e-9 6.557212659757451e-9 2.52004411242623e-8 5.322352667371779e-8
          4.1351646810260234e-9 8.889813341822714e-8 7.402269686591412e-8 1.1368233510341453e-7 5.914726031360111e-8 1.2285257699082967e-7
          1.807633228936576e-7 4.322938907908489e-8 4.229015857314331e-8 6.931463950562173e-8 4.135092806720173e-8 1.9733923290787286e-8
          1.3415175013346282e-8 5.554164287368151e-8 3.610502915079486e-8 7.096426735905278e-9 1.6668415427908214e-8 2.744224795803219e-8
          6.169793265210923e-8 6.450833799604353e-9 8.568057638627762e-9 9.595361734618626e-8 1.068528147765117e-8 2.2146690136084407e-7
          2.5277886805175397e-7 2.883706788119502e-7 3.2067171436018625e-7 9.170612084966027e-8 9.953506890341519e-8 1.3078026893451348e-7
          3.552744562630563e-7 3.8856456066861864e-7 1.0736401695717009e-7 1.9962511313706311e-7 1.8131790498210548e-7 1.8495198902730955e-7
          3.2472777299926456e-7 3.2385473028851296e-7 2.86164647112998e-7 2.8971788766106373e-7 1.8230313199928136e-7 3.1770073468433434e-7
          2.7735116367543155e-7 1.6301069682714785e-7 2.48474563937483e-7 2.547080023228629e-7 2.3700159266652882e-7 6.417095465015691e-7
          5.914609900592535e-7 5.507475095976251e-7 6.326199867959688e-7 4.97602344290824e-7 2.2985886940042762e-7 1.9339274098171407e-7
          3.0522941045977607e-7 2.618249338565454e-7 2.021759833294509e-7 2.9725436456134816e-7 2.521643038279344e-7 1.5692661256300052e-7
          2.1842045725331477e-7 2.070742430945207e-7 7.561590784428898e-7 6.729120091654302e-7 5.286012939401888e-7 7.237779878583347e-7
          7.602016007044734e-7 8.532153870903697e-7 8.754123012097885e-7 6.484060515115926e-7 5.953026642779006e-7 7.062519451314975e-7
          6.12221230153494e-7 7.284926105343304e-7 8.57983824179221e-7 7.173778021108582e-7 0.0000010209654184308278 0.000001018777032524147
          7.684560389797657e-7 9.102126314950005e-7 0.0000010219871734488104 8.83967288021063e-7 2.9685522858783523e-7 2.997944775493433e-7
          3.530543894383158e-7 3.5063483946045213e-7 2.889652762218423e-7 3.502627687614679e-7 1.833282915370742e-7 2.0592188940405865e-7
          2.2103003371016865e-7 1.8563086258914797e-7 4.092535502887964e-7 4.014752013715609e-7 4.1156026130109343e-7 2.285154872710431e-7
          2.7476127961218146e-7 3.4028971403705283e-7 1.4304855717973738e-7 1.6025599673204003e-7 4.058181484619242e-7 1.7746343628434269e-7
          2.9901913995313525e-7 3.4458476539642545e-7 2.0800451120236815e-7 2.3143249894504663e-7 3.901503908397156e-7 2.548604866877251e-7
          2.331191932590219e-9 2.385622982838661e-9 2.7097100999461176e-9 2.564947599233035e-9 2.4400540330871026e-9 2.420185098519953e-9
          3.744363028857672e-9 3.4448249056721652e-9 3.1452867824866573e-9 1.0536468710457346e-8 9.84079416680746e-9 2.2928170428269183e-9
          2.4295118358805146e-9 2.4210202909344517e-9 2.465445979061844e-9 2.450434967009431e-9 2.4829425411035233e-9 9.145119623157573e-9
          2.566206628934111e-9 2.5098716671892365e-9 2.515450115197615e-9 2.0959212294237667e-8 2.9748979344837678e-8 1.2383190332781707e-9
          2.893978415217273e-9 4.576851460394835e-8 4.428398675588351e-9 2.9533312025086906e-7 4.2729317812828854e-8 4.477839657807453e-9
          3.2762237661091096e-9 9.461291744778674e-7 6.691087013790127e-7 2.3058222603846614e-7 1.6088224790897642e-8 1.9224687945716376e-8
          3.1149689683318936e-8 1.655153247685442e-8 3.084411034509032e-9 2.9232018118452414e-9 5.151875941118794e-10 7.993341697078329e-10
          8.703988634180706e-10 9.414635571283084e-10 3.6040735043699983e-9 3.0479683404149455e-9 3.2490119155876507e-7 3.8642840924807604e-7
          1.7884091104206732e-9 2.6261443652530702e-9 1.0372374444117295e-9 7.644884938550817e-10 6.460058184057581e-9 3.4638796200854674e-9
          4.917395432984337e-10 0.0000015199319413937092 0.000001284490465090259 0.0000014973786322731063 0.0000014007854542589013 8.906992824825906e-7
          7.275900605876117e-7 9.79841519891783e-7 7.111978545127572e-7 0.0000014748253231525035 0.0000015170804434275434 0.000001081260229635763
          1.1020200065674658e-7 5.729728911950765e-8 4.4699624233793874e-8 8.426235840137906e-8 3.8177244052577085e-9 2.4852779677753168e-8
          2.0232491951077435e-8 3.210195934808009e-8 5.832271614601154e-8 1.5612204224401702e-8 8.640922520415627e-8 4.885589446628957e-8
          1.2985691280077208e-7 7.383108389876092e-8 2.2777829884163142e-8 3.364804673390409e-8 6.419046524712872e-9 1.733046003973879e-7
          9.880627333123229e-8 4.451826358364505e-8 2.09175055201758e-7 1.7570819599042058e-7 1.3748533570669998e-7 1.6601381609629384e-7
          9.926247542297938e-8 3.929314973753869e-7 4.5652044010190735e-7 1.3343447391666247e-7 4.6783057041270153e-7 1.9056843455660205e-7
          2.4420941051750385e-7 3.0765549814135007e-7 2.4770239519654164e-7 1.8016216749463305e-8 7.287921301891422e-8 4.860498251157961e-8
          2.4330752004245e-8 1.600420012356876e-7 3.853050813912647e-7 4.346146835512361e-7 5.89268370054124e-7 4.5780860535268225e-7
          5.187855670591118e-8 9.951888512582767e-8 1.0422302399260647e-8 1.4715921354574415e-7 1.252301653546566e-8 7.518242365450123e-7
          6.221807950966117e-7 6.662732392208386e-7 5.133636059938858e-7 6.25535245541245e-7 1.395928288577746e-7 3.2287743418935903e-7
          1.976904472233567e-7 2.0221281012390844e-7 1.8974096451202465e-7 3.215467708810707e-7 2.8933610975909286e-7 1.7726911890014086e-7
          2.5712544863711487e-7 5.432505565471466e-7 5.118050892886275e-7 4.5025100425470634e-7 5.410409925688483e-7 5.887485716621338e-7
          5.47096591301612e-7 5.428182197531738e-7 5.873075654082086e-7 2.9543211303445347e-7 5.035820702112168e-7 3.3602055892179925e-7
          2.3773056740469558e-7 5.340411090741224e-7 3.7660900480914503e-7
        </DataArray>
        <DataArray type="Float64" Name="gradient_matprop_error" format="ascii" RangeMin="0" RangeMax="0">
          0 0 0 0 0 0
          0 0 0 0 0 0
          0 0 0 0 0 0
          0 0 0 0 0 0
          0 0 0 0 0 0
          0 0 0 0 0 0
          0 0 0 0 0 0
          0 0 0 0 0 0
          0 0 0 0 0 0
          0 0 0 0 0 0
          0 0 0 0 0 0
          0 0 0 0 0 0
          0 0 0 0 0 0
          0 0 0 0 0 0
          0 0 0 0 0 0
          0 0 0 0 0 0
          0 0 0 0 0 0
          0 0 0 0 0 0
          0 0 0 0 0 0
          0 0 0 0 0 0
          0 0 0 0 0 0
          0 0 0 0 0 0
          0 0 0 0 0 0
          0 0 0 0 0 0
          0 0 0 0 0 0
          0 0 0 0 0 0
          0 0 0 0 0 0
          0 0 0 0 0 0
          0 0 0 0 0 0
          0 0 0 0 0 0
          0 0 0 0 0 0
          0 0 0 0 0 0
          0 0 0 0 0 0
          0 0 0 0 0 0
          0 0 0 0 0 0
          0 0 0 0 0 0
          0 0 0 0 0 0
          0 0 0 0 0 0
          0 0 0 0 0 0
          0 0 0 0 0 0
          0 0 0 0 0 0
          0 0 0 0 0 0
          0 0 0 0 0 0
          0 0 0 0 0 0
          0 0 0 0 0 0
          0 0 0 0 0 0
          0 0 0 0 0 0
          0 0 0 0 0 0
          0 0 0 0 0 0
          0 0 0 0 0 0
          0 0 0 0 0 0
          0 0 0 0 0 0
          0 0 0 0 0 0
          0 0 0 0 0 0
          0 0 0 0 0 0
          0 0 0 0 0 0
          0 0 0 0 0 0
          0 0 0 0 0 0
          0 0 0 0 0 0
          0 0 0 0 0 0
          0 0 0 0 0 0
          0 0 0 0 0 0
          0 0 0 0 0 0
          0 0 0 0 0 0
          0 0 0
        </DataArray>
        <DataArray type="Float64" Name="initial_marker" format="ascii" RangeMin="0" RangeMax="0">
          0 0 0 0 0 0
          0 0 0 0 0 0
          0 0 0 0 0 0
          0 0 0 0 0 0
          0 0 0 0 0 0
          0 0 0 0 0 0
          0 0 0 0 0 0
          0 0 0 0 0 0
          0 0 0 0 0 0
          0 0 0 0 0 0
          0 0 0 0 0 0
          0 0 0 0 0 0
          0 0 0 0 0 0
          0 0 0 0 0 0
          0 0 0 0 0 0
          0 0 0 0 0 0
          0 0 0 0 0 0
          0 0 0 0 0 0
          0 0 0 0 0 0
          0 0 0 0 0 0
          0 0 0 0 0 0
          0 0 0 0 0 0
          0 0 0 0 0 0
          0 0 0 0 0 0
          0 0 0 0 0 0
          0 0 0 0 0 0
          0 0 0 0 0 0
          0 0 0 0 0 0
          0 0 0 0 0 0
          0 0 0 0 0 0
          0 0 0 0 0 0
          0 0 0 0 0 0
          0 0 0 0 0 0
          0 0 0 0 0 0
          0 0 0 0 0 0
          0 0 0 0 0 0
          0 0 0 0 0 0
          0 0 0 0 0 0
          0 0 0 0 0 0
          0 0 0 0 0 0
          0 0 0 0 0 0
          0 0 0 0 0 0
          0 0 0 0 0 0
          0 0 0 0 0 0
          0 0 0 0 0 0
          0 0 0 0 0 0
          0 0 0 0 0 0
          0 0 0 0 0 0
          0 0 0 0 0 0
          0 0 0 0 0 0
          0 0 0 0 0 0
          0 0 0 0 0 0
          0 0 0 0 0 0
          0 0 0 0 0 0
          0 0 0 0 0 0
          0 0 0 0 0 0
          0 0 0 0 0 0
          0 0 0 0 0 0
          0 0 0 0 0 0
          0 0 0 0 0 0
          0 0 0 0 0 0
          0 0 0 0 0 0
          0 0 0 0 0 0
          0 0 0 0 0 0
          0 0 0
        </DataArray>
        <DataArray type="Float64" Name="markers_norefine" format="ascii" RangeMin="0" RangeMax="0">
          0 0 0 0 0 0
          0 0 0 0 0 0
          0 0 0 0 0 0
          0 0 0 0 0 0
          0 0 0 0 0 0
          0 0 0 0 0 0
          0 0 0 0 0 0
          0 0 0 0 0 0
          0 0 0 0 0 0
          0 0 0 0 0 0
          0 0 0 0 0 0
          0 0 0 0 0 0
          0 0 0 0 0 0
          0 0 0 0 0 0
          0 0 0 0 0 0
          0 0 0 0 0 0
          0 0 0 0 0 0
          0 0 0 0 0 0
          0 0 0 0 0 0
          0 0 0 0 0 0
          0 0 0 0 0 0
          0 0 0 0 0 0
          0 0 0 0 0 0
          0 0 0 0 0 0
          0 0 0 0 0 0
          0 0 0 0 0 0
          0 0 0 0 0 0
          0 0 0 0 0 0
          0 0 0 0 0 0
          0 0 0 0 0 0
          0 0 0 0 0 0
          0 0 0 0 0 0
          0 0 0 0 0 0
          0 0 0 0 0 0
          0 0 0 0 0 0
          0 0 0 0 0 0
          0 0 0 0 0 0
          0 0 0 0 0 0
          0 0 0 0 0 0
          0 0 0 0 0 0
          0 0 0 0 0 0
          0 0 0 0 0 0
          0 0 0 0 0 0
          0 0 0 0 0 0
          0 0 0 0 0 0
          0 0 0 0 0 0
          0 0 0 0 0 0
          0 0 0 0 0 0
          0 0 0 0 0 0
          0 0 0 0 0 0
          0 0 0 0 0 0
          0 0 0 0 0 0
          0 0 0 0 0 0
          0 0 0 0 0 0
          0 0 0 0 0 0
          0 0 0 0 0 0
          0 0 0 0 0 0
          0 0 0 0 0 0
          0 0 0 0 0 0
          0 0 0 0 0 0
          0 0 0 0 0 0
          0 0 0 0 0 0
          0 0 0 0 0 0
          0 0 0 0 0 0
          0 0 0
        </DataArray>
        <DataArray type="Float64" Name="markers_mustrefine" format="ascii" RangeMin="0" RangeMax="0">
          0 0 0 0 0 0
          0 0 0 0 0 0
          0 0 0 0 0 0
          0 0 0 0 0 0
          0 0 0 0 0 0
          0 0 0 0 0 0
          0 0 0 0 0 0
          0 0 0 0 0 0
          0 0 0 0 0 0
          0 0 0 0 0 0
          0 0 0 0 0 0
          0 0 0 0 0 0
          0 0 0 0 0 0
          0 0 0 0 0 0
          0 0 0 0 0 0
          0 0 0 0 0 0
          0 0 0 0 0 0
          0 0 0 0 0 0
          0 0 0 0 0 0
          0 0 0 0 0 0
          0 0 0 0 0 0
          0 0 0 0 0 0
          0 0 0 0 0 0
          0 0 0 0 0 0
          0 0 0 0 0 0
          0 0 0 0 0 0
          0 0 0 0 0 0
          0 0 0 0 0 0
          0 0 0 0 0 0
          0 0 0 0 0 0
          0 0 0 0 0 0
          0 0 0 0 0 0
          0 0 0 0 0 0
          0 0 0 0 0 0
          0 0 0 0 0 0
          0 0 0 0 0 0
          0 0 0 0 0 0
          0 0 0 0 0 0
          0 0 0 0 0 0
          0 0 0 0 0 0
          0 0 0 0 0 0
          0 0 0 0 0 0
          0 0 0 0 0 0
          0 0 0 0 0 0
          0 0 0 0 0 0
          0 0 0 0 0 0
          0 0 0 0 0 0
          0 0 0 0 0 0
          0 0 0 0 0 0
          0 0 0 0 0 0
          0 0 0 0 0 0
          0 0 0 0 0 0
          0 0 0 0 0 0
          0 0 0 0 0 0
          0 0 0 0 0 0
          0 0 0 0 0 0
          0 0 0 0 0 0
          0 0 0 0 0 0
          0 0 0 0 0 0
          0 0 0 0 0 0
          0 0 0 0 0 0
          0 0 0 0 0 0
          0 0 0 0 0 0
          0 0 0 0 0 0
          0 0 0
        </DataArray>
        <DataArray type="Float64" Name="gradient_marker" format="ascii" RangeMin="0.75" RangeMax="1">
          1 1 1 1 1 1
          1 1 1 1 1 1
          1 1 1 1 1 1
          1 1 1 1 1 1
          1 1 1 1 1 1
          1 1 1 1 1 1
          1 1 1 1 1 1
          1 1 1 1 1 1
          1 1 1 1 1 1
          1 1 1 1 1 1
          1 1 1 1 1 1
          1 1 1 1 1 1
          1 1 1 1 1 1
          1 1 1 1 1 1
          1 1 1 1 1 1
          1 1 1 1 1 1
          1 1 1 1 1 1
          1 1 1 1 1 1
          1 1 1 1 1 1
          1 1 1 1 1 1
          1 1 1 1 1 1
          1 1 1 1 1 1
          1 1 1 1 1 1
          1 1 1 1 1 1
          1 1 1 1 1 1
          1 1 1 1 1 1
          1 1 1 1 1 1
          1 1 1 1 1 1
          1 1 1 1 1 1
          1 1 1 1 1 1
          1 1 1 1 1 1
          1 1 1 1 1 1
          1 1 1 1 1 1
          1 1 1 1 1 1
          1 1 1 1 1 1
          1 1 1 1 1 1
          1 1 1 1 1 1
          1 1 1 1 1 1
          1 1 1 1 1 1
          1 1 1 1 1 1
          1 1 1 1 1 1
          1 1 1 1 1 1
          1 1 1 1 1 1
          1 1 1 1 1 1
          1 1 1 1 1 1
          1 1 1 1 1 1
          1 1 1 0.875 1 1
          0.75 1 1 1 1 1
          1 1 1 1 1 1
          1 1 1 1 1 1
          1 1 1 1 1 1
          1 1 1 1 1 1
          1 1 1 1 1 1
          1 1 1 1 1 1
          1 1 1 1 1 1
          1 1 1 1 1 1
          1 1 1 1 1 1
          1 1 1 1 1 1
          1 1 1 1 1 1
          1 1 1 1 1 1
          1 1 1 1 1 1
          1 1 1 1 1 1
          1 1 1 1 1 1
          1 1 1 1 1 1
          1 1 1
        </DataArray>
        <DataArray type="Float64" Name="gradient_matprop_marker" format="ascii" RangeMin="0" RangeMax="0">
          0 0 0 0 0 0
          0 0 0 0 0 0
          0 0 0 0 0 0
          0 0 0 0 0 0
          0 0 0 0 0 0
          0 0 0 0 0 0
          0 0 0 0 0 0
          0 0 0 0 0 0
          0 0 0 0 0 0
          0 0 0 0 0 0
          0 0 0 0 0 0
          0 0 0 0 0 0
          0 0 0 0 0 0
          0 0 0 0 0 0
          0 0 0 0 0 0
          0 0 0 0 0 0
          0 0 0 0 0 0
          0 0 0 0 0 0
          0 0 0 0 0 0
          0 0 0 0 0 0
          0 0 0 0 0 0
          0 0 0 0 0 0
          0 0 0 0 0 0
          0 0 0 0 0 0
          0 0 0 0 0 0
          0 0 0 0 0 0
          0 0 0 0 0 0
          0 0 0 0 0 0
          0 0 0 0 0 0
          0 0 0 0 0 0
          0 0 0 0 0 0
          0 0 0 0 0 0
          0 0 0 0 0 0
          0 0 0 0 0 0
          0 0 0 0 0 0
          0 0 0 0 0 0
          0 0 0 0 0 0
          0 0 0 0 0 0
          0 0 0 0 0 0
          0 0 0 0 0 0
          0 0 0 0 0 0
          0 0 0 0 0 0
          0 0 0 0 0 0
          0 0 0 0 0 0
          0 0 0 0 0 0
          0 0 0 0 0 0
          0 0 0 0 0 0
          0 0 0 0 0 0
          0 0 0 0 0 0
          0 0 0 0 0 0
          0 0 0 0 0 0
          0 0 0 0 0 0
          0 0 0 0 0 0
          0 0 0 0 0 0
          0 0 0 0 0 0
          0 0 0 0 0 0
          0 0 0 0 0 0
          0 0 0 0 0 0
          0 0 0 0 0 0
          0 0 0 0 0 0
          0 0 0 0 0 0
          0 0 0 0 0 0
          0 0 0 0 0 0
          0 0 0 0 0 0
          0 0 0
        </DataArray>
        <DataArray type="Float64" Name="combo" format="ascii" RangeMin="0.75" RangeMax="1">
          1 1 1 1 1 1
          1 1 1 1 1 1
          1 1 1 1 1 1
          1 1 1 1 1 1
          1 1 1 1 1 1
          1 1 1 1 1 1
          1 1 1 1 1 1
          1 1 1 1 1 1
          1 1 1 1 1 1
          1 1 1 1 1 1
          1 1 1 1 1 1
          1 1 1 1 1 1
          1 1 1 1 1 1
          1 1 1 1 1 1
          1 1 1 1 1 1
          1 1 1 1 1 1
          1 1 1 1 1 1
          1 1 1 1 1 1
          1 1 1 1 1 1
          1 1 1 1 1 1
          1 1 1 1 1 1
          1 1 1 1 1 1
          1 1 1 1 1 1
          1 1 1 1 1 1
          1 1 1 1 1 1
          1 1 1 1 1 1
          1 1 1 1 1 1
          1 1 1 1 1 1
          1 1 1 1 1 1
          1 1 1 1 1 1
          1 1 1 1 1 1
          1 1 1 1 1 1
          1 1 1 1 1 1
          1 1 1 1 1 1
          1 1 1 1 1 1
          1 1 1 1 1 1
          1 1 1 1 1 1
          1 1 1 1 1 1
          1 1 1 1 1 1
          1 1 1 1 1 1
          1 1 1 1 1 1
          1 1 1 1 1 1
          1 1 1 1 1 1
          1 1 1 1 1 1
          1 1 1 1 1 1
          1 1 1 1 1 1
          1 1 1 0.875 1 1
          0.75 1 1 1 1 1
          1 1 1 1 1 1
          1 1 1 1 1 1
          1 1 1 1 1 1
          1 1 1 1 1 1
          1 1 1 1 1 1
          1 1 1 1 1 1
          1 1 1 1 1 1
          1 1 1 1 1 1
          1 1 1 1 1 1
          1 1 1 1 1 1
          1 1 1 1 1 1
          1 1 1 1 1 1
          1 1 1 1 1 1
          1 1 1 1 1 1
          1 1 1 1 1 1
          1 1 1 1 1 1
          1 1 1
        </DataArray>
        <DataArray type="Float64" Name="dHdT" format="ascii" RangeMin="25.800650589144063" RangeMax="33.539316980543745">
          25.811663426401616 25.811664612760257 25.811879993754 25.81187871875197 25.811666253106228 25.811665907172298
          25.811877383566085 25.81187778214997 25.8116655570391 25.81166546153753 25.8118782525029 25.811878422394393
          25.811665331253693 25.811665343832765 25.81187861115734 25.811878640634244 25.811665366738445 25.811665381930393
          25.811878606366953 25.811878622724667 25.8116657991189 25.811877443749943 25.811665561238364 25.811878180733856
          25.81166536603596 25.811878592285893 25.81166535641183 25.811878670111152 25.81166539712234 25.81187863908238
          25.81230648271083 25.81231079821646 25.81231185985107 25.812310424975692 25.812306404909073 25.81230618250411
          25.812304138569058 25.812304650712235 25.812303963113727 25.812304574726845 25.812315113722093 25.812308990100316
          25.812305960099145 25.812305162855417 25.812305186339962 25.81264805099933 25.812653615034247 25.81267416869813
          25.812691043095697 25.812659179069158 25.812707917493256 25.814772977552913 25.813472869286503 25.813464662339044
          25.813269730549578 25.81369854810621 25.813389922407566 25.96481037045418 25.848275623061117 25.815908144198644
          25.82241359376119 25.814411549955068 25.813881464861975 26.094257736841154 32.56852170366596 25.942684452944707
          25.832614048652808 25.813142876938898 25.813776966174125 25.92743621268056 25.886498810758766 25.912355761564235
          27.75963753487997 26.605929843463187 25.825373167172287 25.839729940676406 25.85782080087225 25.89680930610422
          25.831918055578143 28.19384060161543 25.87399521676611 25.812770319020444 25.813024799150075 25.81380106931058
          25.80919037771158 25.811088183408533 25.813279279279705 25.813427164574314 25.812985989105474 25.948435576389308
          25.91223672575499 27.796003106031968 27.855295718413338 26.7424996455628 26.81674184269231 25.88271384902616
          25.942684771437136 31.037171914243313 28.116447386662664 28.01337205530568 26.020859555716594 25.8142412157636
          25.81490463012504 25.813824353049085 25.815568044486472 27.754756007258866 30.782699393422487 29.65694949947379
          26.974925259616583 27.63117850852897 30.99837562034785 25.821266295689583 25.82317931557482 25.83181366925724
          25.825092335460056 25.832115630611654 25.83232127627079 25.847452460661756 25.83252692192992 25.817396900525956
          25.8155761789658 25.815240470336327 25.800650589144063 25.802135939040568 25.80726035267783 25.80659419370963
          25.813755457405644 25.812384766315084 25.8125377982752 25.814758578775738 25.81680987344053 25.816523997829435
          25.820684280634993 25.814130524483215 25.813912810647693 25.813673049855865 25.818289416883133 25.82455868782946
          25.813695096812175 25.869665358004802 25.86616826864417 25.895156437052115 25.862671179283538 26.01259900597094
          26.085392724784334 25.869344027564036 25.87359026984569 25.912665208154188 25.877836512127345 25.811388259712658
          25.81230861098661 25.808651219442044 25.81149202522125 25.813228962260563 25.814332831000453 25.82093221628016
          25.828127663686242 25.814158903643204 25.81321109258687 25.835323111092322 25.812263281530534 26.167528939150277
          26.243502090377223 26.28338412705011 26.373962563531236 25.939383658337633 25.961573788050337 26.01676771552963
          26.399239314949945 26.504423036685257 25.983763917763042 26.122995366184824 26.08866575364824 26.123069484562844
          26.587955762785512 26.549597765600417 26.44695948263402 26.48795502007834 26.056776839647178 26.507211329528047
          26.40161397658355 26.054336141111655 26.344321199667622 26.387954277371175 26.296016623639048 27.828811657578576
          27.50723698721511 27.502512848027674 27.50160183966652 27.035323206187318 26.069142419021976 26.032262431349547
          26.462213914429405 26.35301469615319 26.02274976716223 26.439325719350855 26.3279855158697 25.995382443677123
          26.243815477876964 26.21664531238855 27.871899667216084 27.482058617903746 26.92545491400101 29.608731821539006
          28.970277819455436 29.912148832810534 29.158430423402 27.6507203394917 27.636053543828424 27.65711437389114
          30.536040492936863 29.73133487610046 30.06010828099088 28.065608998814206 30.290617827880347 29.381297001457042
          27.651408082993523 31.692721731165364 30.472243728063415 28.160758051023937 26.430119787256935 26.47848368239811
          26.57732290009487 26.625180053874924 26.374417319873526 26.520505234028253 26.12559458965518 26.185028938578213
          26.23458533972306 26.131493734267693 26.724526012932806 26.77187642535174 26.66659314818298 26.244463287501247
          26.311893719670334 26.452820706899878 26.03185783452045 26.074801422846438 26.593747694129416 26.117745011172424
          26.51926670832612 26.664409685804117 26.20906305371954 26.27970067886211 26.80955266328212 26.35033830400468
          25.811655069608676 25.811660480045553 25.811884682917785 25.811880469077426 25.81166589048243 25.811876255237067
          25.812307526414457 25.812316952933813 25.812326379453168 25.81250344274521 25.812534779893042 25.81271286642575
          25.812721812499788 25.812728421817937 25.81273318579868 25.812730737576103 25.81273477004033 25.81256611704087
          25.812730758573835 25.812737949779425 25.81273880250456 25.809693399369024 25.813421267059425 25.813014702254243
          25.813155354521555 25.814282358692445 25.813234898205977 25.885013786936135 25.81515734619997 25.814322947471958
          25.81359313811105 27.451299271921574 26.440677481253033 26.107042857154067 25.817510188517346 25.817419666883552