<?xml version="1.0"?>
<VTKFile type="UnstructuredGrid" version="0.1" byte_order="LittleEndian" header_type="UInt32" compressor="vtkZLibDataCompressor">
  <UnstructuredGrid>
    <Piece NumberOfPoints="350" NumberOfCells="188">
      <PointData>
        <DataArray type="Int32" Name="libmesh_node_id" format="ascii" RangeMin="280" RangeMax="2779">
          527 542 544 545 547 1122
          1124 1130 1131 1133 1135 1141
          1144 1150 1152 1153 1155 1157
          1158 1159 1161 1162 1163 1165
          1167 1169 1191 1192 1193 1195
          1197 1198 1199 1333 1338 1344
          1345 1347 1348 1351 1352 2403
          2414 2415 2416 2417 2418 2419
          2420 2421 2422 2423 2440 2451
          2452 2453 2454 2455 2456 2457
          2458 2459 2460 2490 2491 2494
          2505 2506 2507 2508 2509 2510
          2511 2512 2513 2514 2522 2523
          2524 2525 2526 2527 2528 2551
          2552 2555 2563 2564 2565 2566
          2567 2568 2569 2570 2571 2572
          2583 2584 2585 2586 2587 2588
          2589 2604 2605 2606 2607 2608
          2609 2610 2613 2614 2617 2618
          2619 2620 2621 2622 2623 2624
          2632 2633 2634 2635 2636 2637
          2638 2641 2642 2645 2646 2647
          2648 2649 2650 2651 2652 2653
          2654 2655 2656 2657 2658 2659
          2667 2668 2669 2670 2671 2672
          2673 2674 2675 2676 2677 2678
          2679 2680 2681 2682 2683 2684
          2685 2686 2687 2688 2689 2690
          2698 2699 2700 2701 2702 2703
          2704 2705 2706 2707 2708 2709
          2710 2711 2770 2771 2772 2773
          2774 2775 2776 2777 2778 2779
          1116 1118 1120 1117 1119 1121
          1126 1127 1129 1132 1134 543
          533 1125 1190 1182 1088 1183
          1186 1188 556 1331 1166 281
          2391 2397 2399 2393 2395 2401
          1123 2398 2400 2402 2389 2406
          2407 2410 2412 2434 2436 2438
          2435 2437 2439 2442 2446 2448
          2450 2433 2279 2285 2287 1101
          2482 2488 2484 2286 539 2489
          2486 2492 1140 2493 1136 2477
          2478 2469 2497 2498 1138 2479
          2480 1137 2500 1139 1142 2503
          1143 2516 2518 2520 1145 2360
          2362 2549 2361 1115 2550 2553
          2554 2367 2369 2556 2558 2560
          2562 2535 2536 1146 2537 2538
          1147 2545 2546 2573 2574 2548
          2577 2579 2580 2582 2590 2592
          2594 2596 2598 2600 2602 1156
          1986 2411 2413 2186 2611 2188
          2612 2190 2615 2616 2626 2628
          2630 1160 2214 2639 2216 2640
          2218 2643 280 2644 2660 2662
          2664 2666 2663 1164 2691 2693
          2695 2697 2694 1168 2754 2764
          2766 2768
        </DataArray>
        <DataArray type="Float64" Name="bounds" format="ascii" RangeMin="0" RangeMax="0">
          0 0 0 0 0 0
          0 0 0 0 0 0
          0 0 0 0 0 0
          0 0 0 0 0 0
          0 0 0 0 0 0
          0 0 0 0 0 0
          0 0 0 0 0 0
          0 0 0 0 0 0
          0 0 0 0 0 0
          0 0 0 0 0 0
          0 0 0 0 0 0
          0 0 0 0 0 0
          0 0 0 0 0 0
          0 0 0 0 0 0
          0 0 0 0 0 0
          0 0 0 0 0 0
          0 0 0 0 0 0
          0 0 0 0 0 0
          0 0 0 0 0 0
          0 0 0 0 0 0
          0 0 0 0 0 0
          0 0 0 0 0 0
          0 0 0 0 0 0
          0 0 0 0 0 0
          0 0 0 0 0 0
          0 0 0 0 0 0
          0 0 0 0 0 0
          0 0 0 0 0 0
          0 0 0 0 0 0
          0 0 0 0 0 0
          0 0 0 0 0 0
          0 0 0 0 0 0
          0 0 0 0 0 0
          0 0 0 0 0 0
          0 0 0 0 0 0
          0 0 0 0 0 0
          0 0 0 0 0 0
          0 0 0 0 0 0
          0 0 0 0 0 0
          0 0 0 0 0 0
          0 0 0 0 0 0
          0 0 0 0 0 0
          0 0 0 0 0 0
          0 0 0 0 0 0
          0 0 0 0 0 0
          0 0 0 0 0 0
          0 0 0 0 0 0
          0 0 0 0 0 0
          0 0 0 0 0 0
          0 0 0 0 0 0
          0 0 0 0 0 0
          0 0 0 0 0 0
          0 0 0 0 0 0
          0 0 0 0 0 0
          0 0 0 0 0 0
          0 0 0 0 0 0
          0 0 0 0 0 0
          0 0 0 0 0 0
          0 0
        </DataArray>
        <DataArray type="Float64" Name="gradient_error" format="ascii" RangeMin="5.7553101768740675e-11" RangeMax="1.7708074611129493e-8">
          1.3867381960329811e-9 8.211270717017659e-10 8.21624728942282e-9 3.236129497495653e-9 1.1867226682250891e-9 8.121528233972964e-10
          5.993246500392174e-10 3.531011582786231e-10 3.7687455925543623e-10 2.457587034769568e-10 3.7316308000261436e-10 2.6358860022587826e-9
          6.815819450885142e-9 8.22861549092441e-10 2.657841530813867e-9 2.1082945860298965e-9 1.0035889223458081e-9 9.561455707076945e-10
          1.8573568382515442e-9 1.081055276550657e-9 1.1254844391166402e-9 1.4835835515794826e-9 3.1819983341020176e-10 4.3013214296659084e-10
          3.7180706693784717e-10 4.755740776041138e-10 2.0574658391920154e-9 1.0053028098977344e-9 1.2476462554897775e-9 1.5055849467924475e-9
          1.6063291249191413e-9 1.3366732790780872e-9 1.62362205428173e-9 7.02601588737551e-10 3.0287906614644065e-10 4.216567083532385e-10
          2.439226545649392e-10 5.31666432081963e-10 3.0579329186787087e-10 5.77732846764752e-10 3.321173435868815e-10 9.742685491807137e-10
          3.6400954160573814e-10 4.3728595523930766e-10 2.3152934913154592e-10 2.7565307155742755e-10 2.9300630580183733e-10 3.394304935939998e-10
          2.1680329249241556e-10 5.929237636086757e-10 3.7018953187303957e-10 4.433908767056342e-10 3.5711524576980263e-10 1.4027094900231476e-10
          1.6660146735109989e-10 1.129352715095237e-10 1.2882622715653678e-10 1.1530659181401079e-10 1.3235627793174517e-10 1.0679954445446265e-10
          2.2272450264110205e-10 1.4478302164575265e-10 1.7062071091662033e-10 3.3943870236905543e-9 2.0522084170093226e-9 4.358413513692265e-9
          1.2243630133493976e-8 1.190644625450161e-8 7.87380033370984e-9 7.558115281595646e-9 1.0435677276778178e-8 6.466685824556332e-9
          1.2658395294354031e-8 1.238328930015933e-8 7.917334073766638e-9 1.0957908258147692e-8 7.804547906017776e-9 4.75461828803684e-9
          5.076403015707418e-9 3.0731957184099153e-9 8.228151577749842e-9 5.0208103227086306e-9 5.342867016493126e-9 1.178915520238012e-9
          6.468048468100332e-10 1.5092435556944215e-9 4.636136542579211e-9 4.411586960485286e-9 2.5233937952397285e-9 2.387969505219691e-9
          3.715790666752513e-9 1.9945016281443726e-9 4.865995862367721e-9 4.642091446874632e-9 2.5191255321056188e-9 3.924928248227954e-9
          2.7098714111679573e-9 1.4550744421693905e-9 1.7570290410194467e-9 9.545186455379379e-10 2.863038787461509e-9 1.5364406318388813e-9
          1.8494715711053077e-9 2.117204787096527e-9 1.2872034621306073e-9 1.2803298020488304e-9 7.842015289342192e-10 2.6528665769803886e-9
          1.61013872619294e-9 1.5658350107549396e-9 1.3385138896056167e-9 8.755001788476397e-10 1.36963726438628e-9 7.575410420662965e-10
          4.69214952482585e-10 5.574118397702447e-10 3.491755940544865e-10 9.084801059079501e-10 5.579796467374889e-10 6.615838363235118e-10
          3.046292583000244e-9 1.8478297069196195e-9 1.7716165564913469e-9 1.080107926406792e-9 3.1915218695012573e-9 1.9356941719414116e-9
          1.8469124165392337e-9 1.377247333743965e-9 1.0464615323236797e-9 1.442369456110676e-9 1.0168716103335494e-9 6.210348322186201e-10
          7.372928762584995e-10 4.4941694508552947e-10 1.056579934639317e-9 6.439380061646629e-10 7.653146873853585e-10 7.491853361748325e-10
          4.18285463449504e-10 4.6306714164636287e-10 2.6206805210615136e-10 9.325940991710652e-10 5.180514547538101e-10 5.613670317205336e-10
          2.8068158103788323e-10 1.6265433572946448e-10 2.1067848977076696e-10 1.2602557751817554e-10 3.321319427101546e-10 1.9354941938840452e-10
          2.4483858141642907e-10 8.212941633581755e-11 9.194084778302875e-11 6.474855841232886e-11 6.920464605590833e-11 6.695856434971182e-11
          7.284669659795098e-11 5.7553101768740675e-11 1.0897237559983456e-10 7.913804927005038e-11 8.389901789603312e-11 1.0679881442572483e-9
          5.91237715608544e-10 6.327300699832701e-10 3.57534956153817e-10 1.1179766428830365e-9 6.181558330916082e-10 6.587122705814209e-10
          3.687115279502912e-10 2.1417344686157252e-10 2.6907998963189705e-10 1.6040596480641374e-10 3.8200531297372066e-10 2.217407853384109e-10
          2.7800433818870883e-10 1.2020634164667597e-10 8.730411283167803e-11 9.186585133907464e-11 7.091609278934766e-11 1.2422021132392275e-10
          8.999286082274311e-11 9.466849573227315e-11 7.655901947513306e-10 7.909191238358929e-10 6.386207600691106e-10 6.459647728622199e-10
          6.27631163139326e-10 6.158704117946854e-10 5.209997147960136e-10 8.162480529204552e-10 6.533087856553292e-10 6.041096604500449e-10
          1.7053667436345005e-9 7.556141358986051e-10 1.8535514202625781e-9 1.3257080790959328e-9 5.587058667412079e-10 1.798146214258825e-9
          3.502624654649694e-10 3.001869310134763e-10 1.9936398961107367e-10 2.29342273664671e-10 1.4312868946012264e-10 2.9934974749765305e-10
          2.837524905419273e-9 1.86374300564332e-9 2.1489427325095495e-9 3.310165917903042e-9 2.3113976505405793e-9 2.568381325257668e-9
          3.22967869735895e-9 2.1915463576222733e-9 8.107542401858753e-9 1.4545223408578017e-9 2.2215108651578614e-10 3.3145295079428104e-10
          1.682648738056602e-9 1.0722955119580945e-9 6.919659145112805e-10 1.0815592100702532e-9 2.4483489984255446e-9 1.560129942319513e-9
          1.5255195183469294e-9 6.577861404707114e-10 4.291604808699726e-10 9.516787773220066e-10 5.169726175043026e-10 5.63526367352127e-10
          6.783247350151828e-10 5.238274450691712e-10 9.241483727803119e-10 3.897199692149519e-10 2.5726333919243653e-10 5.58140589892373e-10
          2.190277422007809e-10 1.680515138339695e-10 3.131454268880457e-10 1.1800893905899734e-10 9.495790436610836e-11 1.689085399648887e-10
          1.2180931333608103e-10 1.9438884832041448e-10 5.543664028905072e-9 3.5401459321529024e-9 2.4184093513923653e-9 3.796973825515757e-9
          7.931449344890302e-9 5.1034436878492986e-9 5.311620191956447e-9 2.135476938708339e-9 1.464574521274047e-9 3.083791227887496e-9
          1.0252963753706087e-8 6.655433691120755e-9 6.792060332333266e-9 4.038366951432488e-9 1.5837147121843025e-8 1.0876543643099017e-8
          1.0442948996948782e-8 1.538938814904757e-8 1.73307748321974e-8 1.7147699029228386e-8 6.84846074033922e-9 6.519272572884338e-9
          8.966417106799406e-9 1.353694608036383e-8 1.5537094644799774e-8 5.5055485655489555e-9 1.7708074611129493e-8 1.767045492906258e-8
          1.622656876109288e-8 1.1936025517433482e-8 7.884835813787387e-9 1.2547901806820304e-8 8.288335988411645e-9 1.2221939413442786e-9
          8.460045412556136e-10 1.7576490291814968e-9 6.673261292956284e-10 4.683635193947283e-10 9.508785719772677e-10 2.299895536466694e-9
          1.2377434060347513e-9 3.495976907140077e-10 2.4958789049441596e-10 4.917117051498307e-10 3.4068195568530407e-10 6.34304808453485e-10
          4.2960040881415383e-10 3.978704849092176e-9 3.7656728617958085e-9 2.1493461519454513e-9 2.0276645121076372e-9 3.147912137474466e-9
          1.688113034122145e-9 1.0899833197490883e-9 1.0272437537555305e-9 1.2826938112099395e-9 1.2105709915254203e-9 8.564030338761608e-10
          1.0091856413573185e-9 1.3531240540559054e-9 1.2781068595326433e-9 1.0661759932655418e-9 7.420305123179816e-10 4.956643598993521e-10
          7.82341573064664e-10 5.202020686237593e-10 3.3203279018885377e-9 2.007284528332428e-9 4.154513066466412e-9 2.4557599186034634e-9
          2.051067664902322e-9 1.4000232075299915e-9 1.0477859767863488e-9 2.6291265591163585e-9 1.8007104293471483e-9 1.7542518264720148e-9
          1.1880655650701662e-9 3.1393157466516984e-9 2.1659964830286654e-9 1.4326885984416787e-9 4.764063092693482e-9 2.7780651057855194e-9
          4.988356738854003e-9 2.895729785528426e-9 3.4814268413155386e-9 2.4233210277326207e-9 2.007483886714233e-9 1.6097090326266817e-9
          3.6015869398081696e-9 2.516629658058252e-9 2.089112975638412e-9 1.6749983556279533e-9 2.251790554105225e-10 1.4426080685085813e-10
          2.7768724484650297e-10 1.7526357114247783e-10 8.858654343611688e-11 1.3390106318863153e-10 3.154449544410795e-10 1.961229673999796e-10
          3.2926528047531484e-10 2.0365958761315445e-10 1.1785411389575686e-10 1.527420386164485e-10 1.1273166731972498e-9 1.1534170029320168e-9
          8.648258901068283e-10 1.1972312340873363e-9
        </DataArray>
        <DataArray type="Float64" Name="gradient_matprop_error" format="ascii" RangeMin="0" RangeMax="0">
          0 0 0 0 0 0
          0 0 0 0 0 0
          0 0 0 0 0 0
          0 0 0 0 0 0
          0 0 0 0 0 0
          0 0 0 0 0 0
          0 0 0 0 0 0
          0 0 0 0 0 0
          0 0 0 0 0 0
          0 0 0 0 0 0
          0 0 0 0 0 0
          0 0 0 0 0 0
          0 0 0 0 0 0
          0 0 0 0 0 0
          0 0 0 0 0 0
          0 0 0 0 0 0
          0 0 0 0 0 0
          0 0 0 0 0 0
          0 0 0 0 0 0
          0 0 0 0 0 0
          0 0 0 0 0 0
          0 0 0 0 0 0
          0 0 0 0 0 0
          0 0 0 0 0 0
          0 0 0 0 0 0
          0 0 0 0 0 0
          0 0 0 0 0 0
          0 0 0 0 0 0
          0 0 0 0 0 0
          0 0 0 0 0 0
          0 0 0 0 0 0
          0 0 0 0 0 0
          0 0 0 0 0 0
          0 0 0 0 0 0
          0 0 0 0 0 0
          0 0 0 0 0 0
          0 0 0 0 0 0
          0 0 0 0 0 0
          0 0 0 0 0 0
          0 0 0 0 0 0
          0 0 0 0 0 0
          0 0 0 0 0 0
          0 0 0 0 0 0
          0 0 0 0 0 0
          0 0 0 0 0 0
          0 0 0 0 0 0
          0 0 0 0 0 0
          0 0 0 0 0 0
          0 0 0 0 0 0
          0 0 0 0 0 0
          0 0 0 0 0 0
          0 0 0 0 0 0
          0 0 0 0 0 0
          0 0 0 0 0 0
          0 0 0 0 0 0
          0 0 0 0 0 0
          0 0 0 0 0 0
          0 0 0 0 0 0
          0 0
        </DataArray>
        <DataArray type="Float64" Name="initial_marker" format="ascii" RangeMin="0" RangeMax="2">
          0 0.25 2 2 1 0
          2 0 0 1.25 0 2
          2 2 2 2 2 2
          1 1 2 1.5 2 0
          2 0 0 0 0 0
          0 0 0 0 0 0
          0 0 0 0 0 2
          0.5 0.75 0 0.5 0 0
          0 1.5 1.25 1 1.75 0
          0.25 0 0 0 0 0
          0.75 0.3333333333333333 0 2 2 2
          2 2 2 2 2 2
          2 2 2 2 2 2
          2 2 2 2 2 2
          2 2 2 2 2 2
          2 2 2 2 2 2
          2 2 2 2 2 2
          2 2 2 2 2 2
          2 2 2 2 1.6666666666666667 2
          1.75 2 1.5 2 2 2
          2 2 2 2 2 2
          2 1.75 1.6666666666666667 2 2 2
          2 2 2 2 2 2
          2 2 1.75 2 2 2
          1.25 0.75 0.5 0 1.5 1
          1 0 0.25 0 0 0
          0 0 0.75 0.5 0 2
          2 2 2 2 2 2
          1.5 1 1 0 1.5 1
          1 1 1 0 0 1
          1 0 0.5 0.75 0 0.5
          0 0 0 1 1 0
          0 0 0 1.5 0.75 0
          0 0.25 0 0 0.25 0
          1 0.75 0 0 1.75 0
          0 0 0 0 0 0
          2 2 1.75 2 2 2
          2 2 1.5 2 1.6666666666666667 1
          1.25 0.5 1.75 2 1.25 2
          1.75 1 2 1 0.5 1.75
          1 0.6666666666666666 2 2 2 2
          2 2 2 2 2 2
          2 2 2 2 2 2
          2 2 2 2 2 2
          2 2 2 2 2 2
          2 2 2 2 2 2
          2 2 2 2 2 2
          2 2 2 2 2 2
          2 2 2 2 2 2
          2 2 2 2 2 2
          2 2 2 2 2 2
          2 2 2 2 2 2
          2 2 2 2 2 1.6666666666666667
          2 2 2 2 2 2
          2 2 2 2 2 2
          2 2 2 2 2 1.25
          2 1.75 1 1.25 2 2
          2 2 2 1.5 1 1
          0 1
        </DataArray>
        <DataArray type="Float64" Name="markers_norefine" format="ascii" RangeMin="0" RangeMax="0">
          0 0 0 0 0 0
          0 0 0 0 0 0
          0 0 0 0 0 0
          0 0 0 0 0 0
          0 0 0 0 0 0
          0 0 0 0 0 0
          0 0 0 0 0 0
          0 0 0 0 0 0
          0 0 0 0 0 0
          0 0 0 0 0 0
          0 0 0 0 0 0
          0 0 0 0 0 0
          0 0 0 0 0 0
          0 0 0 0 0 0
          0 0 0 0 0 0
          0 0 0 0 0 0
          0 0 0 0 0 0
          0 0 0 0 0 0
          0 0 0 0 0 0
          0 0 0 0 0 0
          0 0 0 0 0 0
          0 0 0 0 0 0
          0 0 0 0 0 0
          0 0 0 0 0 0
          0 0 0 0 0 0
          0 0 0 0 0 0
          0 0 0 0 0 0
          0 0 0 0 0 0
          0 0 0 0 0 0
          0 0 0 0 0 0
          0 0 0 0 0 0
          0 0 0 0 0 0
          0 0 0 0 0 0
          0 0 0 0 0 0
          0 0 0 0 0 0
          0 0 0 0 0 0
          0 0 0 0 0 0
          0 0 0 0 0 0
          0 0 0 0 0 0
          0 0 0 0 0 0
          0 0 0 0 0 0
          0 0 0 0 0 0
          0 0 0 0 0 0
          0 0 0 0 0 0
          0 0 0 0 0 0
          0 0 0 0 0 0
          0 0 0 0 0 0
          0 0 0 0 0 0
          0 0 0 0 0 0
          0 0 0 0 0 0
          0 0 0 0 0 0
          0 0 0 0 0 0
          0 0 0 0 0 0
          0 0 0 0 0 0
          0 0 0 0 0 0
          0 0 0 0 0 0
          0 0 0 0 0 0
          0 0 0 0 0 0
          0 0
        </DataArray>
        <DataArray type="Float64" Name="markers_mustrefine" format="ascii" RangeMin="0" RangeMax="2">
          0 0.25 2 2 1 0
          2 0 0 1.25 0 2
          2 2 2 2 2 2
          1 1 2 1.5 2 0
          2 0 0 0 0 0
          0 0 0 0 0 0
          0 0 0 0 0 2
          0.5 0.75 0 0.5 0 0
          0 1.5 1.25 1 1.75 0
          0.25 0 0 0 0 0
          0.75 0.3333333333333333 0 2 2 2
          2 2 2 2 2 2
          2 2 2 2 2 2
          2 2 2 2 2 2
          2 2 2 2 2 2
          2 2 2 2 2 2
          2 2 2 2 2 2
          2 2 2 2 2 2
          2 2 2 2 1.6666666666666667 2
          1.75 2 1.5 2 2 2
          2 2 2 2 2 2
          2 1.75 1.6666666666666667 2 2 2
          2 2 2 2 2 2
          2 2 1.75 2 2 2
          1.25 0.75 0.5 0 1.5 1
          1 0 0.25 0 0 0
          0 0 0.75 0.5 0 2
          2 2 2 2 2 2
          1.5 1 1 0 1.5 1
          1 1 1 0 0 1
          1 0 0.5 0.75 0 0.5
          0 0 0 1 1 0
          0 0 0 1.5 0.75 0
          0 0.25 0 0 0.25 0
          1 0.75 0 0 1.75 0
          0 0 0 0 0 0
          2 2 1.75 2 2 2
          2 2 1.5 2 1.6666666666666667 1
          1.25 0.5 1.75 2 1.25 2
          1.75 1 2 1 0.5 1.75
          1 0.6666666666666666 2 2 2 2
          2 2 2 2 2 2
          2 2 2 2 2 2
          2 2 2 2 2 2
          2 2 2 2 2 2
          2 2 2 2 2 2
          2 2 2 2 2 2
          2 2 2 2 2 2
          2 2 2 2 2 2
          2 2 2 2 2 2
          2 2 2 2 2 2
          2 2 2 2 2 2
          2 2 2 2 2 1.6666666666666667
          2 2 2 2 2 2
          2 2 2 2 2 2
          2 2 2 2 2 1.25
          2 1.75 1 1.25 2 2
          2 2 2 1.5 1 1
          0 1
        </DataArray>
        <DataArray type="Float64" Name="gradient_marker" format="ascii" RangeMin="1" RangeMax="1">
          1 1 1 1 1 1
          1 1 1 1 1 1
          1 1 1 1 1 1
          1 1 1 1 1 1
          1 1 1 1 1 1
          1 1 1 1 1 1
          1 1 1 1 1 1
          1 1 1 1 1 1
          1 1 1 1 1 1
          1 1 1 1 1 1
          1 1 1 1 1 1
          1 1 1 1 1 1
          1 1 1 1 1 1
          1 1 1 1 1 1
          1 1 1 1 1 1
          1 1 1 1 1 1
          1 1 1 1 1 1
          1 1 1 1 1 1
          1 1 1 1 1 1
          1 1 1 1 1 1
          1 1 1 1 1 1
          1 1 1 1 1 1
          1 1 1 1 1 1
          1 1 1 1 1 1
          1 1 1 1 1 1
          1 1 1 1 1 1
          1 1 1 1 1 1
          1 1 1 1 1 1
          1 1 1 1 1 1
          1 1 1 1 1 1
          1 1 1 1 1 1
          1 1 1 1 1 1
          1 1 1 1 1 1
          1 1 1 1 1 1
          1 1 1 1 1 1
          1 1 1 1 1 1
          1 1 1 1 1 1
          1 1 1 1 1 1
          1 1 1 1 1 1
          1 1 1 1 1 1
          1 1 1 1 1 1
          1 1 1 1 1 1
          1 1 1 1 1 1
          1 1 1 1 1 1
          1 1 1 1 1 1
          1 1 1 1 1 1
          1 1 1 1 1 1
          1 1 1 1 1 1
          1 1 1 1 1 1
          1 1 1 1 1 1
          1 1 1 1 1 1
          1 1 1 1 1 1
          1 1 1 1 1 1
          1 1 1 1 1 1
          1 1 1 1 1 1
          1 1 1 1 1 1
          1 1 1 1 1 1
          1 1 1 1 1 1
          1 1
        </DataArray>
        <DataArray type="Float64" Name="gradient_matprop_marker" format="ascii" RangeMin="0" RangeMax="0">
          0 0 0 0 0 0
          0 0 0 0 0 0
          0 0 0 0 0 0
          0 0 0 0 0 0
          0 0 0 0 0 0
          0 0 0 0 0 0
          0 0 0 0 0 0
          0 0 0 0 0 0
          0 0 0 0 0 0
          0 0 0 0 0 0
          0 0 0 0 0 0
          0 0 0 0 0 0
          0 0 0 0 0 0
          0 0 0 0 0 0
          0 0 0 0 0 0
          0 0 0 0 0 0
          0 0 0 0 0 0
          0 0 0 0 0 0
          0 0 0 0 0 0
          0 0 0 0 0 0
          0 0 0 0 0 0
          0 0 0 0 0 0
          0 0 0 0 0 0
          0 0 0 0 0 0
          0 0 0 0 0 0
          0 0 0 0 0 0
          0 0 0 0 0 0
          0 0 0 0 0 0
          0 0 0 0 0 0
          0 0 0 0 0 0
          0 0 0 0 0 0
          0 0 0 0 0 0
          0 0 0 0 0 0
          0 0 0 0 0 0
          0 0 0 0 0 0
          0 0 0 0 0 0
          0 0 0 0 0 0
          0 0 0 0 0 0
          0 0 0 0 0 0
          0 0 0 0 0 0
          0 0 0 0 0 0
          0 0 0 0 0 0
          0 0 0 0 0 0
          0 0 0 0 0 0
          0 0 0 0 0 0
          0 0 0 0 0 0
          0 0 0 0 0 0
          0 0 0 0 0 0
          0 0 0 0 0 0
          0 0 0 0 0 0
          0 0 0 0 0 0
          0 0 0 0 0 0
          0 0 0 0 0 0
          0 0 0 0 0 0
          0 0 0 0 0 0
          0 0 0 0 0 0
          0 0 0 0 0 0
          0 0 0 0 0 0
          0 0
        </DataArray>
        <DataArray type="Float64" Name="combo" format="ascii" RangeMin="1" RangeMax="1">
          1 1 1 1 1 1
          1 1 1 1 1 1
          1 1 1 1 1 1
          1 1 1 1 1 1
          1 1 1 1 1 1
          1 1 1 1 1 1
          1 1 1 1 1 1
          1 1 1 1 1 1
          1 1 1 1 1 1
          1 1 1 1 1 1
          1 1 1 1 1 1
          1 1 1 1 1 1
          1 1 1 1 1 1
          1 1 1 1 1 1
          1 1 1 1 1 1
          1 1 1 1 1 1
          1 1 1 1 1 1
          1 1 1 1 1 1
          1 1 1 1 1 1
          1 1 1 1 1 1
          1 1 1 1 1 1
          1 1 1 1 1 1
          1 1 1 1 1 1
          1 1 1 1 1 1
          1 1 1 1 1 1
          1 1 1 1 1 1
          1 1 1 1 1 1
          1 1 1 1 1 1
          1 1 1 1 1 1
          1 1 1 1 1 1
          1 1 1 1 1 1
          1 1 1 1 1 1
          1 1 1 1 1 1
          1 1 1 1 1 1
          1 1 1 1 1 1
          1 1 1 1 1 1
          1 1 1 1 1 1
          1 1 1 1 1 1
          1 1 1 1 1 1
          1 1 1 1 1 1
          1 1 1 1 1 1
          1 1 1 1 1 1
          1 1 1 1 1 1
          1 1 1 1 1 1
          1 1 1 1 1 1
          1 1 1 1 1 1
          1 1 1 1 1 1
          1 1 1 1 1 1
          1 1 1 1 1 1
          1 1 1 1 1 1
          1 1 1 1 1 1
          1 1 1 1 1 1
          1 1 1 1 1 1
          1 1 1 1 1 1
          1 1 1 1 1 1
          1 1 1 1 1 1
          1 1 1 1 1 1
          1 1 1 1 1 1
          1 1
        </DataArray>
        <DataArray type="Float64" Name="dHdT" format="ascii" RangeMin="25.824760452560685" RangeMax="33.84290958643201">
          25.849283498866182 25.88217833520507 28.223770717024962 26.53760738195469 25.91428551628486 25.861808926095982
          25.958963028183025 25.83119828297095 25.834106193754778 25.86228754053632 25.840619869111038 26.402745020979072
          27.51042849855073 25.99465642252313 26.48307456999266 26.300159772540084 26.034272222755448 26.03965671260447
          26.026144039803288 25.904747125877783 26.077849013203895 26.04892928794076 25.888570515154896 25.849162315444293
          25.900331124236722 25.85274203303326 25.92220355522017 25.860149949036405 25.86984570935406 25.89546687089501
          25.92053009421338 25.873575094274592 25.900291373342903 25.84906062242897 25.83036345436305 25.8347191700641
          25.826716424730336 25.83889120185162 25.828951152526876 25.840636455975705 25.82987507223156 26.05161250661558
          25.91937641041851 25.935417208868625 25.880889141731505 25.890397941358366 25.903054139537183 25.9147628653579
          25.878385897470952 25.97040001537146 25.9113517450239 25.93975428722903 25.899566517854186 25.855210168220815
          25.860681662525437 25.845262826677363 25.84914077487518 25.850043745147484 25.85404288795579 25.844606763830285
          25.87288736650913 25.85296283594398 25.862916096485108 26.583275911718577 26.27351974660285 26.80281255358589
          29.88630117008163 29.500583619270564 28.0536609372946 27.861218545140723 28.60520631822825 27.400684235399645
          30.232870952735283 29.80348733023266 28.0131144303946 28.812991361004173 27.674701546580977 26.89862801936262
          26.970873849566043 26.500772228652707 27.79478003431492 26.965535343048092 27.034393950520503 26.07569803094414
          25.956597689799484 26.148036053630314 27.02360294293842 26.925390844230336 26.439459882214063 26.390461564798844
          26.686564340369685 26.270647841166316 27.110120780774736 27.00344679045931 26.429918959532728 26.74426378615593
          26.419586007094615 26.135180065323347 26.20277342197284 26.023445567093056 26.45582552389353 26.154053040039734
          26.223341241653465 26.303779148302276 26.108726035910777 26.121207700263767 26.000607746344947 26.424069295829618
          26.180565132669148 26.186186969795827 26.16577713801705 26.04864042133478 26.17761575745318 26.008235822680852
          25.93437608231025 25.966018507559824 25.90987835859787 26.042414915008337 25.955288435298698 25.98897738331142
          26.51282567111844 26.233448201808567 26.232889226724186 26.067688373974107 26.54560305186719 26.2529500007624
          26.24984507301326 26.17773465212654 26.085075852770597 26.187595711062144 26.066252395787345 25.96991410091873
          26.00448650639604 25.93446712111376 26.07480458349553 25.97520674679799 26.010018278009444 25.983908622824543
          25.908572975049715 25.923497256127614 25.876499158978987 26.02449312960119 25.930169973936522 25.945765203762527
          25.88649874432019 25.856699088569766 25.872833090634245 25.84938228299133 25.898849498477233 25.863500996703202
          25.881757902001965 25.836940922166157 25.83868924636422 25.830960054749568 25.83198910323436 25.833566024198923
          25.834858477100973 25.82946868648908 25.842022846194723 25.83407028982289 25.837310447699917 26.054338810843433
          25.946012257605386 25.961684777202276 25.89718070853481 26.065379241485296 25.951873032419673 25.967499643301146
          25.907433305616802 25.86826527859472 25.887849913542343 25.857830216842174 25.910543526731328 25.869991848543084
          25.890060042143116 25.844532907174596 25.835766303779646 25.839148074377693 25.83224608559494 25.84545769252204
          25.836410179632665 25.839826183358564 26.039713277296602 26.043203508457275 25.99653652365229 25.998315673420574
          25.99267135512075 25.994662569165694 25.960553379745058 26.046693739617943 26.00009482318886 25.99665378321064
          25.912569964632098 25.858237732133283 25.896540349453414 26.002948748225837 25.890803672224433 25.91949407220746
          25.832585245625133 25.841389877056123 25.82559633899278 25.824760452560685 25.829865083394925 25.82476948201662
          26.147780727280058 25.97265741829056 25.91101739999079 25.990687912903013 26.290071655327495 26.018538060176944
          25.976349099480977 26.03514991346209 25.950940855751913 25.885548695929128 25.82855638342748 25.82723119878759
          26.220374778443833 26.070288791732267 25.988866863142228 26.088864507075137 26.394078469422904 26.179216007410517
          26.189461049438446 25.96949841367664 25.92164815022585 26.03431138460229 25.951355571673115 25.975283231123015
          26.001347732605893 25.96727191325604 26.05766455677352 25.905153223015034 25.87816686252835 25.941854676454753
          25.866243035651074 25.856267575521866 25.886069188199375 25.843847619568216 25.839582413101013 25.85383722481769
          25.844777523986604 25.865418549448762 27.100516038423486 26.61456751854652 26.36573526398511 26.694321996685233
          27.704792874386897 26.978572971805352 27.046255188286928 26.29038177613815 26.14453487114675 26.502767163566453
          28.370064243918662 27.365657437478006 27.406078401203946 26.72460893957204 31.553829016200673 29.034703113467657
          28.751774613947852 30.989781439733818 33.21104075146198 32.46119259794306 27.62298078165541 27.47577730856232
          28.08307649049255 29.688372953714552 30.695946598254487 27.120100252206647 33.84290958643201 33.03683735776489
          31.10216569103927 28.920290053160755 27.68572797777813 29.138132222829146 27.79265435900392 26.084035047468944
          26.0033393808977 26.202017890570442 25.960317804235743 25.91847137808621 26.02196136754183 26.32443889691354
          26.08572624199837 25.890523979265808 25.869969719573596 25.920776860536943 25.88909022861312 25.951867772734253
          25.908014401785557 26.801020745594236 26.724382534278824 26.3269217978345 26.28850023490155 26.536973478079837
          26.19402059751109 26.06614771140961 26.048121309672908 26.119740926272666 26.096791566175447 26.00345404615756
          26.040369403679733 26.14053847297303 26.115581821825607 26.054546799792703 25.975973944452708 25.922247816945983
          25.985169135115154 25.92757338982019 26.592970087920904 26.300122354565268 26.78529575161759 26.403104447122107
          26.351843054490814 26.18139139376578 26.102143851531235 26.48625422481431 26.273050953238457 26.286883868981864
          26.117791400083597 26.60943627898787 26.35625217589618 26.171806186333896 26.92822131432311 26.477318108782327
          26.981729676381732 26.50449514374505 26.69786474991571 26.415362285017274 26.349519886928178 26.209596492922927
          26.73011078222518 26.43681904371507 26.36639928819248 26.22324653388698 25.86520941481525 25.848907891762188
          25.876139678751464 25.854954079855464 25.835789707952628 25.835413573225114 25.88417374472491 25.85941044157677
          25.88714480793253 25.86105093961664 25.84188215817929 25.838332480498025 26.1479400512641 26.149385341364354