<?xml version="1.0"?>
<VTKFile type="UnstructuredGrid" version="0.1" byte_order="LittleEndian" header_type="UInt32" compressor="vtkZLibDataCompressor">
  <UnstructuredGrid>
    <Piece NumberOfPoints="356" NumberOfCells="180">
      <PointData>
        <DataArray type="Int32" Name="libmesh_node_id" format="ascii" RangeMin="0" RangeMax="3314">
          0 1 2 3 4 5
          6 7 8 9 10 11
          12 13 14 15 36 37
          38 39 40 41 42 43
          54 55 56 57 58 59
          60 61 72 73 74 75
          81 82 83 84 85 86
          87 88 99 100 101 102
          108 109 110 111 112 113
          114 115 126 127 128 129
          135 136 137 138 139 140
          141 142 153 154 155 156
          162 163 164 165 166 167
          168 180 181 182 183 313
          320 2949 2950 2953 2956 2957
          2958 2959 2960 2961 2962 2963
          2964 2965 2966 2967 2968 2969
          2970 2971 2972 2973 2974 2975
          2976 2977 2978 2979 2980 2981
          2982 2983 2984 2985 2986 2987
          2988 2989 2990 2991 2992 2993
          2994 2995 2996 2997 2998 2999
          3000 3001 3002 3003 3004 3005
          3006 3007 3008 3009 3010 3011
          3012 3013 3014 3015 3016 3017
          3018 3019 3020 3021 3022 3024
          3026 3029 3031 3075 3078 3086
          3115 3116 3117 3118 3119 3120
          3121 3122 3123 3124 3125 3126
          3127 3128 3129 3130 3131 3132
          3133 3134 3135 3136 3137 3138
          3139 3140 3141 3142 3143 3144
          3145 3146 3147 3148 3149 3150
          3151 3152 3153 3154 3155 3156
          3157 3158 3159 3160 3161 3162
          3163 3164 3165 3166 3167 3168
          3169 3170 3171 3172 3173 3174
          3175 3176 3177 3178 3179 3180
          3181 3182 3183 3184 3185 3186
          3187 3188 3189 3190 3191 3192
          3193 3194 3195 3196 3197 3198
          3199 3200 3201 3202 3203 3204
          3205 3206 3207 3208 3209 3210
          3211 3212 3213 3214 3215 3216
          3217 3218 3219 3220 3221 3222
          3223 3224 3225 3226 3227 3228
          3229 3230 3231 3232 3233 3234
          3235 3236 3237 3238 3239 3240
          3241 3242 3243 3244 3245 3246
          3247 3248 3249 3250 3251 3252
          3253 3254 3255 3256 3257 3258
          3259 3260 3261 3262 3263 3264
          3265 3266 3267 3268 3269 3270
          3271 3272 3273 3274 3275 3276
          3277 3278 3279 3280 3281 3282
          3283 3284 3285 3286 3287 3288
          3289 3290 3291 3292 3293 3294
          3295 3296 3297 3298 3305 3306
          3307 3308 3309 3310 3311 3312
          3313 3314
        </DataArray>
        <DataArray type="Float64" Name="bounds" format="ascii" RangeMin="0" RangeMax="0">
          0 0 0 0 0 0
          0 0 0 0 0 0
          0 0 0 0 0 0
          0 0 0 0 0 0
          0 0 0 0 0 0
          0 0 0 0 0 0
          0 0 0 0 0 0
          0 0 0 0 0 0
          0 0 0 0 0 0
          0 0 0 0 0 0
          0 0 0 0 0 0
          0 0 0 0 0 0
          0 0 0 0 0 0
          0 0 0 0 0 0
          0 0 0 0 0 0
          0 0 0 0 0 0
          0 0 0 0 0 0
          0 0 0 0 0 0
          0 0 0 0 0 0
          0 0 0 0 0 0
          0 0 0 0 0 0
          0 0 0 0 0 0
          0 0 0 0 0 0
          0 0 0 0 0 0
          0 0 0 0 0 0
          0 0 0 0 0 0
          0 0 0 0 0 0
          0 0 0 0 0 0
          0 0 0 0 0 0
          0 0 0 0 0 0
          0 0 0 0 0 0
          0 0 0 0 0 0
          0 0 0 0 0 0
          0 0 0 0 0 0
          0 0 0 0 0 0
          0 0 0 0 0 0
          0 0 0 0 0 0
          0 0 0 0 0 0
          0 0 0 0 0 0
          0 0 0 0 0 0
          0 0 0 0 0 0
          0 0 0 0 0 0
          0 0 0 0 0 0
          0 0 0 0 0 0
          0 0 0 0 0 0
          0 0 0 0 0 0
          0 0 0 0 0 0
          0 0 0 0 0 0
          0 0 0 0 0 0
          0 0 0 0 0 0
          0 0 0 0 0 0
          0 0 0 0 0 0
          0 0 0 0 0 0
          0 0 0 0 0 0
          0 0 0 0 0 0
          0 0 0 0 0 0
          0 0 0 0 0 0
          0 0 0 0 0 0
          0 0 0 0 0 0
          0 0
        </DataArray>
        <DataArray type="Float64" Name="gradient_error" format="ascii" RangeMin="2.331191932590219e-9" RangeMax="0.0000018872438163409956">
          4.09408727861824e-9 3.6873542087164957e-9 3.0826512973424965e-9 3.293093892091229e-9 6.368635749136812e-9 5.314074691058017e-9
          3.879887116179304e-9 4.4132960381905215e-9 2.780707834138389e-9 2.6164026122873083e-9 3.5391910513724026e-9 2.982872767312098e-9
          2.331191932590219e-9 2.385622982838661e-9 2.7097100999461176e-9 2.564947599233035e-9 2.4779483859684976e-9 2.4921005055642176e-9
          2.445699541300591e-9 2.4579563272442305e-9 2.4520973904362278e-9 2.4265544832517927e-9 2.4400540330871026e-9 2.420185098519953e-9
          3.0718930098722586e-8 2.43791936741789e-8 1.4868063462484577e-8 1.8351824823759603e-8 1.111445822432935e-8 7.592061017333706e-9
          3.744363028857672e-9 3.4448249056721652e-9 5.3569332507902534e-9 5.984719548796617e-9 4.069663810338063e-9 3.1452867824866573e-9
          1.5019411823394508e-7 1.1833233992433008e-7 7.197942489950517e-8 9.010243326974057e-8 4.9518243819472436e-8 3.2956387674572845e-8
          1.0536468710457346e-8 9.84079416680746e-9 2.5626509874680256e-8 3.001074830553606e-8 1.6394531529673245e-8 9.145119623157573e-9
          8.087848540499867e-7 4.7051646772204916e-7 3.0286803407878627e-7 4.926345753962596e-7 5.3429008672671636e-8 7.108812913833493e-8
          2.0959212294237667e-8 2.9748979344837678e-8 1.4856970201606593e-7 1.7648429674253245e-7 9.039193790842667e-8 4.576851460394835e-8
          0.00000161098499370542 9.522326638203677e-7 6.34807856323075e-7 8.182334184865735e-7 2.4229402875623375e-7 4.050508452976158e-7
          1.600420012356876e-7 2.9533312025086906e-7 1.489947174530284e-7 1.8017665983520672e-7 8.647437169785968e-8 4.2729317812828854e-8
          1.3778960362604402e-7 1.833567587186776e-7 4.2748032173727427e-7 0.000001275088640919877 2.8752119570339185e-7 3.704479244184626e-7
          5.133636059938858e-7 4.32505521363578e-8 6.954155510362228e-8 1.12366263195498e-8 1.252301653546566e-8 3.2490119155876507e-7
          3.8642840924807604e-7 1.8016216749463305e-8 7.287921301891422e-8 4.860498251157961e-8 2.4330752004245e-8 0.0000018872438163409956
          0.0000015645774666392153 0.0000015483699238273294 0.000001057507255927969 0.0000010888329105251943 0.0000011233386656213333 0.0000013157646581466359
          8.320764257392208e-7 7.259423749362509e-7 7.328279454777335e-7 7.913559391726068e-7 8.195541637209615e-7 0.0000010376605210883782
          5.876734928372791e-7 1.5290916378665646e-7 6.900129677599409e-7 0.0000010801707599668423 3.241619702410297e-7 8.579380251837477e-7
          2.513224170163502e-7 4.522392638189934e-7 3.650831989688113e-7 5.473692228239263e-7 4.308487517131374e-7 4.2599595959388263e-7
          5.697155486871416e-7 5.286382428382382e-7 5.545544401618706e-7 5.127071075610281e-7 2.2796569636304923e-7 3.7776677081593605e-7
          4.461852505238506e-7 4.057656711288785e-7 2.052807389783324e-7 3.853050813912647e-7 5.002082658853179e-7 5.89268370054124e-7
          4.346146835512361e-7 4.5780860535268225e-7 3.757404921793745e-7 5.340411090741224e-7 3.2287743418935903e-7 1.973694417178449e-7
          2.0678969525390945e-7 2.7422721393444494e-7 2.8319862655607066e-7 1.7419347890697317e-7 2.5077903991397574e-7 5.393812202791175e-8
          5.798294701021709e-8 6.370107547568698e-8 4.352659347734769e-8 3.51084986151045e-7 3.596075578582319e-7 3.2736460092097834e-7
          6.202777199252242e-8 1.4527492170181986e-7 2.1783981489005064e-7 1.1364181775748352e-7 1.7943936894161032e-7 3.066953950947322e-8
          2.695289265575547e-8 1.5226120456576774e-8 2.904047080782814e-7 2.452369201257371e-7 2.3236245802037716e-8 5.187855670591118e-8
          9.951888512582767e-8 1.0422302399260647e-8 1.4715921354574415e-7 6.221807950966117e-7 6.662732392208386e-7 6.25535245541245e-7
          7.389412393098182e-8 6.120962066551156e-8 9.569534476983484e-8 1.9770796548037776e-7 1.8151154619226357e-7 1.3879238463755834e-7
          1.5385530912818592e-7 2.4108083582022262e-8 1.5050144803315807e-7 1.0964365220221302e-7 4.85251174000413e-8 9.607322308285309e-8
          1.1000265277599408e-7 6.878585637126797e-8 2.7525116575313358e-8 2.1242600752674958e-8 1.163396748241098e-7 8.008814323425973e-8
          1.496008493003656e-8 4.3836611644409665e-8 8.149521049219249e-8 1.395928288577746e-7 1.2213596503988008e-8 1.1197934804068085e-8
          1.976904472233567e-7 1.0182273104148163e-8 2.7054868119992336e-7 2.718137618487786e-7 2.644178678799717e-7 2.0040513784050745e-7
          2.063882009081554e-7 2.385640278353885e-7 2.316157845231899e-7 2.908261715252732e-7 2.2166558424802466e-7 2.5477940486939797e-7
          2.7307884249763396e-7 2.707398547626216e-7 2.628264312058723e-7 2.812406478332904e-7 1.4222772061638745e-7 2.0531429382199834e-7
          1.988137011664081e-7 2.1873263821352273e-7 2.6840086702760927e-7 3.172143128907717e-7 3.162916340290524e-7 2.4195338853375953e-7
          2.7447222276120533e-7 3.1990508727497064e-7 2.62080333856616e-7 2.961899477984332e-7 2.8719802718310356e-7 2.944577607296215e-7
          3.1807305372414795e-7 1.6669246417674736e-7 2.3265281149335835e-7 2.505039692148647e-7 3.0171749427613946e-7 2.302271854214825e-7
          2.155872920347417e-7 2.2472012673856524e-7 2.715541103178044e-7 2.738679911920952e-7 2.5378243636037566e-7 2.503417678997369e-7
          2.036547638905173e-7 2.800907001065123e-7 2.603411376495444e-7 2.009473986480009e-7 2.3369688152865605e-7 2.2912942548166933e-7
          2.4059157519257655e-7 3.379349584020666e-7 3.2872988397713033e-7 3.557785738714204e-7 3.1226750933647446e-7 2.0993361099012788e-7
          2.0058243153617465e-7 2.8894024001439984e-7 2.6721499229003993e-7 1.995402922691509e-7 2.9861843787495936e-7 2.744588467120937e-7
          1.9123125208222137e-7 2.454897445656799e-7 2.502992555492281e-7 3.941978113084844e-7 3.8234200781401623e-7 4.1058755344404844e-7
          3.569117720523918e-7 2.8121491910708446e-7 3.200611030330568e-7 3.057332798334012e-7 3.487124515645613e-7 3.423175802176999e-7
          3.68801962222355e-7 2.040687183727437e-7 2.7464001879786246e-7 3.028952667948532e-7 3.4945707863534363e-7 3.377206275276852e-7
          3.832078162196523e-7 3.7580708623692014e-7 4.23028318747595e-7 3.9767757959712705e-7 4.292707304753671e-7 2.5499250147707347e-7
          3.3557916985517727e-7 3.7425893176212986e-7 4.0986161964023556e-7 2.572290821312288e-7 2.4784209143028754e-7 2.790889232014825e-7
          2.6745973435013306e-7 2.662335442183345e-7 2.91033491186279e-7 2.1670525535742237e-7 2.3244997292659435e-7 2.2907292299222073e-7
          2.3615468122356934e-7 3.009487642717363e-7 2.8707737726997864e-7 3.158334381542234e-7 2.481946904957664e-7 2.7477999984508644e-7
          3.029333080269523e-7 2.827196337734389e-7 3.14617933919678e-7 2.1979709217209352e-7 2.3920646177126994e-7 2.409439581468916e-7
          3.310866162088181e-7 3.4651623406591717e-7 2.5861583137044635e-7 2.0785855531319282e-7 1.9747995377480661e-7 3.0768417681206173e-7
          2.809577194605988e-7 1.9420305560129995e-7 3.1558143654326977e-7 2.8615876727768137e-7 1.871013522364204e-7 2.542312621091358e-7
          2.567360980120931e-7 4.6121352607768474e-7 4.4153541492313733e-7 4.7529414646923367e-7 4.014972201163927e-7 2.0221281012390844e-7
          1.8974096451202465e-7 3.215467708810707e-7 2.8933610975909286e-7 1.7726911890014086e-7 2.5712544863711487e-7 5.432505565471466e-7
          5.118050892886275e-7 4.5025100425470634e-7 4.209971753430946e-7 4.6945434111692335e-7 4.7520069787361475e-7 5.240271439285727e-7
          4.6443384471068474e-7 5.035820702112168e-7 3.270770968417503e-7 4.2027333753396287e-7 4.75580473872741e-7 4.87302445237706e-7
          5.410409925688483e-7 5.887485716621338e-7 5.47096591301612e-7 4.3646160368163655e-7 5.428182197531738e-7 5.873075654082086e-7
          2.897876927965902e-7 3.258182663371386e-7 2.9543211303445347e-7 3.3602055892179925e-7 2.1879833278118208e-7 2.406803501436598e-7
          2.3773056740469558e-7 3.6184883987768696e-7 3.7660900480914503e-7 2.6256236750613755e-7 2.3543272721796744e-7 2.2782824586790083e-7
          2.5552517206146846e-7 2.492640987892044e-7 2.118383552370609e-7 2.291258796523451e-7 2.3059270506008012e-7 2.756176169049694e-7
          2.70699951710508e-7 2.4641340406762924e-7
        </DataArray>
        <DataArray type="Float64" Name="gradient_matprop_error" format="ascii" RangeMin="0" RangeMax="0">
          0 0 0 0 0 0
          0 0 0 0 0 0
          0 0 0 0 0 0
          0 0 0 0 0 0
          0 0 0 0 0 0
          0 0 0 0 0 0
          0 0 0 0 0 0
          0 0 0 0 0 0
          0 0 0 0 0 0
          0 0 0 0 0 0
          0 0 0 0 0 0
          0 0 0 0 0 0
          0 0 0 0 0 0
          0 0 0 0 0 0
          0 0 0 0 0 0
          0 0 0 0 0 0
          0 0 0 0 0 0
          0 0 0 0 0 0
          0 0 0 0 0 0
          0 0 0 0 0 0
          0 0 0 0 0 0
          0 0 0 0 0 0
          0 0 0 0 0 0
          0 0 0 0 0 0
          0 0 0 0 0 0
          0 0 0 0 0 0
          0 0 0 0 0 0
          0 0 0 0 0 0
          0 0 0 0 0 0
          0 0 0 0 0 0
          0 0 0 0 0 0
          0 0 0 0 0 0
          0 0 0 0 0 0
          0 0 0 0 0 0
          0 0 0 0 0 0
          0 0 0 0 0 0
          0 0 0 0 0 0
          0 0 0 0 0 0
          0 0 0 0 0 0
          0 0 0 0 0 0
          0 0 0 0 0 0
          0 0 0 0 0 0
          0 0 0 0 0 0
          0 0 0 0 0 0
          0 0 0 0 0 0
          0 0 0 0 0 0
          0 0 0 0 0 0
          0 0 0 0 0 0
          0 0 0 0 0 0
          0 0 0 0 0 0
          0 0 0 0 0 0
          0 0 0 0 0 0
          0 0 0 0 0 0
          0 0 0 0 0 0
          0 0 0 0 0 0
          0 0 0 0 0 0
          0 0 0 0 0 0
          0 0 0 0 0 0
          0 0 0 0 0 0
          0 0
        </DataArray>
        <DataArray type="Float64" Name="initial_marker" format="ascii" RangeMin="0" RangeMax="0">
          0 0 0 0 0 0
          0 0 0 0 0 0
          0 0 0 0 0 0
          0 0 0 0 0 0
          0 0 0 0 0 0
          0 0 0 0 0 0
          0 0 0 0 0 0
          0 0 0 0 0 0
          0 0 0 0 0 0
          0 0 0 0 0 0
          0 0 0 0 0 0
          0 0 0 0 0 0
          0 0 0 0 0 0
          0 0 0 0 0 0
          0 0 0 0 0 0
          0 0 0 0 0 0
          0 0 0 0 0 0
          0 0 0 0 0 0
          0 0 0 0 0 0
          0 0 0 0 0 0
          0 0 0 0 0 0
          0 0 0 0 0 0
          0 0 0 0 0 0
          0 0 0 0 0 0
          0 0 0 0 0 0
          0 0 0 0 0 0
          0 0 0 0 0 0
          0 0 0 0 0 0
          0 0 0 0 0 0
          0 0 0 0 0 0
          0 0 0 0 0 0
          0 0 0 0 0 0
          0 0 0 0 0 0
          0 0 0 0 0 0
          0 0 0 0 0 0
          0 0 0 0 0 0
          0 0 0 0 0 0
          0 0 0 0 0 0
          0 0 0 0 0 0
          0 0 0 0 0 0
          0 0 0 0 0 0
          0 0 0 0 0 0
          0 0 0 0 0 0
          0 0 0 0 0 0
          0 0 0 0 0 0
          0 0 0 0 0 0
          0 0 0 0 0 0
          0 0 0 0 0 0
          0 0 0 0 0 0
          0 0 0 0 0 0
          0 0 0 0 0 0
          0 0 0 0 0 0
          0 0 0 0 0 0
          0 0 0 0 0 0
          0 0 0 0 0 0
          0 0 0 0 0 0
          0 0 0 0 0 0
          0 0 0 0 0 0
          0 0 0 0 0 0
          0 0
        </DataArray>
        <DataArray type="Float64" Name="markers_norefine" format="ascii" RangeMin="0" RangeMax="0">
          0 0 0 0 0 0
          0 0 0 0 0 0
          0 0 0 0 0 0
          0 0 0 0 0 0
          0 0 0 0 0 0
          0 0 0 0 0 0
          0 0 0 0 0 0
          0 0 0 0 0 0
          0 0 0 0 0 0
          0 0 0 0 0 0
          0 0 0 0 0 0
          0 0 0 0 0 0
          0 0 0 0 0 0
          0 0 0 0 0 0
          0 0 0 0 0 0
          0 0 0 0 0 0
          0 0 0 0 0 0
          0 0 0 0 0 0
          0 0 0 0 0 0
          0 0 0 0 0 0
          0 0 0 0 0 0
          0 0 0 0 0 0
          0 0 0 0 0 0
          0 0 0 0 0 0
          0 0 0 0 0 0
          0 0 0 0 0 0
          0 0 0 0 0 0
          0 0 0 0 0 0
          0 0 0 0 0 0
          0 0 0 0 0 0
          0 0 0 0 0 0
          0 0 0 0 0 0
          0 0 0 0 0 0
          0 0 0 0 0 0
          0 0 0 0 0 0
          0 0 0 0 0 0
          0 0 0 0 0 0
          0 0 0 0 0 0
          0 0 0 0 0 0
          0 0 0 0 0 0
          0 0 0 0 0 0
          0 0 0 0 0 0
          0 0 0 0 0 0
          0 0 0 0 0 0
          0 0 0 0 0 0
          0 0 0 0 0 0
          0 0 0 0 0 0
          0 0 0 0 0 0
          0 0 0 0 0 0
          0 0 0 0 0 0
          0 0 0 0 0 0
          0 0 0 0 0 0
          0 0 0 0 0 0
          0 0 0 0 0 0
          0 0 0 0 0 0
          0 0 0 0 0 0
          0 0 0 0 0 0
          0 0 0 0 0 0
          0 0 0 0 0 0
          0 0
        </DataArray>
        <DataArray type="Float64" Name="markers_mustrefine" format="ascii" RangeMin="0" RangeMax="0">
          0 0 0 0 0 0
          0 0 0 0 0 0
          0 0 0 0 0 0
          0 0 0 0 0 0
          0 0 0 0 0 0
          0 0 0 0 0 0
          0 0 0 0 0 0
          0 0 0 0 0 0
          0 0 0 0 0 0
          0 0 0 0 0 0
          0 0 0 0 0 0
          0 0 0 0 0 0
          0 0 0 0 0 0
          0 0 0 0 0 0
          0 0 0 0 0 0
          0 0 0 0 0 0
          0 0 0 0 0 0
          0 0 0 0 0 0
          0 0 0 0 0 0
          0 0 0 0 0 0
          0 0 0 0 0 0
          0 0 0 0 0 0
          0 0 0 0 0 0
          0 0 0 0 0 0
          0 0 0 0 0 0
          0 0 0 0 0 0
          0 0 0 0 0 0
          0 0 0 0 0 0
          0 0 0 0 0 0
          0 0 0 0 0 0
          0 0 0 0 0 0
          0 0 0 0 0 0
          0 0 0 0 0 0
          0 0 0 0 0 0
          0 0 0 0 0 0
          0 0 0 0 0 0
          0 0 0 0 0 0
          0 0 0 0 0 0
          0 0 0 0 0 0
          0 0 0 0 0 0
          0 0 0 0 0 0
          0 0 0 0 0 0
          0 0 0 0 0 0
          0 0 0 0 0 0
          0 0 0 0 0 0
          0 0 0 0 0 0
          0 0 0 0 0 0
          0 0 0 0 0 0
          0 0 0 0 0 0
          0 0 0 0 0 0
          0 0 0 0 0 0
          0 0 0 0 0 0
          0 0 0 0 0 0
          0 0 0 0 0 0
          0 0 0 0 0 0
          0 0 0 0 0 0
          0 0 0 0 0 0
          0 0 0 0 0 0
          0 0 0 0 0 0
          0 0
        </DataArray>
        <DataArray type="Float64" Name="gradient_marker" format="ascii" RangeMin="1" RangeMax="1">
          1 1 1 1 1 1
          1 1 1 1 1 1
          1 1 1 1 1 1
          1 1 1 1 1 1
          1 1 1 1 1 1
          1 1 1 1 1 1
          1 1 1 1 1 1
          1 1 1 1 1 1
          1 1 1 1 1 1
          1 1 1 1 1 1
          1 1 1 1 1 1
          1 1 1 1 1 1
          1 1 1 1 1 1
          1 1 1 1 1 1
          1 1 1 1 1 1
          1 1 1 1 1 1
          1 1 1 1 1 1
          1 1 1 1 1 1
          1 1 1 1 1 1
          1 1 1 1 1 1
          1 1 1 1 1 1
          1 1 1 1 1 1
          1 1 1 1 1 1
          1 1 1 1 1 1
          1 1 1 1 1 1
          1 1 1 1 1 1
          1 1 1 1 1 1
          1 1 1 1 1 1
          1 1 1 1 1 1
          1 1 1 1 1 1
          1 1 1 1 1 1
          1 1 1 1 1 1
          1 1 1 1 1 1
          1 1 1 1 1 1
          1 1 1 1 1 1
          1 1 1 1 1 1
          1 1 1 1 1 1
          1 1 1 1 1 1
          1 1 1 1 1 1
          1 1 1 1 1 1
          1 1 1 1 1 1
          1 1 1 1 1 1
          1 1 1 1 1 1
          1 1 1 1 1 1
          1 1 1 1 1 1
          1 1 1 1 1 1
          1 1 1 1 1 1
          1 1 1 1 1 1
          1 1 1 1 1 1
          1 1 1 1 1 1
          1 1 1 1 1 1
          1 1 1 1 1 1
          1 1 1 1 1 1
          1 1 1 1 1 1
          1 1 1 1 1 1
          1 1 1 1 1 1
          1 1 1 1 1 1
          1 1 1 1 1 1
          1 1 1 1 1 1
          1 1
        </DataArray>
        <DataArray type="Float64" Name="gradient_matprop_marker" format="ascii" RangeMin="0" RangeMax="0">
          0 0 0 0 0 0
          0 0 0 0 0 0
          0 0 0 0 0 0
          0 0 0 0 0 0
          0 0 0 0 0 0
          0 0 0 0 0 0
          0 0 0 0 0 0
          0 0 0 0 0 0
          0 0 0 0 0 0
          0 0 0 0 0 0
          0 0 0 0 0 0
          0 0 0 0 0 0
          0 0 0 0 0 0
          0 0 0 0 0 0
          0 0 0 0 0 0
          0 0 0 0 0 0
          0 0 0 0 0 0
          0 0 0 0 0 0
          0 0 0 0 0 0
          0 0 0 0 0 0
          0 0 0 0 0 0
          0 0 0 0 0 0
          0 0 0 0 0 0
          0 0 0 0 0 0
          0 0 0 0 0 0
          0 0 0 0 0 0
          0 0 0 0 0 0
          0 0 0 0 0 0
          0 0 0 0 0 0
          0 0 0 0 0 0
          0 0 0 0 0 0
          0 0 0 0 0 0
          0 0 0 0 0 0
          0 0 0 0 0 0
          0 0 0 0 0 0
          0 0 0 0 0 0
          0 0 0 0 0 0
          0 0 0 0 0 0
          0 0 0 0 0 0
          0 0 0 0 0 0
          0 0 0 0 0 0
          0 0 0 0 0 0
          0 0 0 0 0 0
          0 0 0 0 0 0
          0 0 0 0 0 0
          0 0 0 0 0 0
          0 0 0 0 0 0
          0 0 0 0 0 0
          0 0 0 0 0 0
          0 0 0 0 0 0
          0 0 0 0 0 0
          0 0 0 0 0 0
          0 0 0 0 0 0
          0 0 0 0 0 0
          0 0 0 0 0 0
          0 0 0 0 0 0
          0 0 0 0 0 0
          0 0 0 0 0 0
          0 0 0 0 0 0
          0 0
        </DataArray>
        <DataArray type="Float64" Name="combo" format="ascii" RangeMin="1" RangeMax="1">
          1 1 1 1 1 1
          1 1 1 1 1 1
          1 1 1 1 1 1
          1 1 1 1 1 1
          1 1 1 1 1 1
          1 1 1 1 1 1
          1 1 1 1 1 1
          1 1 1 1 1 1
          1 1 1 1 1 1
          1 1 1 1 1 1
          1 1 1 1 1 1
          1 1 1 1 1 1
          1 1 1 1 1 1
          1 1 1 1 1 1
          1 1 1 1 1 1
          1 1 1 1 1 1
          1 1 1 1 1 1
          1 1 1 1 1 1
          1 1 1 1 1 1
          1 1 1 1 1 1
          1 1 1 1 1 1
          1 1 1 1 1 1
          1 1 1 1 1 1
          1 1 1 1 1 1
          1 1 1 1 1 1
          1 1 1 1 1 1
          1 1 1 1 1 1
          1 1 1 1 1 1
          1 1 1 1 1 1
          1 1 1 1 1 1
          1 1 1 1 1 1
          1 1 1 1 1 1
          1 1 1 1 1 1
          1 1 1 1 1 1
          1 1 1 1 1 1
          1 1 1 1 1 1
          1 1 1 1 1 1
          1 1 1 1 1 1
          1 1 1 1 1 1
          1 1 1 1 1 1
          1 1 1 1 1 1
          1 1 1 1 1 1
          1 1 1 1 1 1
          1 1 1 1 1 1
          1 1 1 1 1 1
          1 1 1 1 1 1
          1 1 1 1 1 1
          1 1 1 1 1 1
          1 1 1 1 1 1
          1 1 1 1 1 1
          1 1 1 1 1 1
          1 1 1 1 1 1
          1 1 1 1 1 1
          1 1 1 1 1 1
          1 1 1 1 1 1
          1 1 1 1 1 1
          1 1 1 1 1 1
          1 1 1 1 1 1
          1 1 1 1 1 1
          1 1
        </DataArray>
        <DataArray type="Float64" Name="dHdT" format="ascii" RangeMin="25.804993816238486" RangeMax="30.138577689743638">
          25.811786697570223 25.811752184950272 25.811710366287244 25.811728130044557 25.81169388318073 25.811743179033513
          25.811805908765564 25.811780063875844 25.81168382332382 25.81167526705259 25.811839365643984 25.811856316180585
          25.811655069608676 25.811660480045553 25.811884682917785 25.811880469077426 25.81166854762421 25.811669562518887
          25.811868638497614 25.81186624457095 25.81166671078136 25.81187326671719 25.81166589048243 25.811876255237067
          25.813265401704825 25.81302209526926 25.812701866853985 25.812831510220484 25.81254805007466 25.81244887228149
          25.812307526414457 25.812316952933813 25.812381638438705 25.812397618736146 25.812349694488315 25.812326379453168
          25.80779021973154 25.808959884753527 25.810569419821302 25.809932151332543 25.811244521935905 25.811819540388246
          25.81250344274521 25.812534779893042 25.812178954889074 25.812074082933545 25.812394558840584 25.81256611704087
          25.84225068042879 25.828006337488542 25.82230498418966 25.829951134381012 25.80707274930796 25.813215919171995
          25.809693399369024 25.813421267059425 25.816921823507467 25.817651588333234 25.815431459525083 25.814282358692445
          26.264492314901148 26.21244708399978 25.9590948083995 25.972877298805958 26.09259782419727 25.924139337116777
          25.996362302336173 25.885013786936135 25.821386874692713 25.82385438693029 25.81743727555052 25.81515734619997
          28.152874799266314 28.479162423131484 26.285991192133928 26.414902208780116 29.08988844453762 26.211008654588717
          30.138577689743638 25.823639280472136 25.830961853482062 25.814513100704904 25.811753745671968 25.951348845145034
          25.989434818560696 25.80974744590703 25.82036226243737 25.819196270528188 25.81803027861901 26.645271204984113
          26.446273638806446 26.45037841881068 27.166076439983556 27.195123097139344 26.784456451705697 26.75965174654783
          26.197733237245455 27.364493857834745 26.843149792442766 26.08489381231822 26.203826690900996 26.25339390878063
          26.139317357485314 28.26066999425749 27.40674696039036 27.267874451290922 27.595683872432353 26.360311458278414
          26.13378990675756 26.059018298186675 27.553125570237157 26.87717500620689 26.02585774746007 27.63503010575991
          26.873420908935216 25.984013580982538 26.109271661725053 26.074053623257516 28.749978011323552 27.692242198709977
          27.795853293308564 26.253487102904877 26.04601454492567 25.989665794662987 27.719659986105302 26.855919712483164
          25.933912605241662 26.033802012761022 29.530609047070485 27.904219238569908 26.158322815187447 25.872684999118377
          25.87598490297112 25.90408141564887 25.90831420451902 25.864594917175474 25.893431084791803 25.82285844622908
          25.825812995255266 25.827391652847 25.822116372557197 25.935477832179366 25.94064350606692 25.92226725240814
          25.828767544281455 25.85454298407955 25.87971358620009 25.84427981030135 25.865149736701625 25.818128721410893
          25.818248179374763 25.815347142056673 25.904884188320633 25.886019663101898 25.818367637338632 25.82703964481616
          25.8385174936043 25.81303490792706 25.84999534239244 29.356776562941896 28.80655444128598 29.46092374211046
          25.812965394253233 25.814646334181198 25.82031880453729 25.881020143405994 25.868287450764427 25.855265270459512
          25.86499853422971 25.808685276440237 25.847653504101384 25.83941560588165 25.81632727410917 25.842243090154597
          25.848976925053424 25.83117770766192 25.804993816238486 25.808643143182866 25.83302685551828 25.82831280284267
          25.81229247012725 25.823598750167058 25.83492963474772 25.85113006845517 25.81493997445409 25.813642311924546
          25.867330502162616 25.812344649394998 27.70342012934297 27.5353434488594 27.52269489791962 27.919946852722017
          27.943355256948 27.757006892288207 27.738633559694737 27.569151624643673 28.002822491776033 27.805537345440676
          27.36726676837584 27.570658527628414 27.557320266667453 27.426431063694054 28.183290384553032 27.97867033571701
          27.954572221469853 28.041923066237675 27.774050286880986 27.799141345339926 27.6146992343944 28.081039930003325
          27.871176807405597 27.432733050797538 28.17230448213321 27.94590600687867 27.179998487387643 27.365144161947583
          27.399105032506874 28.362938514666723 28.127654380416796 28.22328143117391 27.550289836507517 26.366292712003478
          26.316200992661116 26.325997767369614 26.730559029828157 26.723743938322734 26.638564530471516 26.643567877297684
          26.29767524775559 26.713091797503775 26.62834716815182 26.266109273318754 26.5533851226203 26.55657672476721
          26.543602538799867 27.512581635877794 27.345780070043528 27.37548971998158 27.09530819321863 26.321967999124134
          26.27682231839283 26.702894567278967 26.615641038116642 26.251021186053812 26.68853672818462 26.598844491650823
          26.231676637661526 26.52838750895432 26.50915225511702 27.59378760738357 27.40199415744904 27.42723611435157
          27.1105719112177 28.27564153091633 28.028188407628967 28.38700793151491 28.115217503724622 27.43264761380825
          27.466108735980026 28.60731495471905 28.325744743452788 28.43847465603414 27.64266342374947 28.50680829129523
          28.20644841052926 28.63876074340463 28.30471617718103 27.498568162992562 27.529684690725738 28.909862503257113
          28.5633682640009 28.701627922906763 27.74382764928213 26.65585780596937 26.668337030640544 26.77200468740468
          26.77793213171329 26.640935883113094 26.763739582352134 26.383748040701356 26.459449431534466 26.47716173003696
          26.43868876867856 26.88815156884 26.887527232786034 26.886543281591173 26.535150822367576 26.624400728844176
          26.752967185056047 26.604811575888114 26.738113355198998 26.337487139064272 26.414886573890268 26.38752893990395
          26.88153364126792 26.87141513450989 26.49228600871626 26.26419228868412 26.22222118343048 26.670599050600543
          26.578265955118972 26.19087697911175 26.648641776654014 26.55356484571884 26.180250078176837 26.485932859637394
          26.458487914783657 27.677128545518226 27.450970588511847 27.47299701248062 27.11035972233476 26.195561576439033
          26.15762082491488 26.621330533013413 26.52365649627273 26.11968007339072 26.42598245953205 27.759587258436806
          27.49067314467078 27.090996141580735 28.78607574591058 28.411884796631185 28.951807330513162 28.529760309117343
          27.559472813911526 27.588503192549652 29.294900213301673 28.85613914304614 29.029779305599376 27.849213864869895
          29.140381575270702 28.66054732072189 27.614915879459602 29.80868812325558 29.229440519732805 27.959479969384795
          26.58074990747589 26.718645775875355 26.552578096169885 26.694743595198997 26.280045910958428 26.35603977127945
          26.3201940930202 26.856541644274827 26.83690909422811 26.43203363160047 26.67475610344775 26.675802029198934
          26.78136532233521 26.78253767466644 26.419772355569087 26.49375600558313 26.50228655646135 26.887974541222672
          26.88927332013395 26.567739655597173
        </DataArray>
        <DataArray type="Float64" Name="dk/dtemperature" format="ascii" RangeMin="0.01116002238244184" RangeMax="0.015804580349343195">