<?xml version="1.0"?>
<VTKFile type="UnstructuredGrid" version="0.1" byte_order="LittleEndian" header_type="UInt32" compressor="vtkZLibDataCompressor">
  <UnstructuredGrid>
    <Piece NumberOfPoints="347" NumberOfCells="185">
      <PointData>
        <DataArray type="Int32" Name="libmesh_node_id" format="ascii" RangeMin="210" RangeMax="2153">
          218 260 464 478 479 484
          500 501 502 503 507 508
          510 511 513 528 529 534
          535 796 797 798 799 800
          801 802 803 804 805 806
          807 809 810 898 899 900
          901 902 903 906 917 918
          919 920 922 936 937 939
          942 952 956 962 963 964
          965 966 967 968 969 970
          971 972 973 974 975 990
          991 992 993 994 995 996
          997 998 999 1024 1025 1026
          1027 1028 1029 1030 1031 1032
          1033 1044 1045 1048 1049 1058
          1059 1060 1061 1062 1063 1064
          1065 1066 1067 1078 1079 1082
          1083 1463 1469 1549 1550 1552
          1555 1565 1567 1569 1583 1584
          1586 1589 1599 1601 1603 1605
          1606 1607 1608 1609 1610 1611
          1612 1613 1614 1615 1616 1617
          1618 1619 1620 1621 1622 1623
          1624 1625 1626 1627 1628 1629
          1630 1631 1632 1633 1634 1635
          1636 1637 1686 1687 1688 1689
          1690 1691 1692 1693 1694 1695
          1696 1697 1698 1699 1758 1759
          1760 1761 1762 1763 1764 1765
          1766 1767 1768 1769 1770 1771
          1772 1773 1774 1775 1776 1777
          1778 1779 1780 1781 1782 1783
          1784 1785 1786 1787 1788 1789
          1790 1791 1792 1793 1794 1795
          1796 1797 1798 1799 1800 1801
          1802 1803 1804 1805 1806 1807
          1808 1809 1810 1879 1880 1881
          1882 1883 1884 1885 1886 1887
          1888 1903 1904 1905 1906 1907
          1908 1909 1910 1911 1912 1988
          1989 1990 1991 1992 1993 1994
          1995 1996 1997 1998 1999 2000
          2001 2002 2003 2004 2005 2006
          2007 2008 2009 2010 2011 2012
          2013 2014 2015 2016 2017 2018
          2019 2020 2021 2022 2023 2024
          2025 2026 2027 2028 2029 2030
          2031 2032 2033 2034 2035 2036
          2037 2038 2039 2040 2041 2042
          2043 2044 2045 2046 2047 2048
          2049 2050 2051 2052 2053 2054
          2055 2124 2125 2126 2127 2128
          2129 2130 2131 2132 2133 2144
          2145 2146 2147 2148 2149 2150
          2151 2152 2153 454 457 458
          455 462 463 461 460 261
          465 210 456 259 794 890
          891 893 808 910 913
        </DataArray>
        <DataArray type="Float64" Name="bounds" format="ascii" RangeMin="0" RangeMax="0">
          0 0 0 0 0 0
          0 0 0 0 0 0
          0 0 0 0 0 0
          0 0 0 0 0 0
          0 0 0 0 0 0
          0 0 0 0 0 0
          0 0 0 0 0 0
          0 0 0 0 0 0
          0 0 0 0 0 0
          0 0 0 0 0 0
          0 0 0 0 0 0
          0 0 0 0 0 0
          0 0 0 0 0 0
          0 0 0 0 0 0
          0 0 0 0 0 0
          0 0 0 0 0 0
          0 0 0 0 0 0
          0 0 0 0 0 0
          0 0 0 0 0 0
          0 0 0 0 0 0
          0 0 0 0 0 0
          0 0 0 0 0 0
          0 0 0 0 0 0
          0 0 0 0 0 0
          0 0 0 0 0 0
          0 0 0 0 0 0
          0 0 0 0 0 0
          0 0 0 0 0 0
          0 0 0 0 0 0
          0 0 0 0 0 0
          0 0 0 0 0 0
          0 0 0 0 0 0
          0 0 0 0 0 0
          0 0 0 0 0 0
          0 0 0 0 0 0
          0 0 0 0 0 0
          0 0 0 0 0 0
          0 0 0 0 0 0
          0 0 0 0 0 0
          0 0 0 0 0 0
          0 0 0 0 0 0
          0 0 0 0 0 0
          0 0 0 0 0 0
          0 0 0 0 0 0
          0 0 0 0 0 0
          0 0 0 0 0 0
          0 0 0 0 0 0
          0 0 0 0 0 0
          0 0 0 0 0 0
          0 0 0 0 0 0
          0 0 0 0 0 0
          0 0 0 0 0 0
          0 0 0 0 0 0
          0 0 0 0 0 0
          0 0 0 0 0 0
          0 0 0 0 0 0
          0 0 0 0 0 0
          0 0 0 0 0
        </DataArray>
        <DataArray type="Float64" Name="gradient_error" format="ascii" RangeMin="1.5620485329192729e-9" RangeMax="2.4306060980952976e-7">
          1.609569580586367e-8 1.4989756307115803e-7 1.1727040437862632e-7 1.4284571947861358e-7 1.3791546777335895e-7 1.4271017104779621e-7
          2.175249291844414e-8 1.9079266862702677e-8 1.6168984376636653e-8 1.353894047420329e-8 1.2624945935455002e-8 1.5733087258899442e-8
          6.309136060848206e-9 4.026862016585005e-9 1.3752226660868637e-8 3.718647104941044e-8 1.9460555764375864e-8 2.689734363824947e-8
          3.6645865188039226e-8 2.6738820065598643e-8 3.6001923329503326e-8 3.3162109432172556e-8 2.7281082914894372e-8 1.2495310159329442e-7
          1.1576341332259461e-7 8.426085689485315e-8 9.124337532664308e-8 1.5433297060357535e-8 2.0096890612881875e-8 1.595391093081679e-8
          6.322514918114993e-8 4.497904273065915e-8 5.0537272760908456e-8 1.7969892496390948e-7 1.6563646004548492e-7 1.809386410387555e-7
          1.6438973270494099e-7 1.2829839787815073e-7 1.221760336163231e-7 1.3111292304932128e-7 8.458842601662969e-8 7.619103538095366e-8
          6.415405140401826e-8 4.6310754740496225e-8 1.2249744504611585e-7 3.097499057136762e-8 3.8010930033875765e-8 1.2969953292257262e-7
          3.6066762674050064e-8 1.639859544961719e-7 1.8027076764873384e-7 2.157710515001783e-8 1.990404436649509e-8 2.264193610570793e-8
          2.0894125793882886e-8 9.87288926601655e-9 6.637483223321962e-9 6.158775005182614e-9 1.609285788726822e-8 1.7100301920926597e-8
          4.933594615167878e-9 4.254321590993879e-8 3.900540590322572e-8 5.6171221807076285e-9 3.048711072727914e-8 1.1596429091157214e-8
          1.390752465159356e-8 5.827846585776824e-9 5.724834354786261e-9 9.238125990750338e-9 1.2824898253115571e-8 7.3180182800732825e-9
          2.2016185616563223e-8 4.424625846527687e-9 1.821934523797709e-8 9.990539477453642e-8 8.965082594181016e-8 1.7087207227221646e-8
          1.4716119226969396e-8 6.484773731056745e-8 9.676376790209865e-9 9.234029900035187e-8 8.34142748117089e-8 3.2431750207806804e-8
          7.858540627243673e-8 3.929724639360096e-8 5.245561037613384e-9 6.47094161063098e-8 9.57997715420557e-9 3.4811501458989615e-8
          4.3636071892825944e-8 3.707270181674901e-8 4.500236583133277e-8 8.161372579764262e-8 3.120660801515346e-8 1.9908738671764568e-8
          4.1715050923774625e-8 4.4376119233008204e-8 9.16872513262835e-8 8.839226862394195e-8 1.4018670210368681e-8 9.805907461784106e-8
          1.597978685358405e-8 4.033443894843978e-8 3.598818339260528e-8 3.672394809255925e-8 3.7759906758367185e-8 3.944693871330115e-8
          3.352954756637313e-8 3.8093189890057066e-8 3.608836777768693e-8 4.066556539213998e-8 2.2144688166460345e-8 2.8477693321337715e-8
          3.661985597343318e-8 2.5081666078223756e-8 4.116054732582729e-8 4.38920811810033e-8 4.118816025488346e-8 4.460620022348058e-9
          5.2764731754678735e-9 5.153693908609588e-9 4.858243983581475e-9 8.590013589073638e-9 3.825159162058484e-9 3.735666665964441e-9
          4.738326655309547e-9 4.625251107262475e-9 2.624967367777514e-9 3.702107005926563e-9 3.6068246935776213e-9 3.4969160956393995e-9
          4.329789059064662e-9 3.3384493953616426e-9 7.924668178585607e-9 7.695778479885044e-9 6.127786778076213e-9 7.120313774001894e-9
          3.743348454120518e-9 4.3755006530215215e-9 3.765048105261518e-9 7.06651425789992e-9 3.1297839401695295e-9 3.871426115889912e-9
          2.18415298658843e-9 2.9468430352312835e-9 2.6819862137426527e-9 3.3069437580360734e-9 2.4827527596736018e-9 6.265881260634537e-9
          4.878137847570262e-9 5.242580978349542e-9 2.649638045323809e-9 3.094872546488595e-9 2.7250768630855503e-9 4.798899077599971e-9
          2.234746782347688e-9 2.7028168353595262e-9 1.5620485329192729e-9 1.9942462594945522e-9 2.017430996140731e-9 2.3871958275128085e-9
          1.7513166606098614e-9 4.19572920087587e-9 3.1535208508467004e-9 3.5576239259790646e-9 1.3351895432390428e-8 1.2900406180220211e-8
          1.1938425295593603e-8 2.058869374543508e-8 1.244401221948177e-8 1.203777264025935e-8 1.05688038075449e-8 1.0222160077316322e-8
          1.1046437355801618e-8 9.254222413297649e-9 1.9990207816549223e-8 1.916017518034449e-8 1.6460936630473348e-8 1.721949882960363e-8
          1.0522181146638446e-8 8.748180241117742e-9 1.5850166936441093e-8 9.61155034529626e-9 7.88275901821511e-9 7.912539536197652e-9
          6.361708167509853e-9 1.4603695627151218e-8 1.2284304719509255e-8 1.1637213115570011e-8 3.160453484974759e-8 3.002309471554547e-8
          2.692637212923617e-8 4.233449909242951e-8 4.267402485258229e-8 4.024198084689901e-8 4.1193278291016386e-8 2.9878030217083044e-8
          2.8576385378423475e-8 2.6533792905366622e-8 2.551048601812804e-8 2.5493695217103463e-8 2.253435538965925e-8 3.914783196746582e-8
          3.8187022796598716e-8 3.61595025455518e-8 3.4871259748443654e-8 2.2836077160467813e-8 1.765724085616514e-8 3.598028755001579e-8
          3.199608339263607e-8 3.258756913073386e-8 2.1258468099895318e-8 1.8342400616893984e-8 1.643238495644123e-8 1.4047308534679741e-8
          2.8999216083797505e-8 2.6180524178137175e-8 2.198773643817963e-8 7.057889696143091e-9 5.379003048192788e-9 9.931923006765836e-9
          6.277900526363697e-9 4.898052066201697e-9 4.7447120807197e-9 3.6168632064584306e-9 8.989675632161302e-9 7.259745867833843e-9
          6.679944807488031e-9 1.3482166799313936e-8 1.0037827508906373e-8 1.7394469309718283e-8 1.2367871082495686e-8 1.0279160661054015e-8
          9.049436132046744e-9 7.265381241723656e-9 1.619453206459558e-8 1.383342818037379e-8 1.1629826200771751e-8 3.903062699625499e-8
          4.023046618831386e-8 4.051454515947491e-8 4.181985622826364e-8 4.153249114719325e-8 4.2749030043098324e-8 3.3080606079624886e-8
          3.605313758994688e-8 3.805890498702213e-8 4.111266270592661e-8 4.140135123949886e-8 4.259931194261183e-8 4.1443139807253564e-8
          4.2205043801204266e-8 4.281767840716628e-8 4.116040192262606e-8 3.620351861290108e-8 3.959976795805349e-8 4.0476862284345574e-8
          4.511826509357779e-8 3.883390915854432e-8 3.865498945015132e-8 3.603314140307487e-8 3.151077822927531e-8 4.270107490444888e-8
          4.377203425798532e-8 4.220249349731343e-8 3.7444745487306264e-8 3.4717147923956055e-8 2.8307237286572746e-8 2.5514510325092307e-8
          4.3576006741273937e-8 4.155873379438133e-8 3.397362320482674e-8 2.3603503525143865e-8 3.0625925605918016e-8 2.6142616343246494e-8
          3.2865023225699745e-8 3.970744526125577e-8 4.2339494677358866e-8 1.677254979111843e-8 2.6932483555987666e-8 2.9557155122226528e-8
          3.906126911402844e-8 2.8700928316841502e-8 3.464005848929956e-8 3.020108975316977e-8 3.5670144767205095e-8 4.418732391667515e-8
          4.489031831455044e-8 2.3967684983367518e-8 3.1936403619985456e-8 3.3354174870191296e-8 4.359425692472903e-8 4.384412080238542e-8
          4.554045394812771e-8 4.592169876895145e-8 4.1246904808336e-8 4.397362256294594e-8 4.579809673035984e-8 4.691712421869191e-8
          4.616866295539339e-8 4.518021610462813e-8 3.7896205100918007e-8 3.522134296570423e-8 4.6690322641678385e-8 4.615117933206463e-8
          3.9346327588736916e-8 2.20486481358732e-8 1.5699931997780112e-8 2.590570577368603e-8 2.0502229813520606e-8 1.7604955559922057e-8
          1.4373002676982272e-8 1.1940231238442341e-8 2.4290955828364623e-8 2.1120965417157314e-8 1.6727977687748033e-8 2.8641865801529787e-8
          1.9988400175429505e-8 2.9939253577833177e-8 2.7006744070311705e-8 2.3670577294996547e-8 1.838185915425662e-8 1.5462870289077445e-8
          2.8138592421760006e-8 2.4596614517995165e-8 1.9064567136468886e-8 2.141919127312119e-7 1.0936143451076101e-7 9.172808978889632e-8
          1.8256981481064326e-7 2.4306060980952976e-7 1.9970095559971745e-7 5.83641751482173e-8 1.1028694425492649e-7 9.030353061720068e-8
          1.723178241594611e-7 4.426978036889762e-8 3.704766469121978e-8 3.0990911323932316e-8 1.1864817994514473e-7 1.6797174141077263e-7
          1.5717106528459865e-7 1.2702118952738996e-7 6.918786860849348e-8 8.90120141583759e-8 7.035203842039656e-8
        </DataArray>
        <DataArray type="Float64" Name="gradient_matprop_error" format="ascii" RangeMin="0" RangeMax="0">
          0 0 0 0 0 0
          0 0 0 0 0 0
          0 0 0 0 0 0
          0 0 0 0 0 0
          0 0 0 0 0 0
          0 0 0 0 0 0
          0 0 0 0 0 0
          0 0 0 0 0 0
          0 0 0 0 0 0
          0 0 0 0 0 0
          0 0 0 0 0 0
          0 0 0 0 0 0
          0 0 0 0 0 0
          0 0 0 0 0 0
          0 0 0 0 0 0
          0 0 0 0 0 0
          0 0 0 0 0 0
          0 0 0 0 0 0
          0 0 0 0 0 0
          0 0 0 0 0 0
          0 0 0 0 0 0
          0 0 0 0 0 0
          0 0 0 0 0 0
          0 0 0 0 0 0
          0 0 0 0 0 0
          0 0 0 0 0 0
          0 0 0 0 0 0
          0 0 0 0 0 0
          0 0 0 0 0 0
          0 0 0 0 0 0
          0 0 0 0 0 0
          0 0 0 0 0 0
          0 0 0 0 0 0
          0 0 0 0 0 0
          0 0 0 0 0 0
          0 0 0 0 0 0
          0 0 0 0 0 0
          0 0 0 0 0 0
          0 0 0 0 0 0
          0 0 0 0 0 0
          0 0 0 0 0 0
          0 0 0 0 0 0
          0 0 0 0 0 0
          0 0 0 0 0 0
          0 0 0 0 0 0
          0 0 0 0 0 0
          0 0 0 0 0 0
          0 0 0 0 0 0
          0 0 0 0 0 0
          0 0 0 0 0 0
          0 0 0 0 0 0
          0 0 0 0 0 0
          0 0 0 0 0 0
          0 0 0 0 0 0
          0 0 0 0 0 0
          0 0 0 0 0 0
          0 0 0 0 0 0
          0 0 0 0 0
        </DataArray>
        <DataArray type="Float64" Name="initial_marker" format="ascii" RangeMin="0" RangeMax="2">
          2 2 2 2 2 2
          0 0 0 0 0 0
          2 2 0 2 2 2
          2 0 1 1 1 2
          2 2 2 0 0.5 0
          2 1.6666666666666667 2 2 2 2
          2 2 2 2 2 2
          2 1.3333333333333333 2 2 2 2
          2 2 2 0 0 1
          0.75 0 1 0.5 0 0.5
          0 2 2 2 2 0
          0.25 0 0 0 0 0
          1 0.5 0.3333333333333333 2 2 2
          2 2 2 2 2 2
          2 2 2 2 2 2
          2 2 2 2 2 2
          2 2 2 2 2 2
          2 2 2 2 2 2
          2 2 2 2 2 2
          2 2 2 2 2 2
          2 2 1.5 2 2 2
          2 2 2 2 2 1
          1.5 1.5 2 2 2 2
          0 1 1 2 0 1
          0 1 0 1 1 2
          2 2 0 0.5 0 1.5
          0 0.5 0 0.5 0 0
          0 1.5 1.5 0.6666666666666666 2 2
          2 2 2 2 2 2
          2 2 2 2 2 2
          2 2 2 2 2 2
          2 2 2 2 2 2
          2 2 2 2 2 2
          2 2 2 2 2 2
          2 2 2 2 2 2
          2 2 2 2 2 2
          2 2 2 2 1.5 2
          2 2 1.5 1.5 2 2
          2 2 2 2 2 2
          2 2 2 2 2 2
          2 2 2 2 2 2
          2 2 2 2 2 2
          2 2 2 2 2 2
          2 2 2 2 2 2
          2 2 2 2 2 2
          2 2 2 2 2 2
          2 2 2 2 2 2
          2 2 2 2 2 2
          2 2 2 2 2 2
          2 2 2 2 2 2
          2 2 2 2 2 2
          2 2 2 2 2 2
          2 2 2 2 2 2
          2 2 2 2 2 2
          2 2 2 1 0.5 0.5
          0.75 2 1.75 0.25 0.25 0.75
          0.75 0 0 0 2 2
          2 2 2 2 2
        </DataArray>
        <DataArray type="Float64" Name="markers_norefine" format="ascii" RangeMin="0" RangeMax="2">
          2 0 0 1 0 1
          0 0 0 0 0 0
          0 0 0 0 0 2
          0 0 0 0 0 0
          0 0 0 0 0 0
          0 0 0 0 0 0
          0 0 0 0.5 0 0
          0 0 0 2 2 0.25
          2 0 0 0 0 0
          0 0 0 0 0 0
          0 0 0 0 0 0
          0 0 0 0 0 0
          0 0 0 0 0 0
          0 0 0 1 0 0
          0 0 0 0 0 2
          2 2 1 0 0 2
          2 2 0.5 0 0 0
          0 2 0 2 2 1.5
          2 0.5 0 1.25 2 2
          2 2 1.75 1.5 2 0
          0 0 0 0 0 0
          0 0 0 0 0 0
          0 0 0 0 0 0
          0 0 0 0 0 0
          0 0 0 0 0 0
          0 0 0 0 0 0
          0 0 0 0 0 0
          0 0 0 0 0 0
          0 0 0 0 0 0
          0 0 0 0 0 0
          0 0 0 0 0 0
          0 0 0 0 0 0
          0 2 1.5 0.6666666666666666 0.5 0
          0 0 0 0 0 0.5
          0.25 0 0 0 0 0
          0 0 0 0 0 0
          0 0 0 0 0 0
          0 0 0 0 0 0
          0 0 0 0 0 0
          0 0 0 0 0 2
          1.75 2 1.5 1.25 1 2
          2 2 2 1.5 1.25 1
          0.75 0.75 0.25 2 2 1.75
          1.75 0.5 0.5 0 0 1
          1 0 0.25 0 0 0
          0.75 0.25 0 2 2 2
          2 2 2 2 2 2
          2 2 2 2 2 2
          1.75 2 2 2 2 1.5
          1.25 1 0.3333333333333333 2 1.5 2
          1 0.75 0 0 1 1
          0 0 0 0 0 0
          0 0 0 0 0 0
          0 0 0 0 0 0
          0 0 0 0 0 0
          0 0 0 0 0 0
          0 0 0 0 0 0
          0 0 0 0 0
        </DataArray>
        <DataArray type="Float64" Name="markers_mustrefine" format="ascii" RangeMin="0" RangeMax="2">
          2 2 2 2 2 2
          0 0 0 0 0 0
          2 2 0 2 2 2
          2 0 1 1 1 2
          2 2 2 0 0.5 0
          2 1.6666666666666667 2 2 2 2
          2 2 2 2 2 2
          2 1.3333333333333333 2 2 2 2
          2 2 2 0 0 1
          0.75 0 1 0.5 0 0.5
          0 2 2 2 2 0
          0.25 0 0 0 0 0
          1 0.5 0.3333333333333333 2 2 2
          2 2 2 2 2 2
          2 2 2 2 2 2
          2 2 2 2 2 2
          2 2 2 2 2 2
          2 2 2 2 2 2
          2 2 2 2 2 2
          2 2 2 2 2 2
          2 2 1.5 2 2 2
          2 2 2 2 2 1
          1.5 1.5 2 2 2 2
          0 1 1 2 0 1
          0 1 0 1 1 2
          2 2 0 0.5 0 1.5
          0 0.5 0 0.5 0 0
          0 1.5 1.5 0.6666666666666666 2 2
          2 2 2 2 2 2
          2 2 2 2 2 2
          2 2 2 2 2 2
          2 2 2 2 2 2
          2 2 2 2 2 2
          2 2 2 2 2 2
          2 2 2 2 2 2
          2 2 2 2 2 2
          2 2 2 2 1.5 2
          2 2 1.5 1.5 2 2
          2 2 2 2 2 2
          2 2 2 2 2 2
          2 2 2 2 2 2
          2 2 2 2 2 2
          2 2 2 2 2 2
          2 2 2 2 2 2
          2 2 2 2 2 2
          2 2 2 2 2 2
          2 2 2 2 2 2
          2 2 2 2 2 2
          2 2 2 2 2 2
          2 2 2 2 2 2
          2 2 2 2 2 2
          2 2 2 2 2 2
          2 2 2 2 2 2
          2 2 2 2 2 2
          2 2 2 1 0.5 0.5
          0.75 2 1.75 0.25 0.25 0.75
          0.75 0 0 0 2 2
          2 2 2 2 2
        </DataArray>
        <DataArray type="Float64" Name="gradient_marker" format="ascii" RangeMin="0" RangeMax="1">
          0 0.75 0.5 0.5 0.75 0.5
          0.5 0.5 0.5 0.5 0.5 0.5
          1 1 0.625 1 1 1
          1 0 0 0 0 1
          1 0.6666666666666666 0.5 0 0 0
          0 0 0 1 1 1
          1 0.75 0.75 0.5 0.375 0.25
          0.25 0 0.75 0 0 0.5
          0 1 1 0 0 0
          0 0.5 0.75 0.75 0 0
          0.75 0.25 0.25 1 0.125 0
          0 0.5 0.625 0 0 0.5
          0 0.875 0 0.5 0.5 1
          1 0.375 1 0.25 0.25 1
          0.375 0.125 1 0.375 1 0
          0 1 1 0.25 1 0
          0 1 0.25 0.5 1 0.5
          1 0 0 0 0 0
          0 0 0 0 0 0
          0 0 0 0 0 0
          0 0 0 0 0.5 0.5
          0.5 0.5 1 1 1 0.5
          0.5 1 0.5 0.5 1 0.5
          0 0 0 0 0.5 0.5
          1 1 0.5 0.5 1 0.5
          1 0.5 0 0 0 0
          0.5 0.5 1 1 0.5 0.5
          1 0.5 1 0.5 0 0
          0 0 0.5 0.5 1 1
          0.5 1 0.5 0.5 1 0.5
          0 0 0 0.5 1 0.5
          1 0.5 1 0.5 0 0
          0 0 0 0 0 0.5
          0.5 1 1 0.5 1 0.5
          0.5 1 0.5 0 0 0
          0 0 0.5 1 0.5 1
          0.5 1 0.5 0 0 0
          0.5 1 0.5 1 0.5 1
          0.5 0 0 0 0.5 1
          0.5 1 0.5 1 0.5 0
          0 0 0 0 0 0
          0 0 0 0.5 0.5 1
          1 0.5 1 0.5 0.5 1
          0.5 0 0 0 0 0
          0 0 0.5 1 0.5 1
          0.5 1 0.5 0 0 0
          0 0 0 0 0 0
          0 0.5 0.5 1 1 0.5
          1 0.5 0.5 1 0.5 0
          0 0 0 0 0 0
          0.5 1 0.5 1 0.5 1
          0.5 0 0 0 0.5 1
          0.5 1 0.5 1 0.5 0
          0 0 0.5 1 0.5 1
          0.5 1 0.5 0.75 0.25 0.25
          0.625 1 0.875 0.25 0.5 0.375
          0.75 0.5 0 0.5 1 1
          1 0.875 0.25 0.625 0.5
        </DataArray>
        <DataArray type="Float64" Name="gradient_matprop_marker" format="ascii" RangeMin="0" RangeMax="0">
          0 0 0 0 0 0
          0 0 0 0 0 0
          0 0 0 0 0 0
          0 0 0 0 0 0
          0 0 0 0 0 0
          0 0 0 0 0 0
          0 0 0 0 0 0
          0 0 0 0 0 0
          0 0 0 0 0 0
          0 0 0 0 0 0
          0 0 0 0 0 0
          0 0 0 0 0 0
          0 0 0 0 0 0
          0 0 0 0 0 0
          0 0 0 0 0 0
          0 0 0 0 0 0
          0 0 0 0 0 0
          0 0 0 0 0 0
          0 0 0 0 0 0
          0 0 0 0 0 0
          0 0 0 0 0 0
          0 0 0 0 0 0
          0 0 0 0 0 0
          0 0 0 0 0 0
          0 0 0 0 0 0
          0 0 0 0 0 0
          0 0 0 0 0 0
          0 0 0 0 0 0
          0 0 0 0 0 0
          0 0 0 0 0 0
          0 0 0 0 0 0
          0 0 0 0 0 0
          0 0 0 0 0 0
          0 0 0 0 0 0
          0 0 0 0 0 0
          0 0 0 0 0 0
          0 0 0 0 0 0
          0 0 0 0 0 0
          0 0 0 0 0 0
          0 0 0 0 0 0
          0 0 0 0 0 0
          0 0 0 0 0 0
          0 0 0 0 0 0
          0 0 0 0 0 0
          0 0 0 0 0 0
          0 0 0 0 0 0
          0 0 0 0 0 0
          0 0 0 0 0 0
          0 0 0 0 0 0
          0 0 0 0 0 0
          0 0 0 0 0 0
          0 0 0 0 0 0
          0 0 0 0 0 0
          0 0 0 0 0 0
          0 0 0 0 0 0
          0 0 0 0 0 0
          0 0 0 0 0 0
          0 0 0 0 0
        </DataArray>
        <DataArray type="Float64" Name="combo" format="ascii" RangeMin="0" RangeMax="2">
          2 0.75 0.5 1.5 0.75 1.5
          0.5 0.5 0.5 0.5 0.5 0.5
          1 1 0.625 1 1 2
          1 0 0 0 0 1
          1 0.6666666666666666 0.5 0 0 0
          0 0 0 1 1 1
          1 0.75 0.75 1 0.375 0.25
          0.25 0 0.75 2 2 0.75
          2 1 1 0 0 0
          0 0.5 0.75 0.75 0 0
          0.75 0.25 0.25 1 0.125 0
          0 0.5 0.625 0 0 0.5
          0 0.875 0 0.5 0.5 1
          1 0.375 1 1.25 0.25 1
          0.375 0.125 1 0.375 1 2
          2 2 1.5 0.25 1 2
          2 2 0.75 0.5 1 0.5
          1 2 0 2 2 1.5
          2 0.5 0 1.25 2 2
          2 2 1.75 1.5 2 0
          0 0 0 0 0.5 0.5
          0.5 0.5 1 1 1 0.5
          0.5 1 0.5 0.5 1 0.5
          0 0 0 0 0.5 0.5
          1 1 0.5 0.5 1 0.5
          1 0.5 0 0 0 0
          0.5 0.5 1 1 0.5 0.5
          1 0.5 1 0.5 0 0
          0 0 0.5 0.5 1 1
          0.5 1 0.5 0.5 1 0.5
          0 0 0 0.5 1 0.5
          1 0.5 1 0.5 0 0
          0 2 1.5 0.6666666666666666 0.5 0.5
          0.5 1 1 0.5 1 1
          0.75 1 0.5 0 0 0
          0 0 0.5 1 0.5 1
          0.5 1 0.5 0 0 0
          0.5 1 0.5 1 0.5 1
          0.5 0 0 0 0.5 1
          0.5 1 0.5 1 0.5 2
          1.75 2 1.5 1.25 1 2
          2 2 2 1.75 1.5 1.5
          1.375 1.125 1.125 2 2 1.875
          1.875 0.5 0.5 0 0 1
          1 0 0.75 1 0.5 1
          1.125 1.125 0.5 2 2 2
          2 2 2 2 2 2
          2 2 2 2 2 2
          1.875 2 2 2 2 1.5
          1.25 1 0.3333333333333333 2 1.5 2
          1.25 1.375 0.5 1 1.25 1.5
          0.5 0 0 0 0.5 1
          0.5 1 0.5 1 0.5 0
          0 0 0.5 1 0.5 1
          0.5 1 0.5 0.75 0.25 0.25
          0.625 1 0.875 0.25 0.5 0.375
          0.75 0.5 0 0.5 1 1
          1 0.875 0.25 0.625 0.5
        </DataArray>
        <DataArray type="Float64" Name="dHdT" format="ascii" RangeMin="25.910882618643647" RangeMax="55.805023938158484">
          46.277051052310824 30.550698160188333 28.972099538460554 48.633500610718656 35.37411728615274 46.782513748212395
          25.97827057154124 25.956830747864053 26.125287623159053 26.062919677244984 25.910882618643647 25.974005671638604
          27.672218195441353 26.992545583994634 26.24289758596818 39.95638998374388 32.86805469288487 46.3435264010152
          38.280094682713354 26.744665902303794 27.477936269928286 27.352367189198223 27.05853068513357 34.059891963353145
          33.33001901421933 30.737547190329064 31.42075254285379 26.404224500739485 26.709170996209004 26.528078730619022
          29.3358634126159 28.046868061059627 28.430367804609716 38.222352458232464 36.314997373587445 36.84137124706161
          35.12858000365141 33.329777596582794 32.3014695228614 43.07027233741918 30.852897676389958 29.913420825298047
          29.453882448556744 28.131487065337534 32.41176488745292 50.28650898065435 55.30813415541091 42.02062650633225
          50.26633195028133 34.9698178752778 36.37970428049567 26.600389308956927 26.551551256937476 27.115455521860422
          27.01828375542911 26.242627088463642 26.459206371666173 26.40928594233476 26.430820935307235 26.785274783287925
          26.287807954702817 29.391973921141144 28.99464990639803 27.458829284611483 28.123490070750073 26.282433216258887
          26.510771015056154 26.086151370068116 26.177412020517025 26.20593776682132 26.38818679636998 26.153648531626985
          27.2480333424733 26.532493285254283 26.768090325225533 34.97646793166215 33.68798958472172 32.00231373361201
          30.798383450260268 30.96280017176523 28.7386432403213 45.67588247027449 40.448783680621986 37.085220103541
          35.13579206011616 28.778127735618543 27.35350902925519 31.01907957613939 28.73925044531991 51.08873978895598
          53.83952424489951 55.49437232403226 49.640740025465306 39.33573296346953 36.52326839275552 46.27157386741122
          52.0791488544576 54.16750839316089 43.481536982367864 33.45384994742181 30.5195731310298 34.48452987512941
          31.465619594697717 54.85454071318472 40.1292278603906 55.42323637959418 55.805023938158484 52.683710013122166
          51.7951526948126 44.479008458918955 39.77740838831636 51.93439507328953 46.25024116323954 46.532399672588554
          51.7624257249208 46.23000111868416 54.62394236439732 52.53759146089059 54.207883639662896 27.084721966138385
          27.490770673546223 27.45253480303736 27.346368146889034 28.506133363228283 26.939789051223613 26.9161087864494
          27.283018567374203 27.248500495274108 26.627780159574662 26.91773733454029 26.890197979808278 26.849722816649145
          27.152227831103776 26.812961999003967 28.2558441028409 28.18314031295121 27.615211607440273 27.986841172531236
          26.89549769810162 27.185843073324786 26.99481499301202 27.975258075864904 26.748649647670046 27.008390271876895
          26.49789582613668 26.69954037870749 26.62732105869145 26.839195282085043 26.56906141653425 27.706804985449033
          27.237594967308148 27.3927786535616 26.612385547132938 26.800881940067743 26.70538267951144 27.278964200987108
          26.50459475191097 26.670564616454186 26.31857180140834 26.443178519072475 26.44482957015603 26.589045973458532
          26.38404958955975 27.089687054040006 26.75906795404037 26.9101442456445 30.61985939415493 30.42481256905018
          29.934641678572298 33.8306692068783 30.066018925480385 29.89449716173048 29.077839686101697 28.946823746825736
          29.45417808297362 28.600706287731022 33.4486631877586 33.146097819099076 31.67099994833061 32.2572716523903
          29.285174944914708 28.603366658013066 31.672368461334056 28.870851847353833 28.141202844792772 28.263353385329925
          27.667095421604785 30.964964945936252 29.71985863650024 29.6704050914168 36.77225153981647 36.65810218785631
          36.1306388947607 55.02483486787149 52.657084954911426 45.916857311062266 45.84401210290173 36.43640199535763
          36.23324092618438 35.4664384471236 35.14028547123462 35.500679188016306 34.115770774730215 42.918292635485656
          41.6427906759528 38.9619969755439 38.8139836270298 34.830621386227364 32.71054130361203 39.41233613102581
          37.839689307426475 37.4259830981995 34.01259065668813 32.39799492683383 31.91722761080795 30.474668099543422
          36.520950927384874 35.242649508877946 34.49878982586899 27.986841905816835 27.46419710635614 29.02737352913136
          27.71529574936187 27.240638877087378 27.25431451729631 26.88727055643369 28.63639354884732 27.95155490772145
          27.858728814199186 30.57052123530022 29.061978579039433 32.68163352206514 29.98682913596441 28.97174826339012
          28.6646392720555 27.969746778454137 31.86772635136296 30.405437431016757 29.687591874154833 54.418899722766014
          54.39337482716631 54.486759475903455 53.3014688444286 50.906287037903226 48.5931887875479 50.01347634568877
          52.03713245202989 53.02251743411609 54.69756176750879 53.314631555408134 51.24169871711064 49.652056463149464
          47.409760095454786 45.64054242902915 42.273889124710536 52.997178648248386 54.35331329280535 54.68127900137894
          52.69129021809573 43.286347470461955 41.5673033608275 39.12797079668407 37.48959547875648 49.92221066333985
          47.32450346498517 44.51008635003313 39.58875912265158 37.866234281316885 36.29854314241619 35.049148075900355
          44.44390781091276 41.468181529552545 37.962349110730806 46.24619804818253 47.08233291971955 46.21827325842897
          48.18535308235091 52.4208619734156 53.116896403756634 46.27840798264805 46.22006563480052 46.70960902550151
          51.41516238471834 47.10752883526713 50.41371941051247 50.5060395406998 53.449627990765435 53.83684427092264
          53.5515712723857 46.235453557884284 48.496520433557876 51.1866353432156 52.8204474473477 53.68479230960234
          51.661636284055746 50.446328463630046 43.922958094545805 54.68552210242308 53.25560241687356 52.70244272236246
          48.459489098063024 44.899902207619874 39.997494873886325 37.70588988912006 49.85825500623105 46.175284167927266
          40.95566216720303 34.717944434865856 31.627543025033884 35.963856824594885 33.83987483418302 32.1381374437221
          30.89373185532114 29.625044560794116 35.213227517819476 33.64111778934385 32.04749671431219 36.48438137285675
          33.650729175835764 36.6051000771249 35.88404544422217 34.52418262380827 32.831939545411586 31.207854316119608
          36.0745558643208 34.802843488507506 33.103030394750434 27.537409294344506 26.826168247879817 26.63017489517358
          27.21792226463908 31.791308694914825 30.24979332851431 26.26275501608601 26.60853718306064 27.05275563679563