<?xml version="1.0"?>
<VTKFile type="UnstructuredGrid" version="0.1" byte_order="LittleEndian" header_type="UInt32" compressor="vtkZLibDataCompressor">
  <UnstructuredGrid>
    <Piece NumberOfPoints="323" NumberOfCells="184">
      <PointData>
        <DataArray type="Int32" Name="libmesh_node_id" format="ascii" RangeMin="274" RangeMax="2560">
          516 517 524 525 538 539
          1014 1015 1016 1019 1022 1094
          1095 1097 1100 1102 1103 1104
          1105 1109 1110 1112 1113 1115
          1118 1119 1126 1127 1138 1139
          1146 1147 1294 1295 1300 1301
          1305 1310 1312 1724 1725 1726
          1727 1728 1729 1730 1731 1732
          1733 1734 1735 1736 1737 1748
          1749 1750 1751 1752 1753 1754
          1755 1756 1757 2230 2231 2232
          2233 2234 2235 2236 2237 2238
          2239 2247 2248 2249 2250 2251
          2252 2253 2264 2265 2266 2267
          2268 2269 2270 2271 2272 2273
          2281 2282 2283 2284 2285 2286
          2287 2288 2289 2290 2291 2292
          2293 2294 2295 2296 2297 2298
          2299 2300 2301 2302 2303 2304
          2305 2309 2310 2312 2313 2315
          2316 2317 2318 2319 2320 2321
          2322 2323 2324 2325 2326 2327
          2328 2329 2330 2331 2332 2333
          2335 2336 2337 2338 2339 2340
          2341 2342 2343 2344 2345 2346
          2347 2350 2356 2357 2358 2359
          2360 2361 2362 2380 2381 2382
          2383 2384 2385 2386 2387 2388
          2389 2397 2398 2399 2400 2401
          2402 2424 2425 2426 2427 2428
          2429 2430 2431 2432 2433 2434
          2435 2436 2437 2438 2439 2441
          2445 2471 2472 2473 2474 2475
          2476 2477 2478 2479 2480 2488
          2489 2492 2493 2529 2530 2531
          2532 2533 2534 2535 2536 2537
          2538 2549 2550 2553 2554 1010
          1011 1012 1013 1017 1018 526
          1128 1111 1129 1297 1298 274
          1106 1303 1023 1116 1714 1715
          1716 1719 1020 1722 1021 1740
          1741 1744 1746 2222 2223 2225
          1092 2228 1093 2241 2243 2245
          1096 2256 2257 2259 1098 2262
          1099 2275 2277 2279 1101 2306
          2307 2308 2311 1107 2314 1108
          2334 2348 2349 2351 2352 2353
          540 2354 2355 1114 2363 2364
          2365 2366 2367 2368 2369 2372
          2373 2376 2378 1117 2391 2393
          2395 2442 2443 2444 2446 2447
          2448 2463 2464 2466 1136 2469
          1137 2482 2486 2539 2540 2543
          2545 2546 2548 2556 2560
        </DataArray>
        <DataArray type="Float64" Name="bounds" format="ascii" RangeMin="0" RangeMax="0">
          0 0 0 0 0 0
          0 0 0 0 0 0
          0 0 0 0 0 0
          0 0 0 0 0 0
          0 0 0 0 0 0
          0 0 0 0 0 0
          0 0 0 0 0 0
          0 0 0 0 0 0
          0 0 0 0 0 0
          0 0 0 0 0 0
          0 0 0 0 0 0
          0 0 0 0 0 0
          0 0 0 0 0 0
          0 0 0 0 0 0
          0 0 0 0 0 0
          0 0 0 0 0 0
          0 0 0 0 0 0
          0 0 0 0 0 0
          0 0 0 0 0 0
          0 0 0 0 0 0
          0 0 0 0 0 0
          0 0 0 0 0 0
          0 0 0 0 0 0
          0 0 0 0 0 0
          0 0 0 0 0 0
          0 0 0 0 0 0
          0 0 0 0 0 0
          0 0 0 0 0 0
          0 0 0 0 0 0
          0 0 0 0 0 0
          0 0 0 0 0 0
          0 0 0 0 0 0
          0 0 0 0 0 0
          0 0 0 0 0 0
          0 0 0 0 0 0
          0 0 0 0 0 0
          0 0 0 0 0 0
          0 0 0 0 0 0
          0 0 0 0 0 0
          0 0 0 0 0 0
          0 0 0 0 0 0
          0 0 0 0 0 0
          0 0 0 0 0 0
          0 0 0 0 0 0
          0 0 0 0 0 0
          0 0 0 0 0 0
          0 0 0 0 0 0
          0 0 0 0 0 0
          0 0 0 0 0 0
          0 0 0 0 0 0
          0 0 0 0 0 0
          0 0 0 0 0 0
          0 0 0 0 0 0
          0 0 0 0 0
        </DataArray>
        <DataArray type="Float64" Name="gradient_error" format="ascii" RangeMin="4.752315132810124e-11" RangeMax="1.5837147121843025e-8">
          1.5512403076881245e-9 1.354027679684549e-9 5.417901686015329e-10 4.927939764930168e-10 3.613703827516064e-9 1.464574521274047e-9
          5.486722251155114e-10 5.57511739865215e-10 5.176570521935942e-10 5.851162897916545e-10 4.791368976283783e-10 1.2548198016579648e-9
          1.032740226611666e-9 6.089773977802445e-10 2.8540717780667407e-9 3.8953393277536795e-10 3.514651046886117e-10 3.9901556497991955e-10
          3.3294441094009034e-10 3.158638829856716e-10 2.4413645042226283e-10 1.1078807296000233e-9 8.794000770346012e-10 4.683635193947283e-10
          7.556141358986051e-10 5.587058667412079e-10 3.502624654649694e-10 3.001869310134763e-10 6.84846074033922e-9 5.5055485655489555e-9
          2.1493461519454513e-9 1.688113034122145e-9 4.257731257297698e-10 3.937287719590738e-10 3.2360439323854374e-10 1.5659384728497045e-10
          5.966532222637548e-10 2.550406486393044e-10 1.6508559271924356e-10 2.224709516336668e-10 2.1649654529077334e-10 3.1411706762081176e-10
          3.0484986342618565e-10 1.7324798039948573e-10 2.399945940450449e-10 2.3323122840642645e-10 2.0043524887445334e-10 2.794419062054288e-10
          2.13905438840708e-10 6.005913657420319e-10 5.793734068331553e-10 4.09634406311512e-10 5.206380869329833e-10 1.834603228874195e-10
          2.43256019803646e-10 1.4882788744533054e-10 1.9157088719577658e-10 1.7657228697381213e-10 2.232108864279938e-10 1.8179875947794516e-10
          4.3485947336909743e-10 3.102203525869099e-10 3.8307185562539067e-10 1.1319153386754697e-9 1.0842384947780267e-9 6.876287768081501e-10
          6.591868654338407e-10 9.55050100680241e-10 5.819177769554278e-10 2.0791674513992914e-9 1.9773821244894334e-9 1.1941246009974824e-9
          1.706221939454627e-9 7.792494900264887e-10 4.76941166196566e-10 5.948611235419158e-10 3.6685659163939166e-10 1.3496840705397696e-9
          8.207059455505615e-10 9.95072774820075e-10 3.6707867051933125e-9 3.472325451571936e-9 2.2118614146058547e-9 2.091861816975287e-9
          2.9427449132084697e-9 1.7737643094385814e-9 5.956068086739372e-9 5.628206004668351e-9 3.408128079176925e-9 4.728998260453859e-9
          2.2554320138039464e-9 1.3636911076284284e-9 1.5975195054598783e-9 9.717349927741653e-10 3.5401459321529024e-9 2.135476938708339e-9
          2.4184093513923653e-9 2.7687060485883796e-10 2.6677536758614665e-10 3.965428891842344e-10 3.8056133601659745e-10 1.5047670950379956e-10
          2.2191283716929543e-10 2.133806446330266e-10 2.3929407374034156e-10 3.3727644963585514e-10 1.9045543965627242e-10 7.227170983902676e-10
          6.887297315744188e-10 3.810967985461288e-10 5.98034910091549e-10 8.701327423479665e-11 8.429576836503962e-11 1.213484043570161e-10
          1.1699494227439682e-10 7.686011765689539e-11 1.051604331748301e-10 2.1245858046824277e-10 2.037134584386409e-10 1.7983607231287675e-10
          2.0207274804610748e-10 2.789504967753541e-10 1.1659758633962496e-10 1.5779716610955298e-10 1.6133723761536968e-10 2.1718653322630766e-10
          1.3906530904336088e-10 4.794092412934079e-10 2.6785604039938046e-10 3.601159868157423e-10 6.7086845585753e-11 8.806762872599524e-11
          5.2289495773487764e-11 6.551722436521661e-11 6.203171835299783e-11 7.845587129410777e-11 6.124217192257062e-11 1.4551421680132716e-10
          1.2153928009565884e-10 1.2624194519926608e-9 1.1949340938394808e-9 6.864081414360998e-10 6.509501599773632e-10 1.0165504823419233e-9
          5.57024837208422e-10 2.0582867177681656e-9 1.9402224139834764e-9 1.0452285971049778e-9 1.625707946493421e-9 3.576518208470907e-10
          3.403240585891061e-10 2.939717420929918e-10 7.875835497333806e-10 4.3569450456280194e-10 5.676373936423502e-10 3.1711809090364944e-10
          1.2221939413442786e-9 6.673261292956284e-10 8.460045412556136e-10 3.2799726550561267e-10 4.2975171846943276e-10 2.0699796058718426e-10
          2.688597260888263e-10 2.7997540572806773e-10 3.547416194281126e-10 2.2479800144067713e-10 6.927885137209622e-10 4.285154658305197e-10
          5.169726175043026e-10 1.0722955119580945e-9 6.577861404707114e-10 6.919659145112805e-10 4.291604808699726e-10 1.560129942319513e-9
          9.516787773220066e-10 1.2467494133629775e-10 1.610203144533272e-10 9.921890939943854e-11 1.234685932970299e-10 1.0891288636684328e-10
          1.3559543958199747e-10 1.0880506947061486e-10 2.558532829272545e-10 1.6694092315976576e-10 1.9438884832041448e-10 3.897199692149519e-10
          2.190277422007809e-10 2.5726333919243653e-10 1.680515138339695e-10 5.58140589892373e-10 3.131454268880457e-10 9.480904772310046e-11
          7.764950593110438e-11 8.592354424989992e-9 8.159943391387013e-9 5.294703158087943e-9 5.004950511567584e-9 6.888532950279633e-9
          4.1868108320535165e-9 1.0876543643099017e-8 1.0442948996948782e-8 6.519272572884338e-9 8.966417106799406e-9 5.1034436878492986e-9
          3.083791227887496e-9 6.655433691120755e-9 4.038366951432488e-9 3.036043015107782e-9 2.8619760242427286e-9 1.6314054605395992e-9
          1.5364907187333717e-9 2.384148556313292e-9 1.2807206719445358e-9 3.978704849092176e-9 3.7656728617958085e-9 2.0276645121076372e-9
          3.147912137474466e-9 1.7576490291814968e-9 9.508785719772677e-10 2.299895536466694e-9 1.2377434060347513e-9 1.3432704177042064e-9
          1.2491105712123193e-9 8.443861164461911e-10 7.800860804266071e-10 1.023526436524497e-9 1.1359356091429009e-9 2.171360731447161e-10
          2.1834238142526913e-10 1.4058294651557493e-10 1.9936398961107367e-10 1.7941713820435665e-10 1.646040411670218e-10 1.4354572426525586e-10
          1.499821931837064e-10 1.2754315514152308e-9 1.0034541567984543e-9 1.7053667436345005e-9 3.3610408647462533e-10 4.968013705977888e-10
          4.817558723294766e-10 4.402593481595739e-10 9.401980986045744e-10 9.063795233854929e-10 8.127091599661874e-10 2.860842788289336e-10
          3.8211033005796536e-10 3.504123378579473e-10 6.779529043047366e-10 1.77359010617682e-9 1.6982655666211141e-9 1.4943756101404071e-9
          3.2750608249603225e-9 3.115181203514098e-9 2.6879043386029036e-9 1.2184972565659726e-9 9.301672860203244e-10 2.124033113018878e-9
          1.562305296522452e-9 5.7434349051600554e-9 5.439815058396357e-9 4.621786918224405e-9 9.178779817324818e-9 8.70142597103664e-9
          7.361762166457978e-9 3.547524393811672e-9 2.5113356218705437e-9 5.543664028905072e-9 3.796973825515757e-9 4.752315132810124e-11
          6.559902789910262e-11 6.257325364989493e-11 6.29624118697457e-11 1.0989913429489508e-10 1.0471003515414603e-10 1.1146172862166198e-10
          8.897490038221783e-11 1.7980865910930246e-10 1.714825252127343e-10 1.491331688426958e-10 5.677750949780736e-10 5.367320193704764e-10
          2.7912845363027544e-10 2.647069181319724e-10 4.547308941443402e-10 2.265194874807582e-10 2.3232107910022088e-10 1.194044885981305e-10
          1.7037747204873298e-10 8.937213521953642e-11 3.495976907140077e-10 1.770189732523407e-10 2.4958789049441596e-10 5.116229749412049e-10
          6.703098485705879e-10 5.514694450170667e-10 1.0844976594196489e-9 1.3257080790959328e-9 1.682648738056602e-9 1.0815592100702532e-9
          2.4483489984255446e-9 1.1800893905899734e-10 5.238629301881531e-11 6.380320821704955e-11 9.495790436610836e-11 5.256117682206182e-11
          1.689085399648887e-10 1.2913372861759509e-8 1.2348118828177071e-8 1.0574620399433626e-8 1.5837147121843025e-8 1.538938814904757e-8
          1.353694608036383e-8 7.931449344890302e-9 1.0252963753706087e-8 8.285916229267096e-10 7.810005531245664e-10 6.541702391694559e-10
          1.0899833197490883e-9 1.0272437537555305e-9 8.564030338761608e-10 4.917117051498307e-10 6.34304808453485e-10
        </DataArray>
        <DataArray type="Float64" Name="gradient_matprop_error" format="ascii" RangeMin="0" RangeMax="0">
          0 0 0 0 0 0
          0 0 0 0 0 0
          0 0 0 0 0 0
          0 0 0 0 0 0
          0 0 0 0 0 0
          0 0 0 0 0 0
          0 0 0 0 0 0
          0 0 0 0 0 0
          0 0 0 0 0 0
          0 0 0 0 0 0
          0 0 0 0 0 0
          0 0 0 0 0 0
          0 0 0 0 0 0
          0 0 0 0 0 0
          0 0 0 0 0 0
          0 0 0 0 0 0
          0 0 0 0 0 0
          0 0 0 0 0 0
          0 0 0 0 0 0
          0 0 0 0 0 0
          0 0 0 0 0 0
          0 0 0 0 0 0
          0 0 0 0 0 0
          0 0 0 0 0 0
          0 0 0 0 0 0
          0 0 0 0 0 0
          0 0 0 0 0 0
          0 0 0 0 0 0
          0 0 0 0 0 0
          0 0 0 0 0 0
          0 0 0 0 0 0
          0 0 0 0 0 0
          0 0 0 0 0 0
          0 0 0 0 0 0
          0 0 0 0 0 0
          0 0 0 0 0 0
          0 0 0 0 0 0
          0 0 0 0 0 0
          0 0 0 0 0 0
          0 0 0 0 0 0
          0 0 0 0 0 0
          0 0 0 0 0 0
          0 0 0 0 0 0
          0 0 0 0 0 0
          0 0 0 0 0 0
          0 0 0 0 0 0
          0 0 0 0 0 0
          0 0 0 0 0 0
          0 0 0 0 0 0
          0 0 0 0 0 0
          0 0 0 0 0 0
          0 0 0 0 0 0
          0 0 0 0 0 0
          0 0 0 0 0
        </DataArray>
        <DataArray type="Float64" Name="initial_marker" format="ascii" RangeMin="0" RangeMax="2">
          0 0 1.5 0.5 2 2
          0 0 0 0 1.25 2
          2 2 2 1 0.5 2
          2 0 1.75 2 2 2
          0 0.75 0 0.25 2 2
          2 2 0 0 0 0
          0 0 0 0 0 1
          1 0 1 1 0 0.75
          0.5 2 2 2 1.75 0
          0.25 0 0 0 0 0
          1.25 1.3333333333333333 1 2 2 2
          2 2 2 2 2 2
          2 2 2 1.75 1.5 2
          2 2 2 2 2 2
          2 2 2 2 2 2
          2 2 2 2 2 2
          2 2 2 2 2 1.5
          2 1.75 2 2 1.5 2
          2 2 2 1 0.5 1.5
          1.25 0 1 2 2 2
          1.5 1.75 0.5 1.25 0.5 1.25
          1 2 2 2 0 0.75
          0 0.5 0 0.5 0 1.75
          1.3333333333333333 2 2 2 2 2
          2 2 2 2 2 2
          2 2 2 2 2 2
          2 2 2 0.5 1.25 0
          0.75 0 1 0.5 2 1.75
          1.6666666666666667 2 2 1.75 1.5 2
          2 0 0.5 0 0.5 0
          0 0 1.5 1.3333333333333333 0.6666666666666666 2
          1.75 1.25 1 2 2 0.5
          0 2 2 2 2 2
          2 2 2 2 2 2
          2 2 2 2 2 2
          2 2 2 2 2 2
          2 2 2 2 2 0
          0 0 0 0 0 0
          0 0.5 0 0 0 0
          0 0 1.25 0 0 1
          1 1 2 2 2 0
          0.75 0.5 1.75 2 2 2
          2 2 2 2 2 2
          2 2 2 2 2 2
          2 2 2 2 2 0
          1 0.75 0.6666666666666666 2 1.75 1.5
          1.6666666666666667 2 2 2 2 2
          2 2 2 2 2 2
          1.75 1.5 2 2 2 1
          1.5 1 2 1.5 2 2
          2 1 0 0.5 0.5 0
          1.75 2 2 2 2 2
          2 2 2 2 2 2
          2 2 2 2 2
        </DataArray>
        <DataArray type="Float64" Name="markers_norefine" format="ascii" RangeMin="0" RangeMax="0">
          0 0 0 0 0 0
          0 0 0 0 0 0
          0 0 0 0 0 0
          0 0 0 0 0 0
          0 0 0 0 0 0
          0 0 0 0 0 0
          0 0 0 0 0 0
          0 0 0 0 0 0
          0 0 0 0 0 0
          0 0 0 0 0 0
          0 0 0 0 0 0
          0 0 0 0 0 0
          0 0 0 0 0 0
          0 0 0 0 0 0
          0 0 0 0 0 0
          0 0 0 0 0 0
          0 0 0 0 0 0
          0 0 0 0 0 0
          0 0 0 0 0 0
          0 0 0 0 0 0
          0 0 0 0 0 0
          0 0 0 0 0 0
          0 0 0 0 0 0
          0 0 0 0 0 0
          0 0 0 0 0 0
          0 0 0 0 0 0
          0 0 0 0 0 0
          0 0 0 0 0 0
          0 0 0 0 0 0
          0 0 0 0 0 0
          0 0 0 0 0 0
          0 0 0 0 0 0
          0 0 0 0 0 0
          0 0 0 0 0 0
          0 0 0 0 0 0
          0 0 0 0 0 0
          0 0 0 0 0 0
          0 0 0 0 0 0
          0 0 0 0 0 0
          0 0 0 0 0 0
          0 0 0 0 0 0
          0 0 0 0 0 0
          0 0 0 0 0 0
          0 0 0 0 0 0
          0 0 0 0 0 0
          0 0 0 0 0 0
          0 0 0 0 0 0
          0 0 0 0 0 0
          0 0 0 0 0 0
          0 0 0 0 0 0
          0 0 0 0 0 0
          0 0 0 0 0 0
          0 0 0 0 0 0
          0 0 0 0 0
        </DataArray>
        <DataArray type="Float64" Name="markers_mustrefine" format="ascii" RangeMin="0" RangeMax="2">
          0 0 1.5 0.5 2 2
          0 0 0 0 1.25 2
          2 2 2 1 0.5 2
          2 0 1.75 2 2 2
          0 0.75 0 0.25 2 2
          2 2 0 0 0 0
          0 0 0 0 0 1
          1 0 1 1 0 0.75
          0.5 2 2 2 1.75 0
          0.25 0 0 0 0 0
          1.25 1.3333333333333333 1 2 2 2
          2 2 2 2 2 2
          2 2 2 1.75 1.5 2
          2 2 2 2 2 2
          2 2 2 2 2 2
          2 2 2 2 2 2
          2 2 2 2 2 1.5
          2 1.75 2 2 1.5 2
          2 2 2 1 0.5 1.5
          1.25 0 1 2 2 2
          1.5 1.75 0.5 1.25 0.5 1.25
          1 2 2 2 0 0.75
          0 0.5 0 0.5 0 1.75
          1.3333333333333333 2 2 2 2 2
          2 2 2 2 2 2
          2 2 2 2 2 2
          2 2 2 0.5 1.25 0
          0.75 0 1 0.5 2 1.75
          1.6666666666666667 2 2 1.75 1.5 2
          2 0 0.5 0 0.5 0
          0 0 1.5 1.3333333333333333 0.6666666666666666 2
          1.75 1.25 1 2 2 0.5
          0 2 2 2 2 2
          2 2 2 2 2 2
          2 2 2 2 2 2
          2 2 2 2 2 2
          2 2 2 2 2 0
          0 0 0 0 0 0
          0 0.5 0 0 0 0
          0 0 1.25 0 0 1
          1 1 2 2 2 0
          0.75 0.5 1.75 2 2 2
          2 2 2 2 2 2
          2 2 2 2 2 2
          2 2 2 2 2 0
          1 0.75 0.6666666666666666 2 1.75 1.5
          1.6666666666666667 2 2 2 2 2
          2 2 2 2 2 2
          1.75 1.5 2 2 2 1
          1.5 1 2 1.5 2 2
          2 1 0 0.5 0.5 0
          1.75 2 2 2 2 2
          2 2 2 2 2 2
          2 2 2 2 2
        </DataArray>
        <DataArray type="Float64" Name="gradient_marker" format="ascii" RangeMin="1" RangeMax="1">
          1 1 1 1 1 1
          1 1 1 1 1 1
          1 1 1 1 1 1
          1 1 1 1 1 1
          1 1 1 1 1 1
          1 1 1 1 1 1
          1 1 1 1 1 1
          1 1 1 1 1 1
          1 1 1 1 1 1
          1 1 1 1 1 1
          1 1 1 1 1 1
          1 1 1 1 1 1
          1 1 1 1 1 1
          1 1 1 1 1 1
          1 1 1 1 1 1
          1 1 1 1 1 1
          1 1 1 1 1 1
          1 1 1 1 1 1
          1 1 1 1 1 1
          1 1 1 1 1 1
          1 1 1 1 1 1
          1 1 1 1 1 1
          1 1 1 1 1 1
          1 1 1 1 1 1
          1 1 1 1 1 1
          1 1 1 1 1 1
          1 1 1 1 1 1
          1 1 1 1 1 1
          1 1 1 1 1 1
          1 1 1 1 1 1
          1 1 1 1 1 1
          1 1 1 1 1 1
          1 1 1 1 1 1
          1 1 1 1 1 1
          1 1 1 1 1 1
          1 1 1 1 1 1
          1 1 1 1 1 1
          1 1 1 1 1 1
          1 1 1 1 1 1
          1 1 1 1 1 1
          1 1 1 1 1 1
          1 1 1 1 1 1
          1 1 1 1 1 1
          1 1 1 1 1 1
          1 1 1 1 1 1
          1 1 1 1 1 1
          1 1 1 1 1 1
          1 1 1 1 1 1
          1 1 1 1 1 1
          1 1 1 1 1 1
          1 1 1 1 1 1
          1 1 1 1 1 1
          1 1 1 1 1 1
          1 1 1 1 1
        </DataArray>
        <DataArray type="Float64" Name="gradient_matprop_marker" format="ascii" RangeMin="0" RangeMax="0">
          0 0 0 0 0 0
          0 0 0 0 0 0
          0 0 0 0 0 0
          0 0 0 0 0 0
          0 0 0 0 0 0
          0 0 0 0 0 0
          0 0 0 0 0 0
          0 0 0 0 0 0
          0 0 0 0 0 0
          0 0 0 0 0 0
          0 0 0 0 0 0
          0 0 0 0 0 0
          0 0 0 0 0 0
          0 0 0 0 0 0
          0 0 0 0 0 0
          0 0 0 0 0 0
          0 0 0 0 0 0
          0 0 0 0 0 0
          0 0 0 0 0 0
          0 0 0 0 0 0
          0 0 0 0 0 0
          0 0 0 0 0 0
          0 0 0 0 0 0
          0 0 0 0 0 0
          0 0 0 0 0 0
          0 0 0 0 0 0
          0 0 0 0 0 0
          0 0 0 0 0 0
          0 0 0 0 0 0
          0 0 0 0 0 0
          0 0 0 0 0 0
          0 0 0 0 0 0
          0 0 0 0 0 0
          0 0 0 0 0 0
          0 0 0 0 0 0
          0 0 0 0 0 0
          0 0 0 0 0 0
          0 0 0 0 0 0
          0 0 0 0 0 0
          0 0 0 0 0 0
          0 0 0 0 0 0
          0 0 0 0 0 0
          0 0 0 0 0 0
          0 0 0 0 0 0
          0 0 0 0 0 0
          0 0 0 0 0 0
          0 0 0 0 0 0
          0 0 0 0 0 0
          0 0 0 0 0 0
          0 0 0 0 0 0
          0 0 0 0 0 0
          0 0 0 0 0 0
          0 0 0 0 0 0
          0 0 0 0 0
        </DataArray>
        <DataArray type="Float64" Name="combo" format="ascii" RangeMin="1" RangeMax="1">
          1 1 1 1 1 1
          1 1 1 1 1 1
          1 1 1 1 1 1
          1 1 1 1 1 1
          1 1 1 1 1 1
          1 1 1 1 1 1
          1 1 1 1 1 1
          1 1 1 1 1 1
          1 1 1 1 1 1
          1 1 1 1 1 1
          1 1 1 1 1 1
          1 1 1 1 1 1
          1 1 1 1 1 1
          1 1 1 1 1 1
          1 1 1 1 1 1
          1 1 1 1 1 1
          1 1 1 1 1 1
          1 1 1 1 1 1
          1 1 1 1 1 1
          1 1 1 1 1 1
          1 1 1 1 1 1
          1 1 1 1 1 1
          1 1 1 1 1 1
          1 1 1 1 1 1
          1 1 1 1 1 1
          1 1 1 1 1 1
          1 1 1 1 1 1
          1 1 1 1 1 1
          1 1 1 1 1 1
          1 1 1 1 1 1
          1 1 1 1 1 1
          1 1 1 1 1 1
          1 1 1 1 1 1
          1 1 1 1 1 1
          1 1 1 1 1 1
          1 1 1 1 1 1
          1 1 1 1 1 1
          1 1 1 1 1 1
          1 1 1 1 1 1
          1 1 1 1 1 1
          1 1 1 1 1 1
          1 1 1 1 1 1
          1 1 1 1 1 1
          1 1 1 1 1 1
          1 1 1 1 1 1
          1 1 1 1 1 1
          1 1 1 1 1 1
          1 1 1 1 1 1
          1 1 1 1 1 1
          1 1 1 1 1 1
          1 1 1 1 1 1
          1 1 1 1 1 1
          1 1 1 1 1 1
          1 1 1 1 1
        </DataArray>
        <DataArray type="Float64" Name="dHdT" format="ascii" RangeMin="25.82231910475262" RangeMax="31.553829016200673">
          25.840637425771025 25.83734641652681 25.899505667268482 25.871209349032988 26.648302458391733 26.14453487114675
          25.84320770726692 25.85102277460224 25.848827750140245 25.84646624265666 25.889941412373865 26.09843022218847
          26.04917568572862 25.957786317005613 26.454576979114336 25.84687761136344 25.843741084134532 25.903677507051125
          25.889463346798948 25.836888804499193 25.861264681298465 26.06024761779649 26.00663452973334 25.91847137808621
          25.858237732133283 25.890803672224433 25.832585245625133 25.841389877056123 27.62298078165541 27.120100252206647
          26.3269217978345 26.19402059751109 25.833731042459902 25.832611516078416 25.830117827106335 25.82239385337409
          25.84362306198605 25.827783079735354 25.822813097326662 25.879235640871364 25.877938823939978 25.89945416592395
          25.897372424540457 25.864597434533398 25.880275553932357 25.878677397598175 25.87453681418524 25.891865564346205
          25.874529054158863 25.959900068588286 25.95523303354674 25.91293542502133 25.942735668848382 25.870462702240978
          25.884954915213 25.85897246179315 25.86951058265125 25.868493783120066 25.88146938489056 25.86704229824877
          25.92604423439435 25.8927988732131 25.91681539369606 26.077152158525774 26.066639052371457 25.972340279126364
          25.966161729269825 26.038447152413916 25.94970482954178 26.290684381996655 26.2675422702096 26.08484195228865
          26.206666565450377 26.000791368361448 25.92773469962948 25.962367297792078 25.905321775004662 26.128164852175903
          26.003077586513 26.05112816929136 26.657654119856797 26.608194256605614 26.313032112201036 26.284626245787173
          26.482503308716186 26.211721039485568 27.239301204932985 27.141732906108427 26.592909221766366 26.899040930755227
          26.328034608911945 26.12129307022118 26.18435620165269 26.03673747649595 26.61456751854652 26.29038177613815
          26.36573526398511 25.882052770186014 25.879871968984837 25.907048625430754 25.903591230842885 25.853431082325066
          25.86756055091904 25.86568391398949 25.87406335172525 25.894360246198907 25.860656741322284 25.976615570871218
          25.969074398442153 25.89976543916742 25.94934643535243 25.83768543368648 25.83701603360636 25.844118331134343
          25.84311252663049 25.835210147204535 25.840427149937558 25.86212174038237 25.860120178459603 25.854858959786213
          25.866024319697313 25.881844907573708 25.845587955641257 25.853851746190056 25.857592222819626 25.868921638616982
          25.850279777846964 25.923721309551976 25.875944158946062 25.898308735959883 25.832862360628283 25.83703075014295
          25.828065343905667 25.830748922930784 25.831651060373716 25.835313922537424 25.82971829013388 25.848188297247816
          25.844031026756323 26.095124211150836 26.079603949226303 25.965170552058996 25.95719964005368 26.039601981985744
          25.936646417779667 26.27897351211613 26.249233669518045 26.045033293406885 26.174160056898366 25.892413554576798
          25.88853361072425 25.878485643838445 25.989671370491116 25.910815523965425 25.942757811190486 25.88624452069963
          26.084035047468944 25.960317804235743 26.0033393808977 25.90667230790708 25.929551183758722 25.872832679635238
          25.88629935433651 25.897264693920256 25.91518215004551 25.877998078252382 25.98702181178444 25.920204148262236
          25.951355571673115 26.070288791732267 25.96949841367664 25.988866863142228 25.92164815022585 26.179216007410517
          26.03431138460229 25.850529618538744 25.858038592401787 25.84197743464241 25.84713690594617 25.847487895166026
          25.85333706657423 25.84382905194241 25.87713701301684 25.85563557903056 25.865418549448762 25.905153223015034
          25.866243035651074 25.87816686252835 25.856267575521866 25.941854676454753 25.886069188199375 25.83936294314593
          25.836187388942953 28.06008045140076 27.884206548110836 27.105976567522337 27.009591406217176 27.457261399436693
          26.77340573199676 29.034703113467657 28.751774613947852 27.47577730856232 28.08307649049255 26.978572971805352
          26.502767163566453 27.365657437478006 26.72460893957204 26.526920824541943 26.475763957661563 26.187518586490413
          26.16162886956274 26.34911697071689 26.097315017204714 26.801020745594236 26.724382534278824 26.28850023490155
          26.536973478079837 26.202017890570442 26.02196136754183 26.32443889691354 26.08572624199837 25.879692773061414
          25.876017396901855 25.89694697641646 25.891267013729134 25.867705407319143 25.883911204633606 25.823599515901996
          25.82406731364569 25.829189690299323 25.82559633899278 25.82267358765201 25.82231910475262 25.82585337925692
          25.824911902214076 25.875203901297205 25.957098246257793 25.912569964632098 25.912129761267227 25.947584144417263
          25.94422514988277 25.93515315676275 26.046692655191386 26.0390623702364 26.018517854143035 25.89957234316207
          25.92351309460173 25.917586031026236 25.990738849183106 26.235130176548466 26.218054219309337 26.172354842514196
          26.57779516511512 26.54010572673715 26.441461335701845 26.111142602890453 26.04810474196723 26.31478080613988
          26.190580461192724 27.174989894926224 27.093692733096603 26.887081684291616 28.15593892358868 27.988446562662126
          27.575381457069525 26.635213595620904 26.403551744309347 27.100516038423486 26.694321996685233 25.82720573082699
          25.830597759970303 25.830143866013742 25.83038649994735 25.8392333690496 25.83829012738088 25.83528338247884
          25.83511528138312 25.853545054368134 25.85173629214097 25.84703160762719 25.93834283342694 25.931152547842625
          25.874730253572473 25.87149324667005 25.912868427682447 25.863193055010875 25.865814241986996 25.841092265205063
          25.853711844602113 25.835445013504113 25.890523979265808 25.85289451347503 25.869969719573596 25.956482628305544
          25.993548016951618 25.9694403327915 26.086633824255337 26.002948748225837 26.220374778443833 26.088864507075137
          26.394078469422904 25.843847619568216 25.82884819709553 25.830931231471308 25.839582413101013 25.829021281003953
          25.85383722481769 29.644066175843683 29.31471495865378 28.537538479603754 31.553829016200673 30.989781439733818
          29.688372953714552 27.704792874386897 28.370064243918662 25.999451426564875 25.98725526016093 25.95677770966911
          26.06614771140961 26.048121309672908 26.00345404615756 25.920776860536943 25.951867772734253
        </DataArray>
        <DataArray type="Float64" Name="dk/dtemperature" format="ascii" RangeMin="0.010616562737470109" RangeMax="0.015804580349343195">
          0.015804580349343192 0.015804580349343192 0.015804580349343192 0.015804580349343192 0.0147848373323342 0.015555180669782476
          0.015804580349343192 0.015804580349343192 0.015804580349343192 0.015804580349343192 0.015804580349343192 0.015658400057968893
          0.015710607304888283 0.015794138899959315 0.015074496596339096 0.015804580349343192 0.015804580349343192 0.015804580349343192
          0.015804580349343192 0.015804580349343192 0.015804580349343192 0.015679282956736647 0.015762814551807676 0.015804580349343192
          0.015804580349343192 0.015804580349343192 0.015804580349343192 0.015804580349343192 0.013600919447795066 0.01417866292283116
          0.015271185826600473 0.015471649074711448 0.015804580349343192 0.015804580349343192 0.015804580349343192 0.015804580349343192
          0.015804580349343192 0.015804580349343192 0.015804580349343192 0.015804580349343192 0.015804580349343192 0.015804580349343192
          0.015804580349343192 0.015804580349343192 0.015804580349343192 0.015804580349343192 0.015804580349343192 0.015804580349343192
          0.015804580349343192 0.015804580349343192 0.015804580349343192 0.015804580349343192 0.015804580349343192 0.015804580349343192
          0.015804580349343192 0.015804580349343192 0.015804580349343192 0.015804580349343192 0.015804580349343192 0.015804580349343192
          0.015804580349343192 0.015804580349343192 0.015804580349343192 0.01567928295673665 0.015689724406120528 0.015804580349343192
          0.015804580349343192 0.01573149020365604 0.015804580349343192 0.015349936999062019 0.015360378448445894 0.015668841507352767
          0.015451961281596057 0.015773256001191557 0.015804580349343192 0.015794138899959315 0.015804580349343192 0.015585309912281738