<?xml version="1.0"?>
<VTKFile type="UnstructuredGrid" version="0.1" byte_order="LittleEndian" header_type="UInt32" compressor="vtkZLibDataCompressor">
  <UnstructuredGrid>
    <Piece NumberOfPoints="1613" NumberOfCells="1011">
      <PointData>
        <DataArray type="Int32" Name="libmesh_node_id" format="ascii" RangeMin="1958" RangeMax="7488">
          1958 1959 1960 1961 2078 2079
          2080 2081 2198 2199 2200 2201
          2318 2319 2321 2360 2423 2424
          2425 2428 2431 2433 2434 2435
          2436 2437 2438 2439 2440 2441
          2442 2443 2444 2445 2446 2517
          2518 2519 2520 2522 2523 2524
          2525 2526 2596 2597 2598 2599
          2600 2603 2604 2605 2606 2624
          2625 2628 2630 2632 2633 2634
          2635 2636 2637 2638 2639 2640
          2641 2642 2643 2644 2645 2646
          2647 2648 2649 2650 2652 2653
          2654 2655 2656 2657 2659 2660
          2661 2662 2663 2664 2665 2666
          2667 2668 2669 2670 2671 2672
          2673 2674 2675 2676 2677 2678
          2679 2773 2774 2775 2779 2780
          2781 2782 2783 2784 2785 2786
          2787 2788 2789 2858 2859 2860
          2863 2864 2865 2866 2867 2868
          2869 2870 2871 2872 2873 2874
          2875 2876 2877 2878 2879 2880
          2881 2882 2883 3121 3125 3126
          3127 3128 3129 3131 3132 3133
          3134 3135 3136 3141 3142 3146
          3147 3149 3151 3152 3153 3154
          3156 3157 3158 3159 3161 3162
          3163 3164 3165 3166 3167 3168
          3169 3170 3180 3181 3183 3184
          3185 3213 3214 3217 3219 3221
          3222 3223 3224 3225 3226 3227
          3228 3229 3230 3231 3232 3233
          3234 3235 3236 3237 3238 3239
          3240 3241 3242 3243 3244 3245
          3246 3247 3248 3249 3250 3251
          3252 3253 3254 3255 3256 3257
          3258 3259 3260 3261 3262 3263
          3264 3265 3266 3267 3268 3269
          3270 3271 3272 3273 3274 3275
          3276 3277 3278 3279 3280 3281
          3282 3283 3284 3285 3286 3287
          3288 3289 3290 3291 3292 3293
          3294 3295 3296 3297 3298 3299
          3300 3301 3302 3303 3304 3305
          3306 3307 3308 3309 3310 3311
          3312 3313 3314 3315 3316 3317
          3318 3319 3320 3321 3322 3323
          3324 3325 3326 3327 3328 3330
          3331 3332 3333 3334 3335 3336
          3337 3338 3339 3340 3341 3342
          3343 3344 3345 3346 3347 3348
          3349 3350 3351 3352 3353 3354
          3355 3356 3357 3358 3359 3360
          3361 3362 3365 3367 3368 3370
          3371 3372 3373 3374 3375 3376
          3377 3378 3379 3380 3381 3382
          3384 3385 3386 3387 3388 3389
          3390 3391 3392 3393 3394 3780
          3781 3785 3786 3787 3788 3789
          3790 3791 3792 3793 3794 3795
          3796 3797 3798 3799 3831 3832
          3833 3834 3835 3836 3837 3838
          3839 3840 3841 3842 3843 3844
          4080 4081 4082 4083 4084 4085
          4086 4087 4088 4089 4090 4091
          4092 4093 4094 4095 4096 4097
          4098 4099 4100 4101 4102 4103
          4104 4105 4106 4107 4108 4109
          4110 4111 4112 4113 4114 4115
          4116 4117 4118 4119 4120 4121
          4122 4123 4124 4125 4126 4127
          4128 4129 4130 4131 4132 4133
          4134 4135 4136 4137 4138 4139
          4140 4141 4142 4143 4144 4145
          4146 4147 4148 4149 4150 4151
          4152 4153 4154 4155 4156 4157
          4158 4159 4160 4161 4162 4163
          4164 4165 4166 4167 4168 4169
          4170 4171 4172 4173 4174 4175
          4176 4177 4178 4179 4180 4181
          4182 4183 4184 4185 4186 4187
          4188 4189 4190 4191 4192 4193
          4194 4195 4196 4197 4198 4199
          4200 4201 4202 4203 4204 4205
          4206 4207 4208 4209 4210 4211
          4212 4213 4214 4215 4216 4217
          4218 4219 4220 4221 4222 4223
          4224 4225 4226 4227 4228 4229
          4230 4231 4232 4233 4234 4235
          4236 4237 4238 4239 4240 4241
          4242 4243 4244 4245 4246 4247
          4248 4249 4250 4251 4252 4253
          4254 4255 4256 4257 4258 4259
          4260 4261 4262 4263 4264 4265
          4266 4267 4268 4269 4270 4271
          4272 4273 4274 4275 4276 4277
          4278 4279 4280 4281 4282 4283
          4284 4285 4286 4287 4288 4289
          4290 4291 4292 4293 4294 4295
          4296 4297 4298 4303 4304 4305
          4309 4310 4311 4312 4313 4314
          4315 4316 4317 4318 4319 4320
          4321 4322 4323 4324 4325 4326
          4327 4328 4329 4330 4331 4332
          4333 4334 4335 4336 4337 4338
          4339 4340 4341 4342 4343 4344
          4345 4346 4347 4348 4349 4350
          4351 4352 4353 4354 4355 4356
          4357 4358 4359 4360 4361 4362
          4363 4364 4365 4366 4367 4368
          4369 4370 4371 4372 4373 4374
          4375 4376 4377 4378 4379 4380
          4381 4382 4383 4384 4385 4386
          4397 4398 4399 4400 4401 4402
          4403 4411 4412 4413 4414 4415
          4416 4417 4418 4419 4420 4431
          4432 4433 4434 4435 4436 4437
          4445 4446 4447 4448 4449 4450
          4451 4452 4453 4454 4455 4456
          4457 4458 4459 4460 4461 4462
          4463 4464 4465 4466 4467 4471
          4472 4473 4474 4475 4476 4477
          6526 6527 6528 6529 6530 6531
          6532 6533 6534 6535 6536 6537
          6538 6539 6540 6541 6542 6543
          6544 6545 6546 6547 6548 6549
          6550 6551 6552 6553 6554 6555
          6556 6557 6558 6559 6560 6561
          6562 6563 6564 6565 6566 6567
          6568 6569 6570 6571 6572 6573
          6574 6575 6576 6577 6578 6579
          6580 6581 6582 6583 6584 6585
          6586 6587 6588 6589 6590 6591
          6592 6593 6594 6595 6596 6597
          6598 6599 6600 6601 6602 6603
          6604 6605 6606 6607 6608 6609
          6610 6611 6612 6613 6614 6615
          6616 6617 6618 6619 6620 6621
          6622 6623 6624 6625 6626 6627
          6628 6629 6630 6631 6632 6633
          6634 6635 6636 6637 6638 6639
          6640 6641 6642 6643 6644 6645
          6646 6647 6648 6649 6650 6651
          6652 6653 6654 6655 6656 6657
          6658 6659 6660 6661 6662 6663
          6664 6665 6666 6667 6668 6669
          6670 6671 6672 6673 6674 6675
          6676 6677 6678 6679 6680 6681
          6682 6683 6684 6685 6686 6687
          6688 6689 6690 6691 6692 6693
          6694 6695 6696 6697 6698 6699
          6700 6701 6702 6703 6704 6705
          6706 6707 6708 6709 6710 6711
          6712 6713 6714 6715 6716 6717
          6718 6719 6720 6721 6722 6723
          6724 6725 6726 6727 6728 6729
          6730 6731 6732 6733 6734 6735
          6736 6737 6738 6739 6740 6741
          6742 6743 6744 6745 6746 6747
          6748 6749 6750 6751 6752 6753
          6754 6755 6756 6757 6758 6759
          6760 6761 6762 6763 6764 6765
          6766 6767 6768 6769 6770 6771
          6772 6773 6774 6775 6776 6777
          6778 6779 6780 6781 6782 6783
          6784 6785 6786 6787 6788 6789
          6790 6791 6792 6793 6794 6795
          6796 6797 6798 6799 6800 6801
          6802 6803 6804 6805 6806 6807
          6808 6809 6810 6811 6812 6813
          6814 6815 6816 6817 6818 6819
          6820 6821 6822 6823 6824 6825
          6826 6827 6828 6829 6830 6831
          6832 6833 6834 6835 6836 6837
          6838 6839 6840 6841 6842 6843
          6844 6845 6846 6847 6848 6849
          6850 6851 6852 6853 6854 6855
          6856 6857 6858 6859 6860 6861
          6862 6863 6864 6865 6866 6867
          6868 6869 6870 6871 6872 6873
          6874 6875 6876 6877 6878 6879
          6880 6881 6882 6883 6884 6885
          6886 6887 6888 6889 6890 6891
          6892 6893 6894 6895 6896 6897
          6898 6899 6900 6901 6902 6903
          6904 6905 6906 6907 6908 6909
          6910 6911 6912 6913 6914 6915
          6916 6917 6918 6919 6920 6921
          6922 6923 6924 6925 6926 6927
          6928 6929 6930 6931 6932 6933
          6934 6935 6936 6937 6938 6939
          6940 6941 6942 6943 6944 6945
          6946 6947 6948 6949 6950 6951
          6952 6953 6954 6955 6956 6957
          6958 6959 6960 6961 6962 6963
          6964 6965 6966 6967 6968 6969
          6970 6971 6972 6973 6974 6975
          6976 6977 6978 6979 6980 6981
          6982 6983 6984 6985 6986 6987
          6988 6989 6990 6991 6992 6993
          6994 6995 6996 6997 6998 6999
          7000 7001 7002 7003 7004 7005
          7006 7007 7008 7009 7010 7011
          7012 7013 7014 7015 7016 7017
          7018 7019 7020 7021 7022 7023
          7024 7025 7026 7027 7028 7029
          7030 7031 7032 7033 7034 7035
          7036 7037 7038 7039 7040 7041
          7042 7043 7044 7045 7046 7047
          7048 7049 7050 7051 7052 7053
          7054 7055 7056 7057 7058 7059
          7060 7061 7062 7063 7064 7065
          7066 7067 7068 7069 7070 7071
          7072 7073 7074 7075 7076 7077
          7078 7079 7080 7081 7082 7083
          7084 7085 7086 7087 7088 7089
          7090 7091 7092 7093 7094 7095
          7096 7097 7098 7099 7100 7101
          7102 7103 7104 7105 7106 7107
          7108 7109 7110 7111 7112 7113
          7114 7115 7116 7117 7118 7119
          7120 7121 7122 7123 7124 7125
          7126 7127 7128 7129 7130 7131
          7132 7133 7134 7135 7136 7137
          7138 7139 7140 7141 7142 7143
          7144 7145 7146 7147 7148 7149
          7150 7151 7152 7153 7154 7155
          7156 7157 7158 7159 7160 7161
          7162 7163 7164 7165 7166 7167
          7168 7169 7170 7171 7172 7173
          7174 7175 7176 7177 7178 7179
          7180 7181 7182 7183 7184 7185
          7186 7187 7188 7189 7190 7191
          7192 7193 7194 7195 7196 7197
          7198 7199 7200 7201 7202 7203
          7204 7205 7206 7207 7208 7209
          7210 7211 7212 7213 7214 7215
          7216 7217 7218 7219 7220 7221
          7222 7223 7224 7225 7226 7227
          7228 7229 7230 7231 7232 7233
          7234 7235 7236 7237 7238 7239
          7240 7241 7242 7243 7244 7245
          7246 7247 7248 7249 7250 7251
          7252 7253 7254 7255 7256 7257
          7258 7259 7260 7261 7262 7263
          7264 7265 7266 7267 7268 7269
          7270 7271 7272 7273 7274 7275
          7276 7277 7278 7293 7294 7295
          7296 7297 7298 7305 7306 7307
          7308 7309 7310 7311 7312 7313
          7314 7315 7316 7317 7318 7319
          7320 7321 7322 7323 7324 7325
          7326 7327 7328 7329 7330 7331
          7332 7333 7334 7335 7336 7337
          7338 7339 7340 7341 7342 7343
          7344 7345 7346 7347 7348 7349
          7350 7351 7352 7353 7354 7355
          7356 7357 7358 7359 7360 7361
          7362 7363 7364 7365 7366 7367
          7368 7369 7370 7371 7372 7441
          7442 7443 7444 7445 7446 7447
          7448 7449 7450 7451 7452 7453
          7454 7455 7456 7457 7458 7459
          7460 7461 7462 7463 7464 7465
          7466 7467 7468 7469 7470 7471
          7472 7473 7474 7475 7476 7477
          7478 7479 7480 7481 7482 7483
          7484 7485 7486 7487 7488
        </DataArray>
        <DataArray type="Float64" Name="bounds" format="ascii" RangeMin="0" RangeMax="0">
          0 0 0 0 0 0
          0 0 0 0 0 0
          0 0 0 0 0 0
          0 0 0 0 0 0
          0 0 0 0 0 0
          0 0 0 0 0 0
          0 0 0 0 0 0
          0 0 0 0 0 0
          0 0 0 0 0 0
          0 0 0 0 0 0
          0 0 0 0 0 0
          0 0 0 0 0 0
          0 0 0 0 0 0
          0 0 0 0 0 0
          0 0 0 0 0 0
          0 0 0 0 0 0
          0 0 0 0 0 0
          0 0 0 0 0 0
          0 0 0 0 0 0
          0 0 0 0 0 0
          0 0 0 0 0 0
          0 0 0 0 0 0
          0 0 0 0 0 0
          0 0 0 0 0 0
          0 0 0 0 0 0
          0 0 0 0 0 0
          0 0 0 0 0 0
          0 0 0 0 0 0
          0 0 0 0 0 0
          0 0 0 0 0 0
          0 0 0 0 0 0
          0 0 0 0 0 0
          0 0 0 0 0 0
          0 0 0 0 0 0
          0 0 0 0 0 0
          0 0 0 0 0 0
          0 0 0 0 0 0
          0 0 0 0 0 0
          0 0 0 0 0 0
          0 0 0 0 0 0
          0 0 0 0 0 0
          0 0 0 0 0 0
          0 0 0 0 0 0
          0 0 0 0 0 0
          0 0 0 0 0 0
          0 0 0 0 0 0
          0 0 0 0 0 0
          0 0 0 0 0 0
          0 0 0 0 0 0
          0 0 0 0 0 0
          0 0 0 0 0 0
          0 0 0 0 0 0
          0 0 0 0 0 0
          0 0 0 0 0 0
          0 0 0 0 0 0
          0 0 0 0 0 0
          0 0 0 0 0 0
          0 0 0 0 0 0
          0 0 0 0 0 0
          0 0 0 0 0 0
          0 0 0 0 0 0
          0 0 0 0 0 0
          0 0 0 0 0 0
          0 0 0 0 0 0
          0 0 0 0 0 0
          0 0 0 0 0 0
          0 0 0 0 0 0
          0 0 0 0 0 0
          0 0 0 0 0 0
          0 0 0 0 0 0
          0 0 0 0 0 0
          0 0 0 0 0 0
          0 0 0 0 0 0
          0 0 0 0 0 0
          0 0 0 0 0 0
          0 0 0 0 0 0
          0 0 0 0 0 0
          0 0 0 0 0 0
          0 0 0 0 0 0
          0 0 0 0 0 0
          0 0 0 0 0 0
          0 0 0 0 0 0
          0 0 0 0 0 0
          0 0 0 0 0 0
          0 0 0 0 0 0
          0 0 0 0 0 0
          0 0 0 0 0 0
          0 0 0 0 0 0
          0 0 0 0 0 0
          0 0 0 0 0 0
          0 0 0 0 0 0
          0 0 0 0 0 0
          0 0 0 0 0 0
          0 0 0 0 0 0
          0 0 0 0 0 0
          0 0 0 0 0 0
          0 0 0 0 0 0
          0 0 0 0 0 0
          0 0 0 0 0 0
          0 0 0 0 0 0
          0 0 0 0 0 0
          0 0 0 0 0 0
          0 0 0 0 0 0
          0 0 0 0 0 0
          0 0 0 0 0 0
          0 0 0 0 0 0
          0 0 0 0 0 0
          0 0 0 0 0 0
          0 0 0 0 0 0
          0 0 0 0 0 0
          0 0 0 0 0 0
          0 0 0 0 0 0
          0 0 0 0 0 0
          0 0 0 0 0 0
          0 0 0 0 0 0
          0 0 0 0 0 0
          0 0 0 0 0 0
          0 0 0 0 0 0
          0 0 0 0 0 0
          0 0 0 0 0 0
          0 0 0 0 0 0
          0 0 0 0 0 0
          0 0 0 0 0 0
          0 0 0 0 0 0
          0 0 0 0 0 0
          0 0 0 0 0 0
          0 0 0 0 0 0
          0 0 0 0 0 0
          0 0 0 0 0 0
          0 0 0 0 0 0
          0 0 0 0 0 0
          0 0 0 0 0 0
          0 0 0 0 0 0
          0 0 0 0 0 0
          0 0 0 0 0 0
          0 0 0 0 0 0
          0 0 0 0 0 0
          0 0 0 0 0 0
          0 0 0 0 0 0
          0 0 0 0 0 0
          0 0 0 0 0 0
          0 0 0 0 0 0
          0 0 0 0 0 0
          0 0 0 0 0 0
          0 0 0 0 0 0
          0 0 0 0 0 0
          0 0 0 0 0 0
          0 0 0 0 0 0
          0 0 0 0 0 0
          0 0 0 0 0 0
          0 0 0 0 0 0
          0 0 0 0 0 0
          0 0 0 0 0 0
          0 0 0 0 0 0
          0 0 0 0 0 0
          0 0 0 0 0 0
          0 0 0 0 0 0
          0 0 0 0 0 0
          0 0 0 0 0 0
          0 0 0 0 0 0
          0 0 0 0 0 0
          0 0 0 0 0 0
          0 0 0 0 0 0
          0 0 0 0 0 0
          0 0 0 0 0 0
          0 0 0 0 0 0
          0 0 0 0 0 0
          0 0 0 0 0 0
          0 0 0 0 0 0
          0 0 0 0 0 0
          0 0 0 0 0 0
          0 0 0 0 0 0
          0 0 0 0 0 0
          0 0 0 0 0 0
          0 0 0 0 0 0
          0 0 0 0 0 0
          0 0 0 0 0 0
          0 0 0 0 0 0
          0 0 0 0 0 0
          0 0 0 0 0 0
          0 0 0 0 0 0
          0 0 0 0 0 0
          0 0 0 0 0 0
          0 0 0 0 0 0
          0 0 0 0 0 0
          0 0 0 0 0 0
          0 0 0 0 0 0
          0 0 0 0 0 0
          0 0 0 0 0 0
          0 0 0 0 0 0
          0 0 0 0 0 0
          0 0 0 0 0 0
          0 0 0 0 0 0
          0 0 0 0 0 0
          0 0 0 0 0 0
          0 0 0 0 0 0
          0 0 0 0 0 0
          0 0 0 0 0 0
          0 0 0 0 0 0
          0 0 0 0 0 0
          0 0 0 0 0 0
          0 0 0 0 0 0
          0 0 0 0 0 0
          0 0 0 0 0 0
          0 0 0 0 0 0
          0 0 0 0 0 0
          0 0 0 0 0 0
          0 0 0 0 0 0
          0 0 0 0 0 0
          0 0 0 0 0 0
          0 0 0 0 0 0
          0 0 0 0 0 0
          0 0 0 0 0 0
          0 0 0 0 0 0
          0 0 0 0 0 0
          0 0 0 0 0 0
          0 0 0 0 0 0
          0 0 0 0 0 0
          0 0 0 0 0 0
          0 0 0 0 0 0
          0 0 0 0 0 0
          0 0 0 0 0 0
          0 0 0 0 0 0
          0 0 0 0 0 0
          0 0 0 0 0 0
          0 0 0 0 0 0
          0 0 0 0 0 0
          0 0 0 0 0 0
          0 0 0 0 0 0
          0 0 0 0 0 0
          0 0 0 0 0 0
          0 0 0 0 0 0
          0 0 0 0 0 0
          0 0 0 0 0 0
          0 0 0 0 0 0
          0 0 0 0 0 0
          0 0 0 0 0 0
          0 0 0 0 0 0
          0 0 0 0 0 0
          0 0 0 0 0 0
          0 0 0 0 0 0
          0 0 0 0 0 0
          0 0 0 0 0 0
          0 0 0 0 0 0
          0 0 0 0 0 0
          0 0 0 0 0 0
          0 0 0 0 0 0
          0 0 0 0 0 0
          0 0 0 0 0 0
          0 0 0 0 0 0
          0 0 0 0 0 0
          0 0 0 0 0 0
          0 0 0 0 0 0
          0 0 0 0 0 0
          0 0 0 0 0 0
          0 0 0 0 0 0
          0 0 0 0 0 0
          0 0 0 0 0 0
          0 0 0 0 0 0
          0 0 0 0 0 0
          0 0 0 0 0 0
          0 0 0 0 0 0
          0 0 0 0 0 0
          0 0 0 0 0 0
          0 0 0 0 0 0
          0 0 0 0 0 0
          0 0 0 0 0 0
          0 0 0 0 0 0
          0 0 0 0 0
        </DataArray>
        <DataArray type="Float64" Name="gradient_error" format="ascii" RangeMin="7.2722049778163174e-12" RangeMax="6.655581097717771e-8">
          1.0661389282261311e-10 9.836012116531831e-11 1.1044727923465664e-11 8.670243038527112e-12 1.1509931876421917e-10 2.0048632792989735e-10
          1.6667946918272484e-11 1.5851221952879527e-11 6.607712000519397e-10 2.413878022064323e-10 9.505135682686072e-11 2.165386084917124e-11
          1.8246014264380483e-10 3.682690531700946e-9 8.275429093287048e-10 1.0366377620164592e-11 3.5412671657360425e-10 3.1159057381245986e-8
          1.8679596995322995e-8 1.0527716519045598e-9 3.0374358704676335e-8 3.780610440825857e-10 1.7900138909559563e-10 1.5628287373084802e-8
          9.341897184083277e-9 7.836102559163192e-11 4.479960647305536e-9 2.4731355805458083e-9 3.871861482784855e-11 3.5397841106552097e-10
          1.0187240074018158e-10 5.789140764591174e-10 5.436957659274953e-8 2.8080898476060957e-8 1.1185073774749065e-9 2.3791089419243467e-11
          1.7514715274632527e-11 1.0025304461863454e-11 8.788187150906364e-12 9.990136754933584e-12 7.44471299967949e-12 2.1030120476532087e-11
          2.4755649191560954e-11 1.272617433221583e-11 6.180513374897906e-8 5.033345129436347e-8 2.341199620627032e-8 5.2290888527977856e-8
          5.529131066415526e-8 2.7115729938144667e-8 2.2301651061847154e-8 5.765971269094922e-8 3.863598101538857e-8 1.2281309632828349e-8
          1.431647565466337e-8 2.5494946044988433e-9 7.821569318063332e-9 2.327510753731995e-8 1.7039346351795225e-8 3.720066592870799e-8
          5.9427582445106616e-8 1.11486586858574e-8 3.6950236194589904e-8 3.8251751374566176e-8 1.3723178700430826e-8 3.1082061740792804e-8
          3.2980316310792214e-8 2.8191778153133386e-10 4.626113867180897e-8 3.394926737060332e-8 4.424425069966003e-8 9.123079484116093e-9
          6.349155044873844e-9 3.288419552268631e-8 3.322672429746081e-8 3.0686186600613705e-9 2.5225459211306566e-8 5.764255711231768e-9
          2.452981002815105e-8 1.3124408271491442e-8 9.14747137343926e-10 9.369592383910344e-9 4.468319849691552e-8 9.189221011677346e-9
          1.89206902054367e-8 6.466257219464039e-9 2.243412682045474e-8 7.954837016938652e-10 1.2450954845365857e-9 7.661283748048407e-10
          2.1942079983816643e-8 3.280875476481769e-8 1.7113505728683192e-9 4.164968593653341e-9 1.622983707634614e-8 1.65780825386537e-9
          6.990667756053516e-9 2.5694860849943697e-10 6.814102057143791e-10 4.692875231926418e-10 2.4525455312783224e-8 1.1052552480161652e-8
          1.1411940694100618e-9 4.6385926487675065e-11 1.9956508711415406e-10 1.7039008685968235e-10 1.4121508660521067e-10 3.267034686054022e-11
          1.9971275919178273e-11 8.842525164408702e-11 5.886710918932288e-11 1.0254084951527497e-11 4.258480026794417e-11 2.92913689144598e-11
          7.2722049778163174e-12 2.930896673455874e-11 1.5997937560975417e-11 7.527261961549363e-10 1.8148763891240298e-8 1.4303206346597182e-8
          6.4934459903160515e-9 9.031620991579864e-10 6.85265264173346e-10 1.239141305204614e-8 9.68809234381838e-9 4.80835029998431e-10
          7.500384833118488e-9 5.844768716947791e-9 3.3450401619424737e-10 4.203884134427232e-9 2.436750262524801e-9 3.0986445385760453e-10
          2.666249460014092e-10 3.968903180869722e-9 3.102240358977187e-9 1.2018566608483093e-10 1.8517384424584715e-9 1.449631152265325e-9
          1.8337432932647608e-10 1.269590462002842e-9 6.008192984559021e-10 5.9152832795202233e-8 4.296160372967788e-8 3.990651771427944e-8
          2.478485335039655e-8 4.325815166116922e-8 3.9939852381887674e-8 3.164385863432203e-8 3.113315984707569e-8 6.655581097717771e-8
          6.330164533155861e-8 5.779341280887076e-8 5.2894182717381884e-8 1.2236430097034482e-8 2.0055625322594914e-8 1.4466484053644581e-8
          3.68145951807828e-8 3.732665869535816e-8 4.891380934387296e-8 5.2217639337625505e-8 4.566893851810023e-8 5.344982326423434e-8
          5.8077896479292196e-8 3.631098895089443e-8 4.404877781054082e-8 4.0254026344020307e-8 4.208127184999515e-8 4.730869446335486e-8
          2.5251805667295372e-8 3.519552513153307e-8 5.5662422585248046e-8 5.296381652267202e-8 3.795843530408912e-10 1.9421087103348244e-8
          5.038219475587998e-9 4.8535626175970226e-8 4.8514648687689574e-8 5.107961623818851e-8 2.722780310092854e-8 5.188879956643353e-8
          5.538073563381606e-8 1.0223319710466928e-8 1.1786402086839624e-8 8.211302385563727e-9 1.3349484463212318e-8 2.5049600038558787e-8
          2.289164050524904e-8 4.3056069003722714e-8 3.948321738208278e-8 2.0630356061836166e-8 4.218349172887428e-8 3.8409035478928765e-8
          1.7296497711748833e-8 3.021761975763312e-8 2.8839983270912186e-8 3.635948898833178e-8 5.145212096103697e-8 5.346208972332008e-8
          5.750499431367967e-8 1.9911005900556334e-8 1.80373567035116e-8 4.05528787883919e-8 3.6683061840821954e-8 1.5202922527745653e-8
          3.810096288887337e-8 3.426426935859681e-8 1.329380956329919e-8 2.6984930468517968e-8 2.4669886654077123e-8 3.7443599841848836e-8
          4.408493519891712e-8 3.312648149127053e-8 4.9687934840120053e-8 1.0949934647838463e-8 1.8920270515962533e-8 9.567799320906977e-9
          1.7529808650552892e-8 8.040554844118557e-9 1.3315667277101692e-8 1.201422998826467e-8 3.7582330099975475e-8 3.742910552522756e-8
          2.1637624910195407e-8 8.1418706130095e-9 1.587652803082289e-8 6.7188239244604485e-9 1.4014035972138887e-8 5.8598296058874906e-9
          1.0596440017861851e-8 9.115874464443779e-9 3.665413894885114e-8 3.50685849164574e-8 2.4381600006978232e-8 6.722829970699854e-9
          2.781339312531893e-8 7.582713681493095e-9 2.9138435523143154e-8 5.7048336256294386e-8 6.133940853802642e-8 1.5442830379658502e-10
          3.2219885264027886e-9 8.39596173367938e-10 4.224439007145841e-8 8.573061401087613e-9 1.9496496472418717e-8 9.705730690499112e-9
          9.239716981287152e-9 5.467770698874182e-8 3.644640646781417e-8 4.2617060152714795e-10 8.119122054095921e-10 1.008708177075328e-9
          5.044244710143618e-8 5.373779645954353e-8 5.6172448253278805e-8 2.6552096802068312e-8 3.083138763946883e-8 5.920153910322272e-8
          6.297850343630129e-8 2.994314609388593e-8 5.796167155276273e-8 4.820123079919148e-8 3.963151188209954e-8 3.832436750458688e-8
          6.622625065645944e-8 4.800130650816153e-8 4.5832874180078824e-8 1.3705440205033663e-8 1.2289058736664743e-8 3.476967305690296e-8
          3.108112780455955e-8 9.46925176819619e-9 3.063717983231784e-8 2.720375326710164e-8 8.86714952714976e-9 2.191835810411468e-8
          1.8783589111775337e-8 3.5468437440566526e-8 3.1516275751259416e-8 2.8960067730741237e-8 3.6121105037250755e-8 7.77570558941351e-9
          6.889288411381681e-9 2.589162347880829e-8 2.2811843918856245e-8 4.770235805970816e-9 2.0793729009251734e-8 1.8050359276955023e-8
          4.873523638927965e-9 1.540441095001905e-8 1.1868586798597263e-8 2.92212995438056e-8 2.553723388483492e-8 2.95900002129007e-8
          5.32832879382403e-9 1.203584266961594e-8 4.043778635785273e-9 9.985353691358272e-9 3.795035801644362e-9 7.627551683218648e-9
          6.173855861051299e-9 3.2719156555247236e-8 2.984260583558309e-8 2.0279261523230674e-8 2.921637670609554e-9 7.942641098730572e-9
          1.9902304103367726e-9 6.024300909826471e-9 2.099099296713029e-9 4.808524656327247e-9 2.7930054425354575e-9 2.647825763171884e-8
          2.2713238143853997e-8 1.5180603506584447e-8 1.096692580369452e-8 1.023934215409283e-8 1.218497992252756e-8 1.1075693535713858e-8
          2.7246177854003616e-8 2.7151639565987648e-8 7.406686071627086e-10 1.2923716847652132e-9 1.6000518937510763e-9 8.686440912924934e-9
          1.3120036731064858e-8 1.152900054048949e-8 2.6312469721213745e-8 1.1012630282429123e-9 1.8877485114845427e-9 9.735502593324962e-9
          3.6960402820476e-8 3.500809535430205e-8 3.667901787681946e-8 3.42507258066893e-8 2.7772554658082608e-8 2.6909705799368887e-8
          4.4259580271970506e-8 3.22471434612871e-8 2.864311450595526e-8 3.096689061619038e-8 1.9321383373575597e-8 2.529663073199379e-8
          3.9090524235153336e-8 9.23907081742497e-9 1.0849755376518924e-8 8.70321467951549e-9 1.0345323248233144e-8 7.2585686333348034e-9
          8.477877583002652e-9 8.741250770052838e-9 1.2460439935612882e-8 1.1987431816950799e-8 9.6971865326705e-9 1.8301306207597266e-10
          1.5727117474412805e-9 6.161803162045243e-10 1.1490843017072285e-10 9.257352090853083e-10 9.761678976776607e-11 4.853161763020308e-10
          2.8177257141656612e-11 4.2847378490677424e-10 2.862844283315535e-10 8.27007552929961e-11 2.3920955134530954e-10 5.5860669931799295e-11
          1.2327589413674198e-10 2.203829007825394e-11 1.7481571576958585e-10 9.243705343385824e-11 2.0539788363674633e-11 3.0401450302215196e-11
          8.553740067305917e-11 8.189792902526689e-11 1.1199189102874102e-11 7.085980175594164e-11 7.790028962554731e-12 2.2457685978962055e-11
          1.9542287274337843e-11 2.1942386246125547e-11 1.505350129824437e-10 1.3339440774831857e-10 1.3052041440900917e-10 3.712534299536938e-11
          1.063013773539014e-8 6.391161358913181e-9 6.016662834601742e-9 6.07193624201544e-9 6.127209649429137e-9 5.7527111251176975e-9
          7.307431832136494e-9 7.136498725949489e-9 8.333999771046267e-9 6.9655656197624845e-9 1.0948158934799182e-8 1.072783685625422e-8
          1.0507514777709257e-8 9.203841426385614e-9 9.1142609659968e-9 8.63115305594434e-9 9.085628008549171e-9 8.475057568942213e-9
          8.968669380171534e-9 9.790451948717064e-9 8.790763248852711e-9 5.211166122416725e-9 5.9655224044874526e-9 4.648440188335218e-9
          5.366491357705364e-9 6.738599300263201e-9 6.946043455084325e-9 3.0820334317261234e-9 4.8035785134127725e-9 2.3245482221088194e-9
          6.511632980763918e-9 4.9815813620035836e-9 5.009462237619957e-9 2.992512527883568e-9 4.187150887071324e-9 6.978744460934795e-9
          7.454605126002796e-9 2.4933718326252657e-10 6.371436372784306e-10 4.926218181082587e-10 4.839810251922381e-9 8.549040948468032e-9
          8.463172555891863e-9 8.62302432799385e-9 8.89820081068941e-9 9.551808731064674e-9 8.873886443959355e-9 9.56541295351859e-9
          8.827732241207283e-9 9.313165513412286e-9 8.957009639066e-9 1.1126020496215455e-8 1.0934481931970562e-8 1.150921364957514e-8
          1.074294336772567e-8 1.2187599534975722e-8 1.2043420104357758e-8 1.2564998058344589e-8 1.1899240673739793e-8 1.3205240322252211e-8
          1.3063704706451453e-8 1.3498367157157435e-8 1.2922169090650696e-8 1.4158841209102746e-8 1.3840216743471282e-8 1.4138998722694565e-8
          1.2847407303326032e-8 1.1311352963733528e-8 1.1270898479906307e-8 1.125968315126645e-8 1.0368574631000369e-8 1.1237763791870798e-8
          1.1055064089881165e-8 1.1850024605932547e-8 1.1690359695145083e-8 1.0872364387891533e-8 1.1530694784357619e-8 6.33527936168719e-9
          8.455486833317035e-9 7.751918168461153e-9 1.0629157826353699e-8 1.2500211968108157e-8 1.2313838507302516e-8 1.3164145805384353e-8
          1.2951408387755104e-8 1.2127465046496874e-8 1.2738670970125854e-8 7.140784111351716e-9 7.040624849743308e-9 7.463546256243035e-9
          8.638912474235528e-9 1.0424195260437194e-8 1.105153695956858e-8 1.011888465203436e-8 1.173812332178597e-8 1.2512222220149047e-8
          1.140133220443949e-8 8.102820120931628e-10 3.228695682508476e-9 7.291304397181976e-10 2.0942371661205635e-9 7.88500942565509e-9
          5.976326541341042e-9 1.5707559147773256e-10 3.818671497562029e-10 3.0325707690031795e-10 5.280735981273564e-9 6.80107950642445e-10
          8.768648607689803e-10 6.976033401113198e-10 8.53569738183181e-10 3.979009333893275e-9 4.1793093997039876e-9 1.9662825537162211e-10
          2.8580959186254847e-10 3.5544403828658627e-10 9.455110823775737e-10 1.013543751899095e-8 9.599905877465586e-9 1.0115840963918509e-8
          1.0729336402976415e-8 9.846679777544709e-9 8.159431156608215e-9 1.0112797275802655e-8 9.107999234245435e-9 9.744294104205379e-9
          1.1479617159695045e-8 1.2310069101334116e-8 6.4817256396191935e-9 6.973826108702715e-9 1.1557902114950602e-8 1.3850898959347346e-8
          1.360171461755724e-8 1.457023328574327e-8 1.4286203795503802e-8 1.3352530275767138e-8 1.3739373956985311e-8 8.061051403500436e-9
          7.916590123770281e-9 8.439083533163524e-9 9.756079677960062e-9 1.5319118454691006e-8 1.5004036435913666e-8 1.606798403458548e-8
          1.570694260191997e-8 1.4067521866709938e-8 1.4618928987935365e-8 9.11540914042609e-9 9.037358134053506e-9 9.64251471668342e-9
          8.650155594566426e-9 1.2218787734008127e-8 1.1223802207589e-8 1.3360959050189415e-8 1.1664421645576869e-8 1.2967864046163763e-8
          1.2413793060680469e-8 1.2774138061188615e-8 1.1381496805077392e-8 1.1656319315760958e-8 1.0967866254092558e-8 1.1610796019519156e-8