<?xml version="1.0"?>
<VTKFile type="UnstructuredGrid" version="0.1" byte_order="LittleEndian" header_type="UInt32" compressor="vtkZLibDataCompressor">
  <UnstructuredGrid>
    <Piece NumberOfPoints="1472" NumberOfCells="1049">
      <PointData>
        <DataArray type="Int32" Name="libmesh_node_id" format="ascii" RangeMin="2450" RangeMax="11291">
          2457 2684 2685 2686 2692 2890
          3417 3419 3422 3425 3439 3440
          3443 3445 3459 3460 3462 3465
          3491 3492 3494 3509 3510 3516
          3529 3530 3533 3535 3536 3538
          3549 3553 4522 4523 4524 4527
          4530 4544 4545 4548 4550 4572
          4573 4576 4578 4592 4593 4678
          4679 4681 4684 4694 4696 4698
          4712 4713 4715 4718 4728 4730
          4732 4764 4768 4792 4796 4813
          4814 4815 4819 4820 4821 4822
          4823 4824 4825 4840 4841 4842
          4843 4844 4845 4846 4847 4848
          4849 4908 4909 4910 4911 4912
          4913 4914 4915 4916 4917 4918
          4919 4922 4923 4925 4927 4928
          4929 4930 4931 4932 4933 4935
          4936 4938 4939 4945 4968 4969
          4970 4971 4972 4973 4974 4975
          4976 4977 4988 4989 4990 4991
          4992 4993 4994 5002 5003 5004
          5005 5006 5007 5008 5009 5010
          5011 5022 5023 5024 5025 5026
          5027 5028 5104 5105 5106 5107
          5108 5109 5110 5111 5113 5115
          5117 5118 5122 5132 5133 5134
          5135 5136 5137 5138 5139 5141
          5143 5145 5146 5150 6180 6183
          6201 6206 7617 7620 7634 7635
          7638 7640 7654 7655 7657 7660
          7670 7672 7674 7732 7742 7744
          7746 7760 7761 7764 7766 7808
          7809 7812 7814 7828 7829 7832
          7834 7862 7863 7866 8161 8162
          8163 8164 8165 8166 8167 8168
          8169 8170 8178 8179 8180 8181
          8182 8183 8184 8195 8196 8197
          8198 8199 8200 8201 8202 8203
          8204 8212 8213 8214 8215 8216
          8217 8218 8266 8267 8268 8269
          8270 8271 8272 8280 8281 8282
          8283 8284 8285 8286 8294 8295
          8296 8297 8298 8299 8300 8308
          8309 8310 8311 8312 8313 8314
          8393 8394 8395 8396 8397 8398
          8399 8400 8401 8402 8410 8411
          8412 8413 8414 8415 8416 8427
          8428 8429 8430 8431 8432 8433
          8434 8435 8436 8444 8445 8446
          8447 8448 8449 8450 8504 8505
          8506 8507 8508 8509 8510 8518
          8519 8520 8521 8522 8523 8524
          8532 8533 8534 8535 8536 8537
          8538 8546 8547 8548 8549 8550
          8551 8552 8601 8603 8605 8615
          8619 8629 8631 8633 8643 8647
          8803 8805 8807 8817 8821 8831
          8833 8835 8845 8849 8954 8955
          8956 8957 8958 8959 8960 8968
          8969 8971 8972 8974 8975 8976
          8977 8978 8979 8980 8981 8982
          8983 8984 8985 8986 8987 8988
          8989 8990 8991 8992 8993 8994
          8995 8996 8997 8998 8999 9000
          9001 9002 9003 9004 9005 9006
          9007 9008 9009 9010 9011 9012
          9013 9014 9015 9016 9017 9018
          9019 9020 9021 9022 9023 9024
          9025 9026 9027 9028 9043 9044
          9045 9046 9047 9048 9049 9050
          9052 9059 9060 9062 9077 9079
          9081 9083 9094 9095 9096 9097
          9098 9099 9100 9101 9102 9103
          9104 9105 9106 9107 9108 9109
          9110 9111 9112 9113 9114 9115
          9116 9117 9118 9119 9120 9121
          9122 9123 9124 9125 9126 9127
          9128 9129 9130 9131 9132 9133
          9134 9135 9138 9139 9141 9143
          9154 9155 9158 9159 9161 9163
          9350 9351 9352 9353 9354 9355
          9356 9357 9358 9359 9360 9361
          9362 9363 9364 9365 9366 9367
          9368 9369 9370 9371 9372 9373
          9374 9375 9376 9377 9378 9379
          9380 9381 9382 9383 9384 9385
          9386 9387 9388 9389 9390 9391
          9392 9393 9394 9395 9396 9397
          9398 9399 9400 9401 9404 9405
          9407 9409 9410 9411 9412 9413
          9414 9415 9416 9417 9418 9419
          9420 9421 9424 9425 9427 9429
          9430 9431 9432 9433 9434 9435
          9436 9437 9438 9439 9440 9441
          9442 9443 9444 9445 9446 9447
          9448 9449 9450 9451 9452 9453
          9454 9455 9456 9457 9458 9459
          9540 9541 9542 9543 9544 9545
          9546 9547 9548 9549 9550 9551
          9552 9553 9554 9555 9556 9557
          9558 9559 9560 9561 9562 9563
          9564 9565 9566 9567 9568 9569
          9570 9571 9572 9573 9574 9575
          9576 9577 9578 9579 9580 9581
          9582 9583 9584 9585 9586 9587
          9588 9589 9590 9591 9592 9593
          9594 9595 9596 9597 9598 9599
          9600 9601 9602 9603 9604 9605
          9606 9607 9608 9609 9612 9614
          9615 9617 9628 9630 9632 9634
          9642 9643 9646 9648 9649 9651
          9662 9664 9666 9668 9676 9677
          9678 9679 9680 9681 9682 9683
          9684 9685 9686 9687 9688 9689
          9690 9691 9692 9693 9694 9695
          9696 9697 9698 9699 9700 9701
          9702 9703 9704 9705 9706 9707
          9708 9709 9710 9711 9712 9713
          9714 9715 9716 9717 9718 9719
          9720 9721 9722 9723 9724 9725
          9726 9727 9728 9729 9730 9731
          9732 9734 9736 9738 9746 9748
          9750 9752 9760 9762 9764 9766
          9774 9776 9778 9780 9788 9789
          9790 9791 9792 9793 9794 9795
          9796 9797 9798 9799 9800 9801
          9802 9803 9804 9805 9806 9807
          9808 9809 9810 9811 9812 9813
          9814 9815 9816 9817 9818 9819
          9820 9821 9822 9823 9824 9825
          9826 9827 9828 9829 9830 9831
          9832 9833 9834 9835 9836 9837
          9838 9839 9840 9841 9842 9843
          9844 9845 9846 9847 9848 9849
          9850 9851 9852 9853 9854 9855
          9856 9857 9860 9862 9863 9865
          9876 9878 9880 9882 9890 9891
          9894 9896 9897 9899 9910 9912
          9914 9916 9924 9925 9926 9927
          9928 9929 9930 9931 9932 9933
          9934 9935 9936 9937 9938 9939
          9940 9941 9942 9943 9944 9945
          9946 9947 9948 9949 9950 9951
          9952 9953 9954 9955 9956 9957
          9958 9959 9960 9961 9962 9963
          9964 9965 9966 9967 9968 9969
          9970 9971 9972 9973 9974 9975
          9976 9977 9978 9979 9980 9982
          9984 9986 9994 9996 9998 10000
          10008 10010 10012 10014 10022 10024
          10026 10028 10532 10533 10534 10535
          10536 10537 10538 10539 10540 10541
          10542 10543 10544 10545 10546 10547
          10548 10549 10550 10551 10552 10553
          10554 10555 10556 10557 10558 10559
          10560 10561 10562 10563 10564 10565
          10566 10567 10568 10569 10570 10571
          10572 10573 10574 10575 10576 10577
          10578 10579 10580 10581 10582 10583
          10584 10585 10586 10587 10588 10589
          10590 10591 10592 10593 10594 10595
          10597 10599 10601 10602 10603 10604
          10605 10606 10607 10608 10609 10611
          10613 10615 10616 10617 10618 10619
          10620 10621 10622 10623 10625 10627
          10629 10630 10631 10632 10633 10634
          10635 10636 10637 10639 10641 10643
          10644 10645 10646 10647 10648 10649
          10650 10651 10652 10653 10655 10656
          10657 10678 10679 10680 10681 10682
          10683 10684 10685 10686 10687 10689
          10690 10691 10706 10707 10710 10711
          10713 10714 10717 10720 10743 10744
          10747 10748 10750 10754 10771 10772
          10773 10774 10775 10776 10777 10778
          10779 10780 10781 10782 10783 10784
          10785 10786 10787 10788 10789 10790
          10791 10792 10793 10794 10795 10796
          10797 10798 10799 10800 10801 10802
          10803 10804 10805 10806 10807 10808
          10809 10810 10811 10812 10813 10814
          10815 10816 10817 10818 10819 10820
          10821 10822 10823 10824 10825 10826
          10827 10828 10829 10830 10831 10832
          10833 10834 10836 10838 10840 10841
          10842 10843 10844 10845 10846 10847
          10848 10849 10850 10852 10853 10854
          10855 10856 10857 10858 10859 10860
          10861 10862 10864 10866 10868 10869
          10870 10871 10872 10873 10874 10875
          10876 10877 10878 10880 10881 10882
          10883 10884 10885 10886 10887 10888
          10889 10890 10891 10892 10894 10895
          10896 10911 10912 10913 10914 10915
          10916 10917 10918 10919 10920 10922
          10923 10924 10939 10940 10943 10944
          10946 10950 10967 10968 10971 10972
          10974 10978 2897 2902 2893 2695
          2701 2450 3482 3488 3484 3489
          3511 3490 3512 3513 3514 3515
          4833 4850 4834 4851 4854 4855
          4920 4856 4921 4924 4934 4940
          4941 4942 4943 4944 3517 4946
          4947 3518 2702 6204 6207 4816
          6211 6216 4827 8970 4818 4817
          8973 9036 9037 9038 9042 4829
          9051 9039 9040 9053 9054 9057
          9055 9056 4836 9061 9058 4837
          9078 9080 9082 4839 9136 9137
          9140 9142 4857 9156 9157 9160
          9162 4859 9168 9169 9402 9170
          9403 9406 9173 2697 9408 4926
          9422 9423 9426 9428 9610 9611
          9613 4978 9616 4979 9629 9631
          9633 4982 9644 9645 9647 4984
          9650 4985 9663 9665 9667 4987
          9733 9735 9737 4995 9747 9749
          9751 4997 9761 9763 9765 4999
          9775 9777 9779 5001 9858 9859
          9861 5012 9864 5013 9877 9879
          9881 5016 9892 9893 9895 5018
          9898 5019 9911 9913 9915 5021
          9981 9983 9985 5029 9995 9997
          9999 5031 10009 10011 10013 5033
          10023 10025 10027 5035 9755 9756
          10596 10598 9759 4998 10600 5112
          10610 10612 10614 5114 9783 9784
          10624 10626 9787 3534 10628 5116
          10638 10640 10642 3550 10654 5119
          10688 5123 10708 10709 10712 5125
          10715 10716 10718 10719 10721 10722
          5126 10723 10670 10724 10671 10725
          10726 10733 10734 10735 10736 10745
          10746 10749 5129 10751 10752 10753
          10755 10756 5130 10003 10004 10835
          10837 10007 5032 10839 5140 10851
          5142 10031 10032 10863 10865 10035
          2705 10867 5144 10879 3554 10893
          5147 10921 5151 10941 10942 10945
          5153 10947 10948 10949 10951 10952
          5154 10969 10970 10973 5157 10975
          10976 10977 10979 10980 5158 11029
          11041 11245 11257 11043 11259 11249
          11261 11263 11273 11285 11287 11277
          11289 11291
        </DataArray>
        <DataArray type="Float64" Name="bounds" format="ascii" RangeMin="0" RangeMax="0">
          0 0 0 0 0 0
          0 0 0 0 0 0
          0 0 0 0 0 0
          0 0 0 0 0 0
          0 0 0 0 0 0
          0 0 0 0 0 0
          0 0 0 0 0 0
          0 0 0 0 0 0
          0 0 0 0 0 0
          0 0 0 0 0 0
          0 0 0 0 0 0
          0 0 0 0 0 0
          0 0 0 0 0 0
          0 0 0 0 0 0
          0 0 0 0 0 0
          0 0 0 0 0 0
          0 0 0 0 0 0
          0 0 0 0 0 0
          0 0 0 0 0 0
          0 0 0 0 0 0
          0 0 0 0 0 0
          0 0 0 0 0 0
          0 0 0 0 0 0
          0 0 0 0 0 0
          0 0 0 0 0 0
          0 0 0 0 0 0
          0 0 0 0 0 0
          0 0 0 0 0 0
          0 0 0 0 0 0
          0 0 0 0 0 0
          0 0 0 0 0 0
          0 0 0 0 0 0
          0 0 0 0 0 0
          0 0 0 0 0 0
          0 0 0 0 0 0
          0 0 0 0 0 0
          0 0 0 0 0 0
          0 0 0 0 0 0
          0 0 0 0 0 0
          0 0 0 0 0 0
          0 0 0 0 0 0
          0 0 0 0 0 0
          0 0 0 0 0 0
          0 0 0 0 0 0
          0 0 0 0 0 0
          0 0 0 0 0 0
          0 0 0 0 0 0
          0 0 0 0 0 0
          0 0 0 0 0 0
          0 0 0 0 0 0
          0 0 0 0 0 0
          0 0 0 0 0 0
          0 0 0 0 0 0
          0 0 0 0 0 0
          0 0 0 0 0 0
          0 0 0 0 0 0
          0 0 0 0 0 0
          0 0 0 0 0 0
          0 0 0 0 0 0
          0 0 0 0 0 0
          0 0 0 0 0 0
          0 0 0 0 0 0
          0 0 0 0 0 0
          0 0 0 0 0 0
          0 0 0 0 0 0
          0 0 0 0 0 0
          0 0 0 0 0 0
          0 0 0 0 0 0
          0 0 0 0 0 0
          0 0 0 0 0 0
          0 0 0 0 0 0
          0 0 0 0 0 0
          0 0 0 0 0 0
          0 0 0 0 0 0
          0 0 0 0 0 0
          0 0 0 0 0 0
          0 0 0 0 0 0
          0 0 0 0 0 0
          0 0 0 0 0 0
          0 0 0 0 0 0
          0 0 0 0 0 0
          0 0 0 0 0 0
          0 0 0 0 0 0
          0 0 0 0 0 0
          0 0 0 0 0 0
          0 0 0 0 0 0
          0 0 0 0 0 0
          0 0 0 0 0 0
          0 0 0 0 0 0
          0 0 0 0 0 0
          0 0 0 0 0 0
          0 0 0 0 0 0
          0 0 0 0 0 0
          0 0 0 0 0 0
          0 0 0 0 0 0
          0 0 0 0 0 0
          0 0 0 0 0 0
          0 0 0 0 0 0
          0 0 0 0 0 0
          0 0 0 0 0 0
          0 0 0 0 0 0
          0 0 0 0 0 0
          0 0 0 0 0 0
          0 0 0 0 0 0
          0 0 0 0 0 0
          0 0 0 0 0 0
          0 0 0 0 0 0
          0 0 0 0 0 0
          0 0 0 0 0 0
          0 0 0 0 0 0
          0 0 0 0 0 0
          0 0 0 0 0 0
          0 0 0 0 0 0
          0 0 0 0 0 0
          0 0 0 0 0 0
          0 0 0 0 0 0
          0 0 0 0 0 0
          0 0 0 0 0 0
          0 0 0 0 0 0
          0 0 0 0 0 0
          0 0 0 0 0 0
          0 0 0 0 0 0
          0 0 0 0 0 0
          0 0 0 0 0 0
          0 0 0 0 0 0
          0 0 0 0 0 0
          0 0 0 0 0 0
          0 0 0 0 0 0
          0 0 0 0 0 0
          0 0 0 0 0 0
          0 0 0 0 0 0
          0 0 0 0 0 0
          0 0 0 0 0 0
          0 0 0 0 0 0
          0 0 0 0 0 0
          0 0 0 0 0 0
          0 0 0 0 0 0
          0 0 0 0 0 0
          0 0 0 0 0 0
          0 0 0 0 0 0
          0 0 0 0 0 0
          0 0 0 0 0 0
          0 0 0 0 0 0
          0 0 0 0 0 0
          0 0 0 0 0 0
          0 0 0 0 0 0
          0 0 0 0 0 0
          0 0 0 0 0 0
          0 0 0 0 0 0
          0 0 0 0 0 0
          0 0 0 0 0 0
          0 0 0 0 0 0
          0 0 0 0 0 0
          0 0 0 0 0 0
          0 0 0 0 0 0
          0 0 0 0 0 0
          0 0 0 0 0 0
          0 0 0 0 0 0
          0 0 0 0 0 0
          0 0 0 0 0 0
          0 0 0 0 0 0
          0 0 0 0 0 0
          0 0 0 0 0 0
          0 0 0 0 0 0
          0 0 0 0 0 0
          0 0 0 0 0 0
          0 0 0 0 0 0
          0 0 0 0 0 0
          0 0 0 0 0 0
          0 0 0 0 0 0
          0 0 0 0 0 0
          0 0 0 0 0 0
          0 0 0 0 0 0
          0 0 0 0 0 0
          0 0 0 0 0 0
          0 0 0 0 0 0
          0 0 0 0 0 0
          0 0 0 0 0 0
          0 0 0 0 0 0
          0 0 0 0 0 0
          0 0 0 0 0 0
          0 0 0 0 0 0
          0 0 0 0 0 0
          0 0 0 0 0 0
          0 0 0 0 0 0
          0 0 0 0 0 0
          0 0 0 0 0 0
          0 0 0 0 0 0
          0 0 0 0 0 0
          0 0 0 0 0 0
          0 0 0 0 0 0
          0 0 0 0 0 0
          0 0 0 0 0 0
          0 0 0 0 0 0
          0 0 0 0 0 0
          0 0 0 0 0 0
          0 0 0 0 0 0
          0 0 0 0 0 0
          0 0 0 0 0 0
          0 0 0 0 0 0
          0 0 0 0 0 0
          0 0 0 0 0 0
          0 0 0 0 0 0
          0 0 0 0 0 0
          0 0 0 0 0 0
          0 0 0 0 0 0
          0 0 0 0 0 0
          0 0 0 0 0 0
          0 0 0 0 0 0
          0 0 0 0 0 0
          0 0 0 0 0 0
          0 0 0 0 0 0
          0 0 0 0 0 0
          0 0 0 0 0 0
          0 0 0 0 0 0
          0 0 0 0 0 0
          0 0 0 0 0 0
          0 0 0 0 0 0
          0 0 0 0 0 0
          0 0 0 0 0 0
          0 0 0 0 0 0
          0 0 0 0 0 0
          0 0 0 0 0 0
          0 0 0 0 0 0
          0 0 0 0 0 0
          0 0 0 0 0 0
          0 0 0 0 0 0
          0 0 0 0 0 0
          0 0 0 0 0 0
          0 0 0 0 0 0
          0 0 0 0 0 0
          0 0 0 0 0 0
          0 0 0 0 0 0
          0 0 0 0 0 0
          0 0 0 0 0 0
          0 0 0 0 0 0
          0 0 0 0 0 0
          0 0 0 0 0 0
          0 0 0 0 0 0
          0 0 0 0 0 0
          0 0 0 0 0 0
          0 0 0 0 0 0
          0 0 0 0 0 0
          0 0 0 0 0 0
          0 0 0 0 0 0
          0 0
        </DataArray>
        <DataArray type="Float64" Name="gradient_error" format="ascii" RangeMin="4.201716668421274e-12" RangeMax="3.5231840427094678e-9">
          1.3747130215147351e-9 1.8679455862911856e-10 3.2767731261001706e-10 1.305152280166635e-10 1.5416077750070225e-9 6.79094948692719e-11
          8.903893922890588e-11 1.275956769664327e-10 2.232493248202088e-10 2.6081815425861124e-10 2.104641760809158e-10 1.4315537609765686e-10
          5.127412390763953e-11 4.1725507852130156e-11 2.224550867875538e-9 1.7362560017489457e-9 8.407812231727601e-10 2.1997597496421375e-9
          1.881517997478236e-10 1.4762981255579577e-10 7.155577368843347e-11 9.848469758641286e-11 6.795166563435958e-11 2.19402868471251e-11
          1.5715386959958388e-9 1.221185899315452e-9 5.620090271162686e-10 1.7189812226991603e-9 1.837551184069895e-9 1.139083459983463e-9
          1.4393358549851656e-10 3.355207747388467e-10 7.920214405589107e-11 1.0320206241361293e-10 9.76717910547075e-11 1.1033527945354323e-10
          3.0951898775012274e-10 1.6166049841851434e-10 1.4228832429542773e-10 1.291611387173663e-10 1.9557307702797048e-10 1.3080748214312144e-10
          8.216932462063408e-11 4.725614947172162e-11 7.787760636958477e-11 4.127806790377776e-11 4.163125227516199e-11 9.145112735882305e-10
          8.634698423599531e-10 7.25947450431091e-10 2.0898451092439248e-9 5.414494180165814e-10 3.564714791501503e-10 1.2842363119682002e-9
          3.4730130933154872e-9 3.3904360007346887e-9 3.0211364218035883e-9 1.6533389900917069e-9 2.262689635824492e-9 1.4773853856099105e-9
          2.1395295011995535e-9 2.0666076611140446e-10 4.795212673917968e-10 8.592579815494554e-10 9.739976031416407e-10 5.466362027725345e-11
          7.560825858797628e-11 7.140644517200192e-11 1.1305123152216132e-10 1.091112328493138e-10 7.736184198574212e-11 2.514940139659106e-10
          2.3709188589926023e-10 1.7708426084372e-10 1.9868170999294084e-10 2.0641520312723372e-10 1.3276115259741045e-10 1.4550192373358993e-10
          9.377833516791578e-11 1.4533064142425145e-10 9.258352079803098e-11 6.495663828006667e-11 1.477671176727326e-10 1.0903845964581516e-10
          9.770735532143719e-11 9.245955716368064e-11 5.836986078482025e-11 6.436569126256272e-11 4.075020398245077e-11 5.3526004829123326e-11
          3.347583495835301e-11 2.3448363186570383e-11 5.7702516138956336e-11 4.189572326931099e-11 3.056454830476783e-11 4.411091741394618e-11
          2.802115350998319e-11 2.5367414327568536e-11 2.0778760553742542e-11 2.9722528413931254e-11 1.9585066816463394e-11 2.875865939028742e-11
          2.930010144523897e-11 1.98273779169425e-11 2.0335749477414664e-11 1.4912804640488695e-11 2.5970270706827813e-11 2.5019486145641298e-11
          1.765742913367063e-11 1.3231359868162673e-11 1.860262263222799e-11 1.681239568534128e-11 7.438906140717724e-10 7.007383069998969e-10
          5.883168533816176e-10 5.529420106869818e-10 5.850012225929725e-10 4.584879520493982e-10 1.8934555469638257e-9 1.7764890623048973e-9
          1.4749627017805146e-9 1.4728053351065587e-9 4.312950113536402e-10 3.343152626547628e-10 2.7966461492727255e-10 2.1377786308737475e-10
          1.0820064727735844e-9 8.887088675067716e-10 6.967976097441853e-10 3.3104195558556803e-9 3.164552456030446e-9 2.9104778404594446e-9
          2.7360662835236405e-9 2.6721504489132884e-9 2.255196399047391e-9 1.6027189065869082e-9 1.8564238227700572e-9 1.8002593233394899e-9
          2.10349740855536e-9 1.9474141834020028e-9 1.6487512544145733e-9 1.2753234720599172e-9 1.0761030222744032e-9 1.8454117477068852e-9
          1.5427127646412412e-9 1.334695645278087e-9 1.5940942936814513e-10 1.200551664626664e-10 8.03789551858458e-11 5.968397790564495e-11
          3.8817483651623886e-10 3.059175694493277e-10 1.8683996974218385e-10 8.815899227977678e-11 4.3275405967695097e-11 2.34376088479382e-10
          1.0809142060578155e-10 3.6276820657947637e-11 7.900836927328482e-11 7.25386575586371e-10 5.958392613798635e-10 3.4582760211253294e-10
          2.7573926905500754e-10 8.315488536074487e-10 6.912663248379703e-10 4.1634193911594875e-10 4.751519173152538e-10 2.1394838753749462e-10
          5.580416866922893e-10 2.629977062065238e-10 1.4009531232560729e-10 1.708298050758237e-10 8.217813227559412e-11 7.63199411984269e-11
          5.731920831621747e-11 5.435963073403214e-11 5.3150918015890145e-11 1.0180878062603256e-10 3.810506497263366e-11 5.0348751682638267e-11
          4.8035528341434204e-11 9.056611395263762e-11 1.8631421861593613e-10 1.837031152837625e-10 1.7605516049007862e-10 3.230288838156931e-10
          1.6460666780128674e-10 1.5006740915461006e-10 2.8824834462754133e-10 8.091221311477483e-11 1.3235021945693485e-10 1.1287105654056236e-10
          2.2920825341276933e-10 6.773366933181554e-11 9.350972662479934e-11 7.54497740188295e-11 1.620637765153488e-10 4.325778313711773e-11
          5.953762575820445e-11 4.582069719314083e-11 1.0220444918923858e-10 2.528436963652801e-11 3.434183952019519e-11 2.5123528631079274e-11
          5.777027140097099e-11 1.3615657865870279e-11 1.7793251686561094e-11 1.459542159095089e-11 6.218018559119682e-10 6.131387413898479e-10
          5.578621187439997e-10 5.499218686720709e-10 5.87829876640598e-10 5.26737665914306e-10 1.0038097784246715e-9 9.898271668890398e-10
          9.014891784813963e-10 9.489669592280444e-10 5.478252497664421e-10 4.90145695989973e-10 4.9610968645143e-10 4.4295330733528674e-10
          8.843644513709342e-10 8.034395101236532e-10 8.008172790814678e-10 1.5645021037847537e-9 1.5421743368210868e-9 1.444374160916695e-9
          1.4234997002504666e-9 1.4772080351141163e-9 1.3626677580053461e-9 2.385669766115093e-9 2.3499131294335354e-9 2.1900247149500535e-9
          2.2450031556593764e-9 1.3751506037519657e-9 1.267010649164137e-9 1.2440414226145892e-9 1.144122698914531e-9 2.07958856142685e-9
          1.933686120972907e-9 1.8691440389874857e-9 4.3638437142484955e-10 3.886146002510851e-10 3.72671962135291e-10 3.308647712713342e-10
          7.042322014920693e-10 6.366021724188265e-10 6.010129598956686e-10 3.088985970925873e-10 2.7331256598743177e-10 2.484866277931393e-10
          2.190511893916726e-10 4.974183083407739e-10 4.4635743080168393e-10 3.98991760120517e-10 1.093250370743525e-9 1.002840724414956e-9
          9.324571054393093e-10 8.524625416969236e-10 1.6324569257477415e-9 1.5147506349209892e-9 1.3866911253021375e-9 7.710685722695157e-10
          7.020501053201982e-10 6.174925090943641e-10 5.595440407981637e-10 1.144326745854573e-9 1.0562209062937927e-9 9.150730545921696e-10
          3.3071850716187013e-9 3.2662106292553544e-9 3.1563518556036775e-9 3.1146597627165528e-9 3.1439688577062436e-9 2.989027400365389e-9
          3.5231840427094678e-9 3.5099589061399903e-9 3.4543573329103456e-9 3.458497649134723e-9 2.9402584733703837e-9 2.7800456547882876e-9
          2.657790625540859e-9 2.496644151894428e-9 3.3452920419766843e-9 3.257290737107337e-9 3.144320157934544e-9 2.332721588080654e-9
          2.3653822349255844e-9 2.3489685954693233e-9 2.3876023053693164e-9 2.4619233519993828e-9 2.488516698895525e-9 1.3585882033102716e-9
          1.4124359588905071e-9 1.4492934394505388e-9 1.5940108619201677e-9 2.593226240411514e-9 2.6115251406326023e-9 2.6934552703419405e-9
          2.6648659007341497e-9 1.8816253261096537e-9 1.942798401577065e-9 2.1803120146791328e-9 2.3146705414169163e-9 2.163151925931915e-9
          1.947776996931938e-9 1.816617344904361e-9 2.8278488236729227e-9 2.6753588018177217e-9 2.4146396833300266e-9 1.5947764275115741e-9
          1.4865221257252273e-9 1.2725860160611993e-9 1.183100713686166e-9 1.978034326382507e-9 1.8494006263233664e-9 1.57896257555183e-9
          2.6534280729975978e-9 2.5555013327573475e-9 2.4203504189736484e-9 2.281947834138687e-9 2.3373349954979783e-9 2.2764308517873177e-9
          2.2605699349846442e-9 2.0572055266779727e-9 1.920842929506786e-9 1.6739030137316704e-9 1.5660703537191867e-9 1.9908639553805716e-9
          1.856655757128686e-9 1.65061252481339e-9 1.7038232466172984e-10 1.2868650418860364e-10 2.757458035217452e-10 9.445492672534441e-11
          1.5018272680213888e-10 4.3119361823366776e-10 3.2117368217315665e-10 6.465207398726044e-10 2.3134003815236655e-10 3.4292079129835023e-10
          9.105749132441139e-10 6.750208919157621e-10 1.1483586577605081e-9 4.81073059536739e-10 6.159009435503282e-10 1.2483762267693685e-9
          9.56380231071472e-10 1.2512123335088591e-9 6.977223070431256e-10 7.190305062154369e-10 3.135051983850702e-11 4.51594956580888e-11
          3.818169288172919e-11 8.856535505077167e-11 8.734902692907936e-11 7.455252703086433e-11 8.373284120321841e-11 2.2236108152063453e-11
          3.211180247683967e-11 6.414461607020619e-11 6.323907096196915e-11 6.053128528795235e-11 3.280290688741694e-11 4.2725550524335406e-11
          2.7584409081399434e-11 3.605261898659827e-11 3.4479140793892876e-11 4.116490639981112e-11 3.473109237310142e-11 7.718875046431856e-11
          6.562596551052953e-11 7.825941296044384e-11 2.3184554482566506e-11 3.031368419888933e-11 1.959092364493668e-11 2.5306829132881427e-11
          2.440691480846397e-11 2.922597611323051e-11 2.436558072192035e-11 5.5570112044585004e-11 4.6728437067477994e-11 5.607627723729837e-11
          1.6167524406214264e-10 1.593722937911102e-10 1.3951570495343404e-10 1.375000558799742e-10 1.5261135905109636e-10 1.3157756024340848e-10
          2.8796445424507594e-10 2.8380712567812865e-10 2.4780615572442124e-10 2.71731264855771e-10 1.1970949189451827e-10 1.179597766269874e-10
          1.0219510083087617e-10 1.0068907851162676e-10 1.128106621497126e-10 9.624492079277073e-11 2.182388854964055e-10 2.1499382907588755e-10
          1.8531912911460127e-10 2.055634001177379e-10 1.4246403133208107e-10 1.2256410911059831e-10 1.296157625073472e-10 1.1115127409008715e-10
          2.5274906981969497e-10 2.202741937622395e-10 2.283232799084318e-10 1.0492994640850529e-10 8.94143918810046e-11 9.496627355250783e-11
          8.078560695616595e-11 1.9076720169116457e-10 1.6416362357975304e-10 1.7180477611667345e-10 1.710585328474727e-11 2.0817048373504424e-11
          1.6226633023554314e-11 1.8697764564826865e-11 1.7348560326938555e-11 1.9975344712531844e-11 1.7946893022276e-11 3.885188294903556e-11
          3.950036738553211e-11 1.610629566547826e-10 1.5861084422720176e-10 1.5148049028168433e-10 7.599007798745091e-11 6.842086606451125e-11
          1.4030063420634495e-10 1.260184510212125e-10 8.24252158181741e-11 1.1404337762545217e-10 6.961686321085239e-11 9.7583485935646e-11
          6.989517775565119e-11 9.707352946440607e-11 8.30082452647526e-11 2.002488952585765e-10 1.7392722482096904e-10 1.7047681868101162e-10
          5.887314469744529e-11 8.322460026872013e-11 4.968596056205546e-11 7.067103674771738e-11 4.993401141872903e-11 7.070150084174799e-11
          5.993862072901612e-11 1.5013530991000213e-10 1.2879684048271667e-10 1.2731984245606922e-10 5.7824872406084193e-11 8.040323443146947e-11
          4.914041557535744e-11 6.880117600829338e-11 4.668473561740204e-11 6.486741754636015e-11 5.552858727277414e-11 1.4092993056194468e-10
          1.2189722553164672e-10 1.1321421662128013e-10 4.1533622217077016e-11 5.855821504819444e-11 3.4933365404269725e-11 4.957664178234327e-11
          3.367368244182859e-11 4.721841009872182e-11 3.992083113748376e-11 1.048307429444788e-10 8.961972391430841e-11 8.38592106258751e-11
          4.1763201868109276e-11 5.969180087950997e-11 3.5277000509274404e-11 5.0550341063000265e-11 1.0978735641942549e-10 9.280351508580487e-11
          2.928159641430999e-11 4.176489327432517e-11 2.3701360421836602e-11 3.3592709316505433e-11 7.615094040889858e-11 6.069285265933131e-11
          3.69846847970904e-11 5.108867445088289e-11 3.151156648648505e-11 4.3657619889869784e-11 2.8583097760585905e-11 3.92134754446146e-11
          3.3426420116956834e-11 8.842319857904989e-11 7.613309560160411e-11 6.718643558470354e-11 2.658889418707726e-11 3.705825014929946e-11
          2.2301367799664928e-11 3.127902267118792e-11 2.044743965289639e-11 2.8316818055384428e-11 2.386370058858885e-11 6.52011792121878e-11
          5.552127521966878e-11 4.930369607205731e-11 2.1510431187333334e-11 2.9318931346397965e-11 1.824181532420577e-11 2.4938067482445013e-11
          1.5853265727450625e-11 2.139918585581651e-11 1.8162229607355564e-11 4.9692327619987654e-11 4.256396436381379e-11 3.57831464939319e-11
          1.533729629261708e-11 2.1080643486598704e-11 1.2864013420796949e-11 1.7733687471376736e-11 1.1272422091793022e-11 1.5315663385771116e-11
          1.2844976104404599e-11 3.627924878476861e-11 3.075731015309908e-11 2.597791253685435e-11 1.8651474946445868e-11 2.6277603672496702e-11
          1.552167640084813e-11 2.195530779252545e-11 1.4332551751589006e-11 2.0026005009274196e-11 1.6718425577347285e-11 4.700294148525878e-11
          3.9558082877869305e-11 3.539153599974139e-11 1.2807503564361674e-11 1.822395140714503e-11 9.835555672095048e-12 1.3857816477469121e-11
          3.309896819812563e-11 2.4821753775474705e-11 1.0834627130357792e-11 1.4856526062797383e-11 9.106647773225561e-12 1.2350442907049975e-11
          8.116528688856925e-12 1.0676288296523426e-11 9.546626781529858e-12 2.5944668029039678e-11 2.1725413078479953e-11 1.8371895155528175e-11
          7.542129762492039e-12 1.0184929896556447e-11 6.6239112258095486e-12 8.505645399059728e-12 1.804228495595038e-11 1.4433599267783468e-11
          1.1543354410424253e-11 1.5118624780878792e-11 9.763079830731716e-12 1.2806926870742839e-11 9.855359293876306e-12 1.2381631715120548e-11
          1.047854421103553e-11 2.5012897535034012e-11 2.1308213069435655e-11 1.9092937808300908e-11 8.189226789476955e-12 1.0777784251430918e-11
          6.900403984038413e-12 9.034065154822498e-12 6.9827841789928415e-12 8.81028441726283e-12 7.403434992422125e-12 1.806334729114132e-11