<?xml version="1.0"?>
<VTKFile type="UnstructuredGrid" version="0.1" byte_order="LittleEndian" header_type="UInt32" compressor="vtkZLibDataCompressor">
  <UnstructuredGrid>
    <Piece NumberOfPoints="1463" NumberOfCells="1058">
      <PointData>
        <DataArray type="Int32" Name="libmesh_node_id" format="ascii" RangeMin="2452" RangeMax="13766">
          2728 2729 2730 2731 2738 2739
          2906 2907 3603 3604 3605 3606
          3607 3608 3609 3610 3611 3612
          3613 3614 3615 3616 3617 3618
          3619 3620 3624 3625 3627 3628
          3641 3642 3643 3644 3645 3646
          3647 3648 3649 3650 3651 3652
          3657 3658 5375 5376 5377 5378
          5379 5380 5381 5382 5383 5384
          5385 5386 5387 5388 5389 5390
          5391 5392 5393 5394 5395 5396
          5397 5398 5399 5400 5401 5402
          5403 5404 5405 5406 5407 5408
          5409 5410 5411 5412 5413 5414
          5415 5416 5417 5418 5419 5420
          5421 5422 5423 5424 5425 5426
          5427 5428 5429 5430 5431 5432
          5433 5434 5435 5436 5437 5438
          5439 5440 5441 5442 5443 5444
          5445 5446 5447 5449 5450 5455
          5457 5458 5460 5464 5465 5467
          5468 5469 5470 5471 5472 5473
          5474 5475 5476 5477 5478 5479
          5480 5481 5482 5483 5484 5485
          5486 5487 5488 5489 5490 5491
          5492 5493 5494 5495 5496 5497
          5498 5499 5500 5501 5502 5503
          5504 5505 5506 5507 5508 5509
          5510 5511 5512 5513 5514 5515
          5516 5517 5518 5519 5520 5521
          5522 5523 5524 5525 5526 5527
          5528 5529 5530 5531 5532 5533
          5534 5535 5536 5537 5538 5539
          5540 5541 5542 5543 5544 5559
          5560 5561 5563 5564 5565 5576
          5577 5578 5579 5580 5581 5582
          5583 5584 5585 5596 5597 5598
          5600 5601 5602 6290 6291 6297
          6300 6304 12144 12145 12146 12147
          12148 12149 12150 12151 12152 12153
          12154 12155 12156 12157 12158 12159
          12160 12161 12162 12163 12164 12165
          12166 12167 12168 12169 12170 12171
          12172 12173 12174 12175 12176 12177
          12178 12179 12180 12181 12182 12183
          12184 12185 12186 12187 12188 12189
          12190 12191 12192 12193 12194 12195
          12196 12197 12198 12199 12200 12201
          12202 12203 12204 12205 12206 12207
          12208 12209 12210 12211 12212 12213
          12214 12215 12216 12217 12218 12219
          12220 12221 12222 12223 12224 12225
          12226 12227 12228 12229 12230 12231
          12232 12233 12234 12235 12236 12237
          12238 12239 12240 12241 12242 12243
          12244 12245 12246 12247 12248 12249
          12250 12251 12252 12253 12254 12255
          12256 12257 12258 12259 12260 12261
          12262 12263 12264 12265 12266 12267
          12268 12269 12270 12271 12272 12273
          12274 12275 12276 12277 12278 12279
          12280 12281 12282 12283 12284 12285
          12286 12287 12288 12289 12290 12291
          12292 12293 12294 12295 12296 12297
          12298 12299 12300 12301 12302 12303
          12304 12305 12306 12307 12308 12309
          12310 12311 12312 12313 12314 12315
          12316 12317 12318 12319 12320 12321
          12322 12323 12324 12325 12326 12327
          12328 12329 12330 12331 12332 12333
          12334 12335 12336 12337 12338 12339
          12340 12341 12342 12343 12344 12345
          12346 12347 12348 12349 12350 12351
          12352 12353 12354 12355 12356 12357
          12358 12359 12360 12361 12362 12363
          12364 12365 12366 12367 12368 12369
          12370 12371 12372 12373 12374 12375
          12376 12377 12378 12379 12380 12381
          12382 12383 12384 12385 12386 12388
          12389 12390 12391 12392 12393 12394
          12395 12396 12397 12398 12399 12400
          12401 12402 12403 12404 12405 12406
          12407 12408 12409 12410 12411 12412
          12413 12414 12415 12416 12417 12418
          12419 12420 12421 12422 12423 12424
          12425 12426 12427 12428 12429 12430
          12431 12432 12433 12434 12435 12436
          12437 12438 12439 12440 12441 12444
          12445 12447 12450 12452 12453 12454
          12455 12456 12457 12458 12459 12460
          12461 12463 12465 12467 12469 12470
          12471 12472 12473 12474 12475 12476
          12477 12478 12479 12480 12481 12482
          12483 12484 12485 12486 12487 12488
          12489 12490 12491 12492 12493 12494
          12495 12496 12497 12498 12499 12500
          12501 12502 12503 12504 12505 12506
          12507 12508 12509 12510 12511 12512
          12513 12514 12515 12516 12517 12518
          12519 12520 12521 12522 12523 12524
          12525 12526 12527 12528 12529 12530
          12531 12532 12533 12534 12535 12536
          12537 12538 12539 12540 12541 12542
          12543 12544 12545 12546 12547 12548
          12549 12550 12551 12552 12553 12554
          12555 12556 12557 12558 12559 12560
          12561 12562 12563 12564 12565 12566
          12567 12568 12569 12570 12571 12573
          12575 12577 12579 12580 12581 12582
          12583 12584 12585 12587 12589 12591
          12593 12594 12595 12596 12597 12598
          12599 12600 12601 12602 12603 12604
          12605 12606 12607 12608 12609 12610
          12611 12612 12613 12614 12615 12616
          12617 12618 12619 12620 12621 12622
          12623 12624 12625 12626 12627 12628
          12629 12630 12631 12632 12633 12634
          12635 12636 12637 12638 12639 12640
          12641 12642 12643 12644 12645 12646
          12647 12648 12649 12650 12651 12652
          12653 12654 12655 12658 12659 12661
          12664 12666 12667 12668 12669 12670
          12671 12672 12673 12674 12675 12677
          12679 12681 12683 12684 12685 12686
          12687 12688 12689 12692 12693 12695
          12698 12700 12701 12702 12703 12704
          12705 12706 12707 12708 12709 12711
          12713 12715 12717 12718 12719 12720
          12721 12722 12723 12724 12725 12726
          12727 12728 12729 12730 12731 12732
          12733 12734 12735 12736 12737 12738
          12739 12740 12741 12742 12743 12744
          12745 12746 12747 12748 12749 12750
          12751 12752 12753 12754 12755 12756
          12757 12758 12759 12760 12761 12762
          12763 12764 12765 12766 12767 12768
          12769 12770 12771 12772 12773 12774
          12775 12776 12777 12778 12779 12780
          12781 12782 12783 12784 12785 12786
          12787 12788 12789 12790 12791 12793
          12795 12797 12799 12800 12801 12802
          12803 12804 12805 12807 12809 12811
          12813 12814 12815 12816 12817 12818
          12819 12821 12823 12825 12827 12828
          12829 12830 12831 12832 12833 12835
          12837 12839 12841 12842 12843 12844
          12845 12846 12847 12848 12849 12850
          12851 12852 12853 12854 12855 12856
          12857 12858 12859 12860 12861 12862
          12863 12864 12865 12866 12867 12868
          12869 12870 12871 12872 12873 12874
          12875 12876 12877 12878 12879 12880
          12881 12882 12883 12884 12885 12886
          12887 12888 12889 12890 12891 12892
          12893 12894 12895 12896 12897 12898
          12899 12900 12901 12902 12903 12904
          12905 12906 12907 12908 12909 12910
          12911 12912 12913 12914 12915 12916
          12917 12918 12919 12920 12921 12922
          12923 12924 12925 12926 12927 12928
          12929 12930 12931 12932 12933 12934
          12935 12936 12937 12938 12939 12940
          12941 12942 12943 12944 12945 12946
          12947 12948 12949 12950 12951 12952
          12953 12954 12955 12956 12957 12958
          12959 12960 12961 12962 12963 12964
          12965 12966 12967 12968 12969 12970
          12971 12972 12973 12974 12975 12979
          12980 12982 12983 12985 13000 13001
          13004 13005 13007 13009 13020 13021
          13024 13040 13042 13054 13055 13056
          13057 13058 13059 13060 13061 13062
          13063 13064 13065 13066 13067 13068
          13069 13070 13071 13072 13073 13074
          13075 13076 13077 13078 13079 13080
          13091 13092 13093 13094 13095 13096
          13097 13098 13099 13100 13101 13102
          13103 13104 13105 13106 13107 13108
          13109 13110 13111 13119 13120 13123
          13124 13126 13128 13159 13161 13187
          13188 13189 13190 13191 13192 13193
          13194 13195 13196 13197 13198 13199
          13200 13201 13202 13203 13204 13205
          13206 13207 13208 13209 13210 13211
          13212 13213 13214 13215 13216 13217
          13218 13219 13220 13221 13222 13223
          13224 13225 13226 13227 13228 13229
          13230 13231 13232 13233 13234 13235
          13236 13237 13238 13239 13240 13241
          13242 13243 13244 13245 13246 13247
          13248 13249 13250 13251 13252 13253
          13254 13323 13324 13325 13326 13327
          13328 13329 13330 13331 13332 13333
          13334 13335 13336 13337 13338 13339
          13340 13341 13342 13343 13351 13352
          13353 13354 13355 13356 13357 13358
          13359 13360 13361 13362 13363 13364
          13365 13366 13367 13368 13369 13370
          13371 13442 13443 13444 13445 13446
          13447 13476 13477 13480 13481 13497
          13498 13501 13502 13534 13535 13538
          13539 13684 13685 13688 13689 13712
          13713 13716 13717 13733 13734 13737
          13738 13761 13762 13765 13766 2899
          2900 2452 2698 2909 2910 2463
          2732 3499 3500 3501 3504 3621
          3622 3623 3626 4878 4879 4880
          4883 4900 4901 4904 4960 5448
          4961 6292 6293 6294 6295 6296
          6298 6299 5545 5546 5552 6301
          6302 6303 6305 6306 5566 9240
          9241 9242 9245 2699 9248 4886
          9262 9263 9266 9268 3507 9322
          9323 9326 9328 4906 9342 9343
          9346 9348 2700 9512 9513 9516
          9518 12387 4966 5454 10116 10117
          10119 5048 10122 5049 10132 10134
          10136 5051 10150 12442 12443 10151
          12446 10153 12448 12449 12451 12462
          10166 12464 10168 12466 12468 10236
          10238 10240 5064 10250 10252 10254
          5066 12572 10264 12574 10266 12576
          12578 12586 10278 12588 10280 12590
          12592 12656 12657 12660 12662 12663
          12665 12676 12678 12680 12682 12690
          12691 12694 12696 12697 12699 12710
          12712 12714 12716 12792 12794 12796
          12798 12806 12808 12810 12812 12820
          12822 12824 12826 12834 12836 12838
          12840 12976 12977 12978 12981 5547
          12984 5548 13002 13003 13006 13008
          5553 13022 13023 13025 13026 13027
          5555 13028 13029 5556 13041 13043
          13044 13045 13046 5558 13121 13122
          13125 13127 5567 13160 13162 13163
          13164 13165 5573 13255 13256 13259
          13261 13262 13264 13275 13277 13279
          13281 13289 13290 13293 13295 13296
          13298 13309 13311 13313 13315 13379
          13381 13383 13385 13407 13409 13411
          13413 13435 11059 13436 13437 11061
          13438 13439 11063 13440 13469 11087
          13470 13474 13473 13678 13677 13682
          13681 13706 13705 13710 13709
        </DataArray>
        <DataArray type="Float64" Name="bounds" format="ascii" RangeMin="0" RangeMax="0">
          0 0 0 0 0 0
          0 0 0 0 0 0
          0 0 0 0 0 0
          0 0 0 0 0 0
          0 0 0 0 0 0
          0 0 0 0 0 0
          0 0 0 0 0 0
          0 0 0 0 0 0
          0 0 0 0 0 0
          0 0 0 0 0 0
          0 0 0 0 0 0
          0 0 0 0 0 0
          0 0 0 0 0 0
          0 0 0 0 0 0
          0 0 0 0 0 0
          0 0 0 0 0 0
          0 0 0 0 0 0
          0 0 0 0 0 0
          0 0 0 0 0 0
          0 0 0 0 0 0
          0 0 0 0 0 0
          0 0 0 0 0 0
          0 0 0 0 0 0
          0 0 0 0 0 0
          0 0 0 0 0 0
          0 0 0 0 0 0
          0 0 0 0 0 0
          0 0 0 0 0 0
          0 0 0 0 0 0
          0 0 0 0 0 0
          0 0 0 0 0 0
          0 0 0 0 0 0
          0 0 0 0 0 0
          0 0 0 0 0 0
          0 0 0 0 0 0
          0 0 0 0 0 0
          0 0 0 0 0 0
          0 0 0 0 0 0
          0 0 0 0 0 0
          0 0 0 0 0 0
          0 0 0 0 0 0
          0 0 0 0 0 0
          0 0 0 0 0 0
          0 0 0 0 0 0
          0 0 0 0 0 0
          0 0 0 0 0 0
          0 0 0 0 0 0
          0 0 0 0 0 0
          0 0 0 0 0 0
          0 0 0 0 0 0
          0 0 0 0 0 0
          0 0 0 0 0 0
          0 0 0 0 0 0
          0 0 0 0 0 0
          0 0 0 0 0 0
          0 0 0 0 0 0
          0 0 0 0 0 0
          0 0 0 0 0 0
          0 0 0 0 0 0
          0 0 0 0 0 0
          0 0 0 0 0 0
          0 0 0 0 0 0
          0 0 0 0 0 0
          0 0 0 0 0 0
          0 0 0 0 0 0
          0 0 0 0 0 0
          0 0 0 0 0 0
          0 0 0 0 0 0
          0 0 0 0 0 0
          0 0 0 0 0 0
          0 0 0 0 0 0
          0 0 0 0 0 0
          0 0 0 0 0 0
          0 0 0 0 0 0
          0 0 0 0 0 0
          0 0 0 0 0 0
          0 0 0 0 0 0
          0 0 0 0 0 0
          0 0 0 0 0 0
          0 0 0 0 0 0
          0 0 0 0 0 0
          0 0 0 0 0 0
          0 0 0 0 0 0
          0 0 0 0 0 0
          0 0 0 0 0 0
          0 0 0 0 0 0
          0 0 0 0 0 0
          0 0 0 0 0 0
          0 0 0 0 0 0
          0 0 0 0 0 0
          0 0 0 0 0 0
          0 0 0 0 0 0
          0 0 0 0 0 0
          0 0 0 0 0 0
          0 0 0 0 0 0
          0 0 0 0 0 0
          0 0 0 0 0 0
          0 0 0 0 0 0
          0 0 0 0 0 0
          0 0 0 0 0 0
          0 0 0 0 0 0
          0 0 0 0 0 0
          0 0 0 0 0 0
          0 0 0 0 0 0
          0 0 0 0 0 0
          0 0 0 0 0 0
          0 0 0 0 0 0
          0 0 0 0 0 0
          0 0 0 0 0 0
          0 0 0 0 0 0
          0 0 0 0 0 0
          0 0 0 0 0 0
          0 0 0 0 0 0
          0 0 0 0 0 0
          0 0 0 0 0 0
          0 0 0 0 0 0
          0 0 0 0 0 0
          0 0 0 0 0 0
          0 0 0 0 0 0
          0 0 0 0 0 0
          0 0 0 0 0 0
          0 0 0 0 0 0
          0 0 0 0 0 0
          0 0 0 0 0 0
          0 0 0 0 0 0
          0 0 0 0 0 0
          0 0 0 0 0 0
          0 0 0 0 0 0
          0 0 0 0 0 0
          0 0 0 0 0 0
          0 0 0 0 0 0
          0 0 0 0 0 0
          0 0 0 0 0 0
          0 0 0 0 0 0
          0 0 0 0 0 0
          0 0 0 0 0 0
          0 0 0 0 0 0
          0 0 0 0 0 0
          0 0 0 0 0 0
          0 0 0 0 0 0
          0 0 0 0 0 0
          0 0 0 0 0 0
          0 0 0 0 0 0
          0 0 0 0 0 0
          0 0 0 0 0 0
          0 0 0 0 0 0
          0 0 0 0 0 0
          0 0 0 0 0 0
          0 0 0 0 0 0
          0 0 0 0 0 0
          0 0 0 0 0 0
          0 0 0 0 0 0
          0 0 0 0 0 0
          0 0 0 0 0 0
          0 0 0 0 0 0
          0 0 0 0 0 0
          0 0 0 0 0 0
          0 0 0 0 0 0
          0 0 0 0 0 0
          0 0 0 0 0 0
          0 0 0 0 0 0
          0 0 0 0 0 0
          0 0 0 0 0 0
          0 0 0 0 0 0
          0 0 0 0 0 0
          0 0 0 0 0 0
          0 0 0 0 0 0
          0 0 0 0 0 0
          0 0 0 0 0 0
          0 0 0 0 0 0
          0 0 0 0 0 0
          0 0 0 0 0 0
          0 0 0 0 0 0
          0 0 0 0 0 0
          0 0 0 0 0 0
          0 0 0 0 0 0
          0 0 0 0 0 0
          0 0 0 0 0 0
          0 0 0 0 0 0
          0 0 0 0 0 0
          0 0 0 0 0 0
          0 0 0 0 0 0
          0 0 0 0 0 0
          0 0 0 0 0 0
          0 0 0 0 0 0
          0 0 0 0 0 0
          0 0 0 0 0 0
          0 0 0 0 0 0
          0 0 0 0 0 0
          0 0 0 0 0 0
          0 0 0 0 0 0
          0 0 0 0 0 0
          0 0 0 0 0 0
          0 0 0 0 0 0
          0 0 0 0 0 0
          0 0 0 0 0 0
          0 0 0 0 0 0
          0 0 0 0 0 0
          0 0 0 0 0 0
          0 0 0 0 0 0
          0 0 0 0 0 0
          0 0 0 0 0 0
          0 0 0 0 0 0
          0 0 0 0 0 0
          0 0 0 0 0 0
          0 0 0 0 0 0
          0 0 0 0 0 0
          0 0 0 0 0 0
          0 0 0 0 0 0
          0 0 0 0 0 0
          0 0 0 0 0 0
          0 0 0 0 0 0
          0 0 0 0 0 0
          0 0 0 0 0 0
          0 0 0 0 0 0
          0 0 0 0 0 0
          0 0 0 0 0 0
          0 0 0 0 0 0
          0 0 0 0 0 0
          0 0 0 0 0 0
          0 0 0 0 0 0
          0 0 0 0 0 0
          0 0 0 0 0 0
          0 0 0 0 0 0
          0 0 0 0 0 0
          0 0 0 0 0 0
          0 0 0 0 0 0
          0 0 0 0 0 0
          0 0 0 0 0 0
          0 0 0 0 0 0
          0 0 0 0 0 0
          0 0 0 0 0 0
          0 0 0 0 0 0
          0 0 0 0 0 0
          0 0 0 0 0 0
          0 0 0 0 0 0
          0 0 0 0 0 0
          0 0 0 0 0 0
          0 0 0 0 0 0
          0 0 0 0 0 0
          0 0 0 0 0 0
          0 0 0 0 0 0
          0 0 0 0 0 0
          0 0 0 0 0
        </DataArray>
        <DataArray type="Float64" Name="gradient_error" format="ascii" RangeMin="1.3980264675294036e-13" RangeMax="5.686711947396185e-10">
          5.309460159707921e-12 3.759816322270222e-12 2.4547604930349504e-12 1.752274720217417e-12 1.1419490690027047e-10 4.07114613266435e-11
          3.4114566344204528e-12 2.8914396731545535e-12 1.2427917175289608e-11 1.0631676367405133e-11 9.517791874277494e-12 7.986125568858812e-12
          3.701079599357495e-12 3.2437937637264346e-12 2.725815964437355e-12 6.6693975950606825e-12 4.75526693681956e-12 1.614262226230397e-12
          7.118265302057407e-12 5.478039474053722e-12 1.87942936360366e-12 2.5126904437182565e-12 1.39873017130042e-12 1.2160581086657522e-12
          1.0098887774461067e-12 8.558140165244815e-13 8.113169812652549e-13 5.632351536523754e-13 1.1630918311797402e-12 1.1818640584641847e-12
          1.218786396839213e-10 8.822037400577e-11 4.606045923665957e-11 3.315831946004056e-11 3.373403552785289e-11 1.2509841075085235e-11
          2.627759084206199e-10 2.2351795766733478e-10 9.320456040661432e-11 1.0324713764128971e-10 1.546401904105605e-11 1.1094054361376257e-11
          4.266401661561602e-11 3.380372256234396e-11 1.1111000860466008e-11 1.0539586071725227e-11 7.393788819182993e-12 6.999330139070306e-12
          6.268786992190797e-12 4.39717678609714e-12 4.162936942966515e-12 8.976624249319465e-12 5.933916810211144e-12 3.5292996329446304e-12
          1.1687721398968458e-11 1.0947795439489637e-11 6.665933899641364e-12 9.004022719971593e-12 3.840686646953379e-12 3.6433167034356115e-12
          2.563708924831143e-12 2.4267820157382455e-12 2.0677820328452264e-12 1.4542433968334084e-12 1.3779979869697557e-12 3.1044548453086013e-12
          2.0583644844618273e-12 1.1674603318739076e-12 4.231876616147963e-12 3.961759802585843e-12 2.2967568270028775e-12 3.252093163060288e-12
          6.901912113346138e-12 4.523443434717271e-12 4.108279446977636e-12 2.691585252736846e-12 4.7786670974104204e-12 3.1008859836451653e-12
          1.8475820138732237e-12 6.514320865665124e-12 3.95696230127326e-12 4.153790589418322e-12 2.3713497461882345e-12 1.5667820857082316e-12
          1.2981602662135992e-12 1.2472791526112953e-12 1.6015796149214084e-12 1.4609575986991061e-12 1.5844003595253331e-12 2.340189285495977e-12
          1.6573155583724309e-12 1.816648480416992e-12 1.2073979908926721e-12 1.1398504392795277e-12 8.147934281468184e-13 7.683825853667717e-13
          5.856852466039296e-13 8.920765043864237e-13 8.431201055546245e-13 9.406676617527065e-13 9.437818725555235e-13 1.0155718512801609e-12
          1.3838536053375251e-12 1.2940512450766899e-12 1.093528989196885e-12 1.306342776439012e-12 6.935302066352133e-13 1.3534713417639065e-12
          4.0218737002323657e-13 1.0726637020226514e-12 5.025812926412237e-13 1.294676057421773e-12 7.549114582873913e-13 1.5441451828902368e-12
          1.1511685251981245e-12 1.3616003687493305e-12 2.9144125260230424e-12 1.7631295361487988e-12 2.2056359924710647e-12 2.3515082936104254e-12
          1.000475071871002e-12 1.673668621814131e-12 1.377476790586447e-12 1.7514034961646652e-12 1.4050608138600517e-12 4.8370139941115106e-11
          4.49785376134498e-11 3.0136609739477934e-11 2.8012370032653934e-11 3.6191105884405767e-11 2.2513858359828167e-11 1.893869725513625e-10
          1.7486732769311123e-10 1.1241008587730382e-10 1.3765234232599566e-10 1.8292327818308885e-11 1.6997557140163116e-11 1.081796067588102e-11
          1.004932964724652e-11 1.364880018121344e-11 8.06390697337348e-12 7.60553613402261e-11 7.008995874396992e-11 4.242102432912063e-11
          5.488306455740767e-11 2.5255205279563866e-11 1.5682506280499663e-11 1.5346311674601656e-11 9.505602378480711e-12 9.244459576172775e-11
          5.899521777988276e-11 5.3125593392736996e-11 9.494028135726822e-12 5.598235873575399e-12 5.738371688132369e-12 3.3738668488908565e-12
          3.657926490461797e-11 2.2041003788445424e-11 2.08316901388922e-11 4.725633067523772e-10 4.382514200023268e-10 3.170634127418174e-10
          2.9325283006461923e-10 3.482497523794756e-10 2.31335116767648e-10 3.75157745576806e-10 3.663876517294201e-10 2.5460573787173207e-10
          3.2744156319597254e-10 2.0495247943532623e-10 1.8915185858111308e-10 1.2782408685226212e-10 1.1777082930770651e-10 1.4834938456737532e-10
          9.195192470281232e-11 1.766762846211352e-10 1.7001522847592846e-10 1.0925088132048895e-10 1.469719349323222e-10 2.3506152937791784e-10
          1.5460907594179816e-10 1.33755523615873e-10 8.708691025262553e-11 2.4999538965189965e-10 1.6738858690464184e-10 1.5679386491631622e-10
          9.837937074561724e-11 6.061275835187082e-11 5.4971803661382203e-11 3.365256524115039e-11 1.0826114969612033e-10 6.770812807715559e-11
          6.585736262642175e-11 6.233254261157389e-12 5.788514984219427e-12 3.4937928485631633e-12 3.2432518097375582e-12 4.638524831764414e-12
          2.596268015104568e-12 2.7082766526355812e-11 2.4930639813295196e-11 1.4229530548039476e-11 1.945965004135395e-11 3.2136124013552307e-12
          1.7955441227056294e-12 1.9316498179295033e-12 1.290693956764925e-11 7.344713219087937e-12 7.304427646533545e-12 7.702559546369459e-11
          7.087665202880275e-11 4.489604425387101e-11 4.127074551528796e-11 5.5146961691819506e-11 3.2025090069200244e-11 7.106802781303029e-11
          6.765748771494058e-11 4.0447477610547165e-11 5.708516310072978e-11 3.617985558716755e-11 2.0932944292588832e-11 1.9985264078999212e-11
          4.09842103755772e-11 2.402527209072295e-11 2.4399618031305685e-11 3.246249433982455e-13 3.1382072835111463e-13 2.86376345565765e-13
          2.4417347534280613e-13 1.8462590183357447e-13 4.698031881780062e-12 4.626594982734304e-12 7.230767067824903e-12 7.118561955061008e-12
          3.620492886568901e-12 5.667744995232087e-12 5.579601584589054e-12 4.420679610268487e-12 6.793621942510517e-12 5.324455306951743e-12
          1.484394689787603e-11 1.4603481683337833e-11 1.1498019143865613e-11 1.3906000743180683e-11 2.843394261999412e-12 2.800007758975446e-12
          4.40889574275602e-12 4.34023073948398e-12 2.153312931835936e-12 3.409923469359942e-12 3.356733315115476e-12 2.674980360523028e-12
          4.141405611777169e-12 3.2027082716032184e-12 9.148476231075109e-12 8.999705100554291e-12 7.002283027340578e-12 8.56823249586287e-12
          4.1027967808170915e-12 6.287982638087362e-12 3.2101754576761122e-12 4.927565759826278e-12 3.6954701306323e-12 5.643742662463798e-12
          4.421907392183208e-12 1.2818804161188185e-11 1.0090209820586248e-11 1.144159448847855e-11 2.4819785964868693e-12 3.832031984845063e-12
          1.9084336457648735e-12 2.962997759390925e-12 2.2347783400109578e-12 3.437935439106756e-12 2.6575724322865958e-12 7.895803552796534e-12
          6.14179766720631e-12 7.04420775059052e-12 1.680545046925788e-12 1.6547141456229e-12 2.626048839193781e-12 2.5849412371550427e-12
          1.2669190789532624e-12 2.0115192658466103e-12 1.9799650719900724e-12 1.5806787081814966e-12 2.4660961644223374e-12 1.888721742553435e-12
          5.50527070054783e-12 5.415392966273142e-12 4.162624998676725e-12 5.154731731737935e-12 9.719785431774679e-13 9.573807284269603e-13
          1.5280326095662478e-12 1.5041729377279728e-12 7.196631315913828e-13 1.1536821343504888e-12 1.1356229146823767e-12 9.147466923520785e-13
          1.4346614982383237e-12 1.0830909409103073e-12 3.233339141692152e-12 3.180245955003611e-12 2.4143025222212275e-12 3.0262414826118964e-12
          1.4668578844778573e-12 2.2813718450264843e-12 1.1232132255191607e-12 1.7469291062402144e-12 1.3206329240272969e-12 2.045689535678278e-12
          1.566186666242806e-12 4.748523887492824e-12 3.648698546725992e-12 4.234111612123682e-12 8.480423131030029e-13 1.3259311999934876e-12
          6.404198630532196e-13 1.000310524918625e-12 7.667877676794333e-13 1.1890674778107612e-12 8.974385095454611e-13 2.786282890500735e-12
          2.1131553984388917e-12 2.4814357969335744e-12 3.232376827065167e-12 4.913624037537201e-12 2.5283610803343615e-12 3.8488154695613565e-12
          2.7424943766152297e-12 4.149012153465872e-12 3.2489084415399263e-12 9.89075955689099e-12 7.781158546123529e-12 8.283797949285779e-12
          1.9539182501149583e-12 2.9914644435825115e-12 1.5017145951984168e-12 2.3115505521151094e-12 1.657507411174385e-12 2.524288235442357e-12
          1.949983975318116e-12 6.085571938690412e-12 4.730846608884996e-12 5.092691176279286e-12 2.258538397772683e-12 3.3994290515415945e-12
          1.76717185699494e-12 2.6612208260734174e-12 1.819831518027904e-12 2.710909943440636e-12 2.1197655602455118e-12 6.724530630243969e-12
          5.285166588875189e-12 5.29032497362355e-12 1.366040952868817e-12 2.0666110911251146e-12 1.0549422687937849e-12 1.5957998963836355e-12
          1.1002078836363894e-12 1.6443943611184635e-12 1.267855796856469e-12 4.129303601936626e-12 3.205765133458472e-12 3.2419999969645296e-12
          1.1535515896078565e-12 1.7780133672729137e-12 8.875455850803908e-13 1.3603315463716379e-12 9.821487520753597e-13 1.499936970874276e-12
          1.1475589822662074e-12 3.655041028993285e-12 2.8051130701292355e-12 3.0542879208660836e-12 6.853627581435433e-13 1.031682024570155e-12
          5.402780826616849e-13 7.75888858612098e-13 6.066982648076929e-13 8.647879839275084e-13 6.935541903009148e-13 2.1370644297129968e-12
          1.6101649856015693e-12 1.7757543202791755e-12 8.248408159701554e-13 1.2260617770501037e-12 6.565247318875951e-13 9.34107768812391e-13
          6.850991484271548e-13 9.679179870733277e-13 7.919099963551548e-13 2.471581084787191e-12 1.8852241121815927e-12 1.9295969513180437e-12
          5.340901413514426e-13 7.020734023224081e-13 4.857559337788799e-13 6.002766781623788e-13 5.013078891940213e-13 6.226525997086123e-13
          5.376979077503621e-13 1.419793566660719e-12 1.2387619267873216e-12 1.2736574307863947e-12 5.513256341412343e-13 5.417593553251597e-13
          8.669596888652775e-13 8.528510799980393e-13 4.1392887238683385e-13 6.47226373090773e-13 6.362172368607325e-13 5.191126707637641e-13
          8.139375050690098e-13 6.08108528344544e-13 1.8508754842984052e-12 1.820399602562378e-12 1.3611153759441826e-12 1.730963269832137e-12
          3.3903956357250776e-13 3.3267874680093854e-13 4.743351799626151e-13 4.663639516020682e-13 3.0524504468014007e-13 3.977142987599679e-13
          3.9124164363377844e-13 3.1816933213629865e-13 4.458119655733499e-13 3.7359651312831395e-13 1.0222983622135843e-12 1.0056943923582545e-12
          8.649430898175999e-13 9.561719176112464e-13 4.939322516504204e-13 7.513659837685943e-13 3.9180789260986917e-13 5.605746282597948e-13
          4.65150907620395e-13 6.699019670032562e-13 5.296843427298541e-13 1.5898862811280586e-12 1.1823678035803526e-12 1.40911604609505e-12
          3.161997223768272e-13 4.130322780273643e-13 2.8478531148397004e-13 3.490214511154574e-13 3.2237871051042656e-13 3.928333481495504e-13
          3.356188644818759e-13 8.698473485903185e-13 7.48052601575641e-13 8.840336793522219e-13 4.3957346649542245e-13 5.782207174109897e-13
          4.0009634854945806e-13 4.925509338010611e-13 4.306773560324524e-13 5.302369293454373e-13 4.563294403349469e-13 1.1989443596248303e-12
          1.0397409265332113e-12 1.1436395419969639e-12 1.4884007854943702e-12 2.083811606758985e-12 1.1660936792674672e-12 1.6280600620162075e-12
          1.3624323948993302e-12 1.781478106385752e-12 1.3927090070597602e-12 4.011311166999284e-12 3.137939475196778e-12 9.02805816529542e-13
          1.262926964836312e-12 7.009669474823026e-13 9.732665596114491e-13 8.311604972623312e-13 1.0815874101004522e-12 8.345317437444495e-13
          2.445199865573506e-12 1.893546731407877e-12 2.0423966082209445e-12 5.652830203955444e-13 7.422476294571107e-13 5.174291532259085e-13
          6.415817877718671e-13 5.12830799800223e-13 6.399415566330891e-13 5.598594641925193e-13 1.4496597972185654e-12 1.274242272264756e-12
          1.2184543053313337e-12 3.012889894773837e-11 2.961516977741801e-11 2.386007623692175e-11 2.3452278558030553e-11 2.812723941349144e-11
          2.227126861809699e-11 6.067446603283309e-11 5.958481235999623e-11 4.7498465005649815e-11 5.643419787219317e-11 1.8778145387148597e-11
          1.8456524329818524e-11 1.4687141387940654e-11 1.4435093942147065e-11 1.7525157241447832e-11 1.3705250342671516e-11 3.830560104693937e-11
          3.761328443658805e-11 2.959055399099508e-11 3.561214317672302e-11 2.5815580678269696e-11 2.0436760454347783e-11 2.2902232780368813e-11
          1.8125325277981498e-11 5.155622862719552e-11 4.107833801598078e-11 4.544090306886408e-11 1.60786501189103e-11 1.2571888150066602e-11
          1.425648648023392e-11 1.1144538841127978e-11 3.251571498893979e-11 2.5570962209539174e-11 2.8637143156263115e-11 9.707749740291869e-11
          9.523672944903081e-11 8.992407527298815e-11 1.8564807140191326e-10 7.746034841198111e-11 7.598491523070744e-11 6.13705949665004e-11
          6.019709965923814e-11 7.172772104423302e-11 5.681180297367915e-11 1.5252630032741817e-10 1.494923667967783e-10 1.1943881281616214e-10
          1.40748508000358e-10 8.172909495577673e-11 7.151324138914993e-11 1.5827129146343183e-10 6.516396072467416e-11 5.1594377161257645e-11