<?xml version="1.0"?>
<VTKFile type="UnstructuredGrid" version="0.1" byte_order="LittleEndian" header_type="UInt32" compressor="vtkZLibDataCompressor">
  <UnstructuredGrid>
    <Piece NumberOfPoints="1488" NumberOfCells="1034">
      <PointData>
        <DataArray type="Int32" Name="libmesh_node_id" format="ascii" RangeMin="2453" RangeMax="15621">
          2469 2735 2736 2741 2756 2757
          2760 2761 2763 2765 2912 3630
          3631 3632 3633 3634 3635 3636
          3637 3638 3639 3640 3655 3660
          3661 3662 3663 3664 3665 3666
          3667 3668 3669 3672 3673 3675
          3677 3728 3729 3732 3734 3736
          3737 3740 3741 3743 3745 3825
          3827 4005 4006 4009 4010 4039
          4040 4041 4042 4043 4044 4045
          5451 5453 5459 5461 5462 5463
          5466 5562 5599 5611 5613 5615
          5617 5618 5619 5620 5621 5622
          5623 5626 5627 5630 5632 5634
          5635 5636 5637 5638 5639 5640
          5641 5642 5643 5645 5647 5649
          5651 5652 5653 5654 5655 5656
          5657 5659 5661 5663 5665 5666
          5667 5668 5669 5670 5671 5672
          5673 5674 5675 5676 5677 5678
          5679 5680 5681 5682 5683 5686
          5687 5689 5691 5692 5693 5694
          5695 5696 5697 5698 5699 5700
          5701 5702 5703 5706 5707 5709
          5711 5712 5713 5714 5715 5716
          5717 5718 5719 5721 5723 5725
          5726 5727 5728 5729 5730 5731
          5732 5733 5735 5737 5739 5960
          5961 5964 5968 5969 5970 5971
          5972 5973 5974 5975 5976 5977
          5985 5986 5987 5988 5989 5990
          5991 5992 5993 5994 5995 5996
          5997 5998 5999 6000 6001 6086
          6087 6088 6089 6090 6091 6092
          6095 6096 6099 6101 6307 6309
          6310 6311 6313 6314 6315 6316
          6317 6318 6319 6320 6382 6383
          6384 6385 6386 6387 6388 6389
          6390 6393 6394 6396 6398 6430
          6431 6432 6433 6434 6435 6436
          6437 6438 6441 6442 6444 6445
          6446 6447 6448 6449 6450 13081
          13082 13083 13084 13085 13086 13087
          13088 13089 13090 13112 13113 13114
          13115 13116 13117 13118 13139 13140
          13143 13144 13146 13148 13173 13175
          13177 13179 13344 13345 13346 13347
          13348 13349 13350 13372 13373 13374
          13375 13376 13377 13378 13393 13395
          13397 13399 13421 13423 13425 13427
          13448 13459 13460 13461 13462 13463
          13464 13465 13466 13467 13468 13478
          13479 13482 13490 13491 13492 13493
          13494 13495 13496 13499 13500 13503
          13504 13505 13506 13507 13508 13509
          13510 13511 13512 13513 13514 13515
          13516 13517 13518 13519 13520 13521
          13522 13523 13524 13525 13526 13527
          13528 13529 13530 13531 13532 13533
          13536 13537 13540 13541 13542 13543
          13544 13545 13546 13547 13548 13549
          13550 13551 13552 13553 13554 13555
          13556 13557 13558 13559 13560 13561
          13572 13573 13574 13575 13576 13577
          13578 13579 13580 13581 13599 13600
          13601 13602 13603 13604 13605 13613
          13614 13615 13616 13617 13618 13619
          13620 13621 13622 13623 13624 13625
          13626 13627 13628 13629 13630 13631
          13632 13633 13634 13635 13636 13637
          13638 13639 13640 13641 13642 13643
          13644 13645 13646 13647 13648 13649
          13650 13651 13652 13653 13654 13655
          13656 13657 13658 13659 13660 13661
          13662 13663 13664 13665 13666 13667
          13668 13669 13670 13671 13672 13673
          13674 13675 13676 13686 13687 13690
          13698 13699 13700 13701 13702 13703
          13704 13714 13715 13718 13726 13727
          13728 13729 13730 13731 13732 13735
          13736 13739 13740 13741 13742 13743
          13744 13745 13746 13747 13748 13749
          13750 13751 13752 13753 13754 13755
          13756 13757 13758 13759 13760 13763
          13764 13767 13768 13769 13770 13771
          13772 13773 13774 13775 13776 13777
          13778 13779 13780 13781 13782 13783
          13784 13785 13786 13787 13788 13796
          13797 13798 13799 13800 13801 13802
          13810 13811 13812 13813 13814 13815
          13816 13824 13825 13826 13827 13828
          13829 13830 13838 13839 13840 13841
          13842 13843 13844 13845 13846 13847
          13848 13849 13850 13851 13852 13853
          13854 13855 13856 13857 13858 13859
          13860 13861 13862 13863 13864 13865
          13866 13867 13868 13869 13870 13871
          13872 13873 13874 13875 13876 13877
          13878 13879 13880 13881 13882 13883
          13884 13885 13886 13887 13888 13889
          13890 13891 13892 13893 13894 13895
          13896 13897 13898 13899 13900 13901
          13902 13903 13904 13905 13906 13907
          13908 13909 13910 13911 13912 13913
          13914 13915 13916 13917 13918 13919
          13920 13921 13922 13923 13924 13925
          13926 13927 13928 13929 13930 13931
          13932 13933 13934 13935 13936 13937
          13938 13939 13940 13941 13942 13943
          13944 13945 13946 13947 13948 13949
          13950 13951 13952 13953 13954 13955
          13956 13957 13958 13959 13960 13961
          13962 13963 13964 13965 13966 13967
          13968 13969 13970 13971 13972 13973
          13974 13975 13976 13977 13978 13989
          13990 13991 13992 13993 13994 13995
          13996 13997 13998 13999 14000 14001
          14002 14003 14004 14005 14013 14014
          14015 14016 14017 14018 14019 14024
          14025 14029 14030 14031 14032 14033
          14034 14035 14036 14037 14038 14039
          14040 14041 14042 14043 14044 14045
          14046 14047 14048 14049 14050 14051
          14052 14053 14054 14055 14056 14057
          14058 14059 14060 14061 14062 14063
          14064 14065 14066 14067 14068 14069
          14070 14071 14072 14073 14074 14075
          14076 14077 14078 14079 14080 14081
          14082 14083 14084 14085 14086 14087
          14088 14091 14092 14094 14096 14097
          14098 14099 14100 14101 14102 14103
          14104 14105 14106 14107 14108 14109
          14110 14111 14112 14113 14114 14115
          14116 14117 14118 14119 14120 14121
          14122 14123 14124 14125 14126 14127
          14128 14129 14130 14131 14132 14133
          14134 14135 14136 14137 14138 14139
          14140 14141 14142 14143 14144 14145
          14146 14147 14148 14149 14150 14151
          14152 14153 14154 14155 14156 14157
          14158 14159 14167 14168 14169 14170
          14171 14172 14173 14176 14180 14181
          14182 14183 14184 14185 14186 14187
          14195 14196 14197 14198 14199 14200
          14201 14204 14208 14209 14210 14211
          14212 14213 14214 14215 14216 14217
          14218 14219 14220 14221 14222 14223
          14224 14225 14226 14227 14228 14229
          14230 14231 14232 14233 14234 14235
          14236 14237 14238 14239 14240 14241
          14242 14243 14244 14245 14246 14247
          14248 14249 14250 14251 14252 14253
          14254 14255 14256 14257 14258 14259
          14260 14261 14262 14263 14264 14265
          14266 14267 14268 14269 14270 14271
          14272 14274 14276 14278 14279 14280
          14281 14282 14283 14284 14285 14286
          14287 14288 14289 14290 14291 14292
          14293 14294 14295 14296 14298 14299
          14300 14301 14302 14303 14304 14305
          14306 14308 14310 14312 14313 14314
          14315 14316 14317 14318 14319 14320
          14322 14324 14326 15482 15483 15484
          15485 15486 15487 15488 15489 15490
          15491 15492 15493 15494 15495 15496
          15497 15498 15499 15500 15501 15509
          15510 15511 15512 15513 15514 15533
          15534 15537 15538 15557 15558 15559
          15560 15561 15562 15563 15564 15565
          15566 15567 15568 15569 15570 15571
          15572 15573 15574 15575 15576 15577
          15578 15579 15580 15581 15582 15583
          15584 15585 15586 15587 15588 15589
          15590 15591 15592 15593 15594 15595
          15596 15597 15598 15599 15600 15601
          15602 15603 15604 15605 15606 15607
          15608 15609 15610 15611 15612 15613
          15614 15615 15616 15617 15618 15619
          15620 15621 2720 2456 2721 2724
          2758 2759 2762 2764 2474 2900
          2907 2903 2698 2729 2453 2910
          2913 2732 2464 3610 3521 3504
          3611 3522 3612 3525 3726 3730
          3727 3731 3733 3735 2737 3738
          3674 3739 3742 3744 3810 3624
          3625 4007 3626 4008 4011 3670
          3990 3991 3994 2703 3595 5438
          5440 5443 5442 5444 5445 5446
          4960 5447 4961 5448 5452 4964
          5449 5450 5454 5455 5456 5417
          5457 5418 5419 5460 5458 5464
          5465 5624 5628 5625 5629 5684
          5685 5688 5704 5705 5708 5710
          5958 5959 5962 5963 5965 5966
          5967 5979 5981 5983 6093 6094
          6097 6098 6100 6102 6301 6305
          5566 5570 6227 6308 6228 6312
          6231 6391 5736 6392 6395 2472
          6397 5441 2731 6304 6439 6306
          6440 6443 2734 13065 13073 13057
          13066 13074 13067 13077 5559 13070
          13079 5560 5561 13094 13100 13106
          13101 13108 5563 13104 13110 5564
          5565 13123 13124 13141 13125 13142
          13145 13128 5567 13147 5571 13161
          13162 13174 13176 13165 5573 13178
          5575 13326 13332 13338 13333 13340
          5596 13336 13342 5597 5598 13354
          13360 13366 13361 13368 5600 13364
          13370 5601 5602 13381 13382 13394
          13396 13385 5603 13398 5605 13409
          13410 13422 13424 13413 5607 13426
          5609 13436 13442 13444 13438 13440
          13446 5610 13443 13445 13447 12397
          13451 13452 13455 13457 5612 13470
          13476 13472 13477 13474 13480 5614
          13481 13484 13486 13488 5616 12396
          12405 12407 13497 12406 13498 13501
          13502 5422 12319 12617 12623 12624
          5496 12627 5497 13534 13535 13538
          13539 12645 12651 12652 5500 12655
          3646 13564 13565 13568 13570 13593
          13595 13597 5631 13590 13607 13609
          13611 5633 13678 13684 13680 13685
          13682 13688 5644 13689 13692 13694
          13696 5646 13706 13712 13708 13713
          13710 13716 5648 13717 13720 13722
          13724 5650 13733 13734 13737 13738
          12865 12871 12872 5530 12875 5531
          13761 13762 13765 13766 12893 12899
          12900 5534 12903 2739 13790 13792
          13794 5658 13804 13806 13808 5660
          13818 13820 13822 5662 13832 13834
          13836 5664 13075 13076 13080 13107
          13111 13153 13979 13154 13980 13983
          13984 13158 13986 13988 13182 14006
          14008 13186 14010 14012 14020 14021
          14022 14023 14026 14027 14028 3671
          14089 14090 14093 14095 13339 13343
          13367 13371 13402 14160 14162 13406
          14164 14166 14174 14175 14177 14178
          14179 5722 13430 14188 14190 13434
          14192 14194 14202 14203 14205 14206
          14207 3676 14273 14275 14277 5734
          14297 14307 14309 14311 5738 14321
          14323 14325 15474 15475 15478 15480
          15503 15505 15507 15515 5978 15527
          15535 15529 15536 15531 15539 5982
        </DataArray>
        <DataArray type="Float64" Name="bounds" format="ascii" RangeMin="0" RangeMax="0">
          0 0 0 0 0 0
          0 0 0 0 0 0
          0 0 0 0 0 0
          0 0 0 0 0 0
          0 0 0 0 0 0
          0 0 0 0 0 0
          0 0 0 0 0 0
          0 0 0 0 0 0
          0 0 0 0 0 0
          0 0 0 0 0 0
          0 0 0 0 0 0
          0 0 0 0 0 0
          0 0 0 0 0 0
          0 0 0 0 0 0
          0 0 0 0 0 0
          0 0 0 0 0 0
          0 0 0 0 0 0
          0 0 0 0 0 0
          0 0 0 0 0 0
          0 0 0 0 0 0
          0 0 0 0 0 0
          0 0 0 0 0 0
          0 0 0 0 0 0
          0 0 0 0 0 0
          0 0 0 0 0 0
          0 0 0 0 0 0
          0 0 0 0 0 0
          0 0 0 0 0 0
          0 0 0 0 0 0
          0 0 0 0 0 0
          0 0 0 0 0 0
          0 0 0 0 0 0
          0 0 0 0 0 0
          0 0 0 0 0 0
          0 0 0 0 0 0
          0 0 0 0 0 0
          0 0 0 0 0 0
          0 0 0 0 0 0
          0 0 0 0 0 0
          0 0 0 0 0 0
          0 0 0 0 0 0
          0 0 0 0 0 0
          0 0 0 0 0 0
          0 0 0 0 0 0
          0 0 0 0 0 0
          0 0 0 0 0 0
          0 0 0 0 0 0
          0 0 0 0 0 0
          0 0 0 0 0 0
          0 0 0 0 0 0
          0 0 0 0 0 0
          0 0 0 0 0 0
          0 0 0 0 0 0
          0 0 0 0 0 0
          0 0 0 0 0 0
          0 0 0 0 0 0
          0 0 0 0 0 0
          0 0 0 0 0 0
          0 0 0 0 0 0
          0 0 0 0 0 0
          0 0 0 0 0 0
          0 0 0 0 0 0
          0 0 0 0 0 0
          0 0 0 0 0 0
          0 0 0 0 0 0
          0 0 0 0 0 0
          0 0 0 0 0 0
          0 0 0 0 0 0
          0 0 0 0 0 0
          0 0 0 0 0 0
          0 0 0 0 0 0
          0 0 0 0 0 0
          0 0 0 0 0 0
          0 0 0 0 0 0
          0 0 0 0 0 0
          0 0 0 0 0 0
          0 0 0 0 0 0
          0 0 0 0 0 0
          0 0 0 0 0 0
          0 0 0 0 0 0
          0 0 0 0 0 0
          0 0 0 0 0 0
          0 0 0 0 0 0
          0 0 0 0 0 0
          0 0 0 0 0 0
          0 0 0 0 0 0
          0 0 0 0 0 0
          0 0 0 0 0 0
          0 0 0 0 0 0
          0 0 0 0 0 0
          0 0 0 0 0 0
          0 0 0 0 0 0
          0 0 0 0 0 0
          0 0 0 0 0 0
          0 0 0 0 0 0
          0 0 0 0 0 0
          0 0 0 0 0 0
          0 0 0 0 0 0
          0 0 0 0 0 0
          0 0 0 0 0 0
          0 0 0 0 0 0
          0 0 0 0 0 0
          0 0 0 0 0 0
          0 0 0 0 0 0
          0 0 0 0 0 0
          0 0 0 0 0 0
          0 0 0 0 0 0
          0 0 0 0 0 0
          0 0 0 0 0 0
          0 0 0 0 0 0
          0 0 0 0 0 0
          0 0 0 0 0 0
          0 0 0 0 0 0
          0 0 0 0 0 0
          0 0 0 0 0 0
          0 0 0 0 0 0
          0 0 0 0 0 0
          0 0 0 0 0 0
          0 0 0 0 0 0
          0 0 0 0 0 0
          0 0 0 0 0 0
          0 0 0 0 0 0
          0 0 0 0 0 0
          0 0 0 0 0 0
          0 0 0 0 0 0
          0 0 0 0 0 0
          0 0 0 0 0 0
          0 0 0 0 0 0
          0 0 0 0 0 0
          0 0 0 0 0 0
          0 0 0 0 0 0
          0 0 0 0 0 0
          0 0 0 0 0 0
          0 0 0 0 0 0
          0 0 0 0 0 0
          0 0 0 0 0 0
          0 0 0 0 0 0
          0 0 0 0 0 0
          0 0 0 0 0 0
          0 0 0 0 0 0
          0 0 0 0 0 0
          0 0 0 0 0 0
          0 0 0 0 0 0
          0 0 0 0 0 0
          0 0 0 0 0 0
          0 0 0 0 0 0
          0 0 0 0 0 0
          0 0 0 0 0 0
          0 0 0 0 0 0
          0 0 0 0 0 0
          0 0 0 0 0 0
          0 0 0 0 0 0
          0 0 0 0 0 0
          0 0 0 0 0 0
          0 0 0 0 0 0
          0 0 0 0 0 0
          0 0 0 0 0 0
          0 0 0 0 0 0
          0 0 0 0 0 0
          0 0 0 0 0 0
          0 0 0 0 0 0
          0 0 0 0 0 0
          0 0 0 0 0 0
          0 0 0 0 0 0
          0 0 0 0 0 0
          0 0 0 0 0 0
          0 0 0 0 0 0
          0 0 0 0 0 0
          0 0 0 0 0 0
          0 0 0 0 0 0
          0 0 0 0 0 0
          0 0 0 0 0 0
          0 0 0 0 0 0
          0 0 0 0 0 0
          0 0 0 0 0 0
          0 0 0 0 0 0
          0 0 0 0 0 0
          0 0 0 0 0 0
          0 0 0 0 0 0
          0 0 0 0 0 0
          0 0 0 0 0 0
          0 0 0 0 0 0
          0 0 0 0 0 0
          0 0 0 0 0 0
          0 0 0 0 0 0
          0 0 0 0 0 0
          0 0 0 0 0 0
          0 0 0 0 0 0
          0 0 0 0 0 0
          0 0 0 0 0 0
          0 0 0 0 0 0
          0 0 0 0 0 0
          0 0 0 0 0 0
          0 0 0 0 0 0
          0 0 0 0 0 0
          0 0 0 0 0 0
          0 0 0 0 0 0
          0 0 0 0 0 0
          0 0 0 0 0 0
          0 0 0 0 0 0
          0 0 0 0 0 0
          0 0 0 0 0 0
          0 0 0 0 0 0
          0 0 0 0 0 0
          0 0 0 0 0 0
          0 0 0 0 0 0
          0 0 0 0 0 0
          0 0 0 0 0 0
          0 0 0 0 0 0
          0 0 0 0 0 0
          0 0 0 0 0 0
          0 0 0 0 0 0
          0 0 0 0 0 0
          0 0 0 0 0 0
          0 0 0 0 0 0
          0 0 0 0 0 0
          0 0 0 0 0 0
          0 0 0 0 0 0
          0 0 0 0 0 0
          0 0 0 0 0 0
          0 0 0 0 0 0
          0 0 0 0 0 0
          0 0 0 0 0 0
          0 0 0 0 0 0
          0 0 0 0 0 0
          0 0 0 0 0 0
          0 0 0 0 0 0
          0 0 0 0 0 0
          0 0 0 0 0 0
          0 0 0 0 0 0
          0 0 0 0 0 0
          0 0 0 0 0 0
          0 0 0 0 0 0
          0 0 0 0 0 0
          0 0 0 0 0 0
          0 0 0 0 0 0
          0 0 0 0 0 0
          0 0 0 0 0 0
          0 0 0 0 0 0
          0 0 0 0 0 0
          0 0 0 0 0 0
          0 0 0 0 0 0
          0 0 0 0 0 0
          0 0 0 0 0 0
          0 0 0 0 0 0
          0 0 0 0 0 0
          0 0 0 0 0 0
          0 0 0 0 0 0
        </DataArray>
        <DataArray type="Float64" Name="gradient_error" format="ascii" RangeMin="5.1487630431626185e-14" RangeMax="1.1494514478649275e-10">
          2.1892598853979876e-13 1.555471133596213e-12 6.978899213449214e-13 8.542021549160616e-13 5.419653327346544e-13 4.032319449327761e-13
          3.1587607612913124e-13 2.2885567024584887e-13 7.469386535358303e-13 1.2828378698344005e-13 1.650923830482038e-12 7.726794234494194e-13
          3.1608619899947847e-12 2.105402883035299e-12 1.1719808187005492e-12 7.739936226674224e-13 1.2042007912457037e-12 1.3773164811295845e-12
          5.258093138380751e-13 2.219316440627563e-12 7.566327583726422e-13 1.953899478568059e-12 4.1461767636212726e-12 1.4182304780221755e-11
          7.1097085950486075e-12 2.585686670084144e-12 9.03350346096688e-13 5.135244369906979e-13 2.1719750705497612e-11 8.259410254427831e-12
          2.33280545012116e-12 4.671049136863757e-13 8.425132198395601e-13 3.7430692828399234e-13 3.494348784228113e-13 2.799122200529799e-12
          4.3578963025735953e-13 5.217367490287504e-13 7.292332299354179e-13 6.974690582273068e-13 1.1045908832281636e-12 2.7277406134882427e-13
          3.663033135477412e-13 1.7652023737847786e-13 4.0344769236472854e-13 4.109639112684613e-13 5.499392534496153e-13 5.846977070139942e-13
          2.443162434650195e-13 4.240511642538654e-13 3.527584076056705e-13 1.7835142079734487e-13 2.5811521460568415e-13 4.454215459665985e-13
          1.0390651361622793e-12 1.974450730322515e-13 4.0597970590691324e-13 3.008058588306506e-13 4.560300342597667e-13 1.9316787914709546e-13
          1.655563376207326e-12 2.288178461660703e-12 5.718953167703556e-13 6.289313230534996e-13 1.3507902130761752e-12 7.87972151851402e-13
          1.304489448852276e-12 1.0774145314594592e-12 1.1515565404853553e-11 5.036932331099019e-12 2.3497807524553024e-12 1.6605318089911314e-11
          3.0294478311972284e-12 1.7756327443133897e-12 1.406864165906012e-12 8.209129503950495e-13 1.0205951817111335e-11 6.103695303648123e-12
          4.344995691048446e-12 1.7472674127170212e-12 1.5917108124027533e-12 1.2673468595802502e-12 2.683360355739484e-12 1.0509547483943065e-12
          9.557800880204368e-13 6.010604887707043e-13 5.518092157723723e-13 1.0428052730655747e-12 9.002677191985614e-13 6.592688315819283e-13
          1.6274805610958158e-12 9.618044922247538e-13 6.604099855729318e-13 4.138072021257825e-11 1.6734696090131083e-11 5.209001494491425e-11
          2.59240048621572e-11 1.577215305539614e-11 1.040743913075106e-11 6.2919302902668085e-12 3.286952885793049e-11 2.0134251693928046e-11
          1.3586594606069378e-11 5.854767752661682e-12 1.8112146061285201e-12 7.64173921689165e-12 3.6119034077396357e-12 2.168007866407431e-12
          1.1042261528083913e-12 6.556076451400422e-13 4.740097034623972e-12 2.8601276631103576e-12 1.4308580507170997e-12 8.152953674566257e-13
          1.0136129719358912e-12 4.528241207805986e-13 5.631134903540727e-13 5.402264954368944e-13 5.652884240223759e-13 4.1806550152441625e-13
          3.550942614469631e-12 2.0090851456566102e-12 1.496805229758905e-12 3.1337660225109265e-13 3.654032170259985e-13 3.4667435615542536e-13
          2.948086759256134e-13 1.104696024206347e-12 4.607719212476145e-13 4.468062180046687e-13 4.226014621358685e-13 4.444831740211922e-13
          4.1988547976977277e-13 3.4122598352203437e-13 3.707637917566999e-13 3.204516418424822e-13 5.529708999690334e-13 3.704966853186276e-13
          2.9007980814827045e-13 3.0961144074249636e-13 3.032533687886738e-13 1.8917224954747326e-13 3.4608267500497485e-13 2.675750520017536e-13
          3.2058321776202073e-13 9.318377814130504e-12 5.345741038627829e-12 3.696785597389628e-12 2.1103822472556722e-12 1.1972959789419107e-11
          6.9116813806104776e-12 4.878407145215075e-12 2.977438856490384e-12 1.1703889202476836e-12 3.873073717941041e-12 1.5600940780421704e-12
          1.2661631070785764e-12 7.17682145011429e-13 3.778535144096072e-13 3.3724151219978286e-13 1.678733187989511e-12 9.565512898348626e-13
          4.951759244423892e-13 3.94283811203881e-13 3.220685784897894e-13 5.288980032930556e-13 4.0972443218789844e-13 7.713077551306948e-13
          6.605031100454892e-13 6.782470742012022e-13 4.6284395184227e-13 5.374803008042596e-13 2.7767230985497174e-13 4.611529430670055e-13
          2.687767887002251e-13 3.984828914850231e-13 2.3685290505496525e-13 6.49160323676131e-13 5.197544716293709e-13 8.028681247279581e-13
          8.534091193813422e-13 5.045222112005673e-13 1.308462168483326e-12 7.764950245141673e-13 1.0245700683667595e-12 6.088184490901225e-13
          1.539377081780557e-12 2.980129720645854e-13 2.8714416274335484e-13 2.430375198315468e-13 3.007682415365394e-13 2.794432467949981e-13
          4.393876895455069e-13 2.3947620931862413e-13 3.4479928048738253e-13 3.6464379323325084e-13 5.141228584388764e-13 8.028889856419972e-14
          1.4376511517226998e-13 5.375728672818085e-14 7.353966426035257e-14 6.272936754201527e-14 7.940685550956462e-14 5.1487630431626185e-14
          9.499756855964989e-14 9.219911903192807e-14 7.065963618772898e-14 8.940066950420624e-14 9.733361806937333e-13 6.186426857821469e-13
          1.1578430331082731e-12 7.257834772358479e-13 7.201265388542885e-13 3.7180614956964374e-13 6.941009308096236e-13 2.2080603346093334e-13
          4.001134114003991e-13 2.632771286085871e-13 4.3372302950199715e-13 2.540832682325686e-13 1.7198253423287765e-13 2.712321395553491e-13
          1.3310091757319215e-13 1.9651139159768825e-13 1.11418887351306e-13 1.528264301445824e-13 1.22407237776637e-13 2.4655177238669235e-13
          3.1529391687697214e-13 1.2475185871038594e-13 1.371440989717111e-13 3.84036061367252e-13 1.4953633923303627e-13 3.5944202239887285e-13
          8.177374261114427e-13 2.2169187352096485e-13 4.653267343461083e-13 2.3230856412633056e-13 4.506300228605959e-13 2.8985076295006926e-13
          1.2757121384726212e-13 2.5036252998676965e-13 1.0450139688544132e-13 1.7530550547178346e-13 1.3560529623492308e-13 2.2182696896397557e-13
          1.0891752384879438e-13 1.583194093571473e-13 9.834290116387999e-14 1.480420469672056e-13 1.1267655934657795e-13 6.095715718918249e-13
          9.337140662192013e-13 4.491418320732831e-13 6.91399197746507e-13 4.726034869412339e-13 7.198167341899358e-13 5.341336470542756e-13
          1.9003918352196016e-12 1.415233837944162e-12 1.4473546984372835e-12 3.813345222665599e-12 2.85257037028291e-12 2.8590121723938887e-12
          2.137542394469883e-12 7.490958072438371e-12 5.627408374625984e-12 5.522766792091988e-12 3.2941377532622033e-13 5.091334368056596e-13
          2.576574231376557e-13 3.9346758210780185e-13 1.0471174056630085e-12 7.966752436940785e-13 2.119199714032265e-12 1.5870437424357142e-12
          4.197315469068244e-12 3.0906530263004132e-12 1.3700598844694418e-11 1.033370534231434e-11 9.968260315532012e-12 7.512810051499142e-12
          2.0955985986561977e-11 1.5863227738080645e-11 1.5227708847655088e-11 2.4626971869280344e-11 1.8705895990171716e-11 1.82237025337274e-11
          1.3821167625203638e-11 2.4845016645387396e-11 1.8906260067656086e-11 1.8673319348376523e-11 7.736659069267928e-12 5.6207002695548795e-12
          1.1917007943026697e-11 8.642999186851644e-12 1.4099307416059801e-11 1.0402813866488634e-11 1.4276303861489185e-11 1.0689738584344132e-11
          6.432953131786594e-12 1.697956781140299e-12 2.4356143069690956e-12 1.319095652224299e-12 1.8958732439823963e-12 1.1779407934938167e-12
          1.671073815072972e-12 1.297870638464972e-12 4.467762634772648e-12 3.4937829144269097e-12 3.0094717267811633e-12 1.1759385001074463e-11
          9.258686887725676e-12 2.0966620842436428e-11 8.006244178620367e-12 6.2956761166527034e-12 5.281649103724664e-12 4.146930591514195e-12
          1.3970035062325623e-11 1.1047801295303183e-11 9.005071621276103e-12 2.088491092271495e-12 1.606977258901842e-12 3.919035109866688e-12
          1.1535872946265701e-12 1.6926103306401195e-12 8.631746390777813e-13 1.2803498419658789e-12 8.364511292157365e-13 1.223815941329893e-12
          9.261143887282666e-13 3.258416892196926e-12 2.4880216413387383e-12 2.3268626883360663e-12 1.0170844433330514e-12 1.4662888698157814e-12
          7.798637514792411e-13 1.1270412276414938e-12 7.005902601145022e-13 1.00152125460953e-12 7.689045783853942e-13 2.715441697103202e-12
          2.097099730789607e-12 1.823787937635258e-12 5.915769983335359e-13 8.595912067835782e-13 4.4805238236221285e-13 6.522576767241135e-13
          4.093908898369597e-13 5.872490354396103e-13 4.460670322307319e-13 1.6094533649952813e-12 1.2274454415944352e-12 1.0784866399403063e-12
          7.2425103972112274e-12 5.628454215172179e-12 1.3062507764520794e-11 6.200952685678035e-12 4.759890685978662e-12 4.3453835483109794e-12
          3.332671034332351e-12 1.1536181423472553e-11 8.90007581010232e-12 7.919802777379662e-12 4.918851731324453e-12 3.818426021193461e-12
          3.235379232652746e-12 2.5082752475330525e-12 8.678691227043778e-12 6.772012564594301e-12 5.5764369183074455e-12 2.945083559547131e-12
          2.2571238939470463e-12 1.9323147154214458e-12 1.479516267489669e-12 5.248713231903532e-12 4.040550503034773e-12 3.363071055423909e-12
          8.078495539619538e-13 1.1100496707625818e-12 6.235708467932451e-13 8.583341777266185e-13 6.653993558204638e-13 8.756291386194655e-13
          6.743192904873289e-13 1.967113950366582e-12 1.5285930808184317e-12 1.417541287626181e-12 3.3894532269684093e-12 2.6536641061522133e-12
          2.1038573059393316e-12 1.640846054191321e-12 5.624810752720502e-12 4.432751377206986e-12 3.4116694140762248e-12 9.648140670382732e-13
          1.2688109548808189e-12 7.448562902495435e-13 9.873536283385927e-13 5.839400646898285e-13 7.505243632420829e-13 5.820460987717659e-13
          2.0125060547326408e-12 1.579616414609215e-12 1.1560077890791322e-12 4.792568278702172e-13 6.615554456656882e-13 3.67310114308924e-13
          5.078579128280045e-13 3.9547989996492014e-13 5.197201482101977e-13 3.993338059704842e-13 1.1833165278163055e-12 9.11652778318005e-13
          8.460666377543304e-13 2.7982319939715325e-13 3.871965117954024e-13 2.1390285288545908e-13 2.938001004239443e-13 2.3046133907930006e-13
          3.0378079137396347e-13 2.3086921321752163e-13 6.978267043043126e-13 5.30514740030742e-13 4.982647728387116e-13 2.0658551867746106e-12
          1.5989867478436148e-12 1.2745018909976348e-12 9.85009846613734e-13 3.4706474192432047e-12 2.6997187641178613e-12 2.0966451988169904e-12
          1.229986487173534e-12 9.40422781620408e-13 7.561453114056973e-13 5.770342557760054e-13 2.086307798775747e-12 1.6016180472888068e-12
          1.2552998407690754e-12 5.771776604295325e-13 7.671469559798105e-13 4.4515039699141265e-13 5.916513228703962e-13 3.4944500331497183e-13
          4.4764580833244796e-13 3.862459561752653e-13 1.2343952800821389e-12 9.575144104966551e-13 6.996072464861233e-13 3.3823422446066575e-13
          4.506744067107009e-13 2.557208719970197e-13 3.41520148825717e-13 2.6181131546808966e-13 3.3598107275071725e-13 2.524747841241401e-13
          7.346566702230982e-13 5.597340021303068e-13 4.709044988067518e-13 3.523328000488932e-11 2.8064662888007815e-11 5.1710291368285755e-11
          2.304381921136214e-11 1.832323826785318e-11 1.4546574389088933e-11 1.1545451420383908e-11 3.359376205566562e-11 2.6827748551972406e-11
          2.099819487619153e-11 6.228166593631705e-11 4.9982558900972815e-11 6.484528450696343e-11 4.086666459285955e-11 3.2718368068416735e-11
          2.5687650626130262e-11 2.05199180070255e-11 4.294360829295422e-11 3.4408550218180716e-11 2.7170478626042263e-11 2.2197160280721412e-11
          1.7432489309942993e-11 3.287296989957373e-11 2.014422292540798e-11 1.5615957040693453e-11 1.3593694233795756e-11 1.0524999249379093e-11
          3.022383297513068e-11 2.3522952228962932e-11 2.0294900830277325e-11 1.446890764788097e-11 1.1345995436111508e-11 9.101140773139845e-12
          7.125230799521651e-12 2.127179231902452e-11 1.6745992688509877e-11 1.3243709694383786e-11 8.835038535684837e-12 6.8315148487994405e-12
          5.539902237769472e-12 4.277434123233394e-12 1.3088693220350708e-11 1.0156665789263853e-11 8.120943588600059e-12 3.981473473020011e-11
          3.148075792607602e-11 4.153261215162204e-11 3.6326004076961206e-11 2.835157413710988e-11 2.4707440874284868e-11 1.9248353959540746e-11
          3.753713016114779e-11 2.933026941160999e-11 2.5821085474241157e-11 2.6005679920235045e-11 2.0520847771025772e-11 1.6276030453169787e-11
          1.2818350562602963e-11 2.737052140883645e-11 2.161454719267766e-11 1.7239684066376338e-11 1.607563174528677e-11 1.2502029726512658e-11
          1.0023397627988375e-11 7.78188143484451e-12 1.6945393461772055e-11 1.3188476441818186e-11 1.0631333775472294e-11 8.881979655862166e-12
          7.035574769256614e-12 5.2582324047263425e-12 4.156389513594856e-12 1.2657965345862494e-11 1.0066533025953754e-11 7.378681973214079e-12