<?xml version="1.0"?>
<VTKFile type="UnstructuredGrid" version="0.1" byte_order="LittleEndian" header_type="UInt32" compressor="vtkZLibDataCompressor">
  <UnstructuredGrid>
    <Piece NumberOfPoints="639" NumberOfCells="390">
      <PointData>
        <DataArray type="Int32" Name="libmesh_node_id" format="ascii" RangeMin="296" RangeMax="5480">
          296 411 414 417 420 423
          425 835 836 837 853 865
          866 867 868 869 870 871
          877 895 899 900 901 916
          917 921 932 933 934 935
          936 937 938 1143 1144 1146
          1147 1148 1149 1150 1154 1155
          1458 1492 1519 1520 1522 1524
          1525 1526 1527 1536 1538 1540
          1542 1543 1544 1582 1583 1584
          1612 1613 1614 1615 1618 1708
          1710 1712 1713 1714 1715 1716
          1723 1724 1725 1726 1727 1728
          1729 1730 1780 1781 1782 1783
          1784 1787 1788 1791 1812 1813
          1814 1815 1816 1817 1818 1819
          1820 1821 1822 1823 1824 1825
          1894 1895 1896 1897 1898 1899
          1900 1901 1902 1903 1904 1905
          1906 1907 1908 1909 1910 1911
          1912 1913 1914 1915 1916 1917
          1918 1919 1920 1921 1922 1923
          1924 1925 1926 1927 1928 1929
          1930 1931 1932 1933 1934 1935
          1936 1937 1938 1939 1940 1941
          1942 1943 1944 1945 1946 1947
          1948 1949 1950 1951 1952 1953
          1954 1955 2254 2255 2256 2257
          3357 3359 3361 3363 3365 3366
          3367 3368 3369 3370 3371 3531
          3537 3538 3541 3543 3545 3547
          3549 3550 3551 3552 3553 3554
          3555 3571 3573 3575 3577 3578
          3579 3580 3581 3582 3583 4057
          4058 4061 4063 4065 4066 4067
          4068 4069 4070 4071 4072 4073
          4074 4120 4122 4124 4126 4127
          4128 4129 4130 4131 4132 4135
          4136 4139 4141 4143 4144 4145
          4146 4147 4148 4149 4150 4151
          4152 4154 4156 4158 4160 4161
          4162 4163 4164 4165 4166 4168
          4170 4172 4174 4175 4176 4177
          4178 4179 4180 4392 4404 4406
          4407 4410 4411 4412 4413 4414
          4430 4432 4434 4435 4436 4437
          4438 4439 4440 4441 4442 4449
          4458 4459 4460 4461 4462 4463
          4464 4465 4466 4467 4468 4469
          4470 4610 4616 4617 4620 4621
          4622 4623 4624 4625 4626 4627
          4628 4629 4630 4634 4640 4641
          4644 4645 4646 4647 4648 4649
          4650 4651 4652 4653 4654 4657
          4661 4668 4669 4670 4671 4672
          4673 4674 4675 4676 4677 4678
          4679 4680 4681 4682 4685 4686
          4689 4692 4693 4696 4697 4698
          4699 4700 4701 4702 4703 4704
          4705 4706 4707 4708 4709 4710
          5209 5214 5215 5216 5219 5224
          5225 5226 5227 5228 5229 5230
          5231 5232 5233 5234 5235 5236
          5237 5238 5239 5240 5241 5242
          5243 5244 5245 5246 5248 5250
          5251 5252 5253 5254 5255 5256
          5257 5258 5259 5260 5262 5264
          5265 5266 5267 5268 5269 5270
          5271 5272 5273 5274 5275 5276
          5277 5278 5279 5280 5281 5282
          5283 5284 5285 5286 5287 5288
          5289 5290 5291 5292 5293 5294
          5295 5296 5297 5298 5299 5300
          5301 5302 5303 5304 5305 5306
          5307 5308 5309 5310 5311 5312
          5313 5314 5315 5316 5317 5318
          5319 5320 5321 5322 5323 5324
          5325 5326 5327 5328 5329 5330
          5331 5332 5333 5334 5335 5336
          5337 5338 5339 5340 5341 5342
          5343 5344 5345 5346 5347 5348
          5349 5350 5351 5352 5353 5354
          5355 5356 5357 5358 5359 5360
          5361 5362 5363 5364 5365 5366
          5367 5368 5369 5370 5371 5372
          5373 5374 5375 5376 5377 5378
          5379 5380 5381 5382 5383 5384
          5385 5386 5387 5388 5389 5390
          5391 5392 5393 5394 5395 5396
          5397 5398 5399 5400 5401 5402
          5403 5404 5405 5406 5407 5408
          5409 5410 5411 5412 5413 5414
          5415 5416 5417 5418 5419 5420
          5421 5422 5423 5424 5425 5426
          5427 5428 5429 5430 5431 5432
          5433 5434 5435 5436 5437 5438
          5439 5440 5441 5442 5443 5444
          5445 5446 5447 5448 5449 5450
          5451 5452 5453 5454 5455 5456
          5457 5458 5459 5460 5461 5462
          5463 5464 5465 5466 5467 5468
          5469 5470 5471 5472 5473 5474
          5475 5476 5477 5478 5479 5480
          3559 3565 3566 1616 3569 1617
          4418 4424 4425 1785 4428 1786
          4446 4452 4453 1789 4456 1790
          4658 4664 4665
        </DataArray>
        <DataArray type="Float64" Name="bounds" format="ascii" RangeMin="0" RangeMax="0">
          0 0 0 0 0 0
          0 0 0 0 0 0
          0 0 0 0 0 0
          0 0 0 0 0 0
          0 0 0 0 0 0
          0 0 0 0 0 0
          0 0 0 0 0 0
          0 0 0 0 0 0
          0 0 0 0 0 0
          0 0 0 0 0 0
          0 0 0 0 0 0
          0 0 0 0 0 0
          0 0 0 0 0 0
          0 0 0 0 0 0
          0 0 0 0 0 0
          0 0 0 0 0 0
          0 0 0 0 0 0
          0 0 0 0 0 0
          0 0 0 0 0 0
          0 0 0 0 0 0
          0 0 0 0 0 0
          0 0 0 0 0 0
          0 0 0 0 0 0
          0 0 0 0 0 0
          0 0 0 0 0 0
          0 0 0 0 0 0
          0 0 0 0 0 0
          0 0 0 0 0 0
          0 0 0 0 0 0
          0 0 0 0 0 0
          0 0 0 0 0 0
          0 0 0 0 0 0
          0 0 0 0 0 0
          0 0 0 0 0 0
          0 0 0 0 0 0
          0 0 0 0 0 0
          0 0 0 0 0 0
          0 0 0 0 0 0
          0 0 0 0 0 0
          0 0 0 0 0 0
          0 0 0 0 0 0
          0 0 0 0 0 0
          0 0 0 0 0 0
          0 0 0 0 0 0
          0 0 0 0 0 0
          0 0 0 0 0 0
          0 0 0 0 0 0
          0 0 0 0 0 0
          0 0 0 0 0 0
          0 0 0 0 0 0
          0 0 0 0 0 0
          0 0 0 0 0 0
          0 0 0 0 0 0
          0 0 0 0 0 0
          0 0 0 0 0 0
          0 0 0 0 0 0
          0 0 0 0 0 0
          0 0 0 0 0 0
          0 0 0 0 0 0
          0 0 0 0 0 0
          0 0 0 0 0 0
          0 0 0 0 0 0
          0 0 0 0 0 0
          0 0 0 0 0 0
          0 0 0 0 0 0
          0 0 0 0 0 0
          0 0 0 0 0 0
          0 0 0 0 0 0
          0 0 0 0 0 0
          0 0 0 0 0 0
          0 0 0 0 0 0
          0 0 0 0 0 0
          0 0 0 0 0 0
          0 0 0 0 0 0
          0 0 0 0 0 0
          0 0 0 0 0 0
          0 0 0 0 0 0
          0 0 0 0 0 0
          0 0 0 0 0 0
          0 0 0 0 0 0
          0 0 0 0 0 0
          0 0 0 0 0 0
          0 0 0 0 0 0
          0 0 0 0 0 0
          0 0 0 0 0 0
          0 0 0 0 0 0
          0 0 0 0 0 0
          0 0 0 0 0 0
          0 0 0 0 0 0
          0 0 0 0 0 0
          0 0 0 0 0 0
          0 0 0 0 0 0
          0 0 0 0 0 0
          0 0 0 0 0 0
          0 0 0 0 0 0
          0 0 0 0 0 0
          0 0 0 0 0 0
          0 0 0 0 0 0
          0 0 0 0 0 0
          0 0 0 0 0 0
          0 0 0 0 0 0
          0 0 0 0 0 0
          0 0 0 0 0 0
          0 0 0 0 0 0
          0 0 0 0 0 0
          0 0 0 0 0 0
          0 0 0
        </DataArray>
        <DataArray type="Float64" Name="gradient_error" format="ascii" RangeMin="5.5509961360355373e-11" RangeMax="2.50538054253711e-7">
          1.2384436936111505e-7 7.797291026627155e-8 1.544601002723669e-7 8.430115080674716e-10 1.6304527276194547e-9 3.3838655246355013e-9
          2.8064723786813897e-9 2.50538054253711e-7 1.1553916026687444e-7 1.2233989979295013e-7 1.6325789856864627e-7 2.480068802711621e-7
          1.1924362871000595e-7 1.9967996072883576e-7 6.272238052532147e-8 1.562205365422214e-7 7.779655725992953e-8 2.374142921126544e-7
          1.668505866245692e-10 7.293372788489819e-10 2.692761964279752e-9 5.10838725245439e-10 5.5143783085892446e-9 8.119635287325856e-9
          2.3771064547835453e-9 1.1019199620498939e-8 1.5344782024451264e-9 4.1471495101244594e-10 8.344985310191795e-9 2.4241954480769525e-9
          1.9786270013256972e-9 4.446471878738088e-10 9.813454793559265e-9 1.0893419223096697e-8 1.5991195344785866e-8 1.868609373316195e-8
          7.12846015147839e-9 1.0455396191149803e-8 2.1191054097215683e-9 3.058599655849374e-9 1.2158041011596561e-8 3.4835406380177627e-9
          9.061784152826392e-8 1.4284617398972115e-7 4.3782136849030454e-8 2.4389468090038548e-8 6.340254364336922e-8 8.078104871678858e-9
          1.0892087195638712e-8 8.57804586713006e-9 1.3582095527729347e-8 7.389574239797142e-8 4.108909631463983e-8 7.833338017394624e-8
          1.6048291298025326e-8 1.2931818138405079e-8 1.7255804754934184e-8 7.002600578513382e-10 3.2979400434754553e-10 3.6792004460846264e-10
          1.7702460805881834e-9 8.630900066373711e-10 8.549293530893861e-10 3.997397819334119e-10 1.7538030832133785e-9 4.949691162041499e-10
          2.274766578575036e-10 6.231179879905096e-10 2.8999453985039416e-10 3.499197436940189e-10 2.0271490631984028e-10 5.922986421702442e-10
          1.0476181221327924e-8 3.940260569600356e-10 2.1808729553704972e-10 7.055522271934163e-10 3.5956566201812195e-10 7.556398667556828e-10
          3.4803401699187375e-10 1.1580687088262168e-9 4.2438256572709345e-8 5.577257734171667e-9 7.788926378116158e-8 1.717488354875126e-8
          5.892155704345733e-8 3.1158450987932376e-9 1.5354689100682393e-9 4.722078303057368e-9 6.643883789597282e-8 2.2142683790957497e-8
          7.344754614764055e-8 1.0202662710473632e-8 7.184505942688356e-8 2.419811395677034e-8 7.936902720887161e-8 1.4527883670182948e-8
          8.074014181004894e-9 6.067055997507564e-9 3.0972984824918203e-9 1.5858934545601138e-8 8.862771833528398e-9 6.596840292611429e-9
          2.4013891656172195e-8 2.536935000759661e-9 1.4000400529178187e-8 2.2837205898278765e-9 3.140535775910203e-8 3.6135463486765527e-9
          1.6355064269611557e-8 1.2807716876865762e-9 6.001655495931227e-10 1.0004098409983253e-9 5.378665903537879e-10 1.884771492179239e-9
          8.958636396003178e-10 7.28164180492509e-10 6.3204455606190836e-9 7.531293142024043e-9 3.280622695414753e-9 2.9228614379829587e-9
          4.510090608449759e-9 6.185771375457659e-9 2.7586779155601698e-9 8.409579614581575e-9 2.1328531932347957e-9 7.871176435514798e-9
          1.4620664866184842e-9 1.305414533436699e-9 6.58557290982278e-10 6.873151899765138e-10 9.881395400528129e-10 1.2946272022024108e-9
          5.992056725634526e-10 9.701620056622495e-10 5.405677110955638e-10 1.5986944873396452e-9 3.6741780692326596e-8 4.47663295371888e-9
          1.7693114485755546e-8 1.8580338105679913e-9 3.882530980329206e-8 4.8096304959631016e-9 1.8091887434617e-8 2.381141365187327e-9
          1.1422378549883628e-9 9.002941176195815e-10 4.128217919313223e-10 2.575439465695074e-9 1.2392699283477953e-9 9.667771010977898e-10
          9.911542635012378e-9 2.5016853509433743e-9 9.349822229838167e-9 4.115312294600822e-9 1.0615755034904092e-8 2.639300689026666e-9
          1.0006146201590153e-8 1.1269298256955688e-9 5.189353153124187e-10 1.8426813593312008e-9 8.596811938579797e-10 1.1874261407037918e-9
          5.493282599559689e-10 1.9363745339283404e-9 7.111927186554266e-10 9.486438927518826e-10 3.3812042054452775e-10 4.361622962679842e-10
          4.866330848020347e-10 3.165088605752757e-10 2.3233495164799293e-10 5.118470998913293e-10 2.1490307960295095e-10 1.4372716874836932e-10
          1.5531375510930722e-10 1.0288759395027969e-10 3.516083649948737e-10 2.367353184883395e-10 2.4976777631066915e-10 1.1301487408987975e-9
          7.93932598321182e-10 5.41447235217141e-10 1.2572530210389163e-9 8.076292200353954e-10 5.690387308890884e-10 1.2382190392602221e-9
          5.6048985273153e-10 3.795349722556235e-10 3.9009510153977e-10 2.621554750100082e-10 8.677896575683037e-10 5.909337627663633e-10
          5.916386572248711e-10 1.8377429602498704e-9 1.245127172702542e-9 2.630670932690311e-9 1.3005197547652259e-9 8.908558385903409e-10
          8.692838303076605e-10 5.905429530859813e-10 1.87980619818474e-9 1.2956736681455787e-9 1.234528930007339e-9 1.3312090736302557e-10
          1.6849691514945894e-10 1.420267092619519e-10 2.6081658987429346e-10 8.445907511601648e-11 1.096620874412825e-10 5.5509961360355373e-11
          7.22348277092094e-11 7.148690469741779e-11 9.031315962393217e-11 5.948576243170476e-11 1.743990192132083e-10 1.1528336769685548e-10
          1.3317552294863886e-10 3.963313013649662e-10 2.703503760760075e-10 5.836976602956212e-10 2.689041607592786e-10 1.7851705149709848e-10
          1.814535850607571e-10 1.3444918300058705e-10 4.002916036464731e-10 2.682630755084621e-10 2.671669387952448e-10 1.4458230314898854e-10
          1.8056280187980828e-10 1.4470195012657727e-10 2.641680195583094e-10 1.0144623647557756e-10 1.2271512341766306e-10 8.942684126872926e-11
          1.0266106610156242e-10 8.82642526885756e-11 1.0161936233606543e-10 8.97686349943386e-11 1.7619443223736652e-10 1.2931466968021062e-10
          1.407215821039231e-10 8.350371540097969e-10 5.542367898200968e-10 1.1570670541817672e-9 5.762997285237482e-10 3.888280299787035e-10
          3.7816855143075895e-10 2.523360882645289e-10 8.033475191410799e-10 5.441017105924853e-10 5.179696811337649e-10 3.654929859365921e-10
          2.905575837628942e-10 4.874209649188316e-10 2.451944165120224e-10 1.6215557698715617e-10 1.9251750687075333e-10 1.2790036421437124e-10
          3.293160752810231e-10 2.2025398604940786e-10 2.540443144363617e-10 7.321954842209796e-9 2.032074474437574e-8 1.0038834322270777e-8
          1.5782373429672e-8 8.879978491138534e-9 6.853339859275408e-9 1.4456545769982273e-8 1.1892948749868393e-8 1.0391265533752827e-8
          3.620793488286839e-9 2.3828456054222675e-9 4.781628703485923e-9 4.221423467290738e-9 2.6122971210496134e-9 1.8121501776502783e-9
          1.6905543791836284e-9 1.160017662479812e-9 3.4817034853853166e-9 2.430902192829166e-9 2.227114545882625e-9 1.4124523582888452e-8
          6.051785528701043e-9 5.254234744867268e-9 3.914921635167513e-9 9.511411096215995e-9 7.337556421472533e-9 6.286876011748529e-9
          4.4435431713777806e-9 3.1217069974193903e-9 2.8173759486655583e-9 1.9512624998825037e-9 5.425838519129473e-9 3.833061865676112e-9
          3.4182432585047726e-9 2.7107265772069014e-8 2.3110401540459575e-8 1.9874205533212867e-8 2.5538545272001746e-8 1.8014444662423507e-8
          1.3220680679859127e-8 1.9874397683182187e-8 1.648231440046505e-8 1.3605708937594695e-8 1.179304679057835e-8 9.272696994380336e-9
          1.816358707967781e-8 1.5006802622541032e-8 1.293148004264025e-8 3.147520881241703e-8 2.7201508423445773e-8 2.3664168143888233e-8
          2.7800406558846052e-8 2.1068123949933253e-8 1.5296468711243865e-8 2.1557430531042254e-8 1.9265853173700168e-8 1.59375716850602e-8
          1.3669667504776714e-8 1.0809340686143319e-8 1.9686104662402114e-8 1.6261923838690648e-8 1.3948540792083055e-8 1.6380833618340758e-8
          1.824854280473322e-8 1.1103770080738228e-8 1.0978080515922173e-8 8.522874066652393e-9 7.230791962127921e-9 5.464981446180941e-9
          1.216569143857156e-8 9.484882146587403e-9 7.99359523116693e-9 6.336934721623452e-9 4.497333489433139e-9 3.974627265105268e-9
          2.7734492777384012e-9 7.07915090129081e-9 5.041060539426647e-9 4.427468529314993e-9 1.949401961119198e-8 1.55136524570995e-8
          1.9932246426994095e-8 1.1877411713146989e-8 8.658892244161297e-9 1.2146444580880375e-8 1.2941870607413205e-8 1.011328307626638e-8
          8.491185855176017e-9 6.460138990966995e-9 1.3212422386421835e-8 1.0331739479758946e-8 8.664202361788377e-9 7.565248327676062e-9
          5.39811935565894e-9 4.7238257693357394e-9 3.309797819773294e-9 7.734547673196462e-9 5.522608536725665e-9 4.826982516453554e-9
          5.8879659213941185e-9 5.1268409127874355e-9 3.790725002944832e-9 3.600674461317552e-9 2.888822191452103e-9 2.445790313640311e-9
          1.6898579978443563e-9 1.8371876273088524e-9 7.086439614547858e-9 5.040133955012112e-9 8.213031996222834e-9 6.195926255030816e-9
          4.632229847980785e-9 4.3050515334122356e-9 3.079525525071927e-9 7.223372086170717e-9 5.465954475903852e-9 4.9867042549732045e-9
          3.4069256387558723e-9 2.4274105661937663e-9 3.8844800964116e-9 2.900463838005041e-9 2.03397588283554e-9 2.0038932688646455e-9
          1.3214792053306881e-9 3.331400604826304e-9 2.3704309114432604e-9 2.3050936793784745e-9 1.551081972120867e-9 9.998775880657263e-10
          2.7801682152130267e-9 2.0067865988842756e-9 1.8122835614379602e-9 1.0841956513061168e-9 7.371751591334514e-10 6.896265133493217e-10
          4.648678063052603e-10 1.411332319304471e-9 9.628935497929462e-10 8.880354005034575e-10 6.371233845099453e-10 4.931718119980155e-10
          1.1688070810912494e-9 8.09906857555575e-10 8.125925598453121e-10 4.334644724214633e-10 2.904877656577344e-10 3.325045288459975e-10
          2.2270193813632393e-10 5.550821015948501e-10 3.723541490693761e-10 3.7532714414394565e-10 3.4364179558254523e-9 2.50077895126766e-9
          2.223382611867919e-9 1.583113680372591e-9 4.091355637598508e-9 2.997607887845226e-9 2.631381593890701e-9 1.7684985560409364e-9
          1.2106436067370033e-9 1.1028984315872196e-9 7.47469946430814e-10 2.1299839734500663e-9 1.4625653890344482e-9 1.3183185334120866e-9
          1.4243417494349542e-9 9.944312373119447e-10 8.98605546877918e-10 6.159154222833169e-10 1.6745641374920249e-9 1.1762516819829734e-9
          1.0581129262198183e-9 6.8659979996958e-10 4.61631104851149e-10 4.1782591302317993e-10 3.1688113421598667e-10 8.145915492640098e-10
          5.491884664806856e-10 4.963069554593062e-10 1.477141784949815e-9 1.6280076388488767e-9 1.3993401764578896e-9 1.860231878471534e-9
          1.2414892654546205e-9 1.3437853410303156e-9 8.044350483855135e-10 8.637693366257998e-10 1.0636581874696798e-9 1.1215745811878624e-9
          6.843946378992207e-10 1.5228043894851054e-9 9.823869053610355e-10 1.2437650905441409e-9 5.213177644849289e-10 5.693044711015865e-10
          3.5713269621264905e-10 3.879621504948331e-10 4.3320597583124833e-10 4.5192757911392577e-10 3.084976169867724e-10 6.585794375295308e-10
          4.485168399681725e-10 5.012013974462766e-10 2.338468612307835e-10 2.5540901284598323e-10 1.930305081945256e-10 2.055270368656277e-10
          1.935738591121163e-10 2.0270625427158298e-10 1.6729214291686654e-10 2.979108621362968e-10 2.1107928761286348e-10 2.2618609629367025e-10
          9.190898757421583e-9 6.494706833868836e-9 9.955747185695258e-9 8.132986960314227e-9 6.222978638674098e-9 5.602301173342911e-9
          4.093823758599743e-9 8.852816915458008e-9 6.830938157036686e-9 6.08832450050217e-9 4.319595303944699e-9 3.056454706811888e-9
          4.666027412010176e-9 3.720247393257674e-9 2.6715713439154866e-9 2.5409451786342843e-9 1.716606160654294e-9 4.027539484802793e-9
          2.908494070108454e-9 2.721509764882099e-9 1.0448620741093035e-8 7.367054466760273e-9 1.0648756913822594e-8 9.318609963123531e-9
          7.226069382081386e-9 6.390073292564226e-9 4.724289515170411e-9 9.494180934443568e-9 7.362584836440829e-9 6.498595186365972e-9
          4.857266421047572e-9 3.3794615194321128e-9 4.921492514794546e-9 4.209189238461423e-9 3.0608445560472533e-9 2.8330432697458436e-9
          1.947962422238004e-9 4.2706682927091134e-9 3.113154275487684e-9 2.8724182524897423e-9 4.688911002870742e-9 3.4534712552250953e-9
          3.0017951410665075e-9 2.159654641595816e-9 5.170442439241614e-9 3.822234729307374e-9 3.2991033137915076e-9 2.4633114198791278e-9
          1.695741812750645e-9 1.5152707800141752e-9 1.0320238573128622e-9 2.733883610940157e-9 1.8855655742352024e-9 1.6743809226568542e-9
          1.900242790656043e-9 1.3401273392187773e-9 1.1921472257347597e-9 8.241759828697241e-10 2.0794084642859025e-9 1.4709203673240506e-9
          1.2981644197760527e-9 9.277185297876937e-10 6.264095770599956e-10 5.625014187339415e-10 3.7391817289027835e-10 1.0191357419337176e-9
          6.891771749549212e-10 6.156219552355376e-10 5.483687524898263e-9 4.062740817164482e-9 3.49199656095525e-9 2.5253520643558213e-9
          5.59245473229505e-9 4.146334784464512e-9 3.5589122657002255e-9 2.9107156815278454e-9 2.0098447085487135e-9 1.7782305810157555e-9
          1.2142177780920823e-9 2.972239404449744e-9 2.0531150976284952e-9 1.8143603547654244e-9 2.195210580918188e-9 1.5559710329793151e-9
          1.366362761234173e-9 9.496534832132802e-10 2.2353112727230966e-9 1.5854994778442973e-9 1.3899388228169917e-9 1.0796608232510426e-9
          7.309664910310324e-10 6.504410598441346e-10 4.3649661428308816e-10 1.1006202936214184e-9 7.453291190122355e-10 6.624316207651497e-10
          1.99710989955769e-9 1.6993846987181734e-9 2.0895066189598597e-9 1.6548570646785442e-9 1.0899911208484692e-9 1.3522169705117122e-9
          8.284220511346616e-10 1.748432118561643e-9 1.173000447974919e-9 1.4271586438752034e-9 2.15347807850336e-9 1.8377647728748125e-9
          2.1805724540072513e-9 1.8103231482385273e-9 1.2255554410657705e-9 1.4766903500039968e-9 9.260928733793674e-10 1.8339688263466575e-9
          1.2434220420226556e-9 1.4954581470987744e-9 7.352827694371909e-10 5.03006325942985e-10 5.572446153437695e-10 3.807647679857934e-10
          7.964450446917327e-10 5.460889091294034e-10 6.01537152172779e-10 3.362831734156931e-10 2.2145333324493503e-10 2.5120831263255087e-10
          1.6776496447152815e-10 3.660394424984513e-10 2.431832817515129e-10 2.7017164532836847e-10 8.356919626881437e-10 5.742028857007723e-10
          6.30090623378583e-10 4.3137507032400067e-10 8.491916775263859e-10 5.839985298693798e-10 6.398425606031968e-10 3.852786211223461e-10
          2.5580014692950167e-10 2.8360917852780337e-10 1.8697828240149422e-10 3.921941442677652e-10 2.605332481949172e-10 2.887581485076808e-10
          2.677309768244764e-9 1.92310564333298e-9 1.329733134840978e-9 3.891789217021986e-9 2.8284231473265947e-9 1.971307943337424e-9
          5.4194756939833875e-9 3.985383829710111e-9 2.8013681940430738e-9 7.21754193950599e-9 5.367068670997825e-9 3.805299053983289e-9
          9.188898310799175e-9 6.899986047904909e-9 4.93236598651289e-9 1.1186559031551148e-8 8.466969989386653e-9 6.095896614878207e-9
          1.302909013524181e-8 9.920510432062665e-9 7.183437133201321e-9
        </DataArray>
        <DataArray type="Float64" Name="gradient_matprop_error" format="ascii" RangeMin="0" RangeMax="0">
          0 0 0 0 0 0
          0 0 0 0 0 0
          0 0 0 0 0 0
          0 0 0 0 0 0
          0 0 0 0 0 0
          0 0 0 0 0 0
          0 0 0 0 0 0
          0 0 0 0 0 0
          0 0 0 0 0 0
          0 0 0 0 0 0
          0 0 0 0 0 0
          0 0 0 0 0 0
          0 0 0 0 0 0
          0 0 0 0 0 0
          0 0 0 0 0 0
          0 0 0 0 0 0
          0 0 0 0 0 0
          0 0 0 0 0 0
          0 0 0 0 0 0
          0 0 0 0 0 0
          0 0 0 0 0 0
          0 0 0 0 0 0
          0 0 0 0 0 0
          0 0 0 0 0 0
          0 0 0 0 0 0
          0 0 0 0 0 0
          0 0 0 0 0 0
          0 0 0 0 0 0
          0 0 0 0 0 0
          0 0 0 0 0 0
          0 0 0 0 0 0
          0 0 0 0 0 0
          0 0 0 0 0 0
          0 0 0 0 0 0
          0 0 0 0 0 0
          0 0 0 0 0 0
          0 0 0 0 0 0
          0 0 0 0 0 0
          0 0 0 0 0 0
          0 0 0 0 0 0
          0 0 0 0 0 0
          0 0 0 0 0 0
          0 0 0 0 0 0
          0 0 0 0 0 0
          0 0 0 0 0 0
          0 0 0 0 0 0
          0 0 0 0 0 0
          0 0 0 0 0 0
          0 0 0 0 0 0
          0 0 0 0 0 0
          0 0 0 0 0 0
          0 0 0 0 0 0
          0 0 0 0 0 0
          0 0 0 0 0 0
          0 0 0 0 0 0
          0 0 0 0 0 0
          0 0 0 0 0 0
          0 0 0 0 0 0
          0 0 0 0 0 0
          0 0 0 0 0 0
          0 0 0 0 0 0
          0 0 0 0 0 0
          0 0 0 0 0 0
          0 0 0 0 0 0
          0 0 0 0 0 0
          0 0 0 0 0 0
          0 0 0 0 0 0
          0 0 0 0 0 0
          0 0 0 0 0 0
          0 0 0 0 0 0
          0 0 0 0 0 0
          0 0 0 0 0 0
          0 0 0 0 0 0
          0 0 0 0 0 0
          0 0 0 0 0 0
          0 0 0 0 0 0
          0 0 0 0 0 0
          0 0 0 0 0 0
          0 0 0 0 0 0
          0 0 0 0 0 0
          0 0 0 0 0 0
          0 0 0 0 0 0
          0 0 0 0 0 0
          0 0 0 0 0 0
          0 0 0 0 0 0
          0 0 0 0 0 0
          0 0 0 0 0 0
          0 0 0 0 0 0
          0 0 0 0 0 0
          0 0 0 0 0 0
          0 0 0 0 0 0
          0 0 0 0 0 0
          0 0 0 0 0 0
          0 0 0 0 0 0
          0 0 0 0 0 0
          0 0 0 0 0 0
          0 0 0 0 0 0
          0 0 0 0 0 0
          0 0 0 0 0 0
          0 0 0 0 0 0
          0 0 0 0 0 0
          0 0 0 0 0 0
          0 0 0 0 0 0
          0 0 0 0 0 0
          0 0 0 0 0 0
          0 0 0 0 0 0
          0 0 0
        </DataArray>
        <DataArray type="Float64" Name="initial_marker" format="ascii" RangeMin="0" RangeMax="2">
          0.5 0.25 2 2 0 2
          0 1.5 1.25 1 2 2
          2 2 0.6666666666666666 2 2 2
          2 0 1 0.5 0 2
          2 2 2 1.75 0 0
          2 2 0 0 0 0
          0 0 0 0 0 0
          2 2 2 1.5 2 0
          0.5 0 1 2 2 2
          1 0 1 2 2 2
          2 2 2 2 2 0
          0 0 0 0.5 0.25 0
          1 2 1.5 0 0 2
          2 1 2 2 2 2
          2 2 2 2 2 2
          2 2 2 2 2 2
          2 2 2 2 2 2
          2 2 1.5 1.5 2 2
          2 2 2 1.5 1 2
          2 2 0 0.25 0 0
          0 0 0 0.5 0 0
          0 0 0 0 0 0
          0 0 0 0 2 2
          2 2 2 2 2 2
          2 2 2 2 2 2
          0.5 0 0 0 0.5 0
          0 0 0 0 0 0
          0 0 0 0 0 0
          2 2 1.75 2 2 2
          1.5 1.5 2 2 2 2
          2 2 2 2 2 2
          2 2 2 2 2 2
          2 2 2 2 2 2
          2 2 2 2 2 0.5
          0.75 0 1.5 0 0.5 0
          0.5 0 0 0 1.5 1.25
          0.6666666666666666 2 1.5 2 2 1.75
          1.25 1 2 2 1.75 0
          0.5 0 1 0 0.25 0
          0 0 0 0 0.75 0.6666666666666666
          0 2 2 2 2 2
          2 2 2 2 2 1.5
          1 2 1.25 1 0.5 0
          1.75 1.5 1.5 2 2 2
          2 2 2 2 2 2
          2 2 2 2 2 2
          2 2 2 2 2 2
          2 2 2 2 2 2
          2 2 2 2 2 2
          2 2 2 2 2 2
          2 2 2 2 2 2
          2 2 2 2 2 2
          2 2 2 2 2 2
          2 2 2 2 2 2
          2 2 2 2 2 2
          2 2 2 2 2 2
          2 2 2 2 2 2
          2 2 2 2 2 2
          2 2 2 2 2 2
          2 2 2 2 2 2
          2 2 2 2 2 2
          2 2 2 2 2 2
          2 2 2 2 2 2
          2 2 2 2 2 2
          2 2 2 2 2 2
          2 2 2 2 2 2
          2 2 2 2 2 2
          2 2 2 2 2 2
          2 2 2 1.6666666666666667 2 2
          2 2 2 2 2 2
          2 2 2 2 2 2
          2 2 2 2 2 2
          2 2 2 1.75 1.6666666666666667 2
          2 2 1 1 0 1
          1 1 1 1 0 0
          0 1 1 0 1 1
          1 1 0 0 0 1
          1 0 0.5 0.75 0 0.5
          0 0 0 1 1 0
          2 2 2 2 2 2
          2 2 2 2 2 2
          2 2 2 2 2 2
          2 2 2 2 2 2
          2 2 2 2 2 2
          2 2 2 2 2 2
          2 2 2 2 2 2
          2 2 2 2 2 2
          2 2 2 2 2 2
          2 2 2 2 2 2
          2 2 2 2 2 2
          2 2 2 2 2 2
          2 2 2 2 2 2
          2 2 2 2 2 2
          2 2 2 2 2 2
          2 2 2 2 2 2
          1 0 1 1 1 0
          0 1 1 0 1 0
          1 1 1 0 0 1
          1 0 1 1 0 0
          1 1 0 1 1 0
          0 1 1 0 1 1
          0 0 1 1 0 1
          1 0 0 1 1 0
          2 2 2 2 2 2
          2 2 2 2 2 2
          2 2 2 2 2 2
          2 2 2
        </DataArray>
        <DataArray type="Float64" Name="markers_norefine" format="ascii" RangeMin="0" RangeMax="0">
          0 0 0 0 0 0
          0 0 0 0 0 0
          0 0 0 0 0 0
          0 0 0 0 0 0
          0 0 0 0 0 0
          0 0 0 0 0 0
          0 0 0 0 0 0
          0 0 0 0 0 0
          0 0 0 0 0 0
          0 0 0 0 0 0
          0 0 0 0 0 0
          0 0 0 0 0 0
          0 0 0 0 0 0
          0 0 0 0 0 0
          0 0 0 0 0 0
          0 0 0 0 0 0
          0 0 0 0 0 0
          0 0 0 0 0 0
          0 0 0 0 0 0
          0 0 0 0 0 0
          0 0 0 0 0 0
          0 0 0 0 0 0
          0 0 0 0 0 0
          0 0 0 0 0 0
          0 0 0 0 0 0
          0 0 0 0 0 0
          0 0 0 0 0 0
          0 0 0 0 0 0
          0 0 0 0 0 0
          0 0 0 0 0 0
          0 0 0 0 0 0
          0 0 0 0 0 0
          0 0 0 0 0 0
          0 0 0 0 0 0
          0 0 0 0 0 0
          0 0 0 0 0 0
          0 0 0 0 0 0
          0 0 0 0 0 0
          0 0 0 0 0 0
          0 0 0 0 0 0
          0 0 0 0 0 0
          0 0 0 0 0 0
          0 0 0 0 0 0
          0 0 0 0 0 0
          0 0 0 0 0 0
          0 0 0 0 0 0
          0 0 0 0 0 0
          0 0 0 0 0 0
          0 0 0 0 0 0
          0 0 0 0 0 0
          0 0 0 0 0 0
          0 0 0 0 0 0
          0 0 0 0 0 0
          0 0 0 0 0 0
          0 0 0 0 0 0
          0 0 0 0 0 0
          0 0 0 0 0 0
          0 0 0 0 0 0
          0 0 0 0 0 0
          0 0 0 0 0 0
          0 0 0 0 0 0
          0 0 0 0 0 0
          0 0 0 0 0 0
          0 0 0 0 0 0
          0 0 0 0 0 0
          0 0 0 0 0 0
          0 0 0 0 0 0
          0 0 0 0 0 0
          0 0 0 0 0 0
          0 0 0 0 0 0
          0 0 0 0 0 0
          0 0 0 0 0 0
          0 0 0 0 0 0
          0 0 0 0 0 0
          0 0 0 0 0 0
          0 0 0 0 0 0
          0 0 0 0 0 0
          0 0 0 0 0 0
          0 0 0 0 0 0
          0 0 0 0 0 0
          0 0 0 0 0 0
          0 0 0 0 0 0
          0 0 0 0 0 0
          0 0 0 0 0 0
          0 0 0 0 0 0
          0 0 0 0 0 0
          0 0 0 0 0 0
          0 0 0 0 0 0
          0 0 0 0 0 0
          0 0 0 0 0 0
          0 0 0 0 0 0
          0 0 0 0 0 0
          0 0 0 0 0 0
          0 0 0 0 0 0
          0 0 0 0 0 0
          0 0 0 0 0 0
          0 0 0 0 0 0
          0 0 0 0 0 0
          0 0 0 0 0 0
          0 0 0 0 0 0
          0 0 0 0 0 0
          0 0 0 0 0 0
          0 0 0 0 0 0
          0 0 0 0 0 0
          0 0 0 0 0 0
          0 0 0 0 0 0
          0 0 0
        </DataArray>
        <DataArray type="Float64" Name="markers_mustrefine" format="ascii" RangeMin="0" RangeMax="2">
          0.5 0.25 2 2 0 2
          0 1.5 1.25 1 2 2
          2 2 0.6666666666666666 2 2 2
          2 0 1 0.5 0 2
          2 2 2 1.75 0 0