<?xml version="1.0"?>
<VTKFile type="UnstructuredGrid" version="0.1" byte_order="LittleEndian" header_type="UInt32" compressor="vtkZLibDataCompressor">
  <UnstructuredGrid>
    <Piece NumberOfPoints="649" NumberOfCells="386">
      <PointData>
        <DataArray type="Int32" Name="libmesh_node_id" format="ascii" RangeMin="288" RangeMax="5267">
          288 390 769 783 828 829
          830 831 832 833 834 873
          876 879 881 892 893 896
          897 913 919 1322 1323 1324
          1348 1349 1353 1354 1355 1356
          1357 1358 1359 1554 1566 1568
          1569 1570 1571 1572 1573 1574
          1579 1580 1589 1590 1599 1605
          1606 1607 1608 1609 1610 1611
          1697 1698 1699 1700 1701 1702
          1703 1704 1705 1706 1707 1711
          1717 1718 1719 1720 1721 1722
          1763 1779 1797 2184 2187 2244
          2245 2246 2247 2248 2249 2250
          2251 2252 2253 2258 2259 3187
          3248 3269 3273 3281 3282 3283
          3285 3286 3289 3290 3291 3292
          3293 3294 3295 3296 3297 3298
          3299 3300 3301 3302 3303 3313
          3331 3333 3346 3348 3350 3358
          3360 3362 3364 3387 3391 3392
          3395 3411 3412 3415 3416 3417
          3418 3419 3442 3443 3446 3476
          3480 3488 3489 3490 3491 3492
          3493 3494 3495 3496 3497 3498
          3499 3500 3501 3502 3503 3504
          3505 3506 3507 3508 3509 3510
          3511 3512 3513 3514 3515 3516
          3517 3518 3519 3520 3521 3522
          3523 3524 3525 3526 3527 3528
          3529 3530 3532 3533 3534 3542
          3544 3546 3548 3556 3558 3560
          3562 3570 3572 3574 3576 4041
          4042 4043 4044 4045 4046 4047
          4048 4049 4050 4051 4052 4053
          4054 4055 4056 4059 4060 4062
          4064 4075 4076 4077 4078 4079
          4080 4081 4082 4083 4084 4085
          4086 4087 4088 4089 4090 4091
          4092 4093 4094 4095 4096 4097
          4098 4099 4100 4101 4102 4103
          4104 4105 4106 4107 4108 4109
          4110 4111 4112 4113 4114 4115
          4116 4117 4118 4119 4121 4123
          4125 4133 4134 4137 4138 4140
          4142 4153 4155 4157 4159 4167
          4169 4171 4173 4259 4260 4264
          4265 4266 4267 4268 4269 4270
          4298 4299 4300 4301 4302 4303
          4304 4327 4331 4361 4365 4373
          4374 4375 4376 4377 4378 4379
          4380 4381 4382 4383 4384 4385
          4386 4387 4388 4389 4390 4391
          4393 4394 4398 4399 4400 4401
          4402 4403 4405 4408 4409 4415
          4417 4419 4421 4429 4431 4433
          4443 4445 4447 4457 4498 4499
          4500 4501 4502 4503 4504 4532
          4533 4534 4535 4536 4537 4538
          4561 4565 4595 4599 4614 4615
          4618 4619 4638 4639 4642 4643
          4655 4659 4683 4687 5207 5208
          5210 5211 5212 5213 5217 5218
          5220 5221 5222 5223 5247 5249
          5261 5263 812 813 817 409
          836 835 411 837 894 405
          895 898 811 1340 816 1594
          1351 1708 1712 1709 1710 1713
          1714 1716 1723 1443 1762 1778
          1456 1780 1458 1460 1782 1784
          853 1894 1519 1896 1520 901
          1147 1143 2189 420 1149 1908
          1524 899 1910 1912 2254 1726
          2255 2256 2257 2260 1730 1918
          1922 1920 3359 3361 3363 1584
          3531 1612 1582 3543 3545 3547
          1614 3477 3557 3559 1604 3561
          1616 3571 3573 3575 1618 4057
          4058 4061 4063 4120 4122 4124
          1724 4135 4136 4139 4141 4154
          4156 4158 1728 4168 4170 4172
          4244 4253 1759 4258 4262 4254
          1761 4276 4285 4292 4286 4294
          1765 4290 4296 1766 1767 3478
          4325 3479 4326 4328 4309 4314
          4329 4330 1772 4343 4359 4360
          4362 4348 4363 4364 1777 4392
          1781 4396 4404 1783 4410 4406
          4411 4412 4407 4413 4414 916
          4416 4418 4420 1785 4430 4432
          4434 4435 1787 4444 4446 4448
          4449 1789 4458 4459 4460 4461
          4462 4463 1791 4476 4485 4492
          4486 4494 1793 4490 4496 1795
          1796 4510 4519 4526 4520 4528
          1799 4524 4530 1800 1801 4543
          4559 4560 4562 4548 4563 4564
          1806 4577 4593 4594 4596 4582
          4597 4598 1811 4608 4616 4610
          4617 4612 4620 1812 1813 4632
          4640 4634 4641 4636 4644 1816
          1817 4656 4657 4658 4660 4661
          1819 4662 4664 4666 4668 4684
          4685 4686 4688 4689 1823 4690
          4692 4694 4696 5214 5209 5215
          5216 1895 5224 5219 5225 5226
          1897 5248 5250 5251 5252 5253
          1901 5262 5264 5265 5266 5267
          1903
        </DataArray>
        <DataArray type="Float64" Name="bounds" format="ascii" RangeMin="0" RangeMax="0">
          0 0 0 0 0 0
          0 0 0 0 0 0
          0 0 0 0 0 0
          0 0 0 0 0 0
          0 0 0 0 0 0
          0 0 0 0 0 0
          0 0 0 0 0 0
          0 0 0 0 0 0
          0 0 0 0 0 0
          0 0 0 0 0 0
          0 0 0 0 0 0
          0 0 0 0 0 0
          0 0 0 0 0 0
          0 0 0 0 0 0
          0 0 0 0 0 0
          0 0 0 0 0 0
          0 0 0 0 0 0
          0 0 0 0 0 0
          0 0 0 0 0 0
          0 0 0 0 0 0
          0 0 0 0 0 0
          0 0 0 0 0 0
          0 0 0 0 0 0
          0 0 0 0 0 0
          0 0 0 0 0 0
          0 0 0 0 0 0
          0 0 0 0 0 0
          0 0 0 0 0 0
          0 0 0 0 0 0
          0 0 0 0 0 0
          0 0 0 0 0 0
          0 0 0 0 0 0
          0 0 0 0 0 0
          0 0 0 0 0 0
          0 0 0 0 0 0
          0 0 0 0 0 0
          0 0 0 0 0 0
          0 0 0 0 0 0
          0 0 0 0 0 0
          0 0 0 0 0 0
          0 0 0 0 0 0
          0 0 0 0 0 0
          0 0 0 0 0 0
          0 0 0 0 0 0
          0 0 0 0 0 0
          0 0 0 0 0 0
          0 0 0 0 0 0
          0 0 0 0 0 0
          0 0 0 0 0 0
          0 0 0 0 0 0
          0 0 0 0 0 0
          0 0 0 0 0 0
          0 0 0 0 0 0
          0 0 0 0 0 0
          0 0 0 0 0 0
          0 0 0 0 0 0
          0 0 0 0 0 0
          0 0 0 0 0 0
          0 0 0 0 0 0
          0 0 0 0 0 0
          0 0 0 0 0 0
          0 0 0 0 0 0
          0 0 0 0 0 0
          0 0 0 0 0 0
          0 0 0 0 0 0
          0 0 0 0 0 0
          0 0 0 0 0 0
          0 0 0 0 0 0
          0 0 0 0 0 0
          0 0 0 0 0 0
          0 0 0 0 0 0
          0 0 0 0 0 0
          0 0 0 0 0 0
          0 0 0 0 0 0
          0 0 0 0 0 0
          0 0 0 0 0 0
          0 0 0 0 0 0
          0 0 0 0 0 0
          0 0 0 0 0 0
          0 0 0 0 0 0
          0 0 0 0 0 0
          0 0 0 0 0 0
          0 0 0 0 0 0
          0 0 0 0 0 0
          0 0 0 0 0 0
          0 0 0 0 0 0
          0 0 0 0 0 0
          0 0 0 0 0 0
          0 0 0 0 0 0
          0 0 0 0 0 0
          0 0 0 0 0 0
          0 0 0 0 0 0
          0 0 0 0 0 0
          0 0 0 0 0 0
          0 0 0 0 0 0
          0 0 0 0 0 0
          0 0 0 0 0 0
          0 0 0 0 0 0
          0 0 0 0 0 0
          0 0 0 0 0 0
          0 0 0 0 0 0
          0 0 0 0 0 0
          0 0 0 0 0 0
          0 0 0 0 0 0
          0 0 0 0 0 0
          0 0 0 0 0 0
          0 0 0 0 0 0
          0 0 0 0 0 0
          0
        </DataArray>
        <DataArray type="Float64" Name="gradient_error" format="ascii" RangeMin="1.3312090736302557e-10" RangeMax="3.512577223018249e-7">
          3.5140211907841926e-8 3.867023828275558e-8 8.125797405601429e-8 1.6497541353079109e-9 5.437516688353342e-8 1.0847666294610964e-7
          1.8430888041178287e-8 4.8907246217143263e-8 3.1911340569711425e-8 5.732275540529729e-8 2.0037913032459556e-8 2.2525893348541354e-9
          7.971979254167125e-10 1.2075212457533858e-8 3.3105646274689377e-9 3.721467474747308e-9 2.9385454195958315e-9 4.540427032880872e-9
          4.828873246687419e-9 3.3787072137562564e-8 4.581087371959283e-8 1.0999953352143481e-8 7.921308177908619e-9 2.6575860660322478e-8
          5.172975989387708e-8 3.2213731233346675e-8 3.888812588391469e-9 5.235750537202606e-9 4.076975743003471e-9 1.0635355333840804e-8
          1.8770203772876613e-8 1.0907731577432866e-8 2.9562618688015934e-8 1.943697004040847e-8 6.0028662051904545e-9 5.379685709263039e-10
          2.9283512619732046e-9 4.497744298508591e-9 6.460675053437245e-10 1.4480099760091613e-8 1.3939293594514817e-9 9.385822542837543e-9
          3.6999139571142055e-10 2.7274592604080524e-10 4.062882455050584e-8 5.6704841927167534e-9 3.387220969727304e-9 2.837478576484969e-8
          3.251649297663219e-9 1.7594642064835553e-8 1.7229695666222301e-9 4.82031422565626e-8 6.634384963595857e-9 2.816838557536652e-8
          2.822568702097926e-9 3.4776296410912983e-9 1.2311856338187007e-9 1.1679188001661453e-9 2.166547194736606e-9 3.085241582476639e-9
          1.4559601897138032e-9 6.0144988043261e-9 8.371274371760938e-10 4.714177057544653e-9 5.333388481593811e-10 4.4885369094533634e-10
          1.0206069192701942e-8 8.661043915385441e-10 6.685722853201042e-9 1.647870619619991e-9 1.616985287002491e-8 1.567788263232349e-9
          2.1741837384085364e-8 1.153966446302413e-8 4.2942484265748815e-8 6.495092605925405e-9 4.220810723607461e-9 4.1235711806910634e-9
          5.409509873556791e-9 4.165705862106312e-9 3.188308591859699e-9 4.1704006761469465e-9 1.590744516913452e-9 2.1041938275895178e-9
          2.373369088444377e-9 3.035431083685994e-9 1.407854955531575e-9 5.607813542038814e-10 6.981034099249572e-10 3.042456655953005e-9
          1.67891399795345e-9 8.239452934723375e-10 8.148364356477261e-10 6.64742077156709e-10 4.2471330510719766e-10 5.829034977137918e-10
          1.54161358910945e-9 2.933759601716994e-9 1.2898336105058888e-9 8.771381658497909e-10 2.502721118768646e-9 1.7925707932434593e-9
          2.0076019066985315e-9 1.2529985249913161e-9 9.925961372911732e-10 1.9085570449426733e-9 1.0347265138782853e-9 6.827646329293116e-10
          8.112182980578574e-10 5.207336784111834e-10 1.5837147789959157e-9 1.0634218173536514e-9 1.225384432148211e-9 3.6490471600358785e-10
          2.805651958841256e-10 2.361351800748524e-10 6.079638359634905e-10 1.3057771303813098e-9 9.900314509427599e-10 4.6267413288442756e-10
          3.449755273970617e-10 7.364986156890435e-10 5.389993108488896e-10 5.26010185544584e-9 4.684632753514421e-9 3.6394473142087418e-9
          7.105692620986464e-9 1.1272186706071676e-8 1.8966761382101936e-8 1.0300953406273383e-8 8.46824431498541e-9 1.7631143150591847e-8
          1.512167098810004e-8 1.4310372607728494e-8 2.783572238015607e-9 2.076189769203957e-9 4.45135298894969e-9 6.8123869655491635e-9
          9.93285994231192e-9 4.346361370785755e-9 3.4986322663463593e-9 6.3902424413613765e-9 3.794180007922845e-9 2.838787130434563e-9
          2.999097205511024e-9 2.1606787860941506e-9 5.6511225271719945e-9 4.353414676921209e-9 4.369035927817009e-9 2.7669922280983775e-9
          2.1428915616316954e-9 3.887236980146356e-9 2.329514292474813e-9 1.6150232061731328e-9 1.776595941932261e-9 1.1892751073494108e-9
          3.324238339723094e-9 2.3833653505497417e-9 2.498789595086766e-9 9.043787257397937e-9 6.962668611573192e-9 1.2284771301835675e-8
          8.107837806694906e-9 6.429350055459218e-9 6.157979106519097e-9 4.732740653238668e-9 1.1168465578950832e-8 9.105140800751664e-9
          8.40636941034236e-9 5.27606718502052e-9 4.006428222097795e-9 6.996059587763853e-9 4.594016327955958e-9 3.4122706997275553e-9
          3.4110597232807687e-9 2.4242410016952515e-9 6.182513850184274e-9 4.7261269204753725e-9 4.527346544667456e-9 2.1198381974868e-9
          1.552695982333019e-9 1.5715310893829534e-9 3.33205171008727e-9 2.48485937494313e-9 2.421751703433418e-9 1.1439466130236011e-9
          8.206980975586518e-10 1.7273845128710038e-9 1.2153159342449676e-9 5.037588079986698e-9 3.604058243895898e-9 7.289828085647999e-9
          5.156298071858469e-9 2.5266458129467858e-9 1.7464140093694498e-9 3.5665447421192926e-9 2.4294036494330647e-9 6.284998416894628e-10
          7.548463643773449e-10 6.47829713007571e-10 1.130225992685135e-9 5.075957667983337e-10 6.177666507045987e-10 3.0970978857968674e-10
          3.8940281553822026e-10 4.4354420372842867e-10 5.320668709907584e-10 3.316911340813683e-10 9.208725691921961e-10 5.866567730330756e-10
          7.489811289745784e-10 1.9914590499643083e-10 2.519976140061631e-10 1.7269978674148437e-10 2.1203417809044515e-10 3.8729140338872777e-10
          3.017121080519559e-10 1.6179669030386759e-9 1.1936682955828443e-9 2.224779550125069e-9 1.3269686192715176e-9 8.636380817266201e-10
          9.716859915761543e-10 6.169516072760859e-10 1.8437489580491116e-9 1.2306947485145055e-9 1.3404289383763771e-9 7.151373595800981e-10
          8.465036192033062e-10 7.219667354074737e-10 1.1488091735324944e-9 5.919221140826901e-10 6.970161302059673e-10 3.6838243988352153e-10
          4.3946526383925956e-10 5.130347472001325e-10 5.932723732784954e-10 3.664416401941423e-10 9.433702856308228e-10 6.050271336686063e-10
          7.909066707827462e-10 2.9594093979000168e-9 2.1631378516735876e-9 3.816941238778658e-9 2.483256210369466e-9 1.7044226662732464e-9
          1.784420021443468e-9 1.181297898032358e-9 3.2480875304193207e-9 2.2944084737893584e-9 2.314172805798932e-9 1.493693588201592e-9
          1.263550012197558e-9 1.9039905809517307e-9 1.2372480309521988e-9 8.103021461580651e-10 1.0318638318503928e-9 6.537563174573828e-10
          1.5894506773970786e-9 1.0595163015798733e-9 1.3233370602605514e-9 5.814534101972413e-10 4.0411389412811544e-10 8.449452842989985e-10
          5.810530448764593e-10 2.218784928986561e-10 2.748791547478718e-10 1.8152450971109956e-10 2.2211953990706489e-10 3.9508711451958787e-10
          3.187044412379624e-10 1.1934433855986902e-9 8.071689748763912e-10 1.6350087511759184e-9 1.0889778526115166e-9 5.392827898554664e-10
          4.3040769385157473e-10 7.13508190888641e-10 5.607465478561063e-10 2.5628723567628596e-8 2.0593466112387442e-8 2.3947897298577057e-8
          2.078491340369544e-8 1.9203091130677698e-8 1.647586047342814e-8 3.064704141236604e-8 2.7561875935851507e-8 2.4708480083772216e-8
          3.7353653283577826e-8 3.4641849931330594e-8 3.094386875274952e-8 2.7708879614028055e-8 4.252948118661261e-8 4.0657046735199524e-8
          3.7165179839640444e-8 1.3794759134664532e-8 1.8356850871092414e-8 2.3537750276704076e-8 2.8960290598030045e-8 1.6134835074780455e-8
          1.230630440542183e-8 2.0394385767018844e-8 1.4811098419621312e-8 1.2337697887457095e-8 1.1106647511802014e-8 8.928039266813034e-9
          1.8917698902336265e-8 1.6064536319177873e-8 1.4062052118569196e-8 9.09635718437783e-9 6.723470902398256e-9 1.1290339640798763e-8
          8.100824654404363e-9 6.307913030359957e-9 5.858497125977883e-9 4.373495422863815e-9 1.0175949061650034e-8 8.103698097130708e-9
          2.538026809056175e-8 1.885140401837518e-8 2.3633523887457123e-8 2.0224448316937746e-8 1.7263030459592027e-8 1.4333091736876467e-8
          2.836451699624396e-8 2.461792874464831e-8 1.356902151758038e-8 1.2343440690953412e-8 1.0009530862654161e-8 1.007750288665253e-8
          7.072427037602816e-9 1.3316233191251544e-8 9.291359867986281e-9 4.844289783358814e-9 3.2628171426596386e-9 6.319406576529254e-9
          1.688037190468936e-8 1.169707960678846e-8 2.0599046631678595e-8 7.912760260017409e-9 4.5599576241372516e-8 4.473538918483144e-8
          4.2286048454223e-8 3.9102583191435e-8 4.761372046197175e-8 4.722226234851586e-8 4.5521143264206355e-8 4.9018455671830924e-8
          4.866503309132296e-8 4.7142025097131066e-8 4.5123928827503866e-8 4.953106362791141e-8 4.9147584288621154e-8 4.765943222624914e-8
          3.3945485157789397e-8 3.7862859337783866e-8 4.032028991262663e-8 4.11498099625393e-8 3.276492164678396e-8 2.8789033812494293e-8
          3.644202141811239e-8 3.220840179660983e-8 3.8754644054339444e-8 3.445163049796716e-8 3.9519416475281514e-8 3.523775108916161e-8
          2.415289295715533e-8 2.7097766981416197e-8 2.905601657042062e-8 2.9751344042684184e-8 4.809138484278586e-9 3.4932441755031884e-9
          4.141112663883582e-9 2.9967835114582117e-9 2.932659003979891e-9 2.023727080390033e-9 2.386459820392385e-9 2.03662898948841e-9
          2.004681938810909e-9 1.3579355795345483e-9 1.671268046999096e-9 1.0808807920610449e-9 2.169101156165981e-9 1.4272402552431902e-9
          9.260128054757588e-10 7.248372970739798e-10 2.499179187751615e-7 1.199157029177529e-7 3.512577223018249e-7 1.8344076205543052e-7
          1.1553916026687444e-7 2.50538054253711e-7 7.797291026627155e-8 1.2233989979295013e-7 1.0479852495255378e-9 1.9785716161829063e-9
          7.293372788489819e-10 1.3382013012184908e-9 1.274723575684512e-7 7.983800947775812e-8 1.917774369742768e-7 7.54466387315143e-8
          9.932087995876042e-8 4.949691162041499e-10 6.231179879905096e-10 2.4968311660239146e-10 2.274766578575036e-10 2.8999453985039416e-10
          3.499197436940189e-10 5.922986421702442e-10 1.0476181221327924e-8 1.5695954186287995e-7 8.919477110433139e-8 7.79131087672947e-8
          1.4833824384883021e-7 4.2438256572709345e-8 9.061784152826392e-8 1.423189674007271e-7 7.788926378116158e-8 5.892155704345733e-8
          1.6325789856864627e-7 2.4013891656172195e-8 4.3782136849030454e-8 1.4000400529178187e-8 2.4389468090038548e-8 5.5143783085892446e-9
          7.12846015147839e-9 1.0893419223096697e-8 1.2435866048630174e-9 1.6304527276194547e-9 2.1191054097215683e-9 6.3204455606190836e-9
          8.078104871678858e-9 2.692761964279752e-9 3.280622695414753e-9 4.510090608449759e-9 7.111927186554266e-10 7.055522271934163e-10
          9.486438927518826e-10 3.3812042054452775e-10 4.361622962679842e-10 3.3855143536187153e-10 1.1580687088262168e-9 1.4620664866184842e-9
          9.881395400528129e-10 6.58557290982278e-10 3.165088605752757e-10 2.3233495164799293e-10 5.118470998913293e-10 3.6792004460846264e-10
          1.1301487408987975e-9 1.7702460805881834e-9 7.002600578513382e-10 8.076292200353954e-10 5.690387308890884e-10 1.2382190392602221e-9
          8.549293530893861e-10 5.290587416673471e-9 3.825617128038815e-9 2.677309768244764e-9 7.868075143565378e-9 5.636557861996255e-9
          3.891789217021986e-9 1.8377429602498704e-9 1.245127172702542e-9 2.630670932690311e-9 1.7538030832133785e-9 1.3312090736302557e-10
          1.6849691514945894e-10 1.420267092619519e-10 2.6081658987429346e-10 3.963313013649662e-10 2.703503760760075e-10 5.836976602956212e-10
          3.940260569600356e-10 1.4458230314898854e-10 1.8056280187980828e-10 1.4470195012657727e-10 2.641680195583094e-10 8.350371540097969e-10
          5.542367898200968e-10 1.1570670541817672e-9 7.556398667556828e-10 3.654929859365921e-10 2.905575837628942e-10 4.874209649188316e-10
          2.8186300665350436e-8 2.6935362023550546e-8 8.268235017666023e-8 3.33862331958666e-8 3.3363916205276396e-8 2.4115543447769355e-8
          3.1243350950454396e-8 3.783866345221804e-8 3.824326276068118e-8 3.8432861732333936e-8 3.7077780715315266e-8 3.410459235543407e-8
          3.969504637836326e-8 4.063471324729288e-8 4.244700869399358e-8 4.04447785042787e-8 6.22396554010994e-8 1.2736502062158812e-8
          1.7714147530973065e-8 1.0307011537498982e-8 1.4526205527882073e-8 1.1115215017271157e-8 2.0768058764987433e-8 2.7565955051072704e-8
          2.371990030640694e-8 1.952911312180466e-8 1.493235935394722e-8 3.405733653615292e-8 3.0368272513828984e-8 2.5189394017391182e-8
          1.9188217453187977e-8 3.861878362055889e-8 3.662093927425137e-8 3.0976693448361285e-8 2.3658683377462262e-8 7.321954842209796e-9
          5.577257734171667e-9 3.152715639074336e-8 2.032074474437574e-8 1.717488354875126e-8 8.879978491138534e-9 1.0038834322270777e-8
          6.853339859275408e-9 1.4456545769982273e-8 1.5782373429672e-8 1.1892948749868393e-8 1.0391265533752827e-8 8.119635287325856e-9
          7.923364668769054e-9 5.4194756939833875e-9 1.0617041556257172e-8 7.21754193950599e-9 3.620793488286839e-9 2.3828456054222675e-9
          4.781628703485923e-9 4.221423467290738e-9 3.1158450987932376e-9 1.3571543753928671e-8 9.188898310799175e-9 1.6590558251210005e-8
          1.4124523582888452e-8 1.1186559031551148e-8 6.051785528701043e-9 5.254234744867268e-9 3.914921635167513e-9 9.511411096215995e-9
          7.337556421472533e-9 6.286876011748529e-9 4.722078303057368e-9 4.1855349264073674e-8 4.24847206298615e-8 4.465958010622248e-8
          4.2324090022474866e-8 4.3039330161904404e-8 4.414232190934532e-8 4.4668904117161766e-8 4.650684220322597e-8 4.405459288518092e-8
          4.5616834532733224e-8 4.545633256455161e-8 4.619503466128937e-8 4.796485682024327e-8 4.5442758077675205e-8 4.673953803824968e-8
          4.582093741580505e-8 4.668902390644694e-8 4.8516915546947464e-8 4.596149838035173e-8 4.71157422356128e-8 4.1149996179416534e-8
          4.149057277308525e-8 3.598441893516846e-8 2.789091361230975e-8 4.265907715283832e-8 4.4644668353561816e-8 3.95521142451802e-8
          3.136283641456485e-8 4.36394320152552e-8 4.630602174238027e-8 4.16090465983131e-8 3.365304362098747e-8 4.39844500158347e-8
          4.6810308749649324e-8 4.2282263176985505e-8 3.4455867943999646e-8 3.556415351151896e-8 2.3110401540459575e-8 2.7107265772069014e-8
          1.9874205533212867e-8 3.920520161484037e-8 2.5538545272001746e-8 6.643883789597282e-8 2.2142683790957497e-8 4.1213455060311826e-8
          2.7201508423445773e-8 3.147520881241703e-8 2.3664168143888233e-8 4.1829774856418845e-8 2.7800406558846052e-8 7.184505942688356e-8
          2.419811395677034e-8 1.9441948518833693e-8 1.6380833618340758e-8 1.302909013524181e-8 2.182515305415724e-8 1.824854280473322e-8
          1.4527883670182948e-8 1.506305129330131e-8 9.920510432062665e-9 1.6893666665090805e-8 1.1103770080738228e-8 2.3409840552475424e-8
          1.949401961119198e-8 1.55136524570995e-8 2.3963348451085384e-8 1.9932246426994095e-8 1.5858934545601138e-8 1.8108627525123837e-8
          1.1877411713146989e-8 1.853554833329946e-8 1.2146444580880375e-8 5.1268409127874355e-9 5.8879659213941185e-9 3.790725002944832e-9
          3.600674461317552e-9 2.536935000759661e-9 2.445790313640311e-9 2.888822191452103e-9 1.6898579978443563e-9 1.8371876273088524e-9
          2.2837205898278765e-9 1.551081972120867e-9 9.998775880657263e-10 2.7801682152130267e-9 2.0067865988842756e-9 1.8122835614379602e-9
          1.2807716876865762e-9 6.371233845099453e-10 4.931718119980155e-10 1.1688070810912494e-9 8.09906857555575e-10 8.125925598453121e-10
          1.0004098409983253e-9
        </DataArray>
        <DataArray type="Float64" Name="gradient_matprop_error" format="ascii" RangeMin="0" RangeMax="0">
          0 0 0 0 0 0
          0 0 0 0 0 0
          0 0 0 0 0 0
          0 0 0 0 0 0
          0 0 0 0 0 0
          0 0 0 0 0 0
          0 0 0 0 0 0
          0 0 0 0 0 0
          0 0 0 0 0 0
          0 0 0 0 0 0
          0 0 0 0 0 0
          0 0 0 0 0 0
          0 0 0 0 0 0
          0 0 0 0 0 0
          0 0 0 0 0 0
          0 0 0 0 0 0
          0 0 0 0 0 0
          0 0 0 0 0 0
          0 0 0 0 0 0
          0 0 0 0 0 0
          0 0 0 0 0 0
          0 0 0 0 0 0
          0 0 0 0 0 0
          0 0 0 0 0 0
          0 0 0 0 0 0
          0 0 0 0 0 0
          0 0 0 0 0 0
          0 0 0 0 0 0
          0 0 0 0 0 0
          0 0 0 0 0 0
          0 0 0 0 0 0
          0 0 0 0 0 0
          0 0 0 0 0 0
          0 0 0 0 0 0
          0 0 0 0 0 0
          0 0 0 0 0 0
          0 0 0 0 0 0
          0 0 0 0 0 0
          0 0 0 0 0 0
          0 0 0 0 0 0
          0 0 0 0 0 0
          0 0 0 0 0 0
          0 0 0 0 0 0
          0 0 0 0 0 0
          0 0 0 0 0 0
          0 0 0 0 0 0
          0 0 0 0 0 0
          0 0 0 0 0 0
          0 0 0 0 0 0
          0 0 0 0 0 0
          0 0 0 0 0 0
          0 0 0 0 0 0
          0 0 0 0 0 0
          0 0 0 0 0 0
          0 0 0 0 0 0
          0 0 0 0 0 0
          0 0 0 0 0 0
          0 0 0 0 0 0
          0 0 0 0 0 0
          0 0 0 0 0 0
          0 0 0 0 0 0
          0 0 0 0 0 0
          0 0 0 0 0 0
          0 0 0 0 0 0
          0 0 0 0 0 0
          0 0 0 0 0 0
          0 0 0 0 0 0
          0 0 0 0 0 0
          0 0 0 0 0 0
          0 0 0 0 0 0
          0 0 0 0 0 0
          0 0 0 0 0 0
          0 0 0 0 0 0
          0 0 0 0 0 0
          0 0 0 0 0 0
          0 0 0 0 0 0
          0 0 0 0 0 0
          0 0 0 0 0 0
          0 0 0 0 0 0
          0 0 0 0 0 0
          0 0 0 0 0 0
          0 0 0 0 0 0
          0 0 0 0 0 0
          0 0 0 0 0 0
          0 0 0 0 0 0
          0 0 0 0 0 0
          0 0 0 0 0 0
          0 0 0 0 0 0
          0 0 0 0 0 0
          0 0 0 0 0 0
          0 0 0 0 0 0
          0 0 0 0 0 0
          0 0 0 0 0 0
          0 0 0 0 0 0
          0 0 0 0 0 0
          0 0 0 0 0 0
          0 0 0 0 0 0
          0 0 0 0 0 0
          0 0 0 0 0 0
          0 0 0 0 0 0
          0 0 0 0 0 0
          0 0 0 0 0 0
          0 0 0 0 0 0
          0 0 0 0 0 0
          0 0 0 0 0 0
          0 0 0 0 0 0
          0 0 0 0 0 0
          0 0 0 0 0 0
          0
        </DataArray>
        <DataArray type="Float64" Name="initial_marker" format="ascii" RangeMin="0" RangeMax="2">
          0 0.75 1.3333333333333333 0 1 1
          0.3333333333333333 0.75 0 0 0 2
          2 2 2 0 0 0
          0 2 2 2 1.5 2
          2 2 0 0.5 0 1.5
          2 1 2 2 2 2
          0.3333333333333333 1.5 1.5 2 2 2
          0 0.75 2 2 2 2
          2 2 2 2 2 2
          0 0.25 0 0 0 0
          0 1 0.5 0.3333333333333333 0 0
          2 2 0.5 0 2 2
          2 2 2 0 0 0
          0 0 0 0 0 0
          0 0 0 0 0 2
          2 2 2 2 2 2
          2 2 2 2 2 2
          2 2 2 2 2 2
          2 2 2 2 2 2
          1.75 1.6666666666666667 2 2 2 2
          2 2 2 2 2 2
          2 2 2 2 2 2
          2 2 2 2 2 2
          2 2 2 2 2 2
          2 2 2 2 2 2
          2 2 2 2 2 2
          2 2 2 2 2 2
          2 2 2 2 2 2
          2 2 2 2 2 2
          2 2 2 2 2 2
          2 2 2 2 2 2
          2 2 2 2 2 2
          2 2 2 2 2 1
          1 0 1.5 1 1 1
          1 0 0 0 1.5 1.5
          0.6666666666666666 1 1 0 0 1.5
          0.6666666666666666 2 1.5 2 2 2
          1.5 1.5 2 2 2 0
          0.5 0 1 0 0.5 0
          0.5 0 0 0 1 1
          0 2 2 2 2 2
          2 2 2 2 2 1.5
          1 2 1.5 1.5 1 1
          2 2 2 2 1.5 2
          2 0 0.5 0 0 1
          0 2 2 2 2 1.5
          1 2 2 2 2 2
          2 2 2 2 2 2
          2 2 2 2 2 2
          2 2 2 2 2 2
          2 2 2 2 2 2
          2 2 2 2 2 2
          2 2 2 2 2 2
          2 2 2 2 2 2
          2 2 2 2 2 2
          2 2 2 2 2 2
          2 2 2 2 2 2
          2 2 2 2 2 2
          2 2 2 2 2 2
          2 2 2 2 2 2
          2 2 2 2 2 2
          2 2 2 2 2 2
          2 2 2 2 2 2
          2 2 2 2 2 2
          2 2 2 2 2 2
          1.25 1.5 0.25 1 0 0
          0 0 2 2 2 2
          2 0 0 0 0 0
          0.5 0 1 2 2 2
          2 2 2 2 2 2
          2 2 2 1.5 1.5 0
          0 0 0 0 0 0
          0 1 0 0 0 0
          0 0 0 0 1 0
          0 0 2 1.75 2 2
          2 2 2 2 2 2
          2 2 2 2 2 2
          2 2 2 2 2 0.5
          0.75 0 1.5 2 1.5 2
          2 0 0.5 0 1 2
          2 2 2 1.5 1 2
          2 2 2 2 2 2
          2 2 2 2 2 2
          2 2 2 2 2 2
          2 2 2 2 2 2
          2 2 2 2 2 2
          2 2 2 2 2 2
          2 2 2 2 2 2
          2 2 2 2 2 2
          2 2 2 2 2 2
          2 2 2 2 2 2
          2 2 2 2 2 2
          2 2 2 2 2 2
          2 2 2 2 2 2
          2 2 2 2 2 2
          2 2 2 2 2 2
          2 2 2 2 2 2
          2 2 2 2 2 2
          2 2 2 2 2 2
          2 2 2 2 2 2
          2 2 2 2 2 2
          2 2 2 2 2 2
          2 2 2 2 2 2
          2 2 2 2 2 2
          2 2 2 2 2 2
          2 2 2 2 2 2
          1.5 2 2 2 2 2
          2 2 2 2 2 2
          1.5
        </DataArray>
        <DataArray type="Float64" Name="markers_norefine" format="ascii" RangeMin="0" RangeMax="2">
          0 0 0 0 0 0
          0 0 0 0 0 0
          0 0 0 0 0 0
          0 0 0.5 0 0 0
          0 0 0 0 0 0
          0 0 0 0 0 0
          0 0 0 0 0 0
          0 0 0 0 0 0
          0 0 0 0 0 0
          0 0 0 0 0 0
          0 0 0 0 0 0
          0 0 0 0 0 0
          0 0 0.5 0 0 0
          0 0 0 0 0 0
          0 0 0 0 0 0
          0 0 0 0 0 0
          0 0 0 0 0 0
          0 0 0 0 0 0
          0 0 0 0 0 0
          0 0 0 0 0 0
          0 0 0 0 0 0
          0 0 0 0 0 0
          0 0 0 0 0 0
          0 0 0 0 0 0
          0 0 0 0 0 0
          0 0 0 0 0 0
          0 0 0 0 0 0
          0 0 0 0 0 0
          0 0 0 0 0 0
          0 0 0 0 0 0
          0 0 0 0 0 0
          0 0 0 0 0 0
          0 0 0 0 0 0
          0 0 0 0 0 0
          0 0 0 0 0 0
          0 0 0 0 0 0
          0 0 0 0 0 0
          0 0 0 0 0 0
          0 0 0 0 0 0
          0 0 0 0 0 0
          0 0 0 0 0 0
          0 0 0 0 0 0
          0 0 0 0 0 0
          0 0 0 0 0 0
          0 0 0 0 0 0
          0 0 0 0 0 0
          0 0 0 0 0 0
          0 0 0 0 0 0
          0.25 0 0 0 1 0.5
          0.25 0 0 0 0 0
          0 0 0 0 0 0
          0 0 0 0 0 0
          0 0 0 0 0 0
          0 0 0 0 0 0
          0 0 0 0 0 0
          0 0 0 0 0 0
          0 0 0 0 1.75 1.25
          0.75 0.25 2 1.5 1 2
          1.5 1 0.5 2 1.5 1
          0 0 0 0 0 0
          0 0 0 0 0 0
          0 0 0 0 0 0
          0 0 0 0 0 0
          0 0 0 0 0 0
          0 0 0 0 0 0
          0 0 0 0 0 0
          0 0 0 0 0 0
          0 0 0 0 0 0
          0 0 0 0 0 0
          0 0 0 0 0 0
          0 0 0 0 0 0
          0 0 0 0 0 0
          0 0 0 0 0 0
          0 0 0 0 0 0
          0 0 0 0 0 0
          0 0 0 0 0 0
          0 0 0 0 0 0
          0 0 0 0 0 0
          0 0 0 0 0 0
          0 0 0 0 0 0
          0 0 0 0 0 0
          0 0 0.5 0.25 0 0
          0 1.5 1 0.5 0.5 0
          2 1.75 1.5 1.5 0.5 0
          0 0 0 0 0 0
          0 0 0 0.25 0 0
          0 1 0.25 0 0 0
          0 0 0 0 0 0
          0 0 0 0 0 0
          0 0 0 0 0 0
          0 0 0 0 0 0
          0 0 0 0 0 0
          0 0 0 2 2 2
          2 1 2 2 2 2
          1.25 2 2 2 2 1.5
          2 2 2 2 1.5 1.5
          0.5 0 0 1.75 0.75 0.25
          0 2 1 0.5 0 2