<?xml version="1.0"?>
<VTKFile type="UnstructuredGrid" version="0.1" byte_order="LittleEndian" header_type="UInt32" compressor="vtkZLibDataCompressor">
  <UnstructuredGrid>
    <Piece NumberOfPoints="1628" NumberOfCells="1115">
      <PointData>
        <DataArray type="Int32" Name="libmesh_node_id" format="ascii" RangeMin="2129" RangeMax="15877">
          2129 2245 2282 2376 2379 2388
          2389 2392 2394 2449 2450 2453
          2455 2457 2458 2462 2464 2466
          2613 2630 2631 2634 2636 2646
          2647 2651 2666 2667 2668 2669
          2670 2671 2672 2673 2674 2675
          2677 2681 2683 2685 2733 2742
          3433 3465 3467 3469 3497 3498
          3501 3503 3537 3538 3539 3541
          3542 3543 3544 3545 3546 3547
          3548 3549 3550 3551 3552 3573
          3574 3575 3576 3578 3579 3580
          3581 3582 3583 3584 3585 3586
          3652 3653 3654 3655 3656 3657
          3658 3659 3660 3661 3662 3663
          3664 3665 3666 3667 3668 3669
          3670 3671 3672 3673 3676 3677
          3679 3681 3783 3784 3787 3788
          3789 3790 3791 3792 3793 3794
          3845 3846 3849 3851 3934 3935
          3938 3951 3952 3955 3957 3976
          3977 3978 3979 3980 3981 3982
          3983 3984 3985 3986 3987 3988
          3989 4749 4750 4753 4755 4971
          4973 4975 4987 4999 5001 5003
          5082 5083 5086 5088 5098 5100
          5102 5116 5117 5120 5122 5240
          5241 5242 5243 5244 5245 5246
          5247 5248 5249 5250 5251 5252
          5253 5254 5255 5256 5257 5258
          5259 5264 5265 5266 5269 5274
          5275 5276 5279 5422 5426 5429
          5430 5431 5432 5433 5434 5435
          5436 5437 5438 5439 5440 5441
          5442 5443 5453 5454 5457 5458
          5459 5460 5461 5462 5463 5464
          5465 5466 5467 5468 5469 5470
          5471 5474 5475 5478 5481 5482
          5485 5486 5487 5488 5489 5490
          5491 5492 5493 5494 5495 5496
          5497 5498 5499 5500 5501 5502
          5503 5504 5505 5508 5509 5512
          5515 5516 5519 5520 5521 5522
          5523 5524 5525 5526 5527 5528
          5529 5530 5531 5532 5533 5587
          5591 5744 5748 5759 5760 5763
          5764 5766 5768 5781 5785 5793
          5795 5797 5799 5868 5869 5870
          5871 5872 5873 5874 5875 5876
          5877 5878 5879 5880 5881 5882
          5883 5884 5885 5886 5887 5888
          5889 5890 5891 5892 5893 5894
          5895 5896 5897 5898 5899 5900
          5901 5902 5903 5904 5905 5906
          5907 5908 5909 5910 5911 5912
          5913 5914 5915 5916 5917 5918
          5919 5920 5921 5922 5923 5924
          5925 5926 5927 5928 5929 5930
          5931 5932 5933 5934 5935 5936
          5937 5940 5941 5943 5945 6068
          6069 6070 6071 6072 6073 6074
          6075 6076 6077 6088 6089 6090
          6091 6092 6093 6094 6095 6096
          6097 6098 6099 6100 6101 6102
          6103 6104 6105 6106 6107 6314
          6315 6318 6353 6354 6355 6356
          6357 6358 6359 6360 6361 6362
          6363 6364 6365 6366 6375 6388
          6389 6390 6391 6392 6393 6394
          6395 6396 6397 6398 6399 6400
          6401 6402 6403 6404 6405 6406
          6407 6408 6409 6410 6411 6412
          6413 6414 6415 6416 6417 6418
          6419 6420 6421 6422 6423 6424
          6425 6426 6427 6428 6429 6430
          6431 6432 6433 6434 6435 6436
          6439 6440 6509 6510 6513 6555
          6556 6557 6558 6559 6560 6561
          8743 8744 8747 8749 10204 10278
          10280 10282 10296 10297 10300 10302
          10312 10314 10316 10326 10328 10330
          10412 10440 10508 10510 10512 10522
          10524 10526 10536 10538 10540 10550
          10552 10554 10868 10869 10872 10874
          10884 10886 10888 10902 10903 10906
          10908 10974 10976 10978 10988 10990
          10992 11002 11004 11006 11016 11018
          11020 11604 11605 11606 11607 11608
          11609 11610 11611 11612 11613 11614
          11615 11616 11617 11618 11619 11620
          11621 11622 11623 11624 11625 11626
          11627 11628 11629 11630 11631 11632
          11633 11663 11673 12730 12731 12734
          12737 12738 12741 12766 12769 12786
          12787 12790 12793 12794 12797 12798
          12799 12800 12801 12802 12803 12804
          12805 12806 12807 12808 12809 12810
          12811 12812 12813 12814 12815 12816
          12817 12818 12819 12820 12821 12822
          12823 12824 12825 12826 12827 12828
          12829 12830 12831 12832 12833 12834
          12835 12836 12837 12838 12839 12840
          12841 12842 12843 12844 12845 12846
          12847 12848 12849 12850 12851 12852
          12853 12854 12855 12856 12857 12858
          12859 12860 12861 12862 12863 12864
          12865 12866 12867 12868 12869 12870
          12871 12872 12873 12874 12875 12876
          12877 12878 12879 12880 12881 12882
          12883 12884 12885 12886 12887 12888
          12889 12890 12891 12892 12893 12894
          12895 12896 12897 12898 12899 12900
          12901 12902 12903 12904 12905 12906
          12907 12908 12909 12910 12911 12912
          12913 12914 12915 12916 12917 12918
          12919 12920 12921 12922 12923 12924
          12941 12942 12948 12949 12997 12998
          13004 13005 13008 13026 13032 13033
          13036 13037 13038 13039 13040 13041
          13042 13043 13044 13045 13046 13047
          13048 13049 13050 13051 13052 13053
          13054 13055 13056 13057 13058 13059
          13060 13061 13062 13063 13064 13065
          13066 13067 13068 13069 13070 13071
          13072 13073 13074 13075 13076 13077
          13078 13079 13080 13081 13082 13083
          13084 13085 13086 13087 13088 13089
          13090 13091 13092 13093 13094 13095
          13096 13097 13098 13099 13100 13101
          13102 13103 13104 13105 13106 13107
          13108 13109 13110 13111 13112 13113
          13114 13115 13116 13117 13118 13119
          13120 13121 13122 13123 13124 13125
          13126 13127 13128 13129 13130 13131
          13132 13133 13134 13135 13136 13137
          13138 13139 13140 13141 13142 13143
          13144 13145 13146 13147 13148 13165
          13166 13169 13172 13173 13176 13193
          13194 13197 13200 13201 13204 13223
          13224 13225 13228 13233 13234 13235
          13238 13255 13256 13259 13262 13263
          13266 13267 13268 13269 13270 13271
          13272 13273 13274 13275 13276 13277
          13278 13279 13280 13281 13282 13283
          13284 13285 13286 13287 13288 13289
          13290 13291 13292 13293 13294 13295
          13296 13297 13298 13299 13300 13301
          13302 13303 13304 13305 13306 13307
          13308 13309 13310 13311 13312 13313
          13314 13315 13316 13317 13318 13319
          13320 13321 13322 13323 13324 13325
          13326 13327 13328 13329 13330 13331
          13332 13333 13334 13335 13336 13337
          13338 13339 13340 13341 13342 13343
          13344 13345 13346 13347 13348 13349
          13350 13351 13352 13353 13354 13355
          13356 13357 13358 13359 13360 13361
          13362 13363 13364 13365 13366 13367
          13368 13369 13370 13371 13372 13373
          13374 13375 13376 13377 13378 13379
          13380 13381 13382 13383 13384 13385
          13386 13387 13388 13389 13390 13391
          13392 13393 13394 13395 13412 13413
          13416 13419 13420 13423 13440 13441
          13444 13447 13448 13451 13468 13469
          13472 13475 13476 13479 13496 13497
          13500 13503 13504 13507 13508 13509
          13510 13511 13512 13513 13514 13515
          13516 13517 13518 13519 13520 13521
          13522 13523 13524 13525 13526 13527
          13528 13529 13530 13531 13532 13533
          13534 13535 13536 13537 13538 13539
          13540 13541 13542 13543 13544 13545
          13546 13547 13548 13549 13550 13551
          13552 13553 13554 13555 13556 13557
          13558 13559 13560 13561 13562 13563
          13564 13565 13566 13567 13568 13569
          13570 13571 13572 13573 13574 13575
          13576 13577 13578 13579 13580 13581
          13582 13583 13584 13585 13586 13587
          13588 13589 13590 13591 13592 13593
          13594 13595 13596 13597 13598 13599
          13600 13601 13602 13603 13604 13605
          13606 13607 13608 13609 13610 13611
          13612 13613 13614 13615 13616 13617
          13618 13619 14836 14837 14838 14841
          14868 14869 14872 14948 14949 14950
          14951 14952 14953 14954 14955 14956
          14957 14968 14969 14970 14971 14972
          14973 14974 14982 14983 14984 14985
          14986 14987 14988 14989 14990 14991
          15048 15049 15052 15076 15077 15080
          15144 15145 15146 15147 15148 15149
          15150 15158 15159 15160 15161 15162
          15163 15164 15172 15173 15174 15175
          15176 15177 15178 15186 15187 15188
          15189 15190 15191 15192 15526 15527
          15528 15529 15530 15531 15532 15533
          15534 15535 15536 15537 15538 15539
          15540 15541 15542 15543 15544 15545
          15546 15547 15548 15549 15550 15551
          15552 15553 15554 15555 15556 15557
          15558 15559 15560 15561 15562 15563
          15564 15565 15566 15567 15568 15569
          15570 15571 15572 15573 15574 15575
          15576 15577 15578 15579 15580 15581
          15582 15583 15584 15585 15586 15587
          15588 15589 15590 15591 15592 15593
          15594 15595 15596 15597 15598 15599
          15600 15601 15602 15603 15604 15605
          15606 15607 15608 15609 15610 15611
          15612 15613 15614 15615 15616 15617
          15618 15619 15620 15621 15622 15623
          15624 15625 15626 15627 15628 15629
          15630 15631 15632 15633 15634 15635
          15636 15637 15638 15639 15640 15641
          15642 15643 15644 15645 15646 15647
          15648 15649 15650 15651 15652 15653
          15654 15655 15656 15657 15658 15659
          15660 15661 15662 15663 15664 15665
          15666 15667 15668 15669 15670 15671
          15672 15673 15674 15675 15676 15677
          15678 15679 15680 15681 15682 15683
          15684 15685 15686 15687 15688 15689
          15690 15691 15692 15693 15694 15695
          15696 15697 15698 15699 15700 15701
          15702 15703 15704 15705 15706 15707
          15708 15709 15710 15711 15712 15713
          15714 15715 15716 15717 15718 15719
          15720 15721 15722 15723 15724 15725
          15726 15727 15728 15729 15730 15731
          15732 15733 15734 15735 15736 15737
          15738 15739 15740 15741 15742 15743
          15744 15745 15746 15747 15748 15749
          15750 15751 15752 15753 15754 15755
          15756 15757 15758 15759 15760 15761
          15762 15763 15764 15765 15766 15767
          15768 15769 15770 15771 15772 15773
          15774 15775 15776 15777 15778 15779
          15780 15781 15782 15783 15784 15785
          15786 15787 15788 15789 15790 15791
          15792 15793 15794 15795 15796 15797
          15798 15799 15800 15801 15802 15803
          15804 15805 15806 15807 15808 15809
          15810 15811 15812 15813 15814 15815
          15816 15817 15818 15819 15820 15821
          15822 15823 15824 15825 15826 15827
          15828 15829 15830 15831 15832 15833
          15834 15835 15836 15837 15838 15839
          15840 15841 15842 15843 15844 15845
          15846 15847 15848 15849 15850 15851
          15852 15853 15854 15855 15856 15857
          15858 15859 15860 15871 15872 15873
          15874 15875 15876 15877 2730 2737
          2371 2382 3429 3533 2373 3430
          3534 3535 2645 3536 2384 2855
          2847 2856 2857 5224 4733 5225
          5226 5234 5235 5236 5239 11548
          8707 11549 11550 3435 11553 5229
          11558 11559 11560 11563 3540 11588
          11589 11590 11593 10178 12704 12706
          4959 10202 12728 12705 5418 12729
          10206 12732 12733 12711 12713 12735
          12712 5419 12736 12739 12740 12760
          12762 12784 12761 5425 12785 12788
          12789 10176 12702 12703 12709 12710
          12758 12759 11603 12765 10410 12939
          12940 10414 12943 12945 12944 5446
          12946 12947 12950 12952 12951 5447
          12995 12996 12999 13001 12969 12970
          12973 5450 12976 12977 12980 3577
          13025 13029
        </DataArray>
        <DataArray type="Float64" Name="bounds" format="ascii" RangeMin="0" RangeMax="0">
          0 0 0 0 0 0
          0 0 0 0 0 0
          0 0 0 0 0 0
          0 0 0 0 0 0
          0 0 0 0 0 0
          0 0 0 0 0 0
          0 0 0 0 0 0
          0 0 0 0 0 0
          0 0 0 0 0 0
          0 0 0 0 0 0
          0 0 0 0 0 0
          0 0 0 0 0 0
          0 0 0 0 0 0
          0 0 0 0 0 0
          0 0 0 0 0 0
          0 0 0 0 0 0
          0 0 0 0 0 0
          0 0 0 0 0 0
          0 0 0 0 0 0
          0 0 0 0 0 0
          0 0 0 0 0 0
          0 0 0 0 0 0
          0 0 0 0 0 0
          0 0 0 0 0 0
          0 0 0 0 0 0
          0 0 0 0 0 0
          0 0 0 0 0 0
          0 0 0 0 0 0
          0 0 0 0 0 0
          0 0 0 0 0 0
          0 0 0 0 0 0
          0 0 0 0 0 0
          0 0 0 0 0 0
          0 0 0 0 0 0
          0 0 0 0 0 0
          0 0 0 0 0 0
          0 0 0 0 0 0
          0 0 0 0 0 0
          0 0 0 0 0 0
          0 0 0 0 0 0
          0 0 0 0 0 0
          0 0 0 0 0 0
          0 0 0 0 0 0
          0 0 0 0 0 0
          0 0 0 0 0 0
          0 0 0 0 0 0
          0 0 0 0 0 0
          0 0 0 0 0 0
          0 0 0 0 0 0
          0 0 0 0 0 0
          0 0 0 0 0 0
          0 0 0 0 0 0
          0 0 0 0 0 0
          0 0 0 0 0 0
          0 0 0 0 0 0
          0 0 0 0 0 0
          0 0 0 0 0 0
          0 0 0 0 0 0
          0 0 0 0 0 0
          0 0 0 0 0 0
          0 0 0 0 0 0
          0 0 0 0 0 0
          0 0 0 0 0 0
          0 0 0 0 0 0
          0 0 0 0 0 0
          0 0 0 0 0 0
          0 0 0 0 0 0
          0 0 0 0 0 0
          0 0 0 0 0 0
          0 0 0 0 0 0
          0 0 0 0 0 0
          0 0 0 0 0 0
          0 0 0 0 0 0
          0 0 0 0 0 0
          0 0 0 0 0 0
          0 0 0 0 0 0
          0 0 0 0 0 0
          0 0 0 0 0 0
          0 0 0 0 0 0
          0 0 0 0 0 0
          0 0 0 0 0 0
          0 0 0 0 0 0
          0 0 0 0 0 0
          0 0 0 0 0 0
          0 0 0 0 0 0
          0 0 0 0 0 0
          0 0 0 0 0 0
          0 0 0 0 0 0
          0 0 0 0 0 0
          0 0 0 0 0 0
          0 0 0 0 0 0
          0 0 0 0 0 0
          0 0 0 0 0 0
          0 0 0 0 0 0
          0 0 0 0 0 0
          0 0 0 0 0 0
          0 0 0 0 0 0
          0 0 0 0 0 0
          0 0 0 0 0 0
          0 0 0 0 0 0
          0 0 0 0 0 0
          0 0 0 0 0 0
          0 0 0 0 0 0
          0 0 0 0 0 0
          0 0 0 0 0 0
          0 0 0 0 0 0
          0 0 0 0 0 0
          0 0 0 0 0 0
          0 0 0 0 0 0
          0 0 0 0 0 0
          0 0 0 0 0 0
          0 0 0 0 0 0
          0 0 0 0 0 0
          0 0 0 0 0 0
          0 0 0 0 0 0
          0 0 0 0 0 0
          0 0 0 0 0 0
          0 0 0 0 0 0
          0 0 0 0 0 0
          0 0 0 0 0 0
          0 0 0 0 0 0
          0 0 0 0 0 0
          0 0 0 0 0 0
          0 0 0 0 0 0
          0 0 0 0 0 0
          0 0 0 0 0 0
          0 0 0 0 0 0
          0 0 0 0 0 0
          0 0 0 0 0 0
          0 0 0 0 0 0
          0 0 0 0 0 0
          0 0 0 0 0 0
          0 0 0 0 0 0
          0 0 0 0 0 0
          0 0 0 0 0 0
          0 0 0 0 0 0
          0 0 0 0 0 0
          0 0 0 0 0 0
          0 0 0 0 0 0
          0 0 0 0 0 0
          0 0 0 0 0 0
          0 0 0 0 0 0
          0 0 0 0 0 0
          0 0 0 0 0 0
          0 0 0 0 0 0
          0 0 0 0 0 0
          0 0 0 0 0 0
          0 0 0 0 0 0
          0 0 0 0 0 0
          0 0 0 0 0 0
          0 0 0 0 0 0
          0 0 0 0 0 0
          0 0 0 0 0 0
          0 0 0 0 0 0
          0 0 0 0 0 0
          0 0 0 0 0 0
          0 0 0 0 0 0
          0 0 0 0 0 0
          0 0 0 0 0 0
          0 0 0 0 0 0
          0 0 0 0 0 0
          0 0 0 0 0 0
          0 0 0 0 0 0
          0 0 0 0 0 0
          0 0 0 0 0 0
          0 0 0 0 0 0
          0 0 0 0 0 0
          0 0 0 0 0 0
          0 0 0 0 0 0
          0 0 0 0 0 0
          0 0 0 0 0 0
          0 0 0 0 0 0
          0 0 0 0 0 0
          0 0 0 0 0 0
          0 0 0 0 0 0
          0 0 0 0 0 0
          0 0 0 0 0 0
          0 0 0 0 0 0
          0 0 0 0 0 0
          0 0 0 0 0 0
          0 0 0 0 0 0
          0 0 0 0 0 0
          0 0 0 0 0 0
          0 0 0 0 0 0
          0 0 0 0 0 0
          0 0 0 0 0 0
          0 0 0 0 0 0
          0 0 0 0 0 0
          0 0 0 0 0 0
          0 0 0 0 0 0
          0 0 0 0 0 0
          0 0 0 0 0 0
          0 0 0 0 0 0
          0 0 0 0 0 0
          0 0 0 0 0 0
          0 0 0 0 0 0
          0 0 0 0 0 0
          0 0 0 0 0 0
          0 0 0 0 0 0
          0 0 0 0 0 0
          0 0 0 0 0 0
          0 0 0 0 0 0
          0 0 0 0 0 0
          0 0 0 0 0 0
          0 0 0 0 0 0
          0 0 0 0 0 0
          0 0 0 0 0 0
          0 0 0 0 0 0
          0 0 0 0 0 0
          0 0 0 0 0 0
          0 0 0 0 0 0
          0 0 0 0 0 0
          0 0 0 0 0 0
          0 0 0 0 0 0
          0 0 0 0 0 0
          0 0 0 0 0 0
          0 0 0 0 0 0
          0 0 0 0 0 0
          0 0 0 0 0 0
          0 0 0 0 0 0
          0 0 0 0 0 0
          0 0 0 0 0 0
          0 0 0 0 0 0
          0 0 0 0 0 0
          0 0 0 0 0 0
          0 0 0 0 0 0
          0 0 0 0 0 0
          0 0 0 0 0 0
          0 0 0 0 0 0
          0 0 0 0 0 0
          0 0 0 0 0 0
          0 0 0 0 0 0
          0 0 0 0 0 0
          0 0 0 0 0 0
          0 0 0 0 0 0
          0 0 0 0 0 0
          0 0 0 0 0 0
          0 0 0 0 0 0
          0 0 0 0 0 0
          0 0 0 0 0 0
          0 0 0 0 0 0
          0 0 0 0 0 0
          0 0 0 0 0 0
          0 0 0 0 0 0
          0 0 0 0 0 0
          0 0 0 0 0 0
          0 0 0 0 0 0
          0 0 0 0 0 0
          0 0 0 0 0 0
          0 0 0 0 0 0
          0 0 0 0 0 0
          0 0 0 0 0 0
          0 0 0 0 0 0
          0 0 0 0 0 0
          0 0 0 0 0 0
          0 0 0 0 0 0
          0 0 0 0 0 0
          0 0 0 0 0 0
          0 0 0 0 0 0
          0 0 0 0 0 0
          0 0 0 0 0 0
          0 0 0 0 0 0
          0 0 0 0 0 0
          0 0 0 0 0 0
          0 0 0 0 0 0
          0 0 0 0 0 0
          0 0 0 0 0 0
          0 0 0 0 0 0
          0 0 0 0 0 0
          0 0 0 0 0 0
          0 0 0 0 0 0
          0 0
        </DataArray>
        <DataArray type="Float64" Name="gradient_error" format="ascii" RangeMin="9.809333584661605e-14" RangeMax="3.302402049600515e-10">
          1.3399691298924242e-11 1.920951524868335e-12 7.219627525549249e-12 8.688804386630452e-12 3.5966784262639484e-11 9.583192732072675e-13
          7.925248907165383e-13 1.1770000864256188e-12 2.2454875626568374e-13 5.00372173208222e-12 3.438350390901448e-12 2.8455123831187666e-12
          2.1758338225928243e-12 1.0524943016702097e-12 8.756064328298225e-13 8.35220465288997e-13 7.422009397427976e-13 1.1888503635030792e-12
          1.2768101381681012e-11 1.535388788275092e-11 9.261011416722999e-12 6.1023685054989036e-12 5.915149081865133e-12 5.504095733273837e-12
          1.1209572994636816e-12 8.08031617785045e-12 3.88760260981634e-12 3.2028847937200086e-12 9.336510319816148e-13 6.613234963312895e-13
          1.9807809479570013e-12 1.3061098887209769e-12 4.621325624616019e-13 1.1355225221102327e-12 4.871560050299402e-13 3.7090325371617744e-13
          1.992394351434336e-13 2.2546736568721216e-13 2.618584355615404e-13 2.606419982771377e-13 5.330966242956075e-12 8.813917255433299e-13
          1.9035300821855693e-11 1.1490492926658293e-10 1.761149115826086e-11 2.6509452041783057e-10 8.014446560755916e-12 5.870387901202797e-12
          4.685520016333451e-12 5.618300249767215e-12 1.2912954060962807e-11 1.0000621982657043e-11 5.906938682978415e-12 5.352088454091553e-12
          7.886082366766521e-12 5.402022752281538e-12 3.5833671387636455e-12 1.9782982292337753e-12 1.2989914836792941e-12 2.0649787719528577e-12
          2.3728882071481085e-12 8.658349709395347e-13 2.570526085534753e-12 1.2422834619720142e-12 2.1469712927259486e-12 5.763204618274132e-11
          2.5877581735723457e-11 8.326099692000856e-12 3.5613527528686377e-12 6.827617336694384e-11 1.7950047060786593e-11 1.0401576169425506e-11
          3.733891164094295e-12 1.3756316192734979e-12 7.837971097958615e-13 2.8893059138364852e-11 1.0829310179281222e-11 3.267667056872484e-12
          6.08413842739121e-12 4.194803732278688e-12 5.398263192153986e-12 3.231490476299349e-12 3.855658549752228e-12 3.140655989717188e-12
          2.3902403838271653e-12 4.28389944659583e-12 1.787183776227529e-12 2.6973112679172025e-12 2.2723046046116557e-12 1.4971005180347182e-12
          8.391042260631183e-13 7.8609464982423e-13 1.3648431715349074e-12 1.0158658196003772e-12 6.465723348208082e-13 6.584900634353147e-13
          1.012297234006084e-12 4.574899117162246e-13 2.9756196291799204e-13 3.9180569430617785e-13 2.843938943754669e-13 5.591093334328961e-13
          5.663280296818323e-13 7.172205993550377e-13 2.681998149855962e-12 1.0939693013181836e-11 4.401633472752519e-12 1.209840107739295e-12
          3.297068457193955e-12 4.86653494561073e-13 9.046729427874963e-13 6.558522780695501e-13 1.1130830979783204e-12 3.184141663361743e-13
          1.1210730592147736e-12 1.4325185040821617e-12 9.543061962928752e-13 1.7439639489495501e-12 8.404519170051024e-12 7.773489888177344e-12
          7.92061540511474e-12 3.4032463786245822e-12 4.076108279358331e-12 1.7352600116238762e-12 4.748970180092079e-12 3.670156064107718e-12
          5.168687733867604e-12 1.632279941100618e-12 4.082836363168902e-12 2.0687172369403454e-12 3.3669708775367867e-12 1.4709052025160783e-12
          7.625262848413805e-13 1.7722763784091416e-12 3.4795133251898216e-13 6.833901330754035e-13 5.195551103940653e-13 7.493081906686213e-13
          3.329030738120242e-13 1.635827557542203e-11 1.6689185367242563e-11 1.477985377182889e-11 1.431626398867871e-11 2.114044151350598e-11
          8.544526274910099e-12 4.7252651596290273e-11 2.1829338191311055e-10 8.538087759680734e-11 2.973232906990491e-11 1.0461696780879154e-10
          7.945997929702242e-12 5.5080240801754265e-12 6.073091210835522e-12 6.068187136482e-12 9.553476503618452e-12 6.349397987858775e-12
          1.129197060524526e-11 6.100238904098569e-12 6.234879434055467e-12 3.6637745620064665e-12 5.201404237228003e-12 1.076079783674501e-11
          1.1029575046131047e-11 6.915894794320681e-12 7.0857752463330476e-12 5.627704829514354e-12 9.684788238717554e-12 7.264912651498832e-12
          9.569483793718326e-12 6.211032813889074e-12 8.368409888545284e-12 4.25804351169972e-12 5.872830778485515e-12 2.628616391398896e-12
          5.167992112132663e-12 3.042128593931282e-12 5.345617036511665e-12 3.3356500491014996e-12 5.320360494784481e-12 4.7777071170562984e-12
          5.77446913850081e-12 3.0180631443174275e-12 3.4093758075882704e-12 2.652440874664023e-12 3.299976521580924e-12 1.0266618803297992e-12
          2.2152184145134447e-12 1.3019093292743093e-12 2.1407422877730235e-12 8.251685512238971e-11 9.564471361427198e-12 3.915420758248643e-11
          1.455555108907975e-11 9.775626942165627e-12 5.8103099637901995e-12 4.806930215882022e-12 3.3401421348678234e-11 2.3012149785172697e-11
          1.2262263512696623e-11 6.397592063028323e-12 4.083273677779548e-12 4.11248197562873e-12 2.5984578719992163e-12 1.544856546135476e-11
          1.0104200453166825e-11 5.512874069966077e-12 8.054476761168559e-11 5.443673325990639e-11 1.0030774645773217e-10 6.180835491458272e-11
          4.355210981204665e-11 2.1115982902192382e-11 1.4627064630196623e-11 7.633460100000952e-11 5.4188262221934304e-11 2.5731727003552017e-11
          2.9863937042073216e-11 1.9922106097138658e-11 9.876931070614541e-12 6.4991062624243405e-12 3.7414554001637e-11 2.5119714533669882e-11
          1.2202943133028385e-11 6.004692220462893e-12 3.672235357276315e-12 1.6636700094737876e-11 2.1850807744173796e-12 1.265856800316436e-12
          6.322069257205575e-12 2.9596619352442674e-12 2.5438425861177437e-12 1.758550197662894e-12 1.5446340423600647e-12 2.2245828006026594e-12
          1.5961241885292472e-12 9.557879958974576e-13 6.43670148383045e-12 3.9923839853010775e-12 2.2440582582899575e-12 1.2635537244326667e-12
          1.1179313528701639e-12 9.749313087001026e-13 8.656017727910321e-13 1.0819154763745045e-12 9.96812128503698e-13 1.0368116972064365e-12
          2.406618458581983e-12 1.409968987584346e-12 1.0048552899774022e-12 3.5716899090131584e-11 2.2747942791013947e-11 4.509171492061448e-11
          1.4060968077209374e-11 8.433107422262394e-12 1.7960566809729408e-11 1.2924225496247206e-11 8.150022340399678e-12 4.165864198950073e-12
          2.5975658608617795e-12 1.639371217039082e-11 1.0395621256450236e-11 5.2087531415856666e-12 4.9933713909577104e-12 2.9711446760529214e-12
          1.5727355481014675e-12 9.24857780263578e-13 6.402644104925122e-12 3.828757829971001e-12 1.9904927913471604e-12 7.243409338465688e-13
          6.837636053567035e-13 7.139793318515748e-13 2.142568855079854e-12 5.487567511449907e-13 4.907655181940288e-13 5.581095920700402e-13
          5.991760027473841e-13 8.032327369367768e-13 4.460335967628507e-13 4.906191801419497e-12 6.332059605863885e-12 1.716894569328202e-12
          5.281309264790297e-13 2.2224874354916506e-12 6.758196093417206e-13 5.18577163095654e-12 3.690063891282048e-12 4.9501349598443e-12
          4.321009739935217e-12 4.5774741661598476e-12 3.9627291134918274e-12 3.939068549547098e-12 4.157178743127393e-12 3.5204415050420515e-12
          3.883405247707227e-12 5.638728880471641e-12 4.736002898441623e-12 3.5949995069606865e-12 3.010723226728789e-12 3.1820317304003077e-12
          4.718698157385484e-12 3.021758972009283e-12 3.0742016584425996e-12 1.953809442571766e-12 3.3967417681216476e-12 6.647792173205121e-12
          4.517165746384242e-12 5.548817789195185e-12 3.6973495207095e-12 7.906307319173254e-12 5.406786644248356e-12 6.291667277300412e-12
          2.9963139650507532e-12 1.9390939268295513e-12 2.38435227854376e-12 1.516318425442036e-12 3.6118457871594918e-12 2.353245019828691e-12
          2.804583170930321e-12 2.199624728996448e-12 1.8407946196273974e-12 1.309601865588226e-12 1.0954138498749066e-12 1.2757461126420784e-12
          1.8488987686569674e-12 1.1019607975363025e-12 1.20268930438642e-12 9.311558410791314e-13 1.3172424943412328e-12 7.435559874445296e-13
          8.505862992913617e-13 4.348502479656552e-13 7.233800217998964e-13 4.4522289774206517e-13 6.380386636039228e-13 3.756661309611771e-13
          9.865473214340057e-13 8.04167902130713e-13 9.26359107933088e-13 1.2219067041853563e-12 9.374299356421283e-13 9.40423318335106e-13
          7.828729042207065e-13 1.4935747510913206e-12 9.20978070049597e-13 1.1084607986004152e-12 9.428829641151515e-13 7.439878345222747e-13
          8.578283690944147e-13 8.680639914989652e-13 8.915920765239691e-13 8.844466463157374e-13 7.43023061131445e-13 4.621754863903413e-13
          4.2814599263680665e-13 4.147617354680246e-13 6.625992807128203e-13 5.108189929646122e-13 7.799456511918879e-13 4.97984911409566e-13
          5.410867291670679e-13 2.774815625935184e-13 2.7274992009752597e-13 3.4171150891347465e-13 5.230860409871615e-13 2.668632073786022e-13
          5.841885469245698e-13 2.6801827760153353e-13 7.044605730608485e-13 1.3541305920632173e-12 1.7183490682726529e-12 5.744047704992991e-13
          7.288443161657874e-13 7.78830847683794e-13 7.056448561201416e-13 3.331920473778836e-13 2.0825675444820884e-12 8.832838618322758e-13
          6.324588645564893e-13 2.631446932777774e-13 3.1348812406921854e-13 1.7935941396178116e-13 1.9125796000616372e-13 1.7187424368316768e-13
          1.4581925496250575e-13 9.809333584661605e-14 3.6383155486065965e-13 2.031565060505463e-13 1.1976426624184384e-13 2.795309451810014e-12
          3.8652457911590766e-12 2.1716682796578298e-12 1.6670193228913194e-12 3.229542897187595e-12 1.017808028723259e-12 1.9299740169195234e-12
          1.2566782853928718e-12 2.1132557131001722e-12 1.2809980354155816e-12 6.094186133849755e-13 1.1326534300725966e-12 3.6865083130506913e-13
          6.648945158776692e-13 4.569433864802757e-13 7.343755558057906e-13 4.2007857946639756e-13 3.7722213933966514e-13 1.8495122473572993e-12
          2.5494955336306472e-12 1.4788590633829582e-12 1.998837482406569e-12 1.249985535208671e-12 1.5644091395174613e-12 1.3426440834774578e-12
          4.1067416773452506e-12 3.0506771882073494e-12 2.1618454719463444e-12 5.545982027006499e-12 3.766074271556229e-12 2.5520601901497108e-12
          1.843356607336591e-12 6.127959519226491e-12 4.215540711516524e-12 2.659262180232984e-12 2.159837294013583e-12 2.461585738065393e-12
          1.3868210045763728e-12 1.5723403928008522e-12 1.303822606279674e-12 1.2661913033980655e-12 8.193233669143294e-13 2.763334182117203e-12
          1.7578597810253316e-12 1.2285600005164567e-12 8.6275952388988e-13 9.75743043146969e-13 5.108327667993572e-13 5.797435979592919e-13
          5.435437458226226e-13 5.152034393466354e-13 3.2358858560673123e-13 1.088726562404058e-12 6.486544291192268e-13 4.868631328706483e-13
          2.948426639544724e-13 3.316890304432667e-13 2.2876497416673637e-13 2.4522177284548355e-13 2.1791098990695873e-13 2.1746773823692777e-13
          1.8429380111216477e-13 3.685353969320609e-13 2.616785715242308e-13 2.1702448656689678e-13 2.646577023131526e-13 4.2442466451040087e-13
          1.6076789364959623e-13 2.2251922717594626e-13 4.183532310544565e-12 6.621668549303961e-12 4.0156617408169535e-12 2.876224542432942e-12
          4.357432141643378e-12 2.404431745571175e-12 3.4448464149939816e-12 1.9695204367111235e-12 2.8191537081666107e-12 2.4024879807313574e-12
          5.519033956350109e-12 7.295147771363673e-12 5.9542204500434434e-12 1.2252564846149349e-11 7.525918252355026e-11 2.01740617911368e-11