<?xml version="1.0"?>
<VTKFile type="UnstructuredGrid" version="0.1" byte_order="LittleEndian" header_type="UInt32" compressor="vtkZLibDataCompressor">
  <UnstructuredGrid>
    <Piece NumberOfPoints="1688" NumberOfCells="1060">
      <PointData>
        <DataArray type="Int32" Name="libmesh_node_id" format="ascii" RangeMin="1880" RangeMax="17128">
          1998 1999 2000 2001 2002 2003
          2043 2044 2045 2072 2073 2074
          2114 2115 2116 2117 2118 2119
          2159 2160 2161 2188 2189 2190
          2230 2231 2232 2233 2234 2235
          2242 2275 2276 2277 2304 2305
          2306 2358 2359 2365 2411 2412
          2415 2418 2421 2556 2557 2558
          2559 2560 2561 2562 2563 2564
          2565 2566 2567 2568 2569 2580
          2581 2582 2583 2587 2588 2592
          2593 2598 2600 2601 2603 2820
          2821 2823 2824 2826 2827 3199
          3200 3201 3204 3207 3209 3210
          3211 3212 3213 3214 3215 3216
          3217 3218 3219 3220 3221 3222
          3225 3226 3229 3231 3233 3234
          3235 3236 3237 3238 3239 3240
          3241 3242 3245 3246 3248 3251
          3253 3254 3255 3256 3257 3258
          3259 3260 3261 3262 3264 3266
          3268 3270 3271 3272 3273 3274
          3275 3276 3307 3308 3309 3310
          3311 3312 3313 3314 3315 3316
          3317 3318 3319 3320 3335 3336
          3337 3338 3339 3340 3341 3342
          3343 3344 3355 3356 3357 3358
          3359 3360 3361 3362 3363 3364
          3365 3366 3371 3372 3374 3375
          3376 3377 3378 3379 3380 3381
          3471 3472 3473 3474 3768 3770
          3775 3911 3912 3913 4172 4178
          4180 4181 4182 4183 4184 4185
          4186 4187 4188 4189 4190 4191
          4192 4193 4206 4207 4209 4212
          4222 4224 4226 4240 4241 4243
          4246 4256 4258 4260 4262 4263
          4264 4265 4266 4267 4268 4269
          4270 4271 4272 4273 4274 4275
          4276 4277 4278 4279 4280 4281
          4282 4283 4284 4285 4286 4287
          4288 4289 4290 4291 4292 4293
          4294 4295 4296 4297 4298 4299
          4300 4301 4302 4303 4304 4305
          4306 4307 4308 4309 4310 4311
          4312 4313 4314 4315 4316 4317
          4318 4319 4320 4321 4322 4323
          4324 4325 4326 4327 4328 4329
          4330 4331 4332 4333 4334 4335
          4336 4337 4338 4339 4340 4341
          4342 4343 4344 4345 4346 4347
          4348 4349 4350 4351 4352 4353
          4354 4355 4356 4357 4358 4359
          4360 4361 4362 4363 4364 4365
          4366 4367 4368 4369 4371 4380
          4382 4397 4398 4399 4400 4401
          4402 4403 4404 4405 4406 4407
          4408 4409 4410 4411 4412 4413
          4414 4415 4416 4417 4418 4419
          4420 4421 4422 4423 4424 4425
          4426 4427 4428 4429 4430 4431
          4432 4433 4434 4435 4436 4437
          4438 4439 4440 4441 4442 4443
          4444 4445 4446 4447 4448 4449
          4450 4451 4452 4453 4454 4455
          4456 4457 4458 4459 4460 4461
          4462 4463 4464 4465 4466 4469
          4471 4472 4473 4474 4485 4487
          4489 4490 4491 4499 4500 4501
          4502 4503 4504 4505 4506 4507
          4508 4519 4520 4521 4522 4523
          4524 4525 4533 4534 4535 4536
          4537 4538 4539 4540 4541 4542
          4543 4544 4545 4546 4547 4548
          4549 4550 4551 4552 4553 4554
          4555 4564 4565 4566 4567 4568
          4569 4570 6865 6871 6881 6963
          6964 6966 6969 6979 6981 6983
          6997 6998 7000 7003 7013 7015
          7017 7053 7055 7057 7059 7068
          7070 7072 7074 7075 7076 7077
          7078 7079 7080 7081 7082 7083
          7084 7085 7086 7087 7088 7089
          7090 7091 7092 7093 7094 7095
          7096 7097 7098 7099 7100 7101
          7102 7103 7104 7105 7106 7107
          7108 7109 7110 7111 7112 7113
          7114 7115 7116 7117 7118 7119
          7120 7121 7122 7123 7124 7125
          7126 7127 7128 7129 7130 7131
          7132 7133 7134 7135 7136 7137
          7138 7139 7140 7141 7142 7143
          7144 7145 7146 7147 7148 7149
          7150 7151 7152 7153 7154 7155
          7156 7157 7158 7159 7160 7161
          7162 7163 7164 7165 7166 7167
          7168 7169 7170 7171 7172 7173
          7174 7175 7176 7177 7178 7179
          7180 7181 7182 7183 7184 7185
          7186 7187 7188 7189 7190 7191
          7192 7193 7194 7195 7196 7197
          7198 7199 7200 7201 7202 7203
          7204 7205 7206 7207 7208 7209
          7210 7211 7212 7213 7214 7215
          7216 7217 7218 7219 7220 7221
          7222 7223 7224 7225 7226 7227
          7228 7229 7230 7231 7232 7233
          7234 7235 7236 7237 7238 7239
          7240 7241 7242 7243 7244 7245
          7246 7247 7248 7249 7250 7251
          7252 7253 7254 7255 7256 7257
          7258 7259 7260 7261 7262 7263
          7264 7265 7266 7267 7268 7269
          7270 7271 7272 7273 7274 7275
          7276 7277 7278 7279 7280 7281
          7282 7283 7284 7285 7286 7287
          7288 7289 7290 7291 7292 7293
          7294 7295 7296 7297 7298 7299
          7300 7301 7302 7303 7304 7305
          7306 7307 7308 7309 7310 7311
          7312 7313 7314 7315 7316 7317
          7318 7319 7320 7321 7322 7323
          7324 7325 7326 7327 7328 7329
          7330 7331 7332 7333 7334 7335
          7336 7337 7338 7339 7340 7341
          7342 7343 7344 7345 7346 7347
          7348 7349 7350 7351 7352 7353
          7354 7355 7356 7357 7358 7359
          7360 7361 7362 7363 7364 7365
          7366 7367 7368 7369 7370 7371
          7372 7373 7374 7375 7376 7377
          7378 7379 7380 7381 7382 7383
          7384 7385 7386 7387 7388 7389
          7390 7391 7392 7393 7394 7395
          7396 7397 7398 7399 7400 7401
          7402 7403 7404 7405 7406 7407
          7408 7409 7410 7411 7412 7413
          7414 7415 7416 7417 7418 7419
          7420 7421 7422 7423 7424 7425
          7426 7427 7428 7429 7430 7431
          7432 7433 7434 7435 7436 7437
          7438 7439 7440 7441 7442 7443
          7444 7445 7446 7447 7448 7449
          7450 7451 7452 7453 7454 7455
          7456 7457 7458 7459 7460 7461
          7462 7463 7464 7465 7466 7467
          7468 7469 7470 7471 7472 7473
          7474 7475 7476 7477 7478 7479
          7480 7481 7482 7483 7484 7485
          7486 7487 7488 7489 7490 7491
          7492 7493 7494 7495 7496 7497
          7498 7499 7500 7501 7502 7503
          7504 7505 7506 7507 7508 7509
          7510 7511 7512 7513 7514 7515
          7516 7517 7518 7519 7520 7521
          7522 7523 7524 7525 7526 7527
          7528 7529 7530 7531 7532 7533
          7534 7535 7536 7537 7538 7539
          7540 7541 7542 7543 7544 7545
          7546 7547 7548 7549 7550 7551
          7552 7553 7554 7555 7556 7557
          7558 7559 7560 7561 7562 7563
          7564 7565 7566 7567 7568 7569
          7570 7571 7572 7573 7574 7575
          7576 7577 7578 7579 7580 7581
          7582 7583 7584 7585 7586 7587
          7588 7589 7590 7591 7592 7593
          7594 7595 7596 7597 7598 7599
          7600 7601 7602 7603 7604 7605
          7606 7607 7608 7609 7610 7611
          7612 7613 7614 7615 7616 7617
          7618 7619 7620 7621 7622 7623
          7624 7625 7626 7627 7628 7629
          7630 7631 7632 7633 7634 7635
          7636 7637 7638 7639 7640 7641
          7642 7643 7644 7645 7646 7647
          7648 7649 7650 7651 7652 7653
          7654 7655 7656 7657 7658 7659
          7660 7661 7662 7663 7664 7665
          7666 7667 7668 7669 7670 7671
          7672 7673 7674 7675 7676 7677
          7678 7679 7680 7681 7682 7683
          7684 7685 7686 7687 7688 7689
          7690 7691 7692 7693 7694 7695
          7696 7697 7698 7699 7700 7702
          7707 7709 7713 7714 7715 7716
          7717 7718 7719 7721 7725 7726
          7727 7728 7729 7730 7731 7732
          7733 7734 7735 7736 7737 7738
          7739 7740 7741 7742 7743 7744
          7745 7746 7747 7748 7749 7750
          7751 7752 7753 7754 7755 7756
          7757 7758 7759 7760 7761 7762
          7763 7764 7765 7766 7767 7768
          7769 7770 7771 7772 7773 7774
          7775 7776 7777 7778 7779 7780
          7781 7782 7783 7784 7785 7786
          7787 7788 7789 7790 7791 7792
          7793 7794 7797 7799 7800 7802
          7813 7815 7817 7819 7827 7828
          7831 7833 7834 7836 7847 7849
          7851 7853 7861 7862 7863 7864
          7865 7866 7867 7868 7869 7870
          7871 7872 7873 7874 7875 7876
          7877 7878 7879 7880 7881 7882
          7883 7884 7885 7886 7887 7888
          7889 7890 7891 7892 7893 7894
          7895 7896 7897 7898 7899 7900
          7901 7902 7903 7904 7905 7906
          7907 7908 7909 7911 7913 7915
          7923 7925 7929 7931 7933 7935
          7943 7945 7947 7949 16448 16449
          16452 16455 16588 16589 16590 16593
          16596 16598 16599 16600 16601 16602
          16603 16604 16605 16606 16607 16608
          16609 16610 16611 16612 16613 16614
          16615 16616 16617 16618 16619 16620
          16745 16747 16748 16749 16750 16751
          16753 16754 16756 16758 16761 16763
          16777 16778 16781 16787 16791 16803
          16806 16810 16814 16824 16826 16831
          16834 16843 16844 16850 16851 16852
          16853 16854 16856 16857 16858 16859
          16860 16861 16862 16863 16864 16865
          16866 16867 16868 16869 16870 16871
          16872 16873 16874 16875 16876 16877
          16878 16879 16880 16881 16882 16883
          16884 16885 16886 16887 16888 16950
          16951 16954 16955 16957 16958 16959
          16960 16961 16963 16964 16965 16967
          16968 16982 16983 16984 16985 16986
          16987 16988 16989 16990 16991 16992
          16994 16996 16997 16998 16999 17001
          17002 17004 17005 17006 17007 17008
          17009 17010 17011 17012 17013 17014
          17015 17016 17017 17018 17019 17020
          17021 17022 17023 17024 17025 17026
          17027 17028 17029 17030 17031 17032
          17033 17034 17035 17036 17037 17038
          17039 17040 17041 17042 17043 17044
          17045 17046 17047 17048 17049 17050
          17051 17052 17053 17054 17055 17056
          17057 17058 17059 17060 17061 17062
          17063 17064 17065 17066 17067 17068
          17069 17070 17071 17072 17073 17074
          17075 17076 17077 17078 17079 17080
          17081 17082 17083 17084 17085 17086
          17087 17088 17089 17090 17091 17092
          17093 17094 17095 17096 17097 17098
          17099 17100 17101 17102 17103 17104
          17105 17106 17107 17108 17109 17110
          17111 17112 17113 17114 17115 17116
          17117 17118 17119 17120 17121 17122
          17123 17124 17125 17126 17127 17128
          1880 1882 1883 1881 1996 1997
          1884 1885 1886 1887 1927 1926
          2042 1928 1929 1956 1955 2071
          1957 1958 2113 2158 2187 2274
          2303 2597 2618 2619 2625 2830
          2831 2590 2591 2836 3321 3322
          3323 3324 3328 3329 3331 3332
          3334 3345 3346 3349 3350 3352
          3354 3369 3382 3384 3386 3388
          3475 3476 3479 3480 3482 3484
          2837 3777 2370 2620 3914 3915
          3918 3919 4370 4467 4468 4470
          4475 4476 4481 4482 4479 4484
          4381 4486 4488 4492 4496 4494
          4498 4526 4528 4558 4571 4560
          4573 4532 4575 4577 7701 7795
          7796 7798 4509 7801 4510 7708
          7814 7816 7818 4513 7829 7830
          7832 4515 7835 4516 7848 7850
          7852 4518 7720 7910 7912 7914
          7930 7932 7934 4530 7924 7944
          7946 7948 16585 16591 16587 16592
          16737 16579 16746 16738 16741 16597
          16752 16743 16845 16846 16847 16848
          16849 16855 16584 16574 16952 16953
          16956 16962 16586 16966 16973 16974
          16977 16594 16980 16595 16993 16995
          17000 17003
        </DataArray>
        <DataArray type="Float64" Name="bounds" format="ascii" RangeMin="0" RangeMax="0">
          0 0 0 0 0 0
          0 0 0 0 0 0
          0 0 0 0 0 0
          0 0 0 0 0 0
          0 0 0 0 0 0
          0 0 0 0 0 0
          0 0 0 0 0 0
          0 0 0 0 0 0
          0 0 0 0 0 0
          0 0 0 0 0 0
          0 0 0 0 0 0
          0 0 0 0 0 0
          0 0 0 0 0 0
          0 0 0 0 0 0
          0 0 0 0 0 0
          0 0 0 0 0 0
          0 0 0 0 0 0
          0 0 0 0 0 0
          0 0 0 0 0 0
          0 0 0 0 0 0
          0 0 0 0 0 0
          0 0 0 0 0 0
          0 0 0 0 0 0
          0 0 0 0 0 0
          0 0 0 0 0 0
          0 0 0 0 0 0
          0 0 0 0 0 0
          0 0 0 0 0 0
          0 0 0 0 0 0
          0 0 0 0 0 0
          0 0 0 0 0 0
          0 0 0 0 0 0
          0 0 0 0 0 0
          0 0 0 0 0 0
          0 0 0 0 0 0
          0 0 0 0 0 0
          0 0 0 0 0 0
          0 0 0 0 0 0
          0 0 0 0 0 0
          0 0 0 0 0 0
          0 0 0 0 0 0
          0 0 0 0 0 0
          0 0 0 0 0 0
          0 0 0 0 0 0
          0 0 0 0 0 0
          0 0 0 0 0 0
          0 0 0 0 0 0
          0 0 0 0 0 0
          0 0 0 0 0 0
          0 0 0 0 0 0
          0 0 0 0 0 0
          0 0 0 0 0 0
          0 0 0 0 0 0
          0 0 0 0 0 0
          0 0 0 0 0 0
          0 0 0 0 0 0
          0 0 0 0 0 0
          0 0 0 0 0 0
          0 0 0 0 0 0
          0 0 0 0 0 0
          0 0 0 0 0 0
          0 0 0 0 0 0
          0 0 0 0 0 0
          0 0 0 0 0 0
          0 0 0 0 0 0
          0 0 0 0 0 0
          0 0 0 0 0 0
          0 0 0 0 0 0
          0 0 0 0 0 0
          0 0 0 0 0 0
          0 0 0 0 0 0
          0 0 0 0 0 0
          0 0 0 0 0 0
          0 0 0 0 0 0
          0 0 0 0 0 0
          0 0 0 0 0 0
          0 0 0 0 0 0
          0 0 0 0 0 0
          0 0 0 0 0 0
          0 0 0 0 0 0
          0 0 0 0 0 0
          0 0 0 0 0 0
          0 0 0 0 0 0
          0 0 0 0 0 0
          0 0 0 0 0 0
          0 0 0 0 0 0
          0 0 0 0 0 0
          0 0 0 0 0 0
          0 0 0 0 0 0
          0 0 0 0 0 0
          0 0 0 0 0 0
          0 0 0 0 0 0
          0 0 0 0 0 0
          0 0 0 0 0 0
          0 0 0 0 0 0
          0 0 0 0 0 0
          0 0 0 0 0 0
          0 0 0 0 0 0
          0 0 0 0 0 0
          0 0 0 0 0 0
          0 0 0 0 0 0
          0 0 0 0 0 0
          0 0 0 0 0 0
          0 0 0 0 0 0
          0 0 0 0 0 0
          0 0 0 0 0 0
          0 0 0 0 0 0
          0 0 0 0 0 0
          0 0 0 0 0 0
          0 0 0 0 0 0
          0 0 0 0 0 0
          0 0 0 0 0 0
          0 0 0 0 0 0
          0 0 0 0 0 0
          0 0 0 0 0 0
          0 0 0 0 0 0
          0 0 0 0 0 0
          0 0 0 0 0 0
          0 0 0 0 0 0
          0 0 0 0 0 0
          0 0 0 0 0 0
          0 0 0 0 0 0
          0 0 0 0 0 0
          0 0 0 0 0 0
          0 0 0 0 0 0
          0 0 0 0 0 0
          0 0 0 0 0 0
          0 0 0 0 0 0
          0 0 0 0 0 0
          0 0 0 0 0 0
          0 0 0 0 0 0
          0 0 0 0 0 0
          0 0 0 0 0 0
          0 0 0 0 0 0
          0 0 0 0 0 0
          0 0 0 0 0 0
          0 0 0 0 0 0
          0 0 0 0 0 0
          0 0 0 0 0 0
          0 0 0 0 0 0
          0 0 0 0 0 0
          0 0 0 0 0 0
          0 0 0 0 0 0
          0 0 0 0 0 0
          0 0 0 0 0 0
          0 0 0 0 0 0
          0 0 0 0 0 0
          0 0 0 0 0 0
          0 0 0 0 0 0
          0 0 0 0 0 0
          0 0 0 0 0 0
          0 0 0 0 0 0
          0 0 0 0 0 0
          0 0 0 0 0 0
          0 0 0 0 0 0
          0 0 0 0 0 0
          0 0 0 0 0 0
          0 0 0 0 0 0
          0 0 0 0 0 0
          0 0 0 0 0 0
          0 0 0 0 0 0
          0 0 0 0 0 0
          0 0 0 0 0 0
          0 0 0 0 0 0
          0 0 0 0 0 0
          0 0 0 0 0 0
          0 0 0 0 0 0
          0 0 0 0 0 0
          0 0 0 0 0 0
          0 0 0 0 0 0
          0 0 0 0 0 0
          0 0 0 0 0 0
          0 0 0 0 0 0
          0 0 0 0 0 0
          0 0 0 0 0 0
          0 0 0 0 0 0
          0 0 0 0 0 0
          0 0 0 0 0 0
          0 0 0 0 0 0
          0 0 0 0 0 0
          0 0 0 0 0 0
          0 0 0 0 0 0
          0 0 0 0 0 0
          0 0 0 0 0 0
          0 0 0 0 0 0
          0 0 0 0 0 0
          0 0 0 0 0 0
          0 0 0 0 0 0
          0 0 0 0 0 0
          0 0 0 0 0 0
          0 0 0 0 0 0
          0 0 0 0 0 0
          0 0 0 0 0 0
          0 0 0 0 0 0
          0 0 0 0 0 0
          0 0 0 0 0 0
          0 0 0 0 0 0
          0 0 0 0 0 0
          0 0 0 0 0 0
          0 0 0 0 0 0
          0 0 0 0 0 0
          0 0 0 0 0 0
          0 0 0 0 0 0
          0 0 0 0 0 0
          0 0 0 0 0 0
          0 0 0 0 0 0
          0 0 0 0 0 0
          0 0 0 0 0 0
          0 0 0 0 0 0
          0 0 0 0 0 0
          0 0 0 0 0 0
          0 0 0 0 0 0
          0 0 0 0 0 0
          0 0 0 0 0 0
          0 0 0 0 0 0
          0 0 0 0 0 0
          0 0 0 0 0 0
          0 0 0 0 0 0
          0 0 0 0 0 0
          0 0 0 0 0 0
          0 0 0 0 0 0
          0 0 0 0 0 0
          0 0 0 0 0 0
          0 0 0 0 0 0
          0 0 0 0 0 0
          0 0 0 0 0 0
          0 0 0 0 0 0
          0 0 0 0 0 0
          0 0 0 0 0 0
          0 0 0 0 0 0
          0 0 0 0 0 0
          0 0 0 0 0 0
          0 0 0 0 0 0
          0 0 0 0 0 0
          0 0 0 0 0 0
          0 0 0 0 0 0
          0 0 0 0 0 0
          0 0 0 0 0 0
          0 0 0 0 0 0
          0 0 0 0 0 0
          0 0 0 0 0 0
          0 0 0 0 0 0
          0 0 0 0 0 0
          0 0 0 0 0 0
          0 0 0 0 0 0
          0 0 0 0 0 0
          0 0 0 0 0 0
          0 0 0 0 0 0
          0 0 0 0 0 0
          0 0 0 0 0 0
          0 0 0 0 0 0
          0 0 0 0 0 0
          0 0 0 0 0 0
          0 0 0 0 0 0
          0 0 0 0 0 0
          0 0 0 0 0 0
          0 0 0 0 0 0
          0 0 0 0 0 0
          0 0 0 0 0 0
          0 0 0 0 0 0
          0 0 0 0 0 0
          0 0 0 0 0 0
          0 0 0 0 0 0
          0 0 0 0 0 0
          0 0 0 0 0 0
          0 0 0 0 0 0
          0 0 0 0 0 0
          0 0 0 0 0 0
          0 0 0 0 0 0
          0 0 0 0 0 0
          0 0 0 0 0 0
          0 0 0 0 0 0
          0 0 0 0 0 0
          0 0 0 0 0 0
          0 0 0 0 0 0
          0 0 0 0 0 0
          0 0 0 0 0 0
          0 0 0 0 0 0
          0 0 0 0 0 0
          0 0 0 0 0 0
          0 0 0 0 0 0
          0 0
        </DataArray>
        <DataArray type="Float64" Name="gradient_error" format="ascii" RangeMin="8.556358734440737e-11" RangeMax="1.2632257710667677e-7">
          4.868225059972447e-9 9.147844654580214e-9 4.489335220152791e-9 5.657956597790177e-9 3.416678221209398e-9 3.2012759104043814e-9
          8.075822510554143e-9 4.757460798779792e-9 2.6477053442648e-9 2.1034180122120755e-9 1.3297708501448053e-9 8.258427565794789e-10
          5.9110757960179063e-8 8.943950242379443e-8 4.796452603945204e-8 7.67170922661161e-8 3.4952727967784354e-8 6.188880847978905e-8
          8.71829422102047e-9 5.1834583947710105e-9 3.0415891460481345e-9 3.885307576211019e-9 2.356309091061206e-9 1.6241096743927965e-9
          4.707873111404719e-8 8.252324853771031e-8 6.260028032661551e-8 7.264420039998477e-8 8.644090228088371e-8 5.913057184425503e-8
          8.346032738534973e-10 3.104768431637963e-9 3.5597353074801113e-9 3.712603783034973e-9 4.312641871146233e-9 2.5548877859119948e-9
          1.933829841093879e-9 1.4844044007078603e-8 8.829641512608527e-9 5.6404466627919265e-8 7.218322791900738e-8 1.1797144550976414e-7
          1.2632257710667677e-7 8.576460427203722e-8 1.1890174811726148e-7 2.3774000400237737e-8 1.732161537597599e-8 4.2138582787349084e-8
          4.4195036009236204e-8 1.053487376509147e-8 3.973973230589071e-8 4.0347639501928695e-8 1.3858625987682636e-8 3.2414047485798965e-8
          3.270035694108827e-8 5.141162719924841e-10 3.096389065695464e-8 9.803840375836878e-9 4.790233665971658e-8 9.285228777801373e-9
          1.9257632800507517e-8 6.127946439231868e-9 2.204487438256696e-8 2.2464759465647024e-8 3.262788395806604e-8 3.1803297695615375e-8
          3.223915703892657e-8 1.8019219257144526e-8 1.1869941949988916e-9 1.0822394376847333e-8 3.636605731026869e-8 1.2474752125493183e-8
          9.755972682633311e-9 7.065793722570153e-9 5.511248844289201e-9 4.235373728153369e-9 2.2981973796297375e-9 2.1200005920795947e-8
          4.622842670544872e-8 4.191716499000278e-8 3.0932568171905215e-8 3.818897039452005e-8 1.976184230992779e-8 1.7852433075325177e-8
          4.331793062400225e-8 3.900128300567767e-8 1.4408451719700222e-8 3.925467169107585e-8 3.510743104752664e-8 1.3080012384934258e-8
          2.8176184489076803e-8 2.482190176661386e-8 4.159214506357584e-8 3.730083122213804e-8 3.52652910844751e-8 4.276861269632966e-8
          9.685971148546772e-9 1.8305740321241624e-8 1.2352247573229646e-8 4.123407779998597e-8 7.934786137212398e-9 1.6106281329411718e-8
          6.249813068783274e-9 1.36972533145051e-8 5.6525713452788485e-9 1.0544829068022914e-8 8.71089349975992e-9 3.930361738581659e-8
          3.657182740454388e-8 2.5542287087297826e-8 9.139054798664637e-9 9.023184611455772e-9 3.867572736362235e-8 9.013965461944919e-10
          2.0989098889758336e-9 1.0181178354050972e-8 2.5038457935210443e-9 1.1342962761862724e-8 2.981990323728733e-8 3.0425783346263725e-8
          6.692607307426235e-10 1.2012588389693915e-9 1.5204706948898707e-9 8.889419149414612e-9 5.373486296608479e-8 3.4255745634969554e-8
          5.229520742283611e-8 4.2906964081793283e-8 4.1297893095628576e-8 4.369974048609493e-8 4.11163283477661e-8 3.196468982840214e-8
          3.119386138171777e-8 5.175199358836118e-8 1.2376375427811706e-8 1.1079617132051948e-8 3.419769844854299e-8 3.038557699580969e-8
          8.064109251591086e-9 2.8482668498104555e-8 2.513493224583754e-8 7.94525411049729e-9 2.1010496863039422e-8 1.6980044683760155e-8
          3.64130755796614e-8 3.2029168950692365e-8 2.7770447164960428e-8 3.683508842517518e-8 4.7029738260384156e-9 1.1185225078304766e-8
          3.345903988158558e-9 8.738134795742202e-9 3.2982982673744374e-9 6.922911973607081e-9 4.115239519185128e-9 3.308862890188449e-8
          2.8852706113690373e-8 1.9699409933713946e-8 2.93517313443662e-9 1.2292489608998435e-8 1.4459579607218562e-8 1.2777505948755622e-8
          3.02721652157795e-8 2.8973239319864904e-8 1.0091735905714404e-9 1.8412534562284604e-9 2.1252768396669137e-9 1.048758375631668e-8
          1.457046631293259e-8 1.2480438246848648e-8 1.3594911703222692e-9 2.328539154998328e-9 1.0608843239891115e-8 3.873445579228613e-8
          3.5087263333186494e-8 3.770470232586913e-8 2.441442122154242e-8 2.9689267136590403e-8 2.744428260914845e-8 4.655811046415009e-8
          2.77234676916008e-9 4.837154513363005e-9 3.5349208538582755e-9 5.884348528220353e-9 9.373418593990982e-10 4.5591833105362546e-10
          1.955497128111864e-10 8.849894387902518e-10 1.3198612393023778e-9 9.007563561186092e-10 1.480803171165838e-8 1.2192565265356773e-8
          1.577829361797204e-8 1.535077420456213e-8 1.5817822836066557e-8 1.4139202133105556e-8 1.6731129525987738e-8 1.61695212785816e-8
          1.6367309209441055e-8 1.4656364947102145e-8 1.2406905975448736e-8 1.2547996508049035e-8 1.1458662475838577e-8 1.2620496434437884e-8
          1.2591568976288765e-8 1.153617600584694e-8 1.5968229474337833e-8 1.571862541752981e-8 1.4897106840198958e-8 9.15358302003515e-9
          1.3375664251078976e-8 1.2426136182481822e-8 1.1630199699516359e-8 1.0478981729744575e-9 1.0845200705470402e-9 1.3112759550449398e-9
          6.73148492940339e-10 6.899179593573937e-9 1.2419016734579464e-8 4.953957113378432e-9 1.2799326282108354e-8 1.4529556929869033e-8
          9.356163663407446e-9 1.319841213180744e-8 1.5597964597671848e-8 1.6265235440375598e-8 5.726088501472982e-9 7.748891757852636e-9
          6.2531747781465575e-9 9.595322598718506e-9 9.633459459565099e-9 1.3703775137118492e-8 9.830708881942504e-9 1.4122498095125225e-8
          1.68745419293043e-8 1.7386423920262724e-8 2.2922516020390034e-9 6.675717881680284e-9 7.105592768469853e-9 1.0772948575148063e-8
          1.3865817471090112e-8 1.4301056217054689e-8 1.2799197750009867e-8 1.3106482422335546e-8 1.2283724687627847e-8 1.2975820385645834e-8
          1.4536076423121387e-8 1.4654899591762713e-8 1.4907288369806523e-8 1.3320967470337679e-8 1.3434831319413651e-8 1.3624911597040245e-8
          1.4200069751832514e-8 1.613041964080354e-8 1.2424982984793704e-9 1.2742506349516234e-9 1.4647188626864264e-9 1.488231928481406e-9
          1.4331174285008144e-9 1.591405379480035e-9 5.901219594406682e-10 7.776111409839623e-10 8.876382977005464e-10 1.0433768783153585e-9
          1.7015814018001908e-9 1.7208398301678876e-9 1.9563694293502704e-9 1.969404479684192e-9 1.7809588760540685e-9 1.9932669160047123e-9
          7.507791097230526e-10 1.0018790887433788e-9 1.1194943057591825e-9 1.360800185118827e-9 5.560264331424776e-9 5.916998393525666e-9
          1.1532218886885292e-8 1.2337918910948781e-8 1.6170957941704753e-9 1.668724333515328e-9 8.313054353701843e-9 6.295133766115562e-9
          6.661513950275707e-9 1.3004646412518883e-8 1.3605702378608845e-8 1.748860011124884e-9 1.8622059152232641e-9 9.372538502485763e-9
          1.1663512296646277e-8 1.2423537541043311e-8 1.1615900434970573e-8 1.3183562785440348e-8 1.2053533250506118e-8 1.2640696069866407e-8
          1.1004629866764083e-8 1.2995138966046274e-8 1.3272612454009323e-8 1.1369572564306154e-8 1.2729400816010875e-8 1.3269047083235722e-8
          1.1605536490061062e-8 1.169716615360537e-8 1.3405268381515628e-8 1.3897398096605037e-8 1.2206443113358043e-8 1.3710518809300002e-8
          1.4086464930065822e-8 1.1898727737671146e-8 1.2057159417354993e-8 1.442589865255373e-8 1.490031740612232e-8 1.2427882911036139e-8
          1.7055574562023778e-8 1.6377863812979515e-8 1.6131178738121224e-8 1.4633335523060563e-8 1.628859810059244e-8 1.5655175605908892e-8
          1.505045203931963e-8 1.3932220628254208e-8 1.2436744133549802e-8 1.2149490004085357e-8 1.1306970284913731e-8 1.1731516031135217e-8
          1.1180645119971006e-8 1.0620343916987357e-8 1.4904466549181298e-8 1.4267424779809652e-8 1.2575690167334026e-8 1.0508728298137012e-8
          9.49645927204398e-9 9.920478661365084e-9 1.4414206540280082e-8 9.861928055052403e-9 1.4531347747125374e-8 1.7756827672665073e-8
          1.794938832808702e-8 2.723756345614484e-9 7.519546347813974e-9 7.897285694506356e-9 1.1859463342233206e-8 1.529118893738428e-8
          1.7274004774625538e-8 2.0644838625827866e-8 1.988474324441193e-8 1.7946086497114063e-8 1.7719734918302833e-8 8.667414864351124e-9
          1.1002683412822917e-8 1.4043205036484817e-8 1.2611916683614238e-8 1.50342271179097e-8 1.5012239101310755e-8 1.34343800608852e-8
          1.3301920263812443e-8 1.4698784537237447e-8 1.5077359451092434e-8 1.7254213528090885e-8 1.4825271012110608e-8 1.4450622827757842e-8
          1.3024573317518718e-8 1.2586423681906018e-8 1.529230275005607e-8 1.530744709711114e-8 1.7845571657603533e-8 2.227503973007752e-9
          2.2282920005889697e-9 2.5119682695014383e-9 2.4899730317808647e-9 2.2167804014755967e-9 2.44230849403801e-9 9.209801748228067e-10
          1.2396199328024923e-9 1.360290377998118e-9 1.6825713458281974e-9 2.785190103827779e-9 2.742523739411155e-9 3.016348805069924e-9
          2.977048681097823e-9 2.661821024374341e-9 2.870739265995524e-9 1.0973047352923275e-9 1.478458791411202e-9 1.590981894652977e-9
          1.9902711237572157e-9 7.026054633532615e-9 7.369325971165132e-9 1.4145311307119562e-8 1.4587764758587218e-8 1.996686608436854e-9
          2.137509089442829e-9 1.0178645984962435e-8 7.667742221366969e-9 7.903940512036601e-9 1.4892036838337868e-8 1.502780550695529e-8
          2.275503583730657e-9 2.4004770791134317e-9 1.0710760336223285e-8 2.030027872383243e-8 1.949644688493157e-8 1.723183261877559e-8
          1.4646762780624425e-8 1.4166463182794345e-8 1.406401123446657e-8 1.2749236551009593e-8 1.3879418378190424e-8 1.1987786564860381e-8
          1.509851366866627e-8 1.465913268598114e-8 1.7581859289095395e-8 3.2396285224366002e-9 3.1862803623418553e-9 3.4380368963502824e-9
          3.3505208408968273e-9 3.067487917892074e-9 3.250923942825743e-9 1.2475766313320964e-9 1.6947374684429876e-9 1.7854550897310224e-9
          2.24266070813797e-9 8.043493098111791e-9 8.069089812634133e-9 1.4970849549872713e-8 1.4695370758736314e-8 2.5105227099208603e-9
          2.6178002073082043e-9 1.0796944514106468e-8 1.3460417187899319e-8 1.3541333031862311e-8 1.1460088379353224e-8 1.3500686402740002e-8
          1.3322731535921875e-8 1.115551678465336e-8 1.4370833425918093e-8 1.4545671813146158e-8 1.2124499724671898e-8 1.2090286783814699e-8
          1.5281249663936872e-8 1.5550010594429998e-8 1.2788911069990575e-8 1.4592854460465672e-8 1.4490734419996241e-8 1.1947932201233765e-8
          1.1694104089724399e-8 1.5685022518191343e-8 1.5658737304070608e-8 1.2740347617814169e-8 1.3003633246538198e-8 1.2541612529643931e-8
          1.0453524412050876e-8 1.422700743935317e-8 1.3796405527128816e-8 1.1334589798842368e-8 1.0868140441729078e-8 1.545038163216814e-8
          1.5051198524613698e-8 1.2215655185633859e-8 1.5522533051389567e-9 1.8560526486728049e-9 2.020357688753763e-9 1.346096758624216e-9
          1.3644170629061724e-9 1.4337556113359545e-9 1.0587033389349405e-9 1.5647034079143264e-9 1.758487976389317e-9 1.1453133231914542e-9
          7.201839117663614e-10 7.509186292027163e-10 8.263121640157872e-10 5.6101140120894e-10 9.085838602050697e-10 1.0013723879249235e-9
          7.998952411830788e-10 1.9272922462206525e-9 1.982241500007544e-9 1.613747942729536e-9 2.04527113206439e-9 1.2767976224693863e-9
          1.652725699251267e-9 1.1603261631672428e-9 1.9833189928639714e-9 2.002555304187267e-9 1.921366853663553e-9 2.2902330667964723e-9
          2.332372722801046e-9 2.330876057907592e-9 2.4078758689699825e-9 2.329379393014138e-9 2.30738264909056e-9 2.2958597825945023e-9
          2.284336916098445e-9 1.5766276954034602e-9 1.6073303404333067e-9 1.8713427071190244e-9 1.7316967063829668e-9 2.3496718849223983e-9