<?xml version="1.0"?>
<VTKFile type="UnstructuredGrid" version="0.1" byte_order="LittleEndian" header_type="UInt32" compressor="vtkZLibDataCompressor">
  <UnstructuredGrid>
    <Piece NumberOfPoints="549" NumberOfCells="333">
      <PointData>
        <DataArray type="Int32" Name="libmesh_node_id" format="ascii" RangeMin="348" RangeMax="4246">
          348 572 580 581 1167 1168
          1169 1181 1182 1185 1186 1187
          1188 1189 1190 1191 1192 1193
          1194 1195 1196 1197 1198 1201
          1202 1203 1969 1974 1975 1976
          1977 1979 1984 1985 2021 2022
          2023 2024 2042 2057 2058 2060
          2063 2065 2066 2067 2068 2069
          2070 2071 2072 2073 2074 2076
          2080 2082 2083 2086 2087 2088
          2091 2092 2094 2097 2099 2100
          2101 2102 2103 2104 2105 2106
          2107 2108 2110 2112 2114 2116
          2117 2118 2119 2120 2121 2122
          2123 2124 2125 2126 2127 2128
          2129 2130 2131 2132 2133 2134
          2137 2139 2140 2141 2142 2143
          2144 2147 2148 2149 2157 2158
          2159 2160 2161 2162 2163 2164
          2165 2166 2167 2168 2169 2170
          2171 2172 2173 2174 2175 2176
          2177 2178 2179 2181 2182 2183
          3481 3484 3525 3526 3528 3543
          3545 3624 3630 3644 3645 3647
          3650 3660 3662 3664 3666 3667
          3668 3669 3670 3671 3672 3673
          3674 3675 3676 3677 3678 3679
          3680 3681 3682 3683 3684 3685
          3686 3687 3688 3689 3690 3691
          3692 3693 3694 3695 3696 3697
          3698 3699 3700 3701 3702 3703
          3704 3705 3706 3707 3708 3709
          3710 3711 3712 3713 3726 3727
          3729 3732 3742 3744 3746 3760
          3761 3763 3766 3776 3778 3780
          3782 3783 3784 3785 3786 3787
          3788 3789 3790 3791 3792 3793
          3794 3795 3796 3797 3798 3799
          3800 3801 3802 3803 3804 3805
          3806 3807 3808 3809 3810 3811
          3812 3813 3814 3815 3816 3817
          3818 3819 3820 3821 3822 3823
          3824 3825 3826 3827 3828 3829
          3830 3831 3832 3833 3834 3835
          3836 3837 3838 3839 3840 3841
          3842 3843 3844 3845 3846 3847
          3848 3849 3854 3864 3866 3868
          3870 3871 3872 3873 3874 3875
          3876 3877 3878 3879 3880 3881
          3882 3883 3884 3885 3886 3887
          3888 3889 3890 3891 3892 3893
          3894 3895 3896 3897 3898 3899
          3900 3901 3902 3903 3904 3905
          3906 3907 3908 3909 3910 3911
          3912 3913 3914 3915 3916 3917
          3918 3919 3920 3921 3922 3923
          3924 3925 3926 3927 3928 3929
          3930 3933 3935 3936 3937 3938
          3945 3946 3948 3949 3951 3953
          3954 3955 3960 3962 3963 3964
          3965 3966 3967 3968 3969 3970
          3971 3972 3973 3974 3975 3976
          3977 3978 3979 3980 3981 3982
          3983 3984 3985 3986 3987 3988
          3989 3990 3991 3992 3993 3994
          3995 3996 3999 4003 4005 4013
          4014 4037 4038 4041 4042 4065
          4066 4067 4068 4069 4070 4071
          4072 4073 4074 4075 4076 4077
          4078 4079 4080 4081 4082 4083
          4084 4085 4086 4087 4088 4089
          4090 4091 4092 4093 4094 4095
          4096 4097 4098 4099 4100 4101
          4102 4103 4104 4105 4106 4107
          4108 4109 4110 4111 4112 4113
          4114 4115 4116 4117 4118 4119
          4120 4121 4122 4123 4124 4125
          4126 4127 4128 4129 4130 4131
          4132 4133 4134 4135 4136 4137
          4138 4139 4140 4141 4142 4143
          4144 4145 4146 4147 4148 4149
          4150 4151 4152 4153 4154 4155
          4156 4157 4158 4159 4160 4161
          4162 4163 4164 4165 4166 4167
          4168 4169 4170 4171 4172 4173
          4174 4175 4176 4177 4178 4179
          4180 4181 4182 4183 4184 4185
          4186 4187 4188 4189 4190 4191
          4192 4193 4194 4195 4196 4197
          4198 4199 4200 4201 4203 4207
          4209 4213 4214 4217 4218 4241
          4242 4245 4246
        </DataArray>
        <DataArray type="Float64" Name="bounds" format="ascii" RangeMin="0" RangeMax="0">
          0 0 0 0 0 0
          0 0 0 0 0 0
          0 0 0 0 0 0
          0 0 0 0 0 0
          0 0 0 0 0 0
          0 0 0 0 0 0
          0 0 0 0 0 0
          0 0 0 0 0 0
          0 0 0 0 0 0
          0 0 0 0 0 0
          0 0 0 0 0 0
          0 0 0 0 0 0
          0 0 0 0 0 0
          0 0 0 0 0 0
          0 0 0 0 0 0
          0 0 0 0 0 0
          0 0 0 0 0 0
          0 0 0 0 0 0
          0 0 0 0 0 0
          0 0 0 0 0 0
          0 0 0 0 0 0
          0 0 0 0 0 0
          0 0 0 0 0 0
          0 0 0 0 0 0
          0 0 0 0 0 0
          0 0 0 0 0 0
          0 0 0 0 0 0
          0 0 0 0 0 0
          0 0 0 0 0 0
          0 0 0 0 0 0
          0 0 0 0 0 0
          0 0 0 0 0 0
          0 0 0 0 0 0
          0 0 0 0 0 0
          0 0 0 0 0 0
          0 0 0 0 0 0
          0 0 0 0 0 0
          0 0 0 0 0 0
          0 0 0 0 0 0
          0 0 0 0 0 0
          0 0 0 0 0 0
          0 0 0 0 0 0
          0 0 0 0 0 0
          0 0 0 0 0 0
          0 0 0 0 0 0
          0 0 0 0 0 0
          0 0 0 0 0 0
          0 0 0 0 0 0
          0 0 0 0 0 0
          0 0 0 0 0 0
          0 0 0 0 0 0
          0 0 0 0 0 0
          0 0 0 0 0 0
          0 0 0 0 0 0
          0 0 0 0 0 0
          0 0 0 0 0 0
          0 0 0 0 0 0
          0 0 0 0 0 0
          0 0 0 0 0 0
          0 0 0 0 0 0
          0 0 0 0 0 0
          0 0 0 0 0 0
          0 0 0 0 0 0
          0 0 0 0 0 0
          0 0 0 0 0 0
          0 0 0 0 0 0
          0 0 0 0 0 0
          0 0 0 0 0 0
          0 0 0 0 0 0
          0 0 0 0 0 0
          0 0 0 0 0 0
          0 0 0 0 0 0
          0 0 0 0 0 0
          0 0 0 0 0 0
          0 0 0 0 0 0
          0 0 0 0 0 0
          0 0 0 0 0 0
          0 0 0 0 0 0
          0 0 0 0 0 0
          0 0 0 0 0 0
          0 0 0 0 0 0
          0 0 0 0 0 0
          0 0 0 0 0 0
          0 0 0 0 0 0
          0 0 0 0 0 0
          0 0 0 0 0 0
          0 0 0 0 0 0
          0 0 0 0 0 0
          0 0 0 0 0 0
          0 0 0 0 0 0
          0 0 0 0 0 0
          0 0 0
        </DataArray>
        <DataArray type="Float64" Name="gradient_error" format="ascii" RangeMin="4.658148779601208e-9" RangeMax="3.935992256688519e-7">
          4.750849699587436e-8 2.633730258422435e-7 1.5748274891243466e-8 1.0057839224195915e-7 3.935992256688519e-7 2.610440271905162e-7
          1.533239926095362e-7 7.92293518887089e-8 3.518399173369088e-8 4.13304941650498e-8 1.6908646957263312e-7 5.8749613084957655e-8
          1.5388561307232473e-7 1.4047297078535258e-7 7.00045863586445e-8 1.9206420106910674e-8 5.267057189571346e-8 2.3561421969717758e-7
          1.9658752255966556e-7 6.24980847721835e-8 1.1271583845925508e-7 4.272037534357097e-8 1.470411060967937e-8 3.016759128386145e-8
          1.277218631669694e-7 2.931584797627082e-8 2.5205339993120915e-7 2.850023626417038e-7 2.470657598064389e-7 1.7205778644465514e-7
          1.51644322589141e-7 7.915032226405948e-8 6.630547793919146e-8 4.1897899735051214e-8 1.5269350497155614e-7 1.2767729554393007e-7
          6.504011172690524e-8 7.21007291519339e-8 2.8149832809511363e-8 1.661379843449732e-7 1.5020940836949434e-7 1.494495080531821e-7
          4.6282169802394756e-8 1.6906964286934024e-7 1.4967728800889836e-7 1.6454194622052694e-7 1.4186189340947218e-7 1.391465172876644e-7
          1.2221219977293e-7 5.0443278544951365e-8 5.549520269892659e-8 6.392728458355808e-8 1.664828728906119e-7 1.1883383628986693e-7
          1.9869322309411283e-7 1.042301825401848e-7 8.63556583373857e-8 1.835412933137664e-7 1.5969171050095014e-7 9.114751052878357e-8
          3.152339768550715e-8 4.635211818624105e-8 1.2449592525330274e-7 4.392132086970518e-8 3.859630379280662e-8 5.9035870402174464e-8
          4.0672491249076764e-8 7.235929186362105e-8 1.741661618625052e-7 2.1367400627973875e-7 2.1944393693557804e-8 5.533124830720593e-8
          6.760853214043635e-8 1.4863484163986638e-7 1.7398689071997097e-7 1.5262343862433663e-7 1.091391021045058e-7 2.0527480901732414e-7
          2.2665455383706478e-7 1.2542705604097222e-7 7.0756820341699e-8 1.861218961606786e-7 2.533772708476457e-7 1.3924436393295414e-7
          1.502612934475106e-7 1.6503979780093522e-7 8.918549824901982e-8 1.1305628072715481e-7 1.408533092636712e-7 9.273846925586797e-8
          6.368531906899909e-8 1.042679139548618e-7 1.0150940462905007e-7 1.6941730318665345e-7 3.260909557394365e-8 2.615426302910389e-8
          1.0767704906941944e-8 5.436456369196714e-8 5.5070466697546335e-8 3.844167931605742e-8 2.425718615071727e-8 6.698552212111704e-8
          3.095256115537412e-8 1.2880930613666082e-7 6.089070946478261e-8 3.11609928728281e-8 4.544526514479272e-8 8.255772645689713e-8
          5.8888046136936864e-8 8.476024736058866e-8 1.911899549011687e-7 1.1210366868058611e-7 1.1354027166368116e-8 7.937385416845416e-8
          8.689080848083914e-8 2.1456154625123863e-7 6.122582031278182e-8 7.53654947116002e-8 4.7171341928871615e-8 5.693892458580736e-8
          3.9886177739554125e-8 2.4645965863980558e-8 5.437838137573585e-8 8.18581013403793e-8 6.288895148873087e-8 4.7111812191598646e-8
          1.8965167290091312e-7 9.173393000554814e-8 4.325521380506014e-8 2.148391591798139e-7 1.0486916205624218e-7 4.8289068566657615e-8
          1.4480884390625107e-8 8.832913055536259e-9 1.398077271636168e-8 1.2933525604551922e-8 1.0522094006924784e-8 7.618367118339569e-9
          4.658148779601208e-9 4.810139236025629e-8 4.362214342065962e-8 4.425081776586162e-8 4.529389018684915e-8 4.754120540380978e-8
          4.271483982723211e-8 4.676411401581001e-8 4.478277983183714e-8 5.020811636519376e-8 5.002846499312081e-8 5.098791290230735e-8
          5.386887024029062e-8 5.049843540729295e-8 5.6113325248303e-8 5.650577281150577e-8 5.851468878181679e-8 5.349661698263508e-8
          4.449514905288684e-8 4.48248688188535e-8 3.9940788102681674e-8 4.451518983537219e-8 4.368773016336711e-8 3.8935366080182754e-8
          4.781778822307412e-8 4.881218956905588e-8 5.1394810132803004e-8 5.237540268614697e-8 5.053725224668107e-8 5.3420237727308636e-8
          4.5840608981761353e-8 4.737861921509609e-8 5.2214719879792384e-8 5.079611560411993e-8 5.4688097119118655e-8 5.569846955879891e-8
          5.732095100952492e-8 5.83398620716616e-8 5.591049093495258e-8 5.7608610820356675e-8 5.484156997002956e-8 5.6896456504681614e-8
          6.103316149221298e-8 6.006696477822296e-8 4.853095726731965e-8 4.986032702760398e-8 4.5794000956314795e-8 4.6236173840081636e-8
          5.3679791174456757e-8 5.701745693284719e-8 5.4683980589104475e-8 5.053430160743655e-8 5.044918391242738e-8 4.595646334344714e-8
          4.5039919317939675e-8 5.991764192560894e-8 6.192534986725126e-8 5.865269733410562e-8 3.852825100903826e-8 4.1542375370834485e-8
          4.632622055370703e-8 3.7230818204130426e-8 5.08414828235015e-8 5.3587024272219663e-8 5.058410261416144e-8 2.318489481440595e-8
          3.145403300667629e-8 4.4910230869861376e-8 2.8587888705738476e-8 4.991521416457022e-8 5.191031825558202e-8 4.9835040628393476e-8
          4.3266378127948674e-8 4.681565847571191e-8 4.833642264636713e-8 5.247057477800332e-8 5.19129679225681e-8 5.781416052934908e-8
          3.520695121038151e-8 4.212824098994479e-8 4.7220525542095297e-8 5.246670798167461e-8 5.354668829214471e-8 5.824527134312065e-8
          5.8620416476225546e-8 6.38224209524093e-8 6.372412409068731e-8 6.924462281373848e-8 4.030799812849977e-8 5.1710298575927724e-8
          5.5537356140310244e-8 6.579432751033127e-8 5.565897937553095e-8 6.056590769316631e-8 5.785696172940087e-8 6.210822123727398e-8
          5.6303983164360136e-8 6.238447581677886e-8 5.55205727789244e-8 6.523790198425313e-8 6.915902374640039e-8 6.597141018122825e-8
          6.885322729391688e-8 6.821103109758358e-8 7.331423864577609e-8 6.79460061978603e-8 2.5294767678894033e-8 3.5114768055804925e-8
          2.68490079538551e-8 3.880099902885836e-8 5.0783116975550314e-8 5.710670710372518e-8 2.0634282682427117e-8 3.1483598888756364e-8
          3.455459190195136e-8 4.944259171071696e-8 2.5116861584739406e-8 4.1138336399231095e-8 2.0606249672697274e-8 4.2221049096554196e-8
          6.37128687921665e-8 7.025037492588329e-8 2.0290832546643882e-8 3.644487162957686e-8 3.7110940194386975e-8 6.147576607586916e-8
          5.600399948962973e-8 6.279119038738932e-8 5.514781111267999e-8 5.958763346479613e-8 5.592517453444002e-8 6.28061158982136e-8
          5.601135110224374e-8 6.927685210700081e-8 7.508095556138414e-8 6.828777784339141e-8 7.349700979141281e-8 6.932557551562375e-8
          7.5211419251002e-8 6.829852959201902e-8 5.039135036370971e-8 5.11369827556094e-8 4.8186466788419076e-8 5.188261514750909e-8
          5.1213271900187183e-8 5.1363302228269276e-8 4.9312987733359424e-8 5.2394215379771965e-8 5.277331864178234e-8 4.9869341995058586e-8
          5.102765023155609e-8 5.357515885935676e-8 5.418333505529541e-8 5.042569625675776e-8 5.969031513218193e-8 5.9416674427489075e-8
          5.8396711063930355e-8 5.3792561481030414e-8 2.658297469521787e-8 2.4489068321851033e-8 2.0228360235291108e-8 5.6007756987474526e-8
          5.505021107432916e-8 4.2731498445932156e-8 5.40926651611838e-8 4.2634857331578785e-8 4.2086197800786137e-8 3.682762542389296e-8
          1.543210745455081e-8 9.67402465025907e-9 2.527224128151974e-8 5.894680730867376e-8 5.991378605891086e-8 5.926625205843901e-8
          6.001958658499901e-8 5.7967711668544534e-8 5.8558985937492235e-8 6.18282596576745e-8 6.436178000797156e-8 6.649493018103096e-8
          6.640385197199419e-8 5.808968856457861e-8 5.8300214247601946e-8 5.5345706761508014e-8 5.5203694955257385e-8 5.851073993062528e-8
          5.1574306592036386e-8 6.403971923705469e-8 6.666643103411665e-8 6.483799455463043e-8 6.982541075769895e-8 4.9491899422699214e-8
          4.876219966576315e-8 4.392914031745732e-8 4.339328374216762e-8 6.248161708695352e-8 6.409539412490671e-8 5.90508305881873e-8
          3.855840374064875e-8 2.395525016140597e-8 6.558519620841425e-8 5.585503971943599e-8 6.028044580608885e-8 2.4132571030796286e-8
          2.2505599007709956e-8 1.8608111541065776e-8 3.7350465622587956e-8 3.5731316516807815e-8 3.117994724482e-8 3.059511035501969e-8
          2.715551560941094e-8 2.588343628751587e-8 2.145637484851177e-8 1.3697221427676118e-8 8.417635510092109e-9 2.278107386359936e-8
          1.8343693939989122e-8 1.3969796741161392e-8 1.4619693046249904e-8 8.196101970173366e-9 5.1400711414023665e-8 5.117382550022427e-8
          4.6390386166553946e-8 4.5804338348085516e-8 4.6306253670126644e-8 4.036744546699149e-8 5.9000717475516553e-8 6.148489120939552e-8
          5.665343656793945e-8 6.087972893371011e-8 4.0094628849782314e-8 3.911490483160377e-8 3.2888485194977094e-8 3.178725223620094e-8
          3.362688779018676e-8 2.6831279374842146e-8 4.907838869842033e-8 5.044176514796978e-8 4.2958450808844094e-8 4.7136200291391533e-8
          3.509861117712079e-8 2.882243279310102e-8 2.139898521598762e-8 1.6862878232932546e-8 4.865504688147059e-8 4.1559042231792024e-8
          2.9686613516927484e-8 2.3333219796149992e-8 1.8207087997713e-8 1.3152053478586956e-8 9.912669538196623e-9 3.406543184949752e-8
          2.6788859340711172e-8 1.9240655731264328e-8 8.656813863048733e-9 1.291074721502261e-8 1.7875052214054132e-8 7.485595935797275e-9
          5.458318762568232e-9 1.132795952851979e-8 8.517226456942657e-9 1.5856146178478564e-8 1.2203915283097586e-8 6.308904135534003e-8
          6.879612061521087e-8 6.632831127894248e-8 7.240695155027498e-8 7.390638819541314e-8 7.707134786921901e-8 4.193060184124791e-8
          5.949572670298716e-8 6.392960017618776e-8 7.815941003116874e-8 6.781530834361965e-8 7.373754210688795e-8 6.721951915283874e-8
          7.243840593732739e-8 7.794348249153036e-8 7.652399795310479e-8 5.156325566629878e-8 6.85880818636749e-8 7.218999902689418e-8
          8.495383398012542e-8 7.180809404269036e-8 7.254457935411688e-8 7.030661156963614e-8 6.943205479140322e-8 7.726987253428438e-8
          7.944617332089502e-8 7.528177657095765e-8 7.092391455224456e-8 6.73524800713437e-8 6.562063999158464e-8 4.8813377612797116e-8
          7.944249430964485e-8 7.700620647983412e-8 7.459022872008991e-8 1.7507151286887757e-8 4.397816537530782e-8 1.8694309991163433e-8
          4.782463426403886e-8 7.638213329000054e-8 8.180514240587993e-8 1.1877961771776363e-8 3.824445624945256e-8 4.12565730202579e-8
          7.359338082056012e-8 2.6304458005761444e-8 5.457408397533943e-8 3.9578503593668926e-8 6.295913469826224e-8 8.573981882960179e-8
          8.727285537466948e-8 1.7205203033737914e-8 4.7664443789746397e-8 5.7043176545500276e-8 8.41852258954984e-8 8.003807081956921e-8
          8.328943957590138e-8 7.77610545228652e-8 7.992355287695718e-8 8.053829199586296e-8 8.43517007962565e-8 7.850077307773446e-8
          8.412393123278499e-8 8.233368676791331e-8 7.961193475128384e-8 6.350077021228491e-8 8.56255067423551e-8 8.407685720349893e-8
          8.10042462394683e-8 6.414146877682787e-8 6.878822323048773e-8 5.871104624588989e-8 6.334331521246064e-8 7.298073976422064e-8
          6.692958936088599e-8 6.313305274017633e-8 7.234358578936633e-8 6.800704924599354e-8 8.155021237900832e-8 5.245974280289366e-8
          5.68852466142121e-8 4.6752433031422503e-8 5.000720451219986e-8 5.86840808209184e-8 4.919262889248319e-8 5.455399329323956e-8
          6.073884524437911e-8 5.306270178172372e-8 6.681686802220529e-8 6.192517973372575e-8 5.434483263429368e-8 3.8712631167027197e-8
          3.236267341732016e-8 7.199823806189044e-8 6.444133823037374e-8 4.703446144580953e-8 4.5307733962474295e-8 3.5994970744446864e-8
          2.5864234175434077e-8 1.9889373015294702e-8 5.4750420585312875e-8 4.4106207151144104e-8 3.1973749591650166e-8 5.1978190972340584e-8
          6.87211651162056e-8 5.776258297710923e-8 6.865557163273336e-8 8.567062121874147e-8 8.032739882491431e-8 4.472701575188541e-8
          6.51696405734541e-8 6.773224471163194e-8 8.64679331306151e-8 5.536442119929933e-8 6.298386150252571e-8 4.738706181066065e-8
          5.451909268146591e-8 7.170699807559417e-8 6.141991034650492e-8 5.508562248507815e-8 6.35480397710073e-8 5.499904846925298e-8
          7.33413320509317e-8 7.786978089541186e-8 7.05841595928526e-8 5.273071683756171e-8 4.520211074110789e-8 7.980657612264602e-8
          7.262131619409831e-8 5.4755599117649904e-8 6.0764305323788e-8 4.955378941682275e-8 3.6351402370759564e-8 2.805548807392522e-8
          6.279769074072705e-8 5.1466675373285996e-8 3.796382754959967e-8 2.3714645968862272e-8 2.8799099500712605e-8 3.245533844166539e-8
          3.404765600047285e-8 2.0965198380491435e-8 1.6154107239871708e-8 2.5512028013098083e-8 1.977226495826205e-8 2.876900650370847e-8
          2.2340467437690902e-8 3.008608163225091e-8 2.3270775028826432e-8
        </DataArray>
        <DataArray type="Float64" Name="gradient_matprop_error" format="ascii" RangeMin="0" RangeMax="0">
          0 0 0 0 0 0
          0 0 0 0 0 0
          0 0 0 0 0 0
          0 0 0 0 0 0
          0 0 0 0 0 0
          0 0 0 0 0 0
          0 0 0 0 0 0
          0 0 0 0 0 0
          0 0 0 0 0 0
          0 0 0 0 0 0
          0 0 0 0 0 0
          0 0 0 0 0 0
          0 0 0 0 0 0
          0 0 0 0 0 0
          0 0 0 0 0 0
          0 0 0 0 0 0
          0 0 0 0 0 0
          0 0 0 0 0 0
          0 0 0 0 0 0
          0 0 0 0 0 0
          0 0 0 0 0 0
          0 0 0 0 0 0
          0 0 0 0 0 0
          0 0 0 0 0 0
          0 0 0 0 0 0
          0 0 0 0 0 0
          0 0 0 0 0 0
          0 0 0 0 0 0
          0 0 0 0 0 0
          0 0 0 0 0 0
          0 0 0 0 0 0
          0 0 0 0 0 0
          0 0 0 0 0 0
          0 0 0 0 0 0
          0 0 0 0 0 0
          0 0 0 0 0 0
          0 0 0 0 0 0
          0 0 0 0 0 0
          0 0 0 0 0 0
          0 0 0 0 0 0
          0 0 0 0 0 0
          0 0 0 0 0 0
          0 0 0 0 0 0
          0 0 0 0 0 0
          0 0 0 0 0 0
          0 0 0 0 0 0
          0 0 0 0 0 0
          0 0 0 0 0 0
          0 0 0 0 0 0
          0 0 0 0 0 0
          0 0 0 0 0 0
          0 0 0 0 0 0
          0 0 0 0 0 0
          0 0 0 0 0 0
          0 0 0 0 0 0
          0 0 0 0 0 0
          0 0 0 0 0 0
          0 0 0 0 0 0
          0 0 0 0 0 0
          0 0 0 0 0 0
          0 0 0 0 0 0
          0 0 0 0 0 0
          0 0 0 0 0 0
          0 0 0 0 0 0
          0 0 0 0 0 0
          0 0 0 0 0 0
          0 0 0 0 0 0
          0 0 0 0 0 0
          0 0 0 0 0 0
          0 0 0 0 0 0
          0 0 0 0 0 0
          0 0 0 0 0 0
          0 0 0 0 0 0
          0 0 0 0 0 0
          0 0 0 0 0 0
          0 0 0 0 0 0
          0 0 0 0 0 0
          0 0 0 0 0 0
          0 0 0 0 0 0
          0 0 0 0 0 0
          0 0 0 0 0 0
          0 0 0 0 0 0
          0 0 0 0 0 0
          0 0 0 0 0 0
          0 0 0 0 0 0
          0 0 0 0 0 0
          0 0 0 0 0 0
          0 0 0 0 0 0
          0 0 0 0 0 0
          0 0 0 0 0 0
          0 0 0 0 0 0
          0 0 0
        </DataArray>
        <DataArray type="Float64" Name="initial_marker" format="ascii" RangeMin="2" RangeMax="2">
          2 2 2 2 2 2
          2 2 2 2 2 2
          2 2 2 2 2 2
          2 2 2 2 2 2
          2 2 2 2 2 2
          2 2 2 2 2 2
          2 2 2 2 2 2
          2 2 2 2 2 2
          2 2 2 2 2 2
          2 2 2 2 2 2
          2 2 2 2 2 2
          2 2 2 2 2 2
          2 2 2 2 2 2
          2 2 2 2 2 2
          2 2 2 2 2 2
          2 2 2 2 2 2
          2 2 2 2 2 2
          2 2 2 2 2 2
          2 2 2 2 2 2
          2 2 2 2 2 2
          2 2 2 2 2 2
          2 2 2 2 2 2
          2 2 2 2 2 2
          2 2 2 2 2 2
          2 2 2 2 2 2
          2 2 2 2 2 2
          2 2 2 2 2 2
          2 2 2 2 2 2
          2 2 2 2 2 2
          2 2 2 2 2 2
          2 2 2 2 2 2
          2 2 2 2 2 2
          2 2 2 2 2 2
          2 2 2 2 2 2
          2 2 2 2 2 2
          2 2 2 2 2 2
          2 2 2 2 2 2
          2 2 2 2 2 2
          2 2 2 2 2 2
          2 2 2 2 2 2
          2 2 2 2 2 2
          2 2 2 2 2 2
          2 2 2 2 2 2
          2 2 2 2 2 2
          2 2 2 2 2 2
          2 2 2 2 2 2
          2 2 2 2 2 2
          2 2 2 2 2 2
          2 2 2 2 2 2
          2 2 2 2 2 2
          2 2 2 2 2 2
          2 2 2 2 2 2
          2 2 2 2 2 2
          2 2 2 2 2 2
          2 2 2 2 2 2
          2 2 2 2 2 2
          2 2 2 2 2 2
          2 2 2 2 2 2
          2 2 2 2 2 2
          2 2 2 2 2 2
          2 2 2 2 2 2
          2 2 2 2 2 2
          2 2 2 2 2 2
          2 2 2 2 2 2
          2 2 2 2 2 2
          2 2 2 2 2 2
          2 2 2 2 2 2
          2 2 2 2 2 2
          2 2 2 2 2 2
          2 2 2 2 2 2
          2 2 2 2 2 2
          2 2 2 2 2 2
          2 2 2 2 2 2
          2 2 2 2 2 2
          2 2 2 2 2 2
          2 2 2 2 2 2
          2 2 2 2 2 2
          2 2 2 2 2 2
          2 2 2 2 2 2
          2 2 2 2 2 2
          2 2 2 2 2 2
          2 2 2 2 2 2
          2 2 2 2 2 2
          2 2 2 2 2 2
          2 2 2 2 2 2
          2 2 2 2 2 2
          2 2 2 2 2 2
          2 2 2 2 2 2
          2 2 2 2 2 2
          2 2 2 2 2 2
          2 2 2 2 2 2
          2 2 2
        </DataArray>
        <DataArray type="Float64" Name="markers_norefine" format="ascii" RangeMin="0" RangeMax="2">
          2 0 2 0 0 0
          0 0 0 2 0.5 2
          0.25 0 0 2 2 1
          0 2 0 0.5 0 2
          0.5 0 0 0 0 0
          0 0 0 0 0 0
          0 0 0 1 0.5 0
          2 1 0.5 1 0 0
          0 2 2 2 0.5 0
          0 0 0 0 0 0
          2 2 1.5 2 2 2
          2 2 1 1 2 2
          2 1.5 0 0 0 0
          0 0 0 0 0 0
          0.5 0 0 0 0 0
          2 1.75 1.5 0 0 0
          0 1.5 0.5 0 0 0
          0 0 0 0 2 2
          2 2 1 0.25 2 2
          2 1 2 1.75 2 0.75
          0 0 2 2 1 0
          0 0 0 0 0 0
          0 0 0 0 0 0
          0 2 0 2 2 1.5
          2 0.5 0 1.5 2 2
          2 1 2 1.5 1 0.5
          0 0 0 0 0 0
          2 2 2 2 1.5 1.5
          2 2 2 2 2 1.75
          2 1.5 1.25 1 2 2
          2 2 0.5 0.5 0 0
          1.5 1.5 1 0.5 0.5 0
          0 1.5 1.25 1 2 2
          2 2 2 2 2 2
          2 2 2 2 2 2
          2 2 2 2 2 2
          2 2 2 2 2 2
          2 2 2 2 2 2
          2 2 2 2 2 2
          2 2 1.6666666666666667 2 1.75 2
          1.5 2 2 2 2 2
          2 2 2 2 2 2
          2 2 2 2 2 2
          2 2 2 2 2 2
          2 2 1.75 1.6666666666666667 2 2
          2 2 2 2 2 2
          2 2 1 1 0 1
          0.5 0 0 0.75 0.5 0
          0 1 1 0 2 1
          0.5 0 0 0 0 0
          0 0 0 0 0 0
          0 0 0 2 1.5 1.5
          1.25 1 1 2 2 2
          2 1 1 1 1 1
          0.6666666666666666 2 2 2 2 0.5
          0.5 0 0 1 1 0
          0 0 1 0.6666666666666666 0 0
          0 0 0 0 0 0
          0 0 0 0 0 0
          0 0 0 0 1 0.75
          0.5 0.25 0.25 0 2 1.75
          1.25 1 0 0 0 0
          0 0 1 0.75 0.25 0.25
          0 0 0 0 0.25 0
          0 0 0 0 0 0
          0 0 0 0 0 0
          0 0 0 0 0 2
          2 2 2 2 2 2
          2 2 2 2 2 2
          2 2 2 2 2 2
          2 1.5 1.5 1 1 2
          2 2 1.25 1 0.5 0
          1.75 1.25 1.5 2 2 2
          2 2 2 2 2 2
          2 2 2 2 2 2
          2 2 2 2 2 2
          2 2 2 2 2 2
          2 1.5 2 0.6666666666666666 2 1.5
          2 2 2 2 2 1.75
          1.25 2 2 2 2 2
          1.75 1.5 1 0.75 0.25 2
          2 1.75 1.25 0.75 0.25 0
          0 1 0.75 0 0 0
          0 0 0.25 0 0 2
          2 2 2 2 2 2
          2 2 2 2 2 2
          2 1.5 1 2 2 2
          1.5 1 1 0 0 1
          1 0 0.5 0 0 0
          0.5 0 0 0 0 0
          0 0 0 0 0 0
          0 0 0
        </DataArray>
        <DataArray type="Float64" Name="markers_mustrefine" format="ascii" RangeMin="2" RangeMax="2">
          2 2 2 2 2 2
          2 2 2 2 2 2
          2 2 2 2 2 2
          2 2 2 2 2 2
          2 2 2 2 2 2
          2 2 2 2 2 2
          2 2 2 2 2 2
          2 2 2 2 2 2
          2 2 2 2 2 2
          2 2 2 2 2 2
          2 2 2 2 2 2
          2 2 2 2 2 2
          2 2 2 2 2 2
          2 2 2 2 2 2
          2 2 2 2 2 2
          2 2 2 2 2 2
          2 2 2 2 2 2
          2 2 2 2 2 2
          2 2 2 2 2 2
          2 2 2 2 2 2
          2 2 2 2 2 2
          2 2 2 2 2 2
          2 2 2 2 2 2
          2 2 2 2 2 2
          2 2 2 2 2 2
          2 2 2 2 2 2
          2 2 2 2 2 2
          2 2 2 2 2 2
          2 2 2 2 2 2
          2 2 2 2 2 2
          2 2 2 2 2 2
          2 2 2 2 2 2
          2 2 2 2 2 2
          2 2 2 2 2 2
          2 2 2 2 2 2
          2 2 2 2 2 2
          2 2 2 2 2 2
          2 2 2 2 2 2
          2 2 2 2 2 2
          2 2 2 2 2 2
          2 2 2 2 2 2
          2 2 2 2 2 2
          2 2 2 2 2 2
          2 2 2 2 2 2
          2 2 2 2 2 2
          2 2 2 2 2 2
          2 2 2 2 2 2
          2 2 2 2 2 2
          2 2 2 2 2 2
          2 2 2 2 2 2
          2 2 2 2 2 2
          2 2 2 2 2 2
          2 2 2 2 2 2
          2 2 2 2 2 2
          2 2 2 2 2 2
          2 2 2 2 2 2
          2 2 2 2 2 2
          2 2 2 2 2 2
          2 2 2 2 2 2
          2 2 2 2 2 2
          2 2 2 2 2 2
          2 2 2 2 2 2
          2 2 2 2 2 2
          2 2 2 2 2 2
          2 2 2 2 2 2
          2 2 2 2 2 2
          2 2 2 2 2 2
          2 2 2 2 2 2
          2 2 2 2 2 2
          2 2 2 2 2 2
          2 2 2 2 2 2
          2 2 2 2 2 2
          2 2 2 2 2 2
          2 2 2 2 2 2
          2 2 2 2 2 2
          2 2 2 2 2 2
          2 2 2 2 2 2
          2 2 2 2 2 2
          2 2 2 2 2 2
          2 2 2 2 2 2
          2 2 2 2 2 2
          2 2 2 2 2 2
          2 2 2 2 2 2
          2 2 2 2 2 2
          2 2 2 2 2 2
          2 2 2 2 2 2
          2 2 2 2 2 2
          2 2 2 2 2 2
          2 2 2 2 2 2
          2 2 2 2 2 2
          2 2 2 2 2 2
          2 2 2
        </DataArray>
        <DataArray type="Float64" Name="gradient_marker" format="ascii" RangeMin="0" RangeMax="1">
          1 0.75 0 0.25 1 0.75
          0.5 0.25 0.125 0 0.5 0
          0.5 0.5 0.125 0 0 0.5
          1 0 0.25 1 1 0
          0.25 1 1 1 1 0.6666666666666666
          0.5 0 0 0 0.5 0.5
          0.25 0.25 0 0.5 0.5 0.5
          0 0.5 0.5 0.5 0.5 0.5
          0.5 0 0 0 0.5 0.25
          0.625 0.25 0.25 0.5 0.5 0
          0 0 0.25 0 0 0
          0 0 0.375 0.5 0 0
          0 0.25 0.625 0.75 0.5 0.5
          0.5 0.25 0 0.5 0.5 0.5
          0.5 0.625 0.25 0.375 0.5 0.25
          0 0.125 0.125 0.5 1 1
          1 1 1 1 1 0.125
          0 0.375 0.125 0 0 0
          0 0 0.5 0.25 0 0
          0 0.5 1 1 1 1
          1 1 1 1 1 1
          0.5 0.25 0 0.5 0.25 0
          0 0 0.5 0.5 0.5 0.5
          0.5 0 0 0 0 0
          0 0 0 0 0 0
          0 0 0 0 0 0
          0 0 0 0 0 0
          0 0 0 0 0 0
          0 0 0 0 0 0
          0 0 0 0 0 0
          0 0 0 0 0 0
          0 0 0 0 0 0
          0 0 0 0 0 0
          0 0 0 0 0 0
          0 0 0 0 0 0
          0 0 0 0 0 0
          0 0 0 0 0 0
          0 0 0 0 0 0
          0 0 0 0 0 0
          0 0 0 0 0 0
          0 0 0 0 0 0
          0 0 0 0 0 0
          0 0 0 0 0 0
          0 0 0 0 0 0
          0 0 0 0 0 0
          0 0 0 0 0 0
          0 0 0 0 0 0
          0 0 0 0 0 0
          0 0 0 0 0 0
          0 0 0 0 0 0
          0 0 0 0 0 0
          0 0 0 0 0 0
          0 0 0 0 0 0
          0 0 0 0 0 0
          0 0 0 0 0 0
          0 0 0 0 0 0
          0 0 0 0 0 0.5
          0.5 0.5 0.5 0.5 1 0.5
          1 1 1 0.5 0.5 0.5
          1 0.5 1 1 0.5 0.5
          1 1 0.5 1 0.5 0.5
          1 0.5 1 1 1 1
          1 1 1 1 1 1
          0.5 1 0.5 1 0.5 1
          0.5 1 1 1 1 1
          1 1 0 0 0 0.5
          1 0.5 1 0.5 1 0
          0 0 0 0 0 0
          0 0 0 0 0 0
          0 0 0 0 0 0
          0 0 0 0 0 0
          0 0 0 0 0 0
          0 0 0 0 0 0
          0 0 0 0 0 0
          0 0 0 0 0 0
          0 0 0 0 0 0
          0 0 0 0 0 0
          0 0 0 0 0 0
          0 0.5 0.5 1 1 0.5
          1 0.5 0.5 1 0.5 1
          1 1 1 1 1 1
          1 1 1 0.5 1 0.5
          1 0.5 1 0.5 1 1
          1 1 1 1 1 0.5
          0.5 1 1 0.5 1 0.5