<?xml version="1.0"?>
<VTKFile type="UnstructuredGrid" version="0.1" byte_order="LittleEndian" header_type="UInt32" compressor="vtkZLibDataCompressor">
  <UnstructuredGrid>
    <Piece NumberOfPoints="576" NumberOfCells="346">
      <PointData>
        <DataArray type="Int32" Name="libmesh_node_id" format="ascii" RangeMin="348" RangeMax="5468">
          592 597 813 819 1253 1254
          1257 1259 1260 1262 1275 1276
          1279 1280 1281 1282 2306 2307
          2309 2310 2311 2312 2313 2323
          2324 2325 2327 2328 2329 2333
          2335 2337 2338 2339 2340 2341
          2342 2343 2344 2345 2346 2347
          2348 2349 2352 2354 2355 2357
          2358 2359 2360 2361 2362 2363
          2364 2365 2367 2369 2371 2444
          2445 2446 2448 2449 2450 2451
          2452 2573 2575 2577 2578 2579
          2580 2581 2582 2583 2584 2585
          2586 2587 2588 4490 4491 4493
          4508 4510 4579 4640 4641 4642
          4643 4644 4645 4646 4647 4648
          4649 4657 4658 4659 4660 4661
          4662 4663 4670 4671 4672 4673
          4674 4675 4676 4677 4678 4679
          4680 4681 4682 4683 4688 4689
          4691 4692 4693 4694 4695 4696
          4697 4698 4699 4702 4704 4705
          4707 4718 4720 4722 4724 4732
          4733 4736 4738 4739 4741 4752
          4754 4756 4757 4758 4767 4769
          4771 4773 4774 4775 4776 4777
          4778 4779 4787 4788 4789 4790
          4791 4792 4793 4795 4797 4799
          4801 4802 4803 4804 4805 4806
          4807 4815 4816 4817 4818 4819
          4820 4821 4822 4826 4828 4843
          4845 4856 4858 4860 4861 4862
          4870 4871 4872 4873 4874 4875
          4876 4884 4885 4886 4887 4888
          4889 4890 4891 4892 4893 4894
          4895 4896 4897 4898 4899 4900
          4901 4902 4903 4904 4905 4907
          4908 4909 4911 4912 4913 4914
          4915 4916 4917 4918 4919 4920
          4921 4922 4923 4924 4925 4926
          4927 4928 4929 4930 4931 4932
          4933 4934 4935 4936 4937 4938
          4939 4941 4942 4943 4945 4946
          4947 4948 4949 4950 4951 4952
          4953 4954 4955 4956 4957 4958
          4959 4960 4961 4962 4963 4966
          4968 4969 4971 4972 4973 4974
          4975 4976 4977 4978 4979 4981
          4983 4985 4986 4987 4988 4989
          4990 4991 4992 4993 4994 4995
          4996 4997 5000 5002 5003 5005
          5006 5007 5008 5009 5010 5011
          5012 5013 5015 5017 5019 5021
          5023 5025 5027 5028 5029 5030
          5031 5032 5033 5035 5037 5039
          5041 5042 5043 5044 5045 5046
          5047 5049 5051 5053 5055 5056
          5057 5058 5059 5060 5061 5063
          5065 5067 5069 5070 5071 5072
          5073 5074 5075 5076 5077 5078
          5079 5080 5081 5082 5087 5089
          5090 5091 5092 5093 5094 5095
          5096 5101 5104 5105 5106 5107
          5108 5109 5110 5111 5113 5115
          5117 5118 5119 5120 5121 5122
          5123 5124 5125 5129 5437 5438
          5441 5443 5445 5446 5447 5448
          5449 5450 5451 5452 5453 5454
          5456 5458 5460 5462 5463 5464
          5465 5466 5467 5468 579 781
          437 786 1273 1277 1274 1278
          1218 1221 1223 2216 2443 2447
          2226 2228 2230 2279 1238 2567
          2565 2326 2568 2566 2330 2571
          2570 2252 4418 4419 4410 4632
          4633 1235 4420 4421 2253 4635
          2254 2304 4638 2305 4433 4427
          4651 4434 4435 2255 4653 1236
          4655 2308 3975 4664 4665 3976
          1197 3981 4666 4667 4668 3978
          2141 4669 4684 3991 3995 4685
          4686 3993 4690 1198 4687 4428
          4543 4542 4652 4766 2277 4544
          4768 4656 4770 4772 4549 4550
          4551 2278 4560 4559 4781 4780
          4785 4784 4569 4570 4571 4783
          4794 4796 4798 4800 4809 4808
          4813 4812 4811 4145 4146 4148
          2169 4151 2170 4161 4906 4163
          4165 4910 2172 4179 4180 4182
          348 4185 2175 4195 4940 4197
          4199 4944 1203 5020 5022 5024
          5026 5034 4814 5036 5038 5040
          5048 5050 5052 5054 5062 5064
          5066 5068 5435 5436 5439 5440
          5442 5444 5455 5457 5459 5461
        </DataArray>
        <DataArray type="Float64" Name="bounds" format="ascii" RangeMin="0" RangeMax="0">
          0 0 0 0 0 0
          0 0 0 0 0 0
          0 0 0 0 0 0
          0 0 0 0 0 0
          0 0 0 0 0 0
          0 0 0 0 0 0
          0 0 0 0 0 0
          0 0 0 0 0 0
          0 0 0 0 0 0
          0 0 0 0 0 0
          0 0 0 0 0 0
          0 0 0 0 0 0
          0 0 0 0 0 0
          0 0 0 0 0 0
          0 0 0 0 0 0
          0 0 0 0 0 0
          0 0 0 0 0 0
          0 0 0 0 0 0
          0 0 0 0 0 0
          0 0 0 0 0 0
          0 0 0 0 0 0
          0 0 0 0 0 0
          0 0 0 0 0 0
          0 0 0 0 0 0
          0 0 0 0 0 0
          0 0 0 0 0 0
          0 0 0 0 0 0
          0 0 0 0 0 0
          0 0 0 0 0 0
          0 0 0 0 0 0
          0 0 0 0 0 0
          0 0 0 0 0 0
          0 0 0 0 0 0
          0 0 0 0 0 0
          0 0 0 0 0 0
          0 0 0 0 0 0
          0 0 0 0 0 0
          0 0 0 0 0 0
          0 0 0 0 0 0
          0 0 0 0 0 0
          0 0 0 0 0 0
          0 0 0 0 0 0
          0 0 0 0 0 0
          0 0 0 0 0 0
          0 0 0 0 0 0
          0 0 0 0 0 0
          0 0 0 0 0 0
          0 0 0 0 0 0
          0 0 0 0 0 0
          0 0 0 0 0 0
          0 0 0 0 0 0
          0 0 0 0 0 0
          0 0 0 0 0 0
          0 0 0 0 0 0
          0 0 0 0 0 0
          0 0 0 0 0 0
          0 0 0 0 0 0
          0 0 0 0 0 0
          0 0 0 0 0 0
          0 0 0 0 0 0
          0 0 0 0 0 0
          0 0 0 0 0 0
          0 0 0 0 0 0
          0 0 0 0 0 0
          0 0 0 0 0 0
          0 0 0 0 0 0
          0 0 0 0 0 0
          0 0 0 0 0 0
          0 0 0 0 0 0
          0 0 0 0 0 0
          0 0 0 0 0 0
          0 0 0 0 0 0
          0 0 0 0 0 0
          0 0 0 0 0 0
          0 0 0 0 0 0
          0 0 0 0 0 0
          0 0 0 0 0 0
          0 0 0 0 0 0
          0 0 0 0 0 0
          0 0 0 0 0 0
          0 0 0 0 0 0
          0 0 0 0 0 0
          0 0 0 0 0 0
          0 0 0 0 0 0
          0 0 0 0 0 0
          0 0 0 0 0 0
          0 0 0 0 0 0
          0 0 0 0 0 0
          0 0 0 0 0 0
          0 0 0 0 0 0
          0 0 0 0 0 0
          0 0 0 0 0 0
          0 0 0 0 0 0
          0 0 0 0 0 0
          0 0 0 0 0 0
          0 0 0 0 0 0
        </DataArray>
        <DataArray type="Float64" Name="gradient_error" format="ascii" RangeMin="7.541465109425694e-12" RangeMax="6.288895148873087e-8">
          7.41793086807057e-11 7.722250729716553e-11 9.617255058076515e-11 8.662984065379043e-11 1.318380788622582e-8 3.0576289604650242e-9
          1.0900819683435246e-10 2.2523034357898496e-8 6.6378793623786884e-9 1.460448353087202e-10 2.26257897821064e-11 2.3952646989164427e-11
          3.430823776569104e-11 1.3627753737287233e-10 2.67375835069464e-11 2.284778888170864e-10 5.4417145530575565e-9 3.834115613130678e-9
          1.1489377818392628e-9 2.6542815657163874e-8 2.1892256631186364e-8 1.0083534087206659e-8 7.476446906832535e-9 1.0068732108162214e-9
          5.144249723924443e-10 1.971815779838212e-10 8.280709555717247e-11 1.214541517680402e-9 4.673646830845052e-10 2.953391341220814e-11
          1.556274818578508e-10 5.3981245015139026e-11 3.717371199080023e-8 3.554086211343351e-8 2.0056080059782725e-8 1.7096688484899542e-8
          1.2948198858242718e-8 5.476903980774738e-9 3.845179781018032e-8 4.125848727706628e-8 2.013615754448563e-8 1.548092320409533e-8
          8.32621929462043e-9 6.311808003291064e-9 1.8245506893607586e-9 9.764633116654794e-9 7.625188970657824e-9 2.2246010904537223e-9
          2.0485276287033515e-9 7.912814879333779e-10 2.576197512090697e-10 1.2668860318319725e-10 2.4403511481129302e-9 9.444040322173967e-10
          2.9971466409369185e-10 2.62510813025253e-10 7.859345541962096e-11 3.12906461518148e-10 8.950842313076517e-11 8.160980829656745e-11
          7.814982637253127e-11 6.667201851775736e-11 1.152186755919469e-10 4.050531342051533e-11 9.224034266889566e-11 7.452720578904252e-11
          1.2959939760534362e-10 2.821741656205653e-11 1.5351460589661102e-11 1.1611437394098323e-11 7.541465109425694e-12 4.5464870139546524e-11
          2.073942118752548e-11 1.3176630962455117e-11 6.18984169238614e-11 2.439829471936546e-11 1.3790529768458828e-11 8.822808968777697e-12
          6.908247897854597e-11 2.754215308305249e-11 1.4127379203160279e-11 7.908725472450691e-10 7.208494899482758e-10 5.413102033020832e-10
          3.338646677178369e-10 1.7450350169858302e-10 8.168296469920987e-11 4.568587015956047e-9 4.202012182935811e-9 2.876797409143876e-9
          2.6350890955121175e-9 3.198549793047323e-9 1.987642097366476e-9 8.453165792355358e-9 7.854647224128054e-9 5.023293212467461e-9
          6.08359445708111e-9 1.964752058133669e-9 1.2102938565282392e-9 9.971552460500319e-10 6.106665587584443e-10 3.751656534203975e-9
          2.329719012924835e-9 1.8698558268395565e-9 3.494455216932138e-8 3.440916894003151e-8 2.582852775418272e-8 2.9753933664905072e-8
          1.3600979048792066e-8 1.2848143216538406e-8 9.040738922460674e-9 8.448994201801015e-9 1.025368022941097e-8 6.589286222019191e-9
          1.9147883969948518e-8 1.8476370217889745e-8 1.253672767307395e-8 1.533351378141937e-8 2.019755502291805e-8 1.4528028436536876e-8
          6.429949233248545e-9 4.039192372001379e-9 3.1863798120163476e-9 1.9683124719455758e-9 9.874479161521049e-9 6.291455328560275e-9
          4.915950451759441e-9 1.7069094271561266e-9 1.5587370763868262e-9 1.1687407470048742e-9 3.2798509477713313e-9 3.011568453170402e-9
          2.2735074245155583e-9 7.089594495279795e-10 3.578449822746778e-10 1.3693596469557954e-9 6.732918736536461e-10 5.573576199400103e-9
          5.165470868962049e-9 3.959230784067643e-9 8.382537059547759e-9 7.866923954625582e-9 6.1629559282620644e-9 2.3902476776747917e-9
          1.1554558011282636e-9 3.757610873960179e-9 2.109434101510319e-9 1.8009829296300085e-9 7.038958757810667e-10 2.9752275129359873e-10
          1.2681440850793597e-9 4.4622871897385195e-10 2.725277749715632e-10 1.8700899755825853e-10 1.1377010481779552e-10 8.064185090419313e-10
          4.927300450731763e-10 3.2373619243869486e-10 7.528271259794616e-11 4.570024246805818e-11 4.253625601528126e-11 2.6267007930649063e-11
          1.2492779836929885e-10 7.594070938400789e-11 6.77613864124373e-11 2.0972063261136706e-9 8.23231374954473e-10 3.169444235350605e-9
          1.3392551516846111e-9 8.195431210158323e-10 5.190832387956867e-10 3.16199613872035e-10 2.033766677163743e-9 1.2471984544175772e-9
          7.671051462192133e-10 1.9422300211459684e-10 1.1796572691232685e-10 1.0387559793424033e-10 6.305530532682936e-11 2.804103449532314e-10
          1.704011129615059e-10 1.1738028478478013e-10 1.6015319240104362e-10 2.8930395303609214e-10 1.1615315272799576e-10 4.482555888324519e-11
          2.435937452533829e-11 4.808474933040467e-10 1.8599586233241394e-10 7.317137691576127e-10 4.1130136294956613e-10 2.7463601234766406e-10
          6.94688918429452e-11 3.9677220177116556e-11 3.7128769110923556e-11 2.154970748721599e-11 1.0007349718416356e-10 5.6909893784603536e-11
          5.2957389827841435e-11 4.1021465790625675e-8 4.234688015917202e-8 3.324560442501953e-8 3.3169066343528994e-8 3.909708954390531e-8
          2.9170041547287776e-8 4.221962267927901e-8 4.627841869292672e-8 3.8487252380082795e-8 4.647712813114624e-8 2.4402342128789072e-8
          2.3990089819543466e-8 1.7062402054665806e-8 1.6562583084886542e-8 2.0607903131939044e-8 1.3810247730893006e-8 2.8692563729366856e-8
          2.8699847907379485e-8 1.9844476741743945e-8 2.5305154500277422e-8 2.7304726199068724e-8 1.978812523876916e-8 1.0325770077031276e-8
          3.37917407695191e-8 2.460369242825951e-8 1.363281412244172e-8 8.81486480996706e-9 6.863507043135897e-9 4.299956503612817e-9
          1.704271075102324e-8 1.1152032122361824e-8 8.685622313484604e-9 4.1278358091683577e-8 4.7403809589835463e-8 3.8347280975764177e-8
          4.116310089271192e-8 5.08865600216125e-8 3.978802181160375e-8 4.069159594640302e-8 4.756047806867114e-8 4.1902666323141356e-8
          5.233827133598447e-8 3.127481288669512e-8 3.179011401084082e-8 2.190244893539021e-8 2.196162268229642e-8 2.858621172757935e-8
          1.9340091258205086e-8 3.208808953788577e-8 3.2835818434576294e-8 2.269230932591871e-8 2.9758329235727932e-8 3.834749268171386e-8
          2.8030368283110607e-8 1.4807423737268324e-8 3.998253082678069e-8 2.9272185391463372e-8 1.943262879549867e-8 1.2804455097285919e-8
          9.98734825764846e-9 6.327139167606851e-9 2.029400284550921e-8 1.3400348688533504e-8 1.0459773285924014e-8 1.1226352742805e-8
          1.0697229477459103e-8 6.73425270416712e-9 6.329301358668017e-9 8.60126017376334e-9 4.957901417344428e-9 1.3544315902035485e-8
          1.3111556527704604e-8 7.911289641997581e-9 1.0823880309845874e-8 3.718685141306755e-9 3.4601571711169984e-9 2.6612556768238537e-9
          4.667295782863618e-9 4.377935278938775e-9 3.4119515856463832e-9 5.3189302820964594e-9 3.00416290759839e-9 2.543645872007725e-9
          1.424002472967014e-9 6.794209487141656e-9 3.85995115689459e-9 3.25306922841081e-9 1.594930189199509e-9 7.57015201342732e-10
          2.0549796005073758e-9 9.698092414701805e-10 1.4985733177540472e-8 1.4685161490372199e-8 9.392567423921269e-9 8.997585552751904e-9
          1.236930742967045e-8 7.276005485632649e-9 1.5464915717047135e-8 1.5224414314761368e-8 9.382560831350434e-9 1.2920588036802524e-8
          5.323824866684026e-9 5.023726569965268e-9 3.9537361139122254e-9 5.557511899715247e-9 5.255921637349209e-9 4.151451763614272e-9
          7.855805333271087e-9 4.481546650773202e-9 3.768678422035877e-9 2.117067024261635e-9 8.242656534296272e-9 4.70922314990488e-9
          3.957702593013078e-9 2.3912285760598543e-9 1.125434863940408e-9 2.5148340687611922e-9 1.1827002912116632e-9 4.369545055654915e-9
          1.6468504809415415e-9 5.493477561941451e-9 2.8165863250234727e-9 1.7318543949226003e-9 1.041958584146218e-9 6.349335901847684e-10
          3.5541720919864746e-9 2.1907790708473923e-9 1.2982845426693314e-9 5.963191069388537e-10 2.1097626423375772e-10 7.312855359155609e-10
          3.7378392293026464e-10 2.2726611530683005e-10 1.302233438152073e-10 9.54882685384844e-11 4.5894477757728985e-10 2.7916845870123963e-10
          1.5892872408053007e-10 6.2993444421233385e-9 2.33577482791549e-9 6.592625884267373e-9 4.086441015886552e-9 2.5228383180636065e-9
          1.4819885017606247e-9 9.034850505424271e-10 4.28106123264455e-9 2.6443413707418707e-9 1.5488925394723148e-9 8.269728894692084e-10
          2.88606342620536e-10 8.615435177170667e-10 5.190157968598559e-10 3.156922163397082e-10 1.7805330772450617e-10 1.3026976210357972e-10
          5.406840779068991e-10 3.288119337490243e-10 1.8488876617912425e-10 1.0165108013280293e-9 5.706670181442322e-10 3.7284547596020905e-10
          2.1098098251230288e-10 1.2868802417842526e-9 7.220049398278543e-10 4.6442149818772917e-10 3.877162303432628e-10 1.4301299733619954e-10
          1.3312550216028262e-10 7.546511370773201e-11 6.973633982020291e-11 3.917034642213276e-11 1.6329743309193358e-10 9.232371764725525e-11
          8.482940452057972e-11 5.0772141748055945e-11 1.4830514849807454e-9 8.318718020671314e-10 5.300945613459751e-10 2.9944866866938523e-10
          1.5549600237398172e-9 8.721454126150358e-10 5.540328869212734e-10 4.4639382873301836e-10 1.6299774880656786e-10 4.678877773339801e-10
          1.7025247609253562e-10 1.8459163477177916e-10 1.0425921771977282e-10 9.532588314654274e-11 5.291666557541645e-11 1.922377745797243e-10
          1.0857332084053996e-10 9.89745442334804e-11 5.72497468512635e-11 5.96314572895363e-11 6.914764106306893e-11 7.667477323277248e-11
          4.657987224115706e-11 9.035691129004021e-11 4.251752741107481e-11 4.682776777629748e-11 3.282549282208396e-11 3.5335977813239784e-11
          3.095434908975515e-11 3.0677580568650556e-11 2.5125362249174885e-11 5.486753894854265e-11 4.071944258130779e-11 3.2542243439436276e-11
          1.0015332145652556e-10 5.2945243162829394e-11 1.0379472573544677e-10 6.081815233698955e-11 4.523219833045747e-11 3.601906672476226e-11
          3.032859009492682e-11 6.303923491841394e-11 4.6871974302694956e-11 3.735445861819793e-11 5.845402869931306e-10 4.4473820275979475e-10
          7.723464801430189e-10 4.4021131819163187e-10 6.384854544779116e-11 9.757274197416675e-11 1.0555488870595708e-10 1.7816718826003862e-10
          4.6340133046217466e-10 6.959987796254633e-10 5.904436048364663e-10 2.2709411518172325e-10 1.5433002555027524e-10 8.030886810146624e-11
          2.1889743793352298e-10 3.1982781939128516e-10 2.4467454203045234e-10 9.221131927463665e-11 4.840836877106854e-11 4.683559962581648e-11
          9.469273200128267e-11 2.0749958165249438e-10 7.543651621319644e-11 1.8049362493779768e-10 2.4462110314100995e-10 2.644030204592918e-11
          5.592685437411959e-11 3.3045897102116034e-9 2.1650207845864884e-9 1.9811093014771483e-9 3.033377699492137e-9 6.833785855878623e-9
          6.316420431232987e-9 1.34395667564007e-9 1.2269309155172557e-9 1.4994632260263228e-9 2.3133656056048634e-9 4.865589700843521e-9
          9.239136288431726e-10 1.2276876601287745e-8 1.1500412533436805e-8 9.074007769669916e-9 9.299446094819852e-10 1.447715675091948e-9
          3.03068731533872e-9 5.702508803977105e-10 4.866066958857637e-10 7.643276746475521e-10 1.5576582317989627e-9 2.974253037693996e-10
          5.712536850521863e-9 2.8998558649325778e-9 3.2888485194977094e-8 2.5593353747828673e-8 2.459817093694594e-8 3.178725223620094e-8
          4.272037534357097e-8 4.2958450808844094e-8 1.9085861247993514e-8 1.8225965132435887e-8 2.0491373801142215e-8 2.6831279374842146e-8
          3.844167931605742e-8 1.4919927618211176e-8 1.3595762122249491e-8 1.8207087997713e-8 2.6788859340711172e-8 9.63204164520324e-9
          7.143944256219967e-9 9.912669538196623e-9 1.0756225347722096e-8 1.470411060967937e-8 4.896476017174457e-9 1.1540809865115044e-9
          3.607026624943218e-10 5.527848241606243e-10 2.3293354928178877e-9 1.0717280475485772e-9 1.597347989623461e-10 2.485306811772034e-10
          4.602504844404287e-10 4.286383925817276e-9 1.9177791490052617e-9 7.923859135440042e-10 2.280589471607998e-10 1.3916002240027643e-10
          9.988781733615263e-11 6.660605265328781e-11 6.792818708030661e-11 1.0676440910475256e-10 1.2067934326913793e-10 1.8961645976097108e-10
          2.0060282250253616e-10 3.1533047417614624e-10 4.214221768669624e-11 2.947159033713884e-11 2.557388853029211e-11 6.803870749303417e-11
          3.1476877568634695e-9 1.2629605648448626e-9 4.72208109936946e-9 1.8559209953395187e-9 3.1157824891656916e-10 4.884903773498498e-10
          4.4860767985753703e-10 7.005422261149446e-10 1.684514366650105e-10 4.6752433031422503e-8 5.000720451219986e-8 4.919262889248319e-8
          4.7171341928871615e-8 5.306270178172372e-8 5.693892458580736e-8 3.5994970744446864e-8 1.467943529858227e-8 1.9889373015294702e-8
          4.4106207151144104e-8 1.8279009257872475e-8 2.4645965863980558e-8 4.738706181066065e-8 5.451909268146591e-8 6.141991034650492e-8
          4.750849699587436e-8 5.499904846925298e-8 6.288895148873087e-8 4.955378941682275e-8 2.084098489925944e-8 2.805548807392522e-8
          5.1466675373285996e-8 2.1771111922116253e-8 2.931584797627082e-8 6.464282967490644e-9 2.5077282150443005e-9 8.073070177367433e-9
          3.112050257195837e-9 9.274751691513881e-10 3.0229625967953774e-10 3.340153628272118e-10 1.134764864069748e-9 4.071719426363908e-10
          9.214112413062097e-9 3.5438606003264154e-9 9.627843780330706e-9 3.7008939885662907e-9 1.2822383363685486e-9 4.559230970684135e-10
          1.3355135942092226e-9 4.734591308377007e-10 1.084462172731504e-10 1.2165409372793646e-10 7.39684387340126e-11 7.203454587756647e-11
          1.4443482992892652e-10 7.451681064296808e-11 1.598867899794803e-10 8.20642937017787e-11 1.6576589028383008e-10 8.51956191387416e-11
        </DataArray>
        <DataArray type="Float64" Name="gradient_matprop_error" format="ascii" RangeMin="0" RangeMax="0">
          0 0 0 0 0 0
          0 0 0 0 0 0
          0 0 0 0 0 0
          0 0 0 0 0 0
          0 0 0 0 0 0
          0 0 0 0 0 0
          0 0 0 0 0 0
          0 0 0 0 0 0
          0 0 0 0 0 0
          0 0 0 0 0 0
          0 0 0 0 0 0
          0 0 0 0 0 0
          0 0 0 0 0 0
          0 0 0 0 0 0
          0 0 0 0 0 0
          0 0 0 0 0 0
          0 0 0 0 0 0
          0 0 0 0 0 0
          0 0 0 0 0 0
          0 0 0 0 0 0
          0 0 0 0 0 0
          0 0 0 0 0 0
          0 0 0 0 0 0
          0 0 0 0 0 0
          0 0 0 0 0 0
          0 0 0 0 0 0
          0 0 0 0 0 0
          0 0 0 0 0 0
          0 0 0 0 0 0
          0 0 0 0 0 0
          0 0 0 0 0 0
          0 0 0 0 0 0
          0 0 0 0 0 0
          0 0 0 0 0 0
          0 0 0 0 0 0
          0 0 0 0 0 0
          0 0 0 0 0 0
          0 0 0 0 0 0
          0 0 0 0 0 0
          0 0 0 0 0 0
          0 0 0 0 0 0
          0 0 0 0 0 0
          0 0 0 0 0 0
          0 0 0 0 0 0
          0 0 0 0 0 0
          0 0 0 0 0 0
          0 0 0 0 0 0
          0 0 0 0 0 0
          0 0 0 0 0 0
          0 0 0 0 0 0
          0 0 0 0 0 0
          0 0 0 0 0 0
          0 0 0 0 0 0
          0 0 0 0 0 0
          0 0 0 0 0 0
          0 0 0 0 0 0
          0 0 0 0 0 0
          0 0 0 0 0 0
          0 0 0 0 0 0
          0 0 0 0 0 0
          0 0 0 0 0 0
          0 0 0 0 0 0
          0 0 0 0 0 0
          0 0 0 0 0 0
          0 0 0 0 0 0
          0 0 0 0 0 0
          0 0 0 0 0 0
          0 0 0 0 0 0
          0 0 0 0 0 0
          0 0 0 0 0 0
          0 0 0 0 0 0
          0 0 0 0 0 0
          0 0 0 0 0 0
          0 0 0 0 0 0
          0 0 0 0 0 0
          0 0 0 0 0 0
          0 0 0 0 0 0
          0 0 0 0 0 0
          0 0 0 0 0 0
          0 0 0 0 0 0
          0 0 0 0 0 0
          0 0 0 0 0 0
          0 0 0 0 0 0
          0 0 0 0 0 0
          0 0 0 0 0 0
          0 0 0 0 0 0
          0 0 0 0 0 0
          0 0 0 0 0 0
          0 0 0 0 0 0
          0 0 0 0 0 0
          0 0 0 0 0 0
          0 0 0 0 0 0
          0 0 0 0 0 0
          0 0 0 0 0 0
          0 0 0 0 0 0
          0 0 0 0 0 0
        </DataArray>
        <DataArray type="Float64" Name="initial_marker" format="ascii" RangeMin="0" RangeMax="2">
          0 0 0 0 2 2
          1 2 2 1 0 0
          0 0 0 0 2 2
          2 2 2 2 2 2
          2 2 0.5 2 2 0
          2 0.5 2 2 2 2
          2 2 2 2 2 2
          2 2 2 2 2 2
          2 2 2 1 2 2
          2 2 1 2 1 0
          0 0 0 0 0 0
          0 0 0 0 0 0
          0 0 0 0 0 0
          0 0 0 2 2 2
          2 2 2 2 2 2
          2 2 2 2 2 2
          2 2 2 2 2 2
          2 2 2 2 2 2
          2 2 2 2 2 2
          2 2 2 2 2 2
          2 2 2 2 2 2
          2 2 2 2 2 2
          2 2 2 2 2 2
          2 2 2 2 2 2
          2 2 2 2 2 2
          2 2 2 2 2 2
          2 2 1.25 1 0.5 0
          1.75 1.5 1.5 2 2 2
          2 2 2 2 2 2
          2 2 2 2 2 2
          2 1.3333333333333333 2 2 2 1.25
          0.5 2 2 2 2 2
          1.75 1.25 1.5 0.5 2 1.5
          2 2 2 2 2 2
          2 2 2 2 2 2
          2 2 2 2 2 2
          2 2 2 2 2 2
          2 2 2 2 2 2
          2 2 2 2 2 2
          2 2 2 2 2 2
          2 2 2 2 2 2
          2 2 2 2 2 2
          2 2 2 2 2 2
          2 2 2 2 2 2
          2 2 2 2 2 2
          2 2 2 2 2 2
          2 2 2 2 2 2
          2 2 2 2 2 2
          2 2 2 2 2 2
          2 2 2 2 2 2
          2 2 2 2 2 2
          2 2 2 2 2 2
          2 2 2 2 2 2
          2 2 2 2 2 2
          2 2 2 2 1.75 2
          2 2 1.25 1.3333333333333333 2 2
          1.5 2 2 2 2 2
          2 2 2 2 2 2
          2 2 2 2 1.5 1.3333333333333333
          2 2 1.5 2 2 2
          2 2 2 2 2 2
          2 1.75 2 1.5 2 2
          2 1.5 2 2 2 2
          2 2 2 2 2 2
          2 2 2 2 2 2
          2 2 1.5 1.5 0.5 0.75
          0 1 0 0.25 0 0
          0 0 0 0.5 0 0
          1 0 1 0.5 0 0
          0 0.5 0 0 0 0
          0 0 0 0 0 0
          0 0 0 0 0 0
          0 0 0 0 0 0
          0 1 0 0 1.25 0
          0 2 2 2 2 2
          2 2 2 2 2 2
          2 2 2 2 2 2
          2 2 2 2 2 2
          2 2 2 2 2 2
          2 2 2 2 2 2
          2 2 2 2 2 2
          2 2 2 2 2 2
          2 2 2 2 2 2
          2 2 2 2 2 2
          1.75 1.5 1 1 1.5 1.5
          2 2 0.75 0.6666666666666666 0 1
          2 2 2 2 2 2
          2 2 2 2 2 2
          2 2 2 2 2 2
          2 2 2 2 2 2
          2 2 2 2 2 2
          2 2 2 2 2 2
          2 2 2 2 2 2
          2 2 2 2 2 2
          2 2 1 1 0 0
          1 0 1 0 1 0
        </DataArray>
        <DataArray type="Float64" Name="markers_norefine" format="ascii" RangeMin="0" RangeMax="2">
          0 0 0 0 0 0
          0 0 0 0 0 0
          0 0 0 0 0 0
          0 0 0 0 0 0
          0 0 0 0 0 0
          0 0 0 0 0 0
          0 0 0 0 0 0
          0 0 0 0 0 0
          0 0 0 0 0 0
          0 0 0 0 0 0
          0 0 0 0 0 0
          0 0 0 0 0 0
          0 0 0 0 0 0
          0 0 0 0 0 0
          0 0 0 0 0 0
          0 0 0 0 0 0
          0 0 0 0 0 0
          0 0 0 0 0 0
          0 0 0 0 0 0
          0 0 0 0 0 0
          0 0 0 0 0 0
          0 0 0 0 0 0
          0 0 0 0 0 0
          0 0 0 0 0 0
          0 0 0 0 0 0
          0 0 0 0 0 0
          0 0 0 0 0 0
          0 0 0 0 0 0
          0 0 0 0 0 0
          0 0 0 0 0 0
          0 0 0 0 0 0
          0 0 0 0 0 0
          0 0 0 0 0 0
          0 0.5 0.25 0 0 0
          0 1 0.75 0 0.25 0
          0 0 0 0 0 0
          0 0 0 0 0 0
          0 0 0 0 0 0
          0 0 0 1 1 0
          0 0.5 0 1 1 0
          0.5 0 0 0 0 0
          0 0 0 0 0 0
          0 0 0 0 0 0
          0 0 0 0 0 0
          0 0 0 0 0 0
          0 0 0 0 0 0
          0 0 0 0 0 0
          0 0 0 0 0 0
          0 0 0 0 0 0
          0 0 0 0 0 0
          0 0 0 0 0 0
          0 0 0 0 0 0
          0 0 0 0 0 0
          0 0 0 0 0 0
          0 0 0 0 0 0
          0 0 0 0 0 0
          0 0 0 0 0 0
          0 0 0 0 0 0
          0 0 0 0 0 0
          0 0 0 0 0 0
          0 0 0 0 0 0
          0 0 0 0 0 0
          0 0 0 0 0 0
          0 0 0 0 0 0
          0 0 0 0 0 0
          0 0 0 0 0 0
          0 0 0 0 0 0
          0 0 0 0 0 0
          0 0 0 0 0 0
          0 0 0 0 0 0
          0 0 0 0 0 0
          0 0 0 0 0 0
          0 0 0 0 0 0
          0 0 0 0 0 0
          0 0 0 0 0 0
          0 0 0 0 0 0
          0 0 0 0 0 0
          0 0 0 0 0 0
          0 0 0 0 0 0
          0.5 0.25 0 0 0 0
          0 0 0 0 0 0
          0 0 0 0 0 0
          0 0 0 0 0 0
          0 0 0 0 0 0
          0 0 0 0 0 0
          0 0 0 0 0 0
          0 0 0 0 0 0
          0 0 0 1.5 1 0.25
          2 1.75 0.75 0 0 0
          0 0 0 2 2 1
          2 2 1 0 0 0
          0 0 0 0 0 0
          0 0 0 0 0 0
          0 0 0 0 0 0
          0 0 0 0 0 0
          0 0 0 0 0 0
        </DataArray>
        <DataArray type="Float64" Name="markers_mustrefine" format="ascii" RangeMin="0" RangeMax="2">
          0 0 0 0 2 2
          1 2 2 1 0 0
          0 0 0 0 2 2
          2 2 2 2 2 2
          2 2 0.5 2 2 0
          2 0.5 2 2 2 2
          2 2 2 2 2 2
          2 2 2 2 2 2
          2 2 2 1 2 2
          2 2 1 2 1 0
          0 0 0 0 0 0
          0 0 0 0 0 0
          0 0 0 0 0 0
          0 0 0 2 2 2
          2 2 2 2 2 2
          2 2 2 2 2 2
          2 2 2 2 2 2
          2 2 2 2 2 2
          2 2 2 2 2 2
          2 2 2 2 2 2
          2 2 2 2 2 2
          2 2 2 2 2 2
          2 2 2 2 2 2
          2 2 2 2 2 2
          2 2 2 2 2 2
          2 2 2 2 2 2
          2 2 1.25 1 0.5 0
          1.75 1.5 1.5 2 2 2
          2 2 2 2 2 2
          2 2 2 2 2 2
          2 1.3333333333333333 2 2 2 1.25
          0.5 2 2 2 2 2
          1.75 1.25 1.5 0.5 2 1.5
          2 2 2 2 2 2
          2 2 2 2 2 2
          2 2 2 2 2 2
          2 2 2 2 2 2
          2 2 2 2 2 2
          2 2 2 2 2 2
          2 2 2 2 2 2
          2 2 2 2 2 2
          2 2 2 2 2 2
          2 2 2 2 2 2
          2 2 2 2 2 2
          2 2 2 2 2 2
          2 2 2 2 2 2
          2 2 2 2 2 2
          2 2 2 2 2 2
          2 2 2 2 2 2
          2 2 2 2 2 2
          2 2 2 2 2 2
          2 2 2 2 2 2
          2 2 2 2 2 2
          2 2 2 2 2 2
          2 2 2 2 1.75 2
          2 2 1.25 1.3333333333333333 2 2
          1.5 2 2 2 2 2
          2 2 2 2 2 2
          2 2 2 2 1.5 1.3333333333333333
          2 2 1.5 2 2 2
          2 2 2 2 2 2
          2 1.75 2 1.5 2 2
          2 1.5 2 2 2 2
          2 2 2 2 2 2
          2 2 2 2 2 2
          2 2 1.5 1.5 0.5 0.75
          0 1 0 0.25 0 0
          0 0 0 0.5 0 0
          1 0 1 0.5 0 0
          0 0.5 0 0 0 0
          0 0 0 0 0 0
          0 0 0 0 0 0
          0 0 0 0 0 0
          0 1 0 0 1.25 0
          0 2 2 2 2 2
          2 2 2 2 2 2
          2 2 2 2 2 2
          2 2 2 2 2 2
          2 2 2 2 2 2
          2 2 2 2 2 2
          2 2 2 2 2 2
          2 2 2 2 2 2
          2 2 2 2 2 2
          2 2 2 2 2 2
          1.75 1.5 1 1 1.5 1.5
          2 2 0.75 0.6666666666666666 0 1
          2 2 2 2 2 2
          2 2 2 2 2 2
          2 2 2 2 2 2
          2 2 2 2 2 2
          2 2 2 2 2 2
          2 2 2 2 2 2
          2 2 2 2 2 2
          2 2 2 2 2 2
          2 2 1 1 0 0
          1 0 1 0 1 0
        </DataArray>
        <DataArray type="Float64" Name="gradient_marker" format="ascii" RangeMin="1" RangeMax="1">
          1 1 1 1 1 1
          1 1 1 1 1 1
          1 1 1 1 1 1
          1 1 1 1 1 1
          1 1 1 1 1 1
          1 1 1 1 1 1
          1 1 1 1 1 1
          1 1 1 1 1 1
          1 1 1 1 1 1
          1 1 1 1 1 1
          1 1 1 1 1 1
          1 1 1 1 1 1
          1 1 1 1 1 1
          1 1 1 1 1 1
          1 1 1 1 1 1
          1 1 1 1 1 1
          1 1 1 1 1 1
          1 1 1 1 1 1
          1 1 1 1 1 1
          1 1 1 1 1 1
          1 1 1 1 1 1
          1 1 1 1 1 1
          1 1 1 1 1 1
          1 1 1 1 1 1