<?xml version="1.0"?>
<VTKFile type="UnstructuredGrid" version="0.1" byte_order="LittleEndian" header_type="UInt32" compressor="vtkZLibDataCompressor">
  <UnstructuredGrid>
    <Piece NumberOfPoints="337" NumberOfCells="166">
      <PointData>
        <DataArray type="Int32" Name="libmesh_node_id" format="ascii" RangeMin="172" RangeMax="1469">
          172 197 198 206 219 243
          244 245 249 253 255 256
          257 258 262 263 264 265
          266 267 268 339 340 341
          342 344 349 350 351 382
          383 384 385 386 387 388
          389 390 391 392 393 394
          395 396 397 398 399 400
          401 402 403 404 405 406
          407 408 409 411 417 418
          419 423 424 425 426 427
          428 429 430 431 432 433
          434 435 436 437 562 563
          567 580 581 586 625 626
          627 631 636 637 641 644
          646 647 648 649 650 651
          652 653 654 655 659 664
          666 667 668 669 670 671
          712 713 714 715 716 717
          718 719 720 721 722 723
          724 725 726 727 728 729
          730 731 732 733 734 735
          736 737 738 739 740 741
          742 743 744 745 746 747
          748 749 750 751 752 753
          754 755 756 757 758 759
          760 761 762 763 764 765
          766 767 768 769 770 771
          772 773 774 775 776 777
          778 779 780 781 782 783
          784 785 786 787 788 789
          790 791 792 793 794 795
          796 797 798 799 800 801
          802 803 804 805 806 807
          808 809 817 818 819 821
          823 838 839 840 841 842
          843 844 845 846 847 859
          862 865 867 878 879 880
          881 882 883 884 892 893
          894 895 896 897 898 899
          900 901 902 903 904 905
          1166 1167 1168 1169 1170 1171
          1172 1173 1174 1175 1177 1179
          1181 1182 1273 1274 1275 1276
          1277 1278 1279 1280 1281 1282
          1344 1345 1346 1347 1348 1349
          1350 1351 1352 1353 1354 1355
          1356 1357 1358 1359 1360 1361
          1362 1363 1364 1365 1366 1367
          1368 1369 1370 1371 1372 1373
          1374 1375 1376 1377 1378 1379
          1380 1381 1382 1383 1384 1385
          1386 1388 1411 1412 1415 1417
          1418 1420 1433 1434 1435 1443
          1444 1447 1448 1449 1450 1452
          1463 1464 1465 1466 1467 1468
          1469
        </DataArray>
        <DataArray type="Float64" Name="bounds" format="ascii" RangeMin="0" RangeMax="0">
          0 0 0 0 0 0
          0 0 0 0 0 0
          0 0 0 0 0 0
          0 0 0 0 0 0
          0 0 0 0 0 0
          0 0 0 0 0 0
          0 0 0 0 0 0
          0 0 0 0 0 0
          0 0 0 0 0 0
          0 0 0 0 0 0
          0 0 0 0 0 0
          0 0 0 0 0 0
          0 0 0 0 0 0
          0 0 0 0 0 0
          0 0 0 0 0 0
          0 0 0 0 0 0
          0 0 0 0 0 0
          0 0 0 0 0 0
          0 0 0 0 0 0
          0 0 0 0 0 0
          0 0 0 0 0 0
          0 0 0 0 0 0
          0 0 0 0 0 0
          0 0 0 0 0 0
          0 0 0 0 0 0
          0 0 0 0 0 0
          0 0 0 0 0 0
          0 0 0 0 0 0
          0 0 0 0 0 0
          0 0 0 0 0 0
          0 0 0 0 0 0
          0 0 0 0 0 0
          0 0 0 0 0 0
          0 0 0 0 0 0
          0 0 0 0 0 0
          0 0 0 0 0 0
          0 0 0 0 0 0
          0 0 0 0 0 0
          0 0 0 0 0 0
          0 0 0 0 0 0
          0 0 0 0 0 0
          0 0 0 0 0 0
          0 0 0 0 0 0
          0 0 0 0 0 0
          0 0 0 0 0 0
          0 0 0 0 0 0
          0 0 0 0 0 0
          0 0 0 0 0 0
          0 0 0 0 0 0
          0 0 0 0 0 0
          0 0 0 0 0 0
          0 0 0 0 0 0
          0 0 0 0 0 0
          0 0 0 0 0 0
          0 0 0 0 0 0
          0 0 0 0 0 0
          0
        </DataArray>
        <DataArray type="Float64" Name="gradient_error" format="ascii" RangeMin="5.464719545325127e-9" RangeMax="4.5079674878832287e-7">
          2.2776215237698498e-7 1.1498661887835736e-7 1.9474589660472867e-7 2.683689487356056e-7 6.666994469616212e-8 1.8821737348424503e-7
          3.302899788062724e-7 3.4748822261448593e-7 2.7654367647270384e-7 3.840119158049395e-7 6.597183799415904e-8 4.565184215440377e-8
          2.2065546942122302e-7 1.8504848243280967e-7 4.053412374809265e-8 1.0102984888031658e-7 4.158627153795996e-8 5.464719545325127e-9
          1.0269717824075656e-7 1.72715710700325e-7 1.6582355658465062e-7 4.287830816621341e-8 7.79545710155843e-8 6.88885688687589e-8
          1.2496711841206765e-7 2.9746670891077167e-8 9.48988295713044e-8 1.7197966580855095e-7 4.063983777917756e-8 4.058531917805946e-7
          3.806136620240016e-7 4.2091179104780184e-7 4.5079674878832287e-7 3.024095077101316e-7 2.7247096428376166e-7 2.880133874051688e-7
          3.3996867996955824e-7 4.1946448834315555e-7 3.4560480665092157e-7 3.4390019777884296e-7 4.1791908388073007e-7 2.74325438303772e-7
          4.49637367461847e-7 2.2437313188353966e-7 1.958093789758287e-7 1.0578881787729037e-7 1.0517558951732406e-7 1.8855097442158833e-7
          1.1463777520671492e-7 1.4059681979632683e-7 2.017704446771179e-7 1.94001487206611e-7 1.438641974157577e-7 3.623764276382672e-8
          1.0648194508590719e-7 1.1949840509963714e-7 1.8826807635531882e-7 1.610272767261945e-7 1.4841114445718205e-7 1.7088267666334694e-7
          1.2763444071911636e-7 1.8633234416507948e-7 1.1138577651066502e-7 1.461011600235413e-7 1.6112129246957858e-7 1.539546521843356e-7
          5.7239630846377075e-8 1.0695348269873108e-7 4.940371583871238e-8 8.459752503149667e-8 1.2664592474911107e-7 4.914591062505616e-8
          1.606106586058683e-7 1.0189531262200149e-7 1.3412195846998004e-7 1.0095750939552245e-7 6.236826699005136e-8 4.8315686562844566e-8
          3.4263106135637776e-8 3.3938101018883804e-8 2.6001675308453013e-8 1.8065249598022225e-8 1.1669938774720083e-7 2.3589323287505018e-7
          2.1218781796069573e-7 1.6346902009764213e-7 2.0321441357667678e-7 2.8920916665834204e-7 1.8721183122005277e-7 3.320185552837553e-7
          9.352898709507722e-8 8.813603646649576e-8 2.258081911369638e-7 2.0072038797617735e-7 6.110845124844578e-8 2.0151932465108313e-7
          1.7597549993342607e-7 7.207996351864357e-8 1.3898289987588636e-7 1.1468405361807196e-7 1.3777673076587735e-7 8.470054112192202e-8
          1.717115624143744e-7 2.314687518782832e-7 1.0354386753038463e-7 1.6245576440446178e-7 2.2833432592092207e-7 1.8905379508501555e-7
          7.681251212436972e-8 8.286225565752263e-8 8.025405679436598e-8 7.625364549792812e-8 7.860437514859821e-8 6.408028573965171e-8
          6.987626543559763e-8 6.489109780654835e-8 7.795404027508525e-8 6.761445150245987e-8 7.029556414444177e-8 7.929889998662652e-8
          6.707797945604936e-8 8.354377203860571e-8 8.146642089038204e-8 8.685170865858445e-8 8.331865578626322e-8 8.030345626905e-8
          8.823871298869771e-8 8.595390605793204e-8 8.745239276154758e-8 9.998199301636666e-8 9.754394172788322e-8 7.359537317237244e-8
          8.059500031815552e-8 8.940473267336542e-8 8.7228595349093e-8 8.784751934673165e-8 1.0699516177385097e-7 8.851564461511387e-8
          9.864429189090788e-8 9.455393423553411e-8 1.1303097719551979e-7 1.0953375143378148e-7 1.0061246994495657e-7 1.2727273239828316e-7
          1.2223978306656736e-7 8.287779963395879e-8 9.825411001055121e-8 1.0676613700828193e-7 1.2718127996729658e-7 1.2759338302868314e-7
          1.3221844429152343e-7 1.2215763413755873e-7 6.442082230158352e-8 7.158126482609942e-8 6.55916501578033e-8 7.567148903282228e-8
          5.893915501025891e-8 6.564162814305418e-8 6.763940315831347e-8 8.32742028000264e-8 9.376421398360212e-8 7.798355971419537e-8
          6.707351461830894e-8 8.025614607434816e-8 6.757894150150486e-8 8.383437422478546e-8 5.885500654886065e-8 7.004059779963707e-8
          7.134330816785865e-8 1.0420561817930581e-7 1.1458056600105225e-7 8.319414627481e-8 7.158100118341957e-8 7.742529868392578e-8
          6.922749835384818e-8 8.727966894188302e-8 8.844081633523837e-8 1.0816883861981142e-7 6.186358185978537e-8 7.075991452120241e-8
          6.836991491556564e-8 8.74449709041876e-8 6.981607167799344e-8 1.0004006934696906e-7 4.5458788939994207e-8 8.356575218863287e-8
          1.3014449449089e-7 1.366030282425678e-7 7.66214494939539e-9 6.904555401756927e-8 4.462894794269926e-8 1.2960414109380618e-7
          9.058429558225322e-8 1.0453750241776484e-7 8.755655467846172e-8 8.837692641858671e-8 9.336189291506893e-8 1.0729790477616671e-7
          9.149009120438216e-8 1.1902074405350989e-7 1.3536650520093453e-7 8.972928653258078e-8 9.591273204912839e-8 1.2306902927879552e-7
          1.4166168534783062e-7 9.528044817815329e-8 8.73706732069214e-8 1.1408663721363123e-7 1.1829350110446423e-7 1.1428406809792052e-7
          1.3732019026122109e-7 6.618683924790133e-8 8.533500884584553e-8 6.222770825372801e-8 8.377342701542657e-8 5.570601573143509e-8
          7.032279111941201e-8 6.645500448242314e-8 1.2396050177751327e-7 1.3009455793265528e-7 8.845736812972398e-8 4.0228679581576245e-8
          1.210820359021498e-7 1.5179097251845313e-8 1.0791923229892097e-7 1.533588808054719e-7 1.6925976123183517e-7 9.810826300421308e-8
          1.1009819811635334e-7 1.6327993649970692e-7 1.8364955237548486e-7 1.0600025706753468e-7 5.5000191599872685e-8 5.83658675986851e-8
          5.975539329593001e-8 6.261447323058269e-8 5.2634052427887855e-8 5.766771962631535e-8 4.8131382968355784e-8 5.0791134484197687e-8
          5.111108003048427e-8 5.1340406800440456e-8 6.451059499198733e-8 6.686307886248029e-8 6.270138682474285e-8 5.345088600003959e-8
          4.707063936143106e-8 6.178881549155224e-8 7.715521718327857e-8 8.931625007786254e-8 2.5929119682010367e-8 5.544679233933937e-8
          3.272443752348928e-8 5.1977219430175254e-8 6.519024595548111e-8 3.1957152658303903e-8 3.741676639051308e-8 2.1838016363459818e-8
          2.033644258190962e-8 1.1654143268176209e-8 5.906735027166128e-8 5.876929611780989e-8 5.275517006602036e-8 6.317270629247264e-8
          5.764463917746735e-8 6.757611646713538e-8 6.327929289404668e-8 5.481246853524049e-8 6.749123551643207e-8 5.686976700446062e-8
          2.0892479718050426e-8 1.1237762714930643e-8 1.158459867777024e-8 1.143075478331669e-8 1.1276910888863142e-8 1.1623746851702736e-8
          1.2155017556798368e-8 1.2069655396548428e-8 1.2991356250401215e-8 1.198429323629849e-8 2.053286921838901e-8 2.048710531853887e-8
          2.0441341418688734e-8 1.2195832903548962e-8 1.297157881258938e-8 1.5145556718893343e-8 1.3747324721629794e-8 2.0230394923919947e-8
          1.1256597425863016e-8 1.1675522475728678e-8 1.0174695435460428e-8 1.155438738185298e-8 1.2094447525594339e-8 1.2934079328245537e-8
          1.0358177294927667e-8 1.1281389554908928e-8 1.0117418513304748e-8 1.2204601814890187e-8 8.885874475056553e-9 1.0846290785752221e-8
          8.356628936625363e-9 1.0406389252106589e-8 1.2806707096447887e-8 1.4781446318458124e-8 5.5759160465641435e-9 8.721002758915062e-9
          8.13530888538682e-9 1.1866089471265981e-8 2.0155186046269265e-8 2.0878332272339797e-8 2.0079977168618585e-8 2.285196308751318e-8
          2.24482042008639e-8 2.204444531421462e-8 2.107944011515485e-8 2.1362510891480363e-8 2.164558166780587e-8 1.5060162849660482e-8
          1.640522930679703e-8 1.8725310866363315e-8 2.1408139700222663e-8 2.4575168708288187e-8 2.214093832922254e-8 9.10073491913318e-9
          1.0749427561612865e-8 1.5912684329390818e-8 1.6874497947070115e-8 7.388061281741918e-9 8.965214091728493e-9 1.4360761369935223e-8
          2.0951664649721923e-8 2.2744776992010588e-8 2.247608084475476e-8 2.5516963524811113e-8 2.049518959922118e-8 2.183352814438913e-8
          2.281122336028698e-8
        </DataArray>
        <DataArray type="Float64" Name="gradient_matprop_error" format="ascii" RangeMin="0" RangeMax="0">
          0 0 0 0 0 0
          0 0 0 0 0 0
          0 0 0 0 0 0
          0 0 0 0 0 0
          0 0 0 0 0 0
          0 0 0 0 0 0
          0 0 0 0 0 0
          0 0 0 0 0 0
          0 0 0 0 0 0
          0 0 0 0 0 0
          0 0 0 0 0 0
          0 0 0 0 0 0
          0 0 0 0 0 0
          0 0 0 0 0 0
          0 0 0 0 0 0
          0 0 0 0 0 0
          0 0 0 0 0 0
          0 0 0 0 0 0
          0 0 0 0 0 0
          0 0 0 0 0 0
          0 0 0 0 0 0
          0 0 0 0 0 0
          0 0 0 0 0 0
          0 0 0 0 0 0
          0 0 0 0 0 0
          0 0 0 0 0 0
          0 0 0 0 0 0
          0 0 0 0 0 0
          0 0 0 0 0 0
          0 0 0 0 0 0
          0 0 0 0 0 0
          0 0 0 0 0 0
          0 0 0 0 0 0
          0 0 0 0 0 0
          0 0 0 0 0 0
          0 0 0 0 0 0
          0 0 0 0 0 0
          0 0 0 0 0 0
          0 0 0 0 0 0
          0 0 0 0 0 0
          0 0 0 0 0 0
          0 0 0 0 0 0
          0 0 0 0 0 0
          0 0 0 0 0 0
          0 0 0 0 0 0
          0 0 0 0 0 0
          0 0 0 0 0 0
          0 0 0 0 0 0
          0 0 0 0 0 0
          0 0 0 0 0 0
          0 0 0 0 0 0
          0 0 0 0 0 0
          0 0 0 0 0 0
          0 0 0 0 0 0
          0 0 0 0 0 0
          0 0 0 0 0 0
          0
        </DataArray>
        <DataArray type="Float64" Name="initial_marker" format="ascii" RangeMin="0" RangeMax="2">
          2 0 0 0 0 0
          1 0.25 0 1 0 0
          1 0 0 0 0 2
          1.5 2 0 0 0 0
          0 0 0 0 0 1
          0.75 2 1.75 0.5 2 2
          0.3333333333333333 0.75 0.75 2 2 2
          1 1 0.5 2 2 1
          2 2 0 0.75 1 2
          2 2 1 1 0 1.25
          1.5 2 0 0 0.25 0
          0 0.25 0 0 0 0
          0.5 0 0.5 0 0 0
          0 0 0 0 0 0
          0 0 0 0 0 0
          0 0 0 0 0 0
          0 0 0 0 0 0
          0 0 0 0 0 0
          1 2 1.5 1 2 0
          0.5 0 1.5 2 2 2
          2 2 2 2 2 1.5
          2 1.75 2 2 2 0.5
          1.25 1.5 2 2 2 2
          2 2 2 2 2 2
          2 1.5 1.75 2 2 2
          2 2 0 0.5 0 0.75
          0 0 0.5 1.5 1.75 1
          0.5 1.25 1 1.5 0 1
          1 2 2 1.3333333333333333 2 2
          2 2 2 2 2 2
          2 2 2 2 2 2
          2 2 2 2 2 2
          2 2 2 1.3333333333333333 2 2
          2 2 2 1 1.25 2
          2 1 2 2 2 2
          2 1 1.5 1 1.5 0
          1 1 2 2 1.3333333333333333 2
          2 2 2 2 2 1.5
          1.6666666666666667 2 2 2 0 0
          0.5 0.25 0 0.5 0 0
          0 0 1 0.5 1 0
          0 0 0 0 0 0
          0 0 0 0 0 0
          0 0 0 0 0 0
          0 0 0 0 0 0
          2 2 2 2 2 2
          2 2 2 2 2 2
          2 2 2 2 2 2
          2 2 2 2 2 2
          2 2 2 2 2 2
          2 2 2 2 2 2
          2 2 2 2 2 2
          2 2 2 2 2 2
          2 2 2 2 2 2
          2 2 2 2 2 2
          2 2 2 2 2 2
          2
        </DataArray>
        <DataArray type="Float64" Name="markers_norefine" format="ascii" RangeMin="0" RangeMax="2">
          0 0 0 0 0 0
          0 0 0 0 0 0
          0 0 0 0 0 2
          0 0 0 0 0 0
          0 0 0 0 0 0
          0 0 0 0 0 0
          0 0 0 0 0 0
          0 0 0 0 0 0
          0 0 0 0 0 0
          0 0 0 0 0 0
          0 0 0 0 0 0
          0 0 0 0 0 0
          0 0 0 0 0 0
          0 0 0 0 0 0
          0 0 0 0 0 0
          0 0 0 0 0 0
          0 0 0 0 0 0
          0 0 0 0 0 0
          0 0 0 0 0 0
          0 0 0 0 0 0
          0 0 0 0 0 0
          0 0 0 0 0 0
          0 0 0 0 0 0
          0 0 0 0 0 0
          0 0 0 0 0 0
          0 0 0 0 0 0
          0 0 0 0 0 0
          0 0 0 0 0 0
          0 0 0 0 0 0
          0 0 0 0 0 0
          0 0 0.5 0 1.5 0.5
          0 0 2 0.5 1.5 0
          0 0 0 0 0 0
          0 0 0 0 0 0
          0 0 0 0 0 0
          0 0 0 0 0 0
          0 0 0 0 0 1.5
          0 2 0 0 0 0
          0 0 0 0 0 0
          0 0 0 0 0 0
          0 0 0 0 0 0
          0 0 0 0 0 0
          0 0 0 0 0 0
          0 0 0 0 0 0
          0 0 0 0 0 0
          0 0 0 0 0 0
          0 0 0.5 0 1 0.5
          0 2 1.5 1.6666666666666667 1 0
          0.5 0.25 1.5 1 0 0.5
          1 0.5 1.5 0 2 1.75
          2 2 1.5 1.6666666666666667 2 2
          2 2 0.5 0 1 0
          0 0 1 0.75 0.5 2
          1.75 1.3333333333333333 0.5 0.6666666666666666 0 2
          2 1.75 2 2 2 2
          0.75 1 0 0 1 1
          0
        </DataArray>
        <DataArray type="Float64" Name="markers_mustrefine" format="ascii" RangeMin="0" RangeMax="2">
          2 0 0 0 0 0
          1 0.25 0 1 0 0
          1 0 0 0 0 2
          1.5 2 0 0 0 0
          0 0 0 0 0 1
          0.75 2 1.75 0.5 2 2
          0.3333333333333333 0.75 0.75 2 2 2
          1 1 0.5 2 2 1
          2 2 0 0.75 1 2
          2 2 1 1 0 1.25
          1.5 2 0 0 0.25 0
          0 0.25 0 0 0 0
          0.5 0 0.5 0 0 0
          0 0 0 0 0 0
          0 0 0 0 0 0
          0 0 0 0 0 0
          0 0 0 0 0 0
          0 0 0 0 0 0
          1 2 1.5 1 2 0
          0.5 0 1.5 2 2 2
          2 2 2 2 2 1.5
          2 1.75 2 2 2 0.5
          1.25 1.5 2 2 2 2
          2 2 2 2 2 2
          2 1.5 1.75 2 2 2
          2 2 0 0.5 0 0.75
          0 0 0.5 1.5 1.75 1
          0.5 1.25 1 1.5 0 1
          1 2 2 1.3333333333333333 2 2
          2 2 2 2 2 2
          2 2 2 2 2 2
          2 2 2 2 2 2
          2 2 2 1.3333333333333333 2 2
          2 2 2 1 1.25 2
          2 1 2 2 2 2
          2 1 1.5 1 1.5 0
          1 1 2 2 1.3333333333333333 2
          2 2 2 2 2 1.5
          1.6666666666666667 2 2 2 0 0
          0.5 0.25 0 0.5 0 0
          0 0 1 0.5 1 0
          0 0 0 0 0 0
          0 0 0 0 0 0
          0 0 0 0 0 0
          0 0 0 0 0 0
          2 2 2 2 2 2
          2 2 2 2 2 2
          2 2 2 2 2 2
          2 2 2 2 2 2
          2 2 2 2 2 2
          2 2 2 2 2 2
          2 2 2 2 2 2
          2 2 2 2 2 2
          2 2 2 2 2 2
          2 2 2 2 2 2
          2 2 2 2 2 2
          2
        </DataArray>
        <DataArray type="Float64" Name="gradient_marker" format="ascii" RangeMin="0" RangeMax="1">
          0.5 1 0.875 1 0.5 1
          1 0.875 1 1 0.75 0.5
          1 0.75 0.6666666666666666 0.75 0.5 0
          1 0.75 1 1 1 1
          1 1 1 1 1 1
          1 1 1 0.75 0.75 0.875
          1 1 0.875 1 1 0.75
          1 1 0.75 1 1 0.875
          0.75 1 0.75 0.75 0.75 0
          1 0.75 0.75 0.75 0.625 0.875
          0.5 0.75 0.5 0.75 0.625 0.75
          0.125 0.25 0.25 0.5 1 0
          0.5 0.5 0.25 0.5 1 1
          1 1 1 1 1 1
          1 1 1 1 1 1
          1 0.75 1 0.875 0.25 0.75
          0.625 0.5 0.75 0.5 0.5 0.375
          0.875 0.875 0.75 1 0.75 1
          0.5 1 0.75 0.5 0.5 0
          0.25 0 0.75 0 0 0.5
          0 1 1 1 1 0.75
          1 0.875 1 1 1 0.25
          0.625 0.75 0.75 0.75 1 0.875
          1 1 1 1 1 1
          1 0.5 0.75 0.875 1 1
          0.875 1 0 0.25 0 0.375
          0 0 0.25 0.75 0.875 0.5
          0 0.5 0.25 0.625 0 0.5
          0.5 1 1 0.6666666666666666 0.25 0.375
          0.5 0.75 0.75 1 0 0.25
          0.5 0.75 0.5 0.75 0.25 0.5
          1 0.875 0 0.5 0.25 1
          1 1 1 0.6666666666666666 1 1
          1 1 1 0.625 0.75 1
          1 0.75 0.75 0.875 0.75 0.625
          0.875 0.25 0.625 0 0.5 0
          0.5 0.5 1 1 0.6666666666666666 0.125
          0.625 0 0.5 1 1 0.625
          0.6666666666666666 1 1 0.75 0 0
          0.125 0.25 0 0 0 0
          0 0 0.25 0.5 0 0
          0.25 0.5 0.5 0.75 0 0.25
          0 0.25 0.5 0 0.125 0
          0 0 0 0 0 0
          0 0 0.125 0 0.25 0
          0 0 0 0 0 0
          0 0 0 0 0 0
          0 0 0 0 0 0
          0 0 0 0 0 0
          0 0 0 0 0 0
          0 0 0 0 0 0
          0 0 0 0 0 0
          0 0 0 0 0 0
          0 0 0 0 0 0
          0 0 0 0 0 0
          0 0 0 0 0 0
          0
        </DataArray>
        <DataArray type="Float64" Name="gradient_matprop_marker" format="ascii" RangeMin="0" RangeMax="0">
          0 0 0 0 0 0
          0 0 0 0 0 0
          0 0 0 0 0 0
          0 0 0 0 0 0
          0 0 0 0 0 0
          0 0 0 0 0 0
          0 0 0 0 0 0
          0 0 0 0 0 0
          0 0 0 0 0 0
          0 0 0 0 0 0
          0 0 0 0 0 0
          0 0 0 0 0 0
          0 0 0 0 0 0
          0 0 0 0 0 0
          0 0 0 0 0 0
          0 0 0 0 0 0
          0 0 0 0 0 0
          0 0 0 0 0 0
          0 0 0 0 0 0
          0 0 0 0 0 0
          0 0 0 0 0 0
          0 0 0 0 0 0
          0 0 0 0 0 0
          0 0 0 0 0 0
          0 0 0 0 0 0
          0 0 0 0 0 0
          0 0 0 0 0 0
          0 0 0 0 0 0
          0 0 0 0 0 0
          0 0 0 0 0 0
          0 0 0 0 0 0
          0 0 0 0 0 0
          0 0 0 0 0 0
          0 0 0 0 0 0
          0 0 0 0 0 0
          0 0 0 0 0 0
          0 0 0 0 0 0
          0 0 0 0 0 0
          0 0 0 0 0 0
          0 0 0 0 0 0
          0 0 0 0 0 0
          0 0 0 0 0 0
          0 0 0 0 0 0
          0 0 0 0 0 0
          0 0 0 0 0 0
          0 0 0 0 0 0
          0 0 0 0 0 0
          0 0 0 0 0 0
          0 0 0 0 0 0
          0 0 0 0 0 0
          0 0 0 0 0 0
          0 0 0 0 0 0
          0 0 0 0 0 0
          0 0 0 0 0 0
          0 0 0 0 0 0
          0 0 0 0 0 0
          0
        </DataArray>
        <DataArray type="Float64" Name="combo" format="ascii" RangeMin="0" RangeMax="2">
          0.5 1 0.875 1 0.5 1
          1 0.875 1 1 0.75 0.5
          1 0.75 0.6666666666666666 0.75 0.5 2
          1 0.75 1 1 1 1
          1 1 1 1 1 1
          1 1 1 0.75 0.75 0.875
          1 1 0.875 1 1 0.75
          1 1 0.75 1 1 0.875
          0.75 1 0.75 0.75 0.75 0
          1 0.75 0.75 0.75 0.625 0.875
          0.5 0.75 0.5 0.75 0.625 0.75
          0.125 0.25 0.25 0.5 1 0
          0.5 0.5 0.25 0.5 1 1
          1 1 1 1 1 1
          1 1 1 1 1 1
          1 0.75 1 0.875 0.25 0.75
          0.625 0.5 0.75 0.5 0.5 0.375
          0.875 0.875 0.75 1 0.75 1
          0.5 1 0.75 0.5 0.5 0
          0.25 0 0.75 0 0 0.5
          0 1 1 1 1 0.75
          1 0.875 1 1 1 0.25
          0.625 0.75 0.75 0.75 1 0.875
          1 1 1 1 1 1
          1 0.5 0.75 0.875 1 1
          0.875 1 0 0.25 0 0.375
          0 0 0.25 0.75 0.875 0.5
          0 0.5 0.25 0.625 0 0.5
          0.5 1 1 0.6666666666666666 0.25 0.375
          0.5 0.75 0.75 1 0 0.25
          0.5 0.75 1 0.75 1.75 1
          1 0.875 2 1 1.75 1
          1 1 1 0.6666666666666666 1 1
          1 1 1 0.625 0.75 1
          1 0.75 0.75 0.875 0.75 0.625
          0.875 0.25 0.625 0 0.5 0
          0.5 0.5 1 1 0.6666666666666666 1.625
          0.625 2 0.5 1 1 0.625
          0.6666666666666666 1 1 0.75 0 0
          0.125 0.25 0 0 0 0
          0 0 0.25 0.5 0 0
          0.25 0.5 0.5 0.75 0 0.25
          0 0.25 0.5 0 0.125 0
          0 0 0 0 0 0
          0 0 0.125 0 0.25 0
          0 0 0 0 0 0
          0 0 0.5 0 1 0.5
          0 2 1.5 1.6666666666666667 1 0
          0.5 0.25 1.5 1 0 0.5
          1 0.5 1.5 0 2 1.75
          2 2 1.5 1.6666666666666667 2 2
          2 2 0.5 0 1 0
          0 0 1 0.75 0.5 2
          1.75 1.3333333333333333 0.5 0.6666666666666666 0 2
          2 1.75 2 2 2 2
          0.75 1 0 0 1 1
          0
        </DataArray>
        <DataArray type="Float64" Name="dHdT" format="ascii" RangeMin="25.839009003224156" RangeMax="128.82847466990793">
          37.10159579408633 26.397778474159907 26.05269705069556 26.947006551333097 26.073666235260816 26.286282794020828
          32.504395071026956 29.182961411903506 26.506735218735486 34.07355853355344 26.120024178328755 26.01518038766987
          31.598756824805594 28.014920017017467 25.90704989305215 26.172931119459555 25.951129858841387 96.33421889621843
          34.13380392853494 30.89513002117458 26.487256650812853 25.866266818345824 25.913718591259723 25.898626796407722
          25.97231646471368 25.84998023670754 25.930986774469623 26.030914338167634 25.863733618062994 32.66150668569063
          31.821358953416635 36.61897486951398 35.60361470342539 31.46834911255439 36.86488964661998 36.48184278375583
          30.510063093794543 32.61155690624897 32.537218933823546 37.884458131208646 36.994869283458804 36.96238260437788
          33.90361607346643 32.20717073687203 30.917457923190014 37.718923452806436 37.060390374210556 30.280198879135263
          39.4983969514669 37.68398244845954 28.559257765892394 32.33953375855549 31.671804327117506 38.56813261846212
          37.86152562877499 42.46464953079142 34.498703416450596 29.273951943623004 27.395599789380128 30.376129160121558
          28.98215243962308 32.41824493932848 26.584716504915676 26.93099201867421 27.169503027168112 27.551562363585965
          26.23692669728884 26.731464332934884 26.17963677108457 26.43020054012002 26.75253456051173 26.170280926108767
          27.48611624247691 27.873697997722523 27.0222611071433 26.552994646749276 25.89473530779042 25.879901872344856
          25.865068436899293 25.854531658949938 25.846770331087043 25.839009003224156 26.743927804818775 28.25183239228185
          27.94033205352324 27.354835680440896 27.772661294694974 28.927952471556964 27.406641655782078 29.639027372646368
          26.58257228981692 26.507902128497783 27.92225083843355 27.61425015805236 26.28779506386565 27.498384160218187
          27.225368912826863 26.33414846818619 26.981362420716774 26.67464492859459 26.808611508706107 26.397076467660707
          27.29254638219408 28.323376732675392 26.61486830122827 27.09032478748592 28.90865506212956 27.329678015597793
          34.76307319934672 36.57916217565142 36.30245443075672 35.22652668233522 37.45201319769953 31.401950336284855
          33.15239032237866 31.877473965948894 35.93887384261716 36.616274919281544 36.807799540390164 37.43664065830521
          36.553408347547986 37.199691122649924 36.525425090188214 37.42446486853799 35.2546963895154 34.742235109235125
          36.4980270537509 36.21136862453032 34.632078078264584 36.31620738700062 36.014610628632695 33.27731214573103
          35.1349292328988 34.93047952728254 37.203511795043745 37.34649258309348 37.49968696066248 37.28507611062122
          34.916260355350175 34.38512279092502 36.102014723919936 35.77908933513502 33.99298424467656 35.848793415042735
          35.481076918874784 32.82944239910883 34.65822388301176 34.281529542826725 39.936629948436995 38.91528199599078
          39.2184284478439 37.24618017001788 31.322102587361478 33.07969224048574 31.117103198398482 32.88743221009121
          30.31935471221574 31.814236210483635 31.62691923588212 35.84963722404202 35.65504054523946 34.61859559798481
          30.806084400570295 32.58491421688463 30.384590771619806 32.160777399516526 29.807269229422783 31.309544614095834
          30.871856136086432 35.39698802185015 35.031657672807455 33.26836314554756 36.83788846244704 36.91471497005256
          37.921938618285765 37.780771338430725 37.35314449681329 37.61783249070205 37.010111052792986 36.816946913743664
          38.13730115930694 37.128683092450714 51.188770542296766 42.774607513561484 73.55540517201393 54.54148355102461
          39.4134604274395 40.08031476570114 99.22557828630801 54.585026525759694 77.42451375700327 40.82156588175795
          37.0856627534131 36.88349621467017 36.45657799085767 34.95393599944024 37.309332952352165 37.11467256064536
          36.98508249449724 36.701531659711954 36.67699564027858 34.04934337257846 33.59316316076329 36.972831308922565
          37.2276399623555 34.60205202622003 31.8026966806931 33.777719659689126 33.12707846966028 38.81153951399651
          37.004935817320636 29.866245512981067 31.615922680923934 29.269974205077055 30.953079853219435 28.966278107054123
          30.326835760846592 29.681473667634698 34.53335140843401 33.899431919382764 32.18665972905 64.57875930449349
          41.04311268889837 68.50191598848254 47.86520630476658 36.91251417451009 36.916121592148556 32.9760222533733
          33.094977277141574 38.12392538101898 38.669564846893394 33.51575162049113 29.186957910343896 29.685893798214124
          29.531006697177038 30.056680946509875 28.924297609798483 29.255239406789016 28.080439677651697 28.24990139305017
          28.627291256570736 28.06631992272493 29.87505548401018 30.42746809480563 29.586181203779553 28.419363108448643
          26.13708226906622 26.214087076341855 26.432703834886485 26.549157909745823 26.015873977356705 26.23473139330892
          26.039099568938703 26.2089323060106 26.29147220769821 26.072526594864204 26.085218360859663 25.966192969222618
          25.97631435720678 25.904747784403952 30.11694322011246 30.311717054685985 28.819896498000485 30.747576291492532
          29.243278918266775 31.183435528299075 30.527082098473613 29.032189284016418 30.937220976834766 29.24448207003235
          37.46711387759886 38.10940912102335 39.05958004179806 38.62844814589104 38.19731624998403 39.14748717075874
          43.18168026650906 41.25547807730936 52.65192539735421 39.32927588810967 49.89852237682807 47.72983076909421
          45.56113916136035 80.9458558234532 69.69573049618019 74.91456307892533 58.445605168907164 48.19164609046025
          48.978998510332914 45.465936980554346 79.50881428325862 67.35696720451554 41.95287545077579 55.20512012577247
          54.77631675415675 49.67639588379933 82.06200901167686 44.576475013441915 104.88716524668058 88.64670531379603
          94.70592253118411 89.5908650384265 72.40624538091149 77.67800002307959 128.82847466990793 107.59768013141189
          95.80615928875977 86.36688559291582 52.873618415791626 41.66485185368224 57.55559074112299 41.57220740174243
          39.962036769283145 38.35186613682386 54.294414522794 51.28465950361441 48.27490448443482 77.30935023504482
          73.70279979034203 67.4063779937968 51.668503835859845 53.13451698354632 41.31037238160779 71.0624300765574
          77.48785030541546 75.65653039438186 70.69359801797535 54.52278132687074 70.17738326809254 79.30246521409143
          56.087430612640965 60.820127937212234 44.77507097079176 50.79904669300704 60.50635738942209 65.01672436517461
          48.23976955997572
        </DataArray>
        <DataArray type="Float64" Name="dk/dtemperature" format="ascii" RangeMin="0.0067815926183821505" RangeMax="0.1253669999999999">
          0.008483492614599311 0.01518312371308568 0.015602984047365214 0.014508077720388162 0.015600531784275104 0.015308044552419391