<?xml version="1.0"?>
<VTKFile type="UnstructuredGrid" version="0.1" byte_order="LittleEndian" header_type="UInt32" compressor="vtkZLibDataCompressor">
  <UnstructuredGrid>
    <Piece NumberOfPoints="309" NumberOfCells="165">
      <PointData>
        <DataArray type="Int32" Name="libmesh_node_id" format="ascii" RangeMin="220" RangeMax="2671">
          281 458 461 463 464 479
          482 484 494 499 703 709
          1019 1032 1033 1036 1037 1038
          1039 1045 1054 1055 1059 1061
          1065 1067 1068 1069 1070 1071
          1072 1073 1112 1117 1122 1127
          1128 1129 1131 1132 1133 1134
          1135 1136 1137 1235 1236 1237
          1238 1239 1240 1241 1242 1243
          1244 1246 1250 2145 2146 2149
          2150 2151 2152 2153 2154 2155
          2156 2157 2158 2159 2214 2215
          2216 2217 2218 2219 2220 2221
          2222 2223 2224 2225 2226 2227
          2228 2229 2230 2231 2232 2233
          2264 2296 2298 2300 2324 2325
          2328 2329 2330 2331 2332 2333
          2334 2335 2356 2357 2358 2359
          2360 2361 2362 2363 2364 2365
          2366 2367 2368 2369 2378 2380
          2382 2406 2408 2410 2420 2422
          2424 2426 2427 2428 2429 2430
          2431 2432 2433 2434 2435 2436
          2437 2438 2439 2440 2441 2442
          2443 2444 2445 2446 2447 2448
          2449 2450 2451 2452 2453 2454
          2455 2456 2457 2458 2459 2460
          2461 2462 2463 2464 2465 2466
          2467 2468 2469 2470 2471 2472
          2473 2474 2475 2476 2477 2478
          2479 2480 2481 2482 2483 2484
          2485 2486 2487 2579 2606 2607
          2610 2643 2644 2647 2655 2656
          2657 2658 2659 2660 2661 2662
          2663 2664 2665 2666 2667 2668
          2669 2670 2671 459 275 478
          476 460 477 278 480 481
          483 220 485 1013 456 1030
          1014 1015 1031 1034 1035 1023
          1026 1028 1096 1063 1097 1100
          465 1102 2059 2116 2118 1001
          2089 2143 2091 2117 2144 2093
          2147 455 2148 2178 2188 2190
          2192 2092 2094 2261 2262 2263
          2265 2266 2267 2253 1043 2282
          2283 2295 2297 2287 1048 2299
          2301 2322 2323 2326 2327 2311
          2340 1051 2341 2345 1057 2191
          2377 2193 2379 2381 2383 2212
          2211 2392 2391 2396 2395 2405
          2407 2409 2411 2419 2397 2421
          2423 2425 2394
        </DataArray>
        <DataArray type="Float64" Name="bounds" format="ascii" RangeMin="0" RangeMax="0">
          0 0 0 0 0 0
          0 0 0 0 0 0
          0 0 0 0 0 0
          0 0 0 0 0 0
          0 0 0 0 0 0
          0 0 0 0 0 0
          0 0 0 0 0 0
          0 0 0 0 0 0
          0 0 0 0 0 0
          0 0 0 0 0 0
          0 0 0 0 0 0
          0 0 0 0 0 0
          0 0 0 0 0 0
          0 0 0 0 0 0
          0 0 0 0 0 0
          0 0 0 0 0 0
          0 0 0 0 0 0
          0 0 0 0 0 0
          0 0 0 0 0 0
          0 0 0 0 0 0
          0 0 0 0 0 0
          0 0 0 0 0 0
          0 0 0 0 0 0
          0 0 0 0 0 0
          0 0 0 0 0 0
          0 0 0 0 0 0
          0 0 0 0 0 0
          0 0 0 0 0 0
          0 0 0 0 0 0
          0 0 0 0 0 0
          0 0 0 0 0 0
          0 0 0 0 0 0
          0 0 0 0 0 0
          0 0 0 0 0 0
          0 0 0 0 0 0
          0 0 0 0 0 0
          0 0 0 0 0 0
          0 0 0 0 0 0
          0 0 0 0 0 0
          0 0 0 0 0 0
          0 0 0 0 0 0
          0 0 0 0 0 0
          0 0 0 0 0 0
          0 0 0 0 0 0
          0 0 0 0 0 0
          0 0 0 0 0 0
          0 0 0 0 0 0
          0 0 0 0 0 0
          0 0 0 0 0 0
          0 0 0 0 0 0
          0 0 0 0 0 0
          0 0 0
        </DataArray>
        <DataArray type="Float64" Name="gradient_error" format="ascii" RangeMin="1.9712018437055537e-11" RangeMax="9.786746881560742e-9">
          2.1588331698462985e-10 8.775371122804812e-11 3.7937438915452615e-10 2.800107556074801e-9 1.7700159636409838e-10 6.3498088995337e-10
          6.710242113256381e-10 5.260469903737398e-10 1.4305678515830329e-10 1.5240368615398495e-10 2.1265578248709303e-10 2.3449326450664896e-10
          3.012424550614921e-10 1.3974595544543266e-10 1.4009498722734337e-10 1.5555381361902125e-10 2.508892786030504e-10 1.0441867730234005e-10
          3.5879984288473464e-10 2.1604384372277945e-9 6.054751887084536e-10 1.4081673365226945e-10 7.773145221211014e-10 7.704833773299492e-10
          9.4649224156129e-10 2.305236637778744e-10 8.453681998255084e-11 3.05476755736112e-10 1.4959262550010402e-10 2.807399131326208e-10
          9.93579523704756e-11 3.493676088448655e-10 6.306696068641082e-11 4.802153602182215e-11 4.131007237166012e-11 4.916269749142615e-11
          6.690235334288291e-11 6.763485872549287e-11 5.742358336431667e-11 6.904243163658446e-11 9.019816215743209e-11 4.797922151851289e-11
          7.582799244129438e-11 6.283922231639094e-11 1.0002367836739552e-10 3.375224926516166e-10 3.8079508835066815e-10 2.1360264014472563e-10
          2.1906875624439675e-10 2.375440519963776e-10 2.539795934725597e-10 1.6423554708491478e-10 4.2406768404971965e-10 2.2453487234406792e-10
          2.704151349487418e-10 6.085151712368006e-11 4.874006444783162e-11 3.511069986116256e-10 1.877285361271524e-10 5.719606691756409e-10
          9.294876486277082e-11 1.2743290392975858e-10 4.677715029597969e-11 6.22737834462803e-11 7.171861221212484e-11 9.605378779790708e-11
          5.435840439043131e-11 2.1080509930951487e-10 1.0051755431091552e-10 1.532114442446763e-10 1.8451773760872465e-10 2.416872398536635e-10
          1.0191953287936988e-10 1.3178098459080957e-10 1.520045353807111e-10 1.9352074853156597e-10 1.0729625863438015e-10 3.781175586163726e-10
          2.0284040127373982e-10 2.6650208681450587e-10 5.236111648166609e-11 6.79701494991528e-11 3.840147185576374e-11 4.777079773274234e-11
          4.393677882166801e-11 5.539418742061907e-11 4.1021263351052586e-11 1.0461178677255139e-10 5.955187264353589e-11 7.614952751511057e-11
          1.5772384014080797e-9 4.043154179945037e-9 2.62296245155014e-9 4.3270732724006844e-9 8.617123537548278e-10 4.484546204754242e-10
          1.1742526298606898e-9 3.196569374161938e-10 1.4998179773299173e-10 2.2380976939409386e-10 1.0687048846753495e-10 4.3786128922194526e-10
          2.0231530141672434e-10 2.978521075460788e-10 2.186714455952002e-9 1.1093318883090868e-9 1.422357122444726e-9 7.296905152709043e-10
          2.34182922441309e-9 1.18718219921029e-9 1.517532558536498e-9 5.323944344401398e-10 2.4382291147107333e-10 3.5649034791136987e-10
          1.670456466760425e-10 5.686870096464936e-10 2.5971412354943126e-10 3.7886209441310646e-10 9.925940115613022e-10 6.000943691692013e-10
          1.3140059898661984e-9 1.5645618601255692e-9 8.985518972559362e-10 1.6596777036014103e-9 5.050605224752268e-10 3.5954975485648707e-10
          5.291753204109818e-10 5.480579086013444e-10 2.9044450337045496e-10 3.34039755780528e-10 1.8059873926561517e-10 7.226713055535962e-10
          3.7973714277753405e-10 4.298002185611589e-10 1.4832509269691376e-10 7.183381339997755e-11 9.47040161232737e-11 5.527770154597082e-11
          1.918886558949543e-10 9.249391681826947e-11 1.2002412743045629e-10 1.7055729869543138e-10 1.9904942326782403e-10 9.42406751222466e-11
          1.0969922252060135e-10 1.3150920406129835e-10 1.491710531008581e-10 8.310073826920101e-11 2.500902910678907e-10 1.380624499244266e-10
          1.821199446223484e-10 5.3618442692022826e-11 6.06961614805829e-11 4.3880453989816617e-11 4.595077052171164e-11 4.5328373734510106e-11
          4.8701717954241706e-11 3.996862626189058e-11 7.38600181300722e-11 5.193853495340336e-11 5.64774091533718e-11 8.578321845659704e-10
          4.4862310897226417e-10 4.998655468656561e-10 2.6720076691840236e-10 9.090592000932943e-10 4.746225728851399e-10 5.259755187895023e-10
          2.2531049766404304e-10 1.0778881121438595e-10 1.3816743537119867e-10 7.869123078878211e-11 2.378494779035419e-10 1.1349966843174471e-10
          1.4489615486515133e-10 2.8551807725922864e-10 1.5753872361426228e-10 2.0566998791828951e-10 1.1708324036256808e-10 2.983971202228925e-10
          1.6411031729862744e-10 2.139329887323002e-10 8.332486429957101e-11 5.8144703865976495e-11 6.302356712084424e-11 4.6721977690776176e-11
          8.670357260814063e-11 6.04334248787529e-11 6.516737810891822e-11 3.826799971811731e-11 4.9554531128984455e-11 2.594691909495906e-11
          6.465930487767928e-11 7.590303996018935e-11 3.82293158173824e-11 8.014356881912615e-11 2.886455852185889e-11 3.389086999740251e-11
          2.1164501093825202e-11 2.325182938976843e-11 2.3599185225442518e-11 2.7076680042880644e-11 1.9712018437055537e-11 4.306249293848219e-11
          2.798855416067259e-11 3.3560780165573495e-11 4.963982361685574e-11 3.205874280033886e-11 3.827224599014207e-11 2.6282251847663077e-11
          5.207184282969323e-11 3.347953496504421e-11 3.997710650945592e-11 1.1623585692039666e-9 6.237442733914551e-10 7.055990920090786e-10
          1.4803670805546777e-9 8.267359652124e-10 1.583702991081677e-9 2.0979600282418044e-9 1.48831067476889e-9 2.356572600524356e-9
          1.6898513710262476e-9 2.781219200711936e-9 2.7912465210752145e-9 3.1474510674521754e-10 3.205238611055651e-10 3.724356204889709e-10
          2.45781885222986e-10 1.3034443289817e-10 3.489982863533271e-10 2.7653698064847155e-10 4.21384229879105e-10 5.006950407132199e-10
          7.131383225802788e-10 5.067479006119799e-10 8.622967733237846e-10 8.387073516461273e-10 9.605774304723478e-10 5.628538354966589e-10
          9.519886363804502e-10 1.058263803912332e-9 4.747917485870278e-10 2.652489056633955e-10 2.2620270393385514e-10 4.2677549876054307e-10
          8.6661599974257e-10 4.797819382148749e-10 6.322146980352254e-10 1.6709304315209886e-10 2.5320194210928686e-10 1.4892982182749936e-9
          8.130971536966213e-10 1.0380984986694331e-9 4.227567902352822e-10 3.0107656362422396e-10 4.3395293540337833e-10 3.2595274638511044e-10
          6.821258983015476e-10 2.583223505166729e-9 1.7931906777905094e-9 4.0774397048663815e-9 2.3490962827198564e-9 2.7339813834209403e-9
          5.697723219291819e-9 3.2951400641245237e-9 3.746973125264316e-9 7.644273131484767e-9 4.467139752211193e-9 9.227073254702148e-9
          5.4537882275503e-9 6.956790051282994e-9 4.545157771354503e-9 9.786746881560742e-9 5.813742625874539e-9 7.428912607840208e-9
          4.849352175424365e-9 1.2729644040784908e-9 6.531558886292909e-10 1.781138522325622e-9 9.065407362950701e-10 2.421327806442291e-9
          2.9736784488383927e-9 1.2271541702104834e-9 1.5083696141406767e-9 3.179438576595256e-9 1.614524645122212e-9 1.1734731596890732e-9
          1.7111538832604306e-9 7.378116843303057e-10 1.0310451354271495e-9 2.2705263683177655e-9 1.3225449903459455e-9 3.011180774014713e-10
          4.5050039564904675e-10 3.566784623540612e-10 6.060354490410658e-10 4.4205577245640413e-10 7.538056537000987e-10 2.7060303075262013e-9
          1.5451188904748113e-9 2.871294905902557e-9 1.6285921943895366e-9 8.667388666921732e-10 5.420350295512362e-10 6.186382646601976e-10
          9.096002326349252e-10 6.487111061800957e-10 2.678108234955837e-10
        </DataArray>
        <DataArray type="Float64" Name="gradient_matprop_error" format="ascii" RangeMin="0" RangeMax="0">
          0 0 0 0 0 0
          0 0 0 0 0 0
          0 0 0 0 0 0
          0 0 0 0 0 0
          0 0 0 0 0 0
          0 0 0 0 0 0
          0 0 0 0 0 0
          0 0 0 0 0 0
          0 0 0 0 0 0
          0 0 0 0 0 0
          0 0 0 0 0 0
          0 0 0 0 0 0
          0 0 0 0 0 0
          0 0 0 0 0 0
          0 0 0 0 0 0
          0 0 0 0 0 0
          0 0 0 0 0 0
          0 0 0 0 0 0
          0 0 0 0 0 0
          0 0 0 0 0 0
          0 0 0 0 0 0
          0 0 0 0 0 0
          0 0 0 0 0 0
          0 0 0 0 0 0
          0 0 0 0 0 0
          0 0 0 0 0 0
          0 0 0 0 0 0
          0 0 0 0 0 0
          0 0 0 0 0 0
          0 0 0 0 0 0
          0 0 0 0 0 0
          0 0 0 0 0 0
          0 0 0 0 0 0
          0 0 0 0 0 0
          0 0 0 0 0 0
          0 0 0 0 0 0
          0 0 0 0 0 0
          0 0 0 0 0 0
          0 0 0 0 0 0
          0 0 0 0 0 0
          0 0 0 0 0 0
          0 0 0 0 0 0
          0 0 0 0 0 0
          0 0 0 0 0 0
          0 0 0 0 0 0
          0 0 0 0 0 0
          0 0 0 0 0 0
          0 0 0 0 0 0
          0 0 0 0 0 0
          0 0 0 0 0 0
          0 0 0 0 0 0
          0 0 0
        </DataArray>
        <DataArray type="Float64" Name="initial_marker" format="ascii" RangeMin="0" RangeMax="2">
          0 1.75 0 2 2 0
          0 0 0 0 0 0
          2 0 0 0 1 0
          0 2 2 2 2 2
          2 2 0.75 0 0 2
          1 0 0 0.25 1.5 1.5
          0 0 0 0 0 0
          0 0 0 0 0 0
          0 0 0 0 0 0
          0 0 0 2 1.75 2
          1.5 1.75 0.5 1.25 0.5 1.25
          1 2 2 2 1 1.5
          0.5 1 0 1 0.5 2
          1.75 2 0 0.5 0 0.5
          0 0 0 1.25 1 0.3333333333333333
          2 2 2 2 2 2
          2 2 2 2 2 2
          2 2 2 2 2 2
          2 2 2 2 2 2
          2 2 2 2 2 2
          2 2 2 2 2 2
          2 2 2 2 1.75 2
          2 2 1.75 1.25 1 0.3333333333333333
          2 1.75 1.5 1 1 0.5
          0.75 0 0 0 1.25 1
          0.5 0 0.25 0 0 0
          0 0 0.5 0 0 2
          2 2 2 2 2 2
          2 2 1.5 1.3333333333333333 2 2
          1.5 1.5 1 1 0 1.5
          1 1 0.5 0 0 0
          0.5 0 0 1.3333333333333333 1.75 1.3333333333333333
          2 2 2 2 0.5 0.75
          0 0.5 0 0 0 1.25
          1 0.5 1.5 1 1 0
          1.5 1 1 0 0 0
          0 0 0 0 0 0
          0 0 0 0 0 0
          0.75 0 0 0 0 0.25
          0 1.75 0 0.75 0 0
          1 0 2 1.75 1.6666666666666667 1.5
          2 2 2 1.6666666666666667 2 2
          2 2 2 1 1.75 1.3333333333333333
          2 2 2 2 2 2
          2 2 2 2 2 2
          2 2 2 2 2 2
          2 2 2 2 2 2
          2 2 2 2 2 2
          2 2 2 2 2 1
          1.25 1.25 1.75 1.75 2 2
          2 2 2 2 2 2
          2 2 0.5
        </DataArray>
        <DataArray type="Float64" Name="markers_norefine" format="ascii" RangeMin="0" RangeMax="0">
          0 0 0 0 0 0
          0 0 0 0 0 0
          0 0 0 0 0 0
          0 0 0 0 0 0
          0 0 0 0 0 0
          0 0 0 0 0 0
          0 0 0 0 0 0
          0 0 0 0 0 0
          0 0 0 0 0 0
          0 0 0 0 0 0
          0 0 0 0 0 0
          0 0 0 0 0 0
          0 0 0 0 0 0
          0 0 0 0 0 0
          0 0 0 0 0 0
          0 0 0 0 0 0
          0 0 0 0 0 0
          0 0 0 0 0 0
          0 0 0 0 0 0
          0 0 0 0 0 0
          0 0 0 0 0 0
          0 0 0 0 0 0
          0 0 0 0 0 0
          0 0 0 0 0 0
          0 0 0 0 0 0
          0 0 0 0 0 0
          0 0 0 0 0 0
          0 0 0 0 0 0
          0 0 0 0 0 0
          0 0 0 0 0 0
          0 0 0 0 0 0
          0 0 0 0 0 0
          0 0 0 0 0 0
          0 0 0 0 0 0
          0 0 0 0 0 0
          0 0 0 0 0 0
          0 0 0 0 0 0
          0 0 0 0 0 0
          0 0 0 0 0 0
          0 0 0 0 0 0
          0 0 0 0 0 0
          0 0 0 0 0 0
          0 0 0 0 0 0
          0 0 0 0 0 0
          0 0 0 0 0 0
          0 0 0 0 0 0
          0 0 0 0 0 0
          0 0 0 0 0 0
          0 0 0 0 0 0
          0 0 0 0 0 0
          0 0 0 0 0 0
          0 0 0
        </DataArray>
        <DataArray type="Float64" Name="markers_mustrefine" format="ascii" RangeMin="0" RangeMax="2">
          0 1.75 0 2 2 0
          0 0 0 0 0 0
          2 0 0 0 1 0
          0 2 2 2 2 2
          2 2 0.75 0 0 2
          1 0 0 0.25 1.5 1.5
          0 0 0 0 0 0
          0 0 0 0 0 0
          0 0 0 0 0 0
          0 0 0 2 1.75 2
          1.5 1.75 0.5 1.25 0.5 1.25
          1 2 2 2 1 1.5
          0.5 1 0 1 0.5 2
          1.75 2 0 0.5 0 0.5
          0 0 0 1.25 1 0.3333333333333333
          2 2 2 2 2 2
          2 2 2 2 2 2
          2 2 2 2 2 2
          2 2 2 2 2 2
          2 2 2 2 2 2
          2 2 2 2 2 2
          2 2 2 2 1.75 2
          2 2 1.75 1.25 1 0.3333333333333333
          2 1.75 1.5 1 1 0.5
          0.75 0 0 0 1.25 1
          0.5 0 0.25 0 0 0
          0 0 0.5 0 0 2
          2 2 2 2 2 2
          2 2 1.5 1.3333333333333333 2 2
          1.5 1.5 1 1 0 1.5
          1 1 0.5 0 0 0
          0.5 0 0 1.3333333333333333 1.75 1.3333333333333333
          2 2 2 2 0.5 0.75
          0 0.5 0 0 0 1.25
          1 0.5 1.5 1 1 0
          1.5 1 1 0 0 0
          0 0 0 0 0 0
          0 0 0 0 0 0
          0.75 0 0 0 0 0.25
          0 1.75 0 0.75 0 0
          1 0 2 1.75 1.6666666666666667 1.5
          2 2 2 1.6666666666666667 2 2
          2 2 2 1 1.75 1.3333333333333333
          2 2 2 2 2 2
          2 2 2 2 2 2
          2 2 2 2 2 2
          2 2 2 2 2 2
          2 2 2 2 2 2
          2 2 2 2 2 1
          1.25 1.25 1.75 1.75 2 2
          2 2 2 2 2 2
          2 2 0.5
        </DataArray>
        <DataArray type="Float64" Name="gradient_marker" format="ascii" RangeMin="1" RangeMax="1">
          1 1 1 1 1 1
          1 1 1 1 1 1
          1 1 1 1 1 1
          1 1 1 1 1 1
          1 1 1 1 1 1
          1 1 1 1 1 1
          1 1 1 1 1 1
          1 1 1 1 1 1
          1 1 1 1 1 1
          1 1 1 1 1 1
          1 1 1 1 1 1
          1 1 1 1 1 1
          1 1 1 1 1 1
          1 1 1 1 1 1
          1 1 1 1 1 1
          1 1 1 1 1 1
          1 1 1 1 1 1
          1 1 1 1 1 1
          1 1 1 1 1 1
          1 1 1 1 1 1
          1 1 1 1 1 1
          1 1 1 1 1 1
          1 1 1 1 1 1
          1 1 1 1 1 1
          1 1 1 1 1 1
          1 1 1 1 1 1
          1 1 1 1 1 1
          1 1 1 1 1 1
          1 1 1 1 1 1
          1 1 1 1 1 1
          1 1 1 1 1 1
          1 1 1 1 1 1
          1 1 1 1 1 1
          1 1 1 1 1 1
          1 1 1 1 1 1
          1 1 1 1 1 1
          1 1 1 1 1 1
          1 1 1 1 1 1
          1 1 1 1 1 1
          1 1 1 1 1 1
          1 1 1 1 1 1
          1 1 1 1 1 1
          1 1 1 1 1 1
          1 1 1 1 1 1
          1 1 1 1 1 1
          1 1 1 1 1 1
          1 1 1 1 1 1
          1 1 1 1 1 1
          1 1 1 1 1 1
          1 1 1 1 1 1
          1 1 1 1 1 1
          1 1 1
        </DataArray>
        <DataArray type="Float64" Name="gradient_matprop_marker" format="ascii" RangeMin="0" RangeMax="0">
          0 0 0 0 0 0
          0 0 0 0 0 0
          0 0 0 0 0 0
          0 0 0 0 0 0
          0 0 0 0 0 0
          0 0 0 0 0 0
          0 0 0 0 0 0
          0 0 0 0 0 0
          0 0 0 0 0 0
          0 0 0 0 0 0
          0 0 0 0 0 0
          0 0 0 0 0 0
          0 0 0 0 0 0
          0 0 0 0 0 0
          0 0 0 0 0 0
          0 0 0 0 0 0
          0 0 0 0 0 0
          0 0 0 0 0 0
          0 0 0 0 0 0
          0 0 0 0 0 0
          0 0 0 0 0 0
          0 0 0 0 0 0
          0 0 0 0 0 0
          0 0 0 0 0 0
          0 0 0 0 0 0
          0 0 0 0 0 0
          0 0 0 0 0 0
          0 0 0 0 0 0
          0 0 0 0 0 0
          0 0 0 0 0 0
          0 0 0 0 0 0
          0 0 0 0 0 0
          0 0 0 0 0 0
          0 0 0 0 0 0
          0 0 0 0 0 0
          0 0 0 0 0 0
          0 0 0 0 0 0
          0 0 0 0 0 0
          0 0 0 0 0 0
          0 0 0 0 0 0
          0 0 0 0 0 0
          0 0 0 0 0 0
          0 0 0 0 0 0
          0 0 0 0 0 0
          0 0 0 0 0 0
          0 0 0 0 0 0
          0 0 0 0 0 0
          0 0 0 0 0 0
          0 0 0 0 0 0
          0 0 0 0 0 0
          0 0 0 0 0 0
          0 0 0
        </DataArray>
        <DataArray type="Float64" Name="combo" format="ascii" RangeMin="1" RangeMax="1">
          1 1 1 1 1 1
          1 1 1 1 1 1
          1 1 1 1 1 1
          1 1 1 1 1 1
          1 1 1 1 1 1
          1 1 1 1 1 1
          1 1 1 1 1 1
          1 1 1 1 1 1
          1 1 1 1 1 1
          1 1 1 1 1 1
          1 1 1 1 1 1
          1 1 1 1 1 1
          1 1 1 1 1 1
          1 1 1 1 1 1
          1 1 1 1 1 1
          1 1 1 1 1 1
          1 1 1 1 1 1
          1 1 1 1 1 1
          1 1 1 1 1 1
          1 1 1 1 1 1
          1 1 1 1 1 1
          1 1 1 1 1 1
          1 1 1 1 1 1
          1 1 1 1 1 1
          1 1 1 1 1 1
          1 1 1 1 1 1
          1 1 1 1 1 1
          1 1 1 1 1 1
          1 1 1 1 1 1
          1 1 1 1 1 1
          1 1 1 1 1 1
          1 1 1 1 1 1
          1 1 1 1 1 1
          1 1 1 1 1 1
          1 1 1 1 1 1
          1 1 1 1 1 1
          1 1 1 1 1 1
          1 1 1 1 1 1
          1 1 1 1 1 1
          1 1 1 1 1 1
          1 1 1 1 1 1
          1 1 1 1 1 1
          1 1 1 1 1 1
          1 1 1 1 1 1
          1 1 1 1 1 1
          1 1 1 1 1 1
          1 1 1 1 1 1
          1 1 1 1 1 1
          1 1 1 1 1 1
          1 1 1 1 1 1
          1 1 1 1 1 1
          1 1 1
        </DataArray>
        <DataArray type="Float64" Name="dHdT" format="ascii" RangeMin="25.81458021392331" RangeMax="28.414339303151397">
          25.8214624298935 25.829353606739552 25.820779367187335 26.417569575674545 25.850202833796235 25.81996229568214
          25.82009332758621 25.820221759028822 25.81458021392331 25.814713658852938 25.8150694430638 25.81519723998975
          25.878403013629843 25.819842591389587 25.82055718369874 25.82041792094632 25.845480346890852 25.82265727114798
          25.83518375759704 26.276829391842202 25.940883502870893 25.84282526186634 25.977571622202788 25.986654591122427
          26.02446841487353 25.86515917515158 25.826339838080504 25.837846510132948 25.82252046726511 25.875367015090813
          25.82845808819583 25.840501891581347 25.81619082991448 25.81705620544195 25.818966201094625 25.820122023577238
          25.816487451878153 25.81701872681406 25.81530922163877 25.816419341666037 25.81701261745369 25.81515480286461
          25.817455459264384 25.81552328333234 25.817340885312717 25.829785677065388 25.83087682167502 25.82331759554196
          25.823495419960288 25.826622855694843 25.827210638466816 25.822246364364254 25.831967966284655 25.82367324437861
          25.82779842123879 25.81614752341185 25.816015362277195 25.89143932915076 25.855642993966768 25.936710473942437
          25.835436546071506 25.841837159480022 25.82514315462411 25.82785028316316 25.831322298722835 25.83569283897229
          25.826524314437304 25.857930989303618 25.834837498196105 25.846416640759948 25.858762858715863 25.870453465437606
          25.839421615322276 25.845289648112715 25.852490523253298 25.861378994868275 25.8408434031575 25.89806888311329
          25.859176340899506 25.87703865633524 25.828072547509255 25.830777473160257 25.824099334394408 25.82565075877082
          25.826723957285235 25.828720266552356 25.824457458373757 25.837299597054553 25.82730311096108 25.832377383259146
          26.152057825107086 26.709589389955127 26.378102804499623 26.78073267176507 25.99685835787492 25.908288681769598
          26.062925894532224 25.880089389154968 25.844577527376714 25.860573186116127 25.83604375117408 25.905104060891247
          25.85542324011452 25.87583033924993 26.289179043987872 26.05127414392964 26.11646397172776 25.967274043603414
          26.326388510021502 26.069450832138187 26.137309241961354 25.925808338311125 25.864267330922523 25.887980853266455
          25.848152630872058 25.933963127430992 25.867725651679436 25.892677497967142 26.030382111812607 25.9499878693844
          26.099103225301377 26.152668216771637 26.01417479260963 26.173079686610414 25.934365443936322 25.905881563547315
          25.93948092959892 25.932804544096193 25.876631426092835 25.890544257895566 25.855546464728707 25.96926728895763
          25.894835788945073 25.90984396118882 25.84566045986685 25.829409398394095 25.835569382475953 25.826400342901625
          25.854346127800888 25.833322698055287 25.840124108166428 25.859286165824717 25.86464350884267 25.840617896615015
          25.84289009126827 25.85116338776524 25.855000147975034 25.838341158627554 25.874813771146812 25.847499627208478
          25.86218531914782 25.828657073706704 25.82958246991504 25.824086775812 25.8246182331318 25.827113091163096
          25.82748680602343 25.82328477670506 25.831575872876854 25.825833285425325 25.82850437328267 25.997750606035275
          25.909006151392774 25.924545359659696 25.87257264673076 26.00858202828046 25.9144085761852 25.93006706147164
          25.861032547835755 25.83632595771004 25.843659564680895 25.83075163205155 25.863576964505572 25.8374717412297
          25.845001891001857 25.88246089365695 25.85133814823527 25.86748565592427 25.843765715494992 25.885295096880903
          25.852839327975108 25.869437581737728 25.833390197314927 25.826995001723482 25.829717311466336 25.824738589388932
          25.83413651499952 25.82747312304791 25.83028639725109 25.821972353347004 25.82392101839622 25.818846726345654
          25.826702438799693 25.82891995043613 25.82117894976751 25.82977170182304 25.82040517357584 25.821223099079
          25.81807336521181 25.818487071188336 25.819515445091632 25.820118674211336 25.81793076598181 25.82283377801685
          25.81936210810224 25.82128937755516 25.82412835269196 25.820126687775783 25.822230808615647 25.819165007721182
          25.824630173932377 25.820429936511943 25.822604765452006 25.834390603357832 25.818735946276462 25.819589240403555
          25.82848981369194 25.85905271949428 25.836505007996344 25.817968138546078 25.82765567122204 25.835147603895955
          25.842117706386986 25.82044768455389 25.839078128027566 25.829357874426687 25.81965357694753 25.829303700323763
          25.839851981344815 25.822058817790232 25.832647297966066 25.826746716910073 25.831151022808847 25.859186399439462
          25.849303584568545 25.911002940496836 25.851358098794595 25.88145371753701 25.854929212979584 25.843336606446833
          25.89051464267622 25.858476750315294 25.921194686416232 25.874024637385684 25.866938047982813 25.895565093483878
          26.001967418278703 25.916909091530158 25.953171180036424 25.85159443269971 25.868285449436137 26.132943427814546
          25.98630177820799 26.038542018916118 25.9028439591645 25.885695351184893 25.912844382430333 25.891881908477647
          25.96479411006453 26.37380485621901 26.206036767991534 26.70175129690682 26.317267996693914 26.40634457569967
          27.086396685217835 26.53024983055186 26.62781439190914 27.6485803644757 26.832771949661975 28.190552092983413
          27.117167149909946 27.415446952067505 26.808654787189916 28.414339303151397 27.232321469932124 27.54708504384105
          26.87913226379799 26.08360303973992 25.950662492151395 26.195414391420492 26.005426182395457 26.351702779927916
          26.49798614319448 26.08099593623677 26.15183564761766 26.556768058792297 26.18021101975981 26.075121450357702
          26.19077558886861 25.98347322370934 26.047984941383877 26.311730458534196 26.112449094791426 25.888063970258443
          25.924668467309424 25.900703132664873 25.95984010050939 25.920343802865716 25.99355017305787 26.40612099167341
          26.160753176440803 26.44209562158332 26.178766198796147 26.017684578111883 25.94997172015472 25.965629242148875
          26.026493430948676 25.971235341733102 25.88237409460515
        </DataArray>
        <DataArray type="Float64" Name="dk/dtemperature" format="ascii" RangeMin="0.012838819443366869" RangeMax="0.015804580349343192">
          0.015804580349343192 0.015804580349343192 0.015804580349343192 0.01509795840730408 0.015804580349343192 0.015804580349343192
          0.015804580349343192 0.015804580349343192 0.015804580349343192 0.015804580349343192 0.015804580349343192 0.015804580349343192
          0.015804580349343192 0.015804580349343192 0.015804580349343192 0.015804580349343192 0.015804580349343192 0.015804580349343192
          0.015804580349343192 0.015341885760982882 0.015804580349343192 0.015804580349343192 0.015762814551807676 0.015783697450575434
          0.015762814551807676 0.01580458034934319 0.015804580349343192 0.015804580349343192 0.01580458034934319 0.015804580349343192
          0.015804580349343192 0.01580458034934319 0.015804580349343192 0.015804580349343192 0.015804580349343192 0.015804580349343192
          0.015804580349343192 0.015804580349343192 0.015804580349343192 0.015804580349343192 0.015804580349343192 0.015804580349343192
          0.015804580349343192 0.015804580349343192 0.015804580349343192 0.015804580349343192 0.015804580349343192 0.015804580349343192
          0.015804580349343192 0.015804580349343192 0.015804580349343192 0.015804580349343192 0.01580458034934319 0.01580458034934319
          0.01580458034934319 0.015804580349343192 0.015804580349343192 0.015804580349343192 0.015804580349343192 0.015804580349343192
          0.015804580349343192 0.015804580349343192 0.015804580349343192 0.015804580349343192 0.015804580349343192 0.015804580349343192
          0.015804580349343192 0.015804580349343192 0.015804580349343192 0.015804580349343192 0.015804580349343192 0.015804580349343192
          0.015804580349343192 0.015804580349343192 0.015804580349343192 0.015804580349343192 0.015804580349343192 0.015804580349343192
          0.015804580349343192 0.015804580349343192 0.015804580349343192 0.015804580349343192 0.015804580349343192 0.015804580349343192
          0.015804580349343192 0.015804580349343192 0.015804580349343192 0.015804580349343192 0.015804580349343192 0.015804580349343192
          0.015555180669782476 0.014717094560446103 0.015164884323836891 0.014634883023110305 0.015773256001191557 0.015804580349343192
          0.015689724406120525 0.015804580349343192 0.015804580349343192 0.015804580349343192 0.015804580349343192 0.015804580349343192
          0.015804580349343192 0.015804580349343192 0.015321002862215126 0.015689724406120528 0.015595751361665619 0.01578369745057543
          0.01522942002906496 0.015637517159201135 0.015553985564130105 0.015804580349343192 0.015804580349343192 0.015804580349343192
          0.015804580349343192 0.015804580349343192 0.015804580349343192 0.015804580349343192 0.015741931653039918 0.015804580349343192
          0.01563751715920113 0.015555180669782474 0.015762814551807676 0.015535492876667091 0.015804580349343192 0.015804580349343192