<?xml version="1.0"?>
<VTKFile type="UnstructuredGrid" version="0.1" byte_order="LittleEndian" header_type="UInt32" compressor="vtkZLibDataCompressor">
  <UnstructuredGrid>
    <Piece NumberOfPoints="388" NumberOfCells="172">
      <PointData>
        <DataArray type="Int32" Name="libmesh_node_id" format="ascii" RangeMin="0" RangeMax="1196">
          0 1 2 3 4 5
          6 7 8 9 10 11
          12 13 14 15 16 17
          18 19 20 21 22 23
          24 25 26 27 28 29
          30 31 32 33 34 35
          36 37 38 39 40 41
          42 43 44 45 46 47
          48 49 50 51 52 53
          54 55 56 57 58 59
          60 61 62 63 64 65
          66 67 68 69 70 71
          72 73 74 75 76 77
          78 79 80 81 82 83
          84 85 86 87 88 89
          90 91 92 93 94 95
          96 97 98 99 100 101
          102 103 104 105 106 107
          118 119 120 121 122 123
          124 125 131 132 133 134
          145 146 147 148 149 150
          151 152 158 159 160 161
          173 175 176 177 178 179
          185 186 187 188 196 202
          208 209 211 212 214 215
          216 217 220 221 222 223
          224 225 226 227 228 229
          230 231 233 234 235 269
          270 273 276 277 278 282
          283 284 287 288 289 290
          291 292 295 296 311 312
          313 314 315 316 317 318
          319 320 321 322 323 324
          343 345 346 347 348 352
          353 354 355 356 357 358
          359 360 361 362 468 476
          478 480 507 508 509 513
          514 515 516 517 518 519
          520 521 522 523 524 525
          526 527 528 529 530 531
          532 533 544 545 546 547
          548 549 550 551 552 553
          561 578 579 582 583 584
          585 587 588 589 590 591
          592 593 594 595 596 597
          598 599 600 601 602 603
          604 605 606 607 608 609
          610 611 612 613 614 615
          616 617 656 657 663 681
          689 690 691 1138 1139 1140
          1141 1142 1143 1144 1145 1146
          1147 1148 1149 1150 1151 1152
          1153 1154 1155 1156 1157 1158
          1159 1160 1161 1162 1163 1164
          1165 1176 1178 1180 1183 1185
          1186 1187 1188 1189 1190 1191
          1192 1193 1194 1195 1196 198
          262 339 263 264 344 341
          340 342 350 349 351 219
          562 580 581 563 586 567
          255 210 259 256 650 651
          658 659 652 660 661 662
          664 655 665 1170 1177 1171
          1179 1181 1175 1182 679 680
          1184 428 466 470
        </DataArray>
        <DataArray type="Float64" Name="bounds" format="ascii" RangeMin="0" RangeMax="0">
          0 0 0 0 0 0
          0 0 0 0 0 0
          0 0 0 0 0 0
          0 0 0 0 0 0
          0 0 0 0 0 0
          0 0 0 0 0 0
          0 0 0 0 0 0
          0 0 0 0 0 0
          0 0 0 0 0 0
          0 0 0 0 0 0
          0 0 0 0 0 0
          0 0 0 0 0 0
          0 0 0 0 0 0
          0 0 0 0 0 0
          0 0 0 0 0 0
          0 0 0 0 0 0
          0 0 0 0 0 0
          0 0 0 0 0 0
          0 0 0 0 0 0
          0 0 0 0 0 0
          0 0 0 0 0 0
          0 0 0 0 0 0
          0 0 0 0 0 0
          0 0 0 0 0 0
          0 0 0 0 0 0
          0 0 0 0 0 0
          0 0 0 0 0 0
          0 0 0 0 0 0
          0 0 0 0 0 0
          0 0 0 0 0 0
          0 0 0 0 0 0
          0 0 0 0 0 0
          0 0 0 0 0 0
          0 0 0 0 0 0
          0 0 0 0 0 0
          0 0 0 0 0 0
          0 0 0 0 0 0
          0 0 0 0 0 0
          0 0 0 0 0 0
          0 0 0 0 0 0
          0 0 0 0 0 0
          0 0 0 0 0 0
          0 0 0 0 0 0
          0 0 0 0 0 0
          0 0 0 0 0 0
          0 0 0 0 0 0
          0 0 0 0 0 0
          0 0 0 0 0 0
          0 0 0 0 0 0
          0 0 0 0 0 0
          0 0 0 0 0 0
          0 0 0 0 0 0
          0 0 0 0 0 0
          0 0 0 0 0 0
          0 0 0 0 0 0
          0 0 0 0 0 0
          0 0 0 0 0 0
          0 0 0 0 0 0
          0 0 0 0 0 0
          0 0 0 0 0 0
          0 0 0 0 0 0
          0 0 0 0 0 0
          0 0 0 0 0 0
          0 0 0 0 0 0
          0 0 0 0
        </DataArray>
        <DataArray type="Float64" Name="gradient_error" format="ascii" RangeMin="9.606895487253975e-12" RangeMax="2.0151932465108313e-7">
          2.532379888305034e-9 2.1721344056094325e-9 1.6777860803455425e-9 1.8687237643181954e-9 4.966993837323035e-9 3.907478626424867e-9
          2.5827987512056817e-9 3.1449878509479974e-9 1.4151193126977826e-9 1.2796245448265399e-9 2.174673749201458e-9 1.6637960561903107e-9
          1.0527997907013545e-9 1.0882187818502568e-9 1.3789604624542407e-9 1.243949412234963e-9 1.1104847128232408e-9 1.1146243423204678e-9
          1.161005955343611e-9 1.1332235455779777e-9 1.1251394272528747e-9 1.1200436169126464e-9 1.0837901859271747e-9 1.0960605565773595e-9
          1.1140368216448477e-9 1.113317097671816e-9 1.1082985477255192e-9 1.1104248162021445e-9 1.1119840974774232e-9 1.112158006250402e-9
          1.1138790850364783e-9 1.1136802844409266e-9 1.1124538594453934e-9 1.1125572367618528e-9 1.1132663778213107e-9 1.1131013220289974e-9
          1.1834377550816525e-9 1.2050676403313564e-9 1.2581188759864963e-9 1.3229818645729596e-9 1.1441297769552972e-9 1.1529183631791642e-9
          1.1236377729991586e-9 1.1089383620156857e-9 1.1187639718176943e-9 1.1054411358123444e-9 1.1149478065724182e-9 1.1083309272275442e-9
          1.1125973736987842e-9 1.1125510846787702e-9 1.1123319150233806e-9 1.1134814838453744e-9 1.112660614078312e-9 1.1129362662366841e-9
          2.3480399852608334e-8 1.8112766583786618e-8 1.1089090769858946e-8 1.4107541420304611e-8 7.97629574288385e-9 5.354031569964517e-9
          2.6638021068846545e-9 2.2372980031850907e-9 1.7345599465181718e-9 1.5744102555674047e-9 1.261449334431253e-9 1.2352644972421649e-9
          1.1397901592689044e-9 1.1335371970685227e-9 1.1053213656739976e-9 1.1084204380199032e-9 1.1049872316028622e-9 1.1086479511067078e-9
          4.0654149559312715e-9 4.7346829880008905e-9 2.7317673970451847e-9 1.810793899485527e-9 1.4142605646166373e-9 1.2090796600530767e-9
          1.1272842348681408e-9 1.111519510365809e-9 1.1123086706105533e-9 1.1050035795133712e-7 8.530755139545207e-8 5.305064083462212e-8
          6.761128065270605e-8 3.550526405461973e-8 2.4107052752845215e-8 8.770627680692994e-9 7.703628136261596e-9 4.38674882879635e-9
          3.996239426030955e-9 1.6043283659727318e-9 1.7601335860898836e-9 1.085361705432097e-9 1.166823997526971e-9 1.1071753689978076e-9
          1.1332475074208553e-9 1.1242584931977385e-9 1.1437871232765917e-9 2.079373027379217e-8 2.4722203354074972e-8 1.270884145107069e-8
          6.636628591830196e-9 3.605730023265561e-9 1.915938806207035e-9 1.248286289621845e-9 1.159319645843903e-9 1.1633157533554449e-9
          4.689285620970186e-9 4.4634954233314604e-9 6.155810188235872e-10 1.582673254137532e-9 9.202622707156549e-10 1.1003958775760896e-9
          1.2187703620104255e-9 1.2210101118620261e-9 7.124186924750067e-9 2.4866867146588858e-9 1.2754791360633884e-9 1.2232498617136267e-9
          2.892268960012586e-8 3.9777548366669606e-8 4.845344806321225e-10 2.632155927475981e-9 4.458991531054083e-10 6.412868246175752e-10
          6.908319271123411e-10 7.873330725687709e-10 6.815450859508091e-9 1.918794121515326e-9 8.243374596748605e-10 8.90855231959094e-10
          1.6983786420145762e-8 1.5216158381596857e-9 2.325670622260131e-11 2.399139776336059e-10 3.2104319016112176e-11 3.033440872897367e-10
          1.1517165903663378e-9 2.406854297102761e-10 3.155642488247587e-10 5.504368243757738e-10 5.084546003044248e-8 4.2499429576583265e-8
          2.203626076864216e-9 1.08302198192152e-8 2.179598587731765e-8 1.6542060919422238e-9 2.250057447681689e-9 1.3129654955604785e-8
          1.1438738511260332e-8 2.1499053847221634e-9 2.781219200711936e-9 5.51420571938502e-9 2.1119081340003684e-10 3.322478665125672e-10
          1.0462510686420873e-10 2.7040120110699026e-10 1.6280290265767564e-10 8.98513278069044e-11 1.1260639713956475e-10 4.1889397860629764e-10
          3.819110394710092e-10 1.3644339347501328e-10 1.584814973250824e-10 8.211561273294345e-11 2.9034494015328384e-10 6.299558293954653e-9
          4.44791421607458e-9 9.495868557256078e-10 5.2353360490905925e-9 1.0681036656298572e-8 2.0979600282418044e-9 1.6919681609474123e-8
          2.005500291613994e-10 2.957004413875453e-10 9.404807001343288e-11 4.0012334182863076e-11 7.372168071028817e-11 4.0191280969968444e-10
          4.6167083900989607e-10 1.3583529897393257e-10 6.742247700821178e-11 4.505090257727291e-10 1.4103995149745299e-9 2.4982732902344675e-9
          2.109878277726123e-9 5.346284803023311e-9 7.507136541908867e-10 8.168962731601435e-10 6.527110234762314e-10 5.152298865350718e-10
          1.5248384000364863e-9 2.2970457429466056e-10 2.809357040477716e-9 8.194296315812155e-9 8.830788921294002e-10 3.777487495939122e-10
          1.8853504002976774e-8 1.027754327136356e-8 9.941885577222631e-9 1.9717984283175108e-8 5.331869078378818e-9 9.606227883081703e-9
          6.0600208888197055e-9 9.59456604988953e-9 1.5939588827548156e-9 2.372430336961298e-9 2.2509012758531877e-9 2.816711468278304e-9
          1.2067459885406854e-9 1.3129111210959356e-8 3.150901791167781e-9 3.3825216607034203e-9 4.7890852985715565e-9 1.4803670805546777e-9
          7.055990920090786e-10 1.48831067476889e-9 4.763890535198608e-9 2.4960559174707232e-8 1.6280052161291555e-8 7.599545147875878e-9
          1.2524397528946795e-9 1.0420257820446062e-9 2.2182402548295474e-9 2.2548401308343246e-9 3.0053744630718977e-10 3.8454235985430813e-10
          4.660108993827773e-10 8.31611811194533e-10 2.2914400068391013e-9 5.474794389112465e-10 1.387035079403461e-10 1.6366928162586644e-10
          2.1002109016477429e-10 2.2240725768131103e-10 1.6726631648871472e-10 1.7482435508972096e-10 1.8276475491187886e-10 1.8863505531138677e-10
          2.3479342519784783e-10 1.9070515473403675e-10 2.0743475923908595e-10 2.273954837842375e-10 1.0040179004172551e-10 1.080506679032858e-10
          6.201102731605159e-11 8.390520254175538e-11 7.30753952954849e-11 2.4735620832938905e-10 1.1569954576484608e-10 1.0579937776745919e-10
          1.6203530752549006e-8 3.3983180524846914e-9 5.35355038484713e-9 2.069586528359434e-9 1.3165862379157903e-8 1.110024955302017e-8
          7.308782717209569e-9 9.034636726882436e-9 8.259827072215417e-10 9.633063742790727e-10 4.200010624380976e-9 3.4904966819951423e-9
          4.4779281819775874e-10 1.0730666218580672e-9 9.422292537876912e-10 1.1006300413366039e-9 2.780982739609308e-9 8.113918857173155e-10
          1.7494984751157789e-10 1.6293512413897954e-10 2.4505892987458186e-10 2.212125237235814e-10 8.569490200124704e-11 8.935616487064343e-11
          1.031777573466743e-10 1.5092040076638116e-10 1.9736611757258092e-10 1.169993498227052e-10 3.525222528765548e-10 4.826348167456274e-10
          1.5381988503629725e-10 1.7612065520958418e-10 2.771508699230611e-10 3.889069502553615e-10 1.5893496932184776e-10 6.127473806146999e-10
          1.9842142538287108e-10 5.006630305876618e-10 4.2741891629345455e-8 3.843185070838095e-8 2.7616348603099594e-8 3.656062984958038e-9
          8.872643010718551e-10 1.1106051280352742e-9 4.913236984786276e-10 1.0188068276382867e-10 9.488354890135418e-11 6.903026055438605e-11
          7.135175500627123e-11 8.97235356569187e-11 6.442443430346207e-11 6.69506851334123e-11 8.788641503887971e-11 7.367324945815642e-11
          6.947693596336252e-11 3.617983834494345e-11 4.781996111118829e-11 4.417783460990591e-11 5.946008387743312e-11 1.9235060163212882e-11
          2.304025143713311e-11 1.752364674391083e-11 2.557728995658375e-11 1.7374429233577053e-11 9.606895487253975e-12 1.767558464846996e-11
          2.6845442711053336e-11 3.3630933169256657e-11 2.5744273809685947e-11 1.581223332460878e-11 2.8114328476034382e-11 1.7976740063362873e-11
          4.0416423627459984e-11 1.5606940786324067e-8 8.838315303459263e-9 1.010299415386538e-8 4.2477710773350776e-9 1.7288755392104047e-9
          3.602573675639985e-9 2.941151782215831e-9 5.5252213594434215e-9 2.2012435485637676e-9 6.594673675271388e-10 1.0788606861408096e-9
          3.8820064432237824e-10 5.077855083505103e-10 5.819669562991484e-10 8.183448129317155e-10 4.991314633511647e-10 1.9474589660472867e-7
          4.053412374809265e-8 4.287830816621341e-8 1.0102984888031658e-7 4.158627153795996e-8 2.9746670891077167e-8 6.88885688687589e-8
          7.79545710155843e-8 1.2496711841206765e-7 1.7197966580855095e-7 9.48988295713044e-8 4.063983777917756e-8 6.666994469616212e-8
          6.236826699005136e-8 3.3938101018883804e-8 2.6001675308453013e-8 4.8315686562844566e-8 1.8065249598022225e-8 3.4263106135637776e-8
          6.597183799415904e-8 2.4409391047599492e-8 1.78827025584612e-8 4.565184215440377e-8 6.110845124844578e-8 2.0151932465108313e-7
          1.606494694870272e-7 1.3777673076587735e-7 1.7597549993342607e-7 2.151646515310497e-8 7.714337056556937e-8 6.530419180050591e-8
          8.470054112192202e-8 1.1468405361807196e-7 4.2546334394324294e-8 2.5929119682010367e-8 3.741676639051308e-8 5.544679233933937e-8
          2.1838016363459818e-8 2.033644258190962e-8 3.1957152658303903e-8 1.1654143268176209e-8 7.520634267340966e-9 1.0581742883684515e-8
          1.0148555911613255e-8 5.7239630846377075e-8 1.4053458663089068e-8 1.3881322314678554e-8
        </DataArray>
        <DataArray type="Float64" Name="gradient_matprop_error" format="ascii" RangeMin="0" RangeMax="0">
          0 0 0 0 0 0
          0 0 0 0 0 0
          0 0 0 0 0 0
          0 0 0 0 0 0
          0 0 0 0 0 0
          0 0 0 0 0 0
          0 0 0 0 0 0
          0 0 0 0 0 0
          0 0 0 0 0 0
          0 0 0 0 0 0
          0 0 0 0 0 0
          0 0 0 0 0 0
          0 0 0 0 0 0
          0 0 0 0 0 0
          0 0 0 0 0 0
          0 0 0 0 0 0
          0 0 0 0 0 0
          0 0 0 0 0 0
          0 0 0 0 0 0
          0 0 0 0 0 0
          0 0 0 0 0 0
          0 0 0 0 0 0
          0 0 0 0 0 0
          0 0 0 0 0 0
          0 0 0 0 0 0
          0 0 0 0 0 0
          0 0 0 0 0 0
          0 0 0 0 0 0
          0 0 0 0 0 0
          0 0 0 0 0 0
          0 0 0 0 0 0
          0 0 0 0 0 0
          0 0 0 0 0 0
          0 0 0 0 0 0
          0 0 0 0 0 0
          0 0 0 0 0 0
          0 0 0 0 0 0
          0 0 0 0 0 0
          0 0 0 0 0 0
          0 0 0 0 0 0
          0 0 0 0 0 0
          0 0 0 0 0 0
          0 0 0 0 0 0
          0 0 0 0 0 0
          0 0 0 0 0 0
          0 0 0 0 0 0
          0 0 0 0 0 0
          0 0 0 0 0 0
          0 0 0 0 0 0
          0 0 0 0 0 0
          0 0 0 0 0 0
          0 0 0 0 0 0
          0 0 0 0 0 0
          0 0 0 0 0 0
          0 0 0 0 0 0
          0 0 0 0 0 0
          0 0 0 0 0 0
          0 0 0 0 0 0
          0 0 0 0 0 0
          0 0 0 0 0 0
          0 0 0 0 0 0
          0 0 0 0 0 0
          0 0 0 0 0 0
          0 0 0 0 0 0
          0 0 0 0
        </DataArray>
        <DataArray type="Float64" Name="initial_marker" format="ascii" RangeMin="0" RangeMax="0">
          0 0 0 0 0 0
          0 0 0 0 0 0
          0 0 0 0 0 0
          0 0 0 0 0 0
          0 0 0 0 0 0
          0 0 0 0 0 0
          0 0 0 0 0 0
          0 0 0 0 0 0
          0 0 0 0 0 0
          0 0 0 0 0 0
          0 0 0 0 0 0
          0 0 0 0 0 0
          0 0 0 0 0 0
          0 0 0 0 0 0
          0 0 0 0 0 0
          0 0 0 0 0 0
          0 0 0 0 0 0
          0 0 0 0 0 0
          0 0 0 0 0 0
          0 0 0 0 0 0
          0 0 0 0 0 0
          0 0 0 0 0 0
          0 0 0 0 0 0
          0 0 0 0 0 0
          0 0 0 0 0 0
          0 0 0 0 0 0
          0 0 0 0 0 0
          0 0 0 0 0 0
          0 0 0 0 0 0
          0 0 0 0 0 0
          0 0 0 0 0 0
          0 0 0 0 0 0
          0 0 0 0 0 0
          0 0 0 0 0 0
          0 0 0 0 0 0
          0 0 0 0 0 0
          0 0 0 0 0 0
          0 0 0 0 0 0
          0 0 0 0 0 0
          0 0 0 0 0 0
          0 0 0 0 0 0
          0 0 0 0 0 0
          0 0 0 0 0 0
          0 0 0 0 0 0
          0 0 0 0 0 0
          0 0 0 0 0 0
          0 0 0 0 0 0
          0 0 0 0 0 0
          0 0 0 0 0 0
          0 0 0 0 0 0
          0 0 0 0 0 0
          0 0 0 0 0 0
          0 0 0 0 0 0
          0 0 0 0 0 0
          0 0 0 0 0 0
          0 0 0 0 0 0
          0 0 0 0 0 0
          0 0 0 0 0 0
          0 0 0 0 0 0
          0 0 0 0 0 0
          0 0 0 0 0 0
          0 0 0 0 0 0
          0 0 0 0 0 0
          0 0 0 0 0 0
          0 0 0 0
        </DataArray>
        <DataArray type="Float64" Name="markers_norefine" format="ascii" RangeMin="0" RangeMax="0">
          0 0 0 0 0 0
          0 0 0 0 0 0
          0 0 0 0 0 0
          0 0 0 0 0 0
          0 0 0 0 0 0
          0 0 0 0 0 0
          0 0 0 0 0 0
          0 0 0 0 0 0
          0 0 0 0 0 0
          0 0 0 0 0 0
          0 0 0 0 0 0
          0 0 0 0 0 0
          0 0 0 0 0 0
          0 0 0 0 0 0
          0 0 0 0 0 0
          0 0 0 0 0 0
          0 0 0 0 0 0
          0 0 0 0 0 0
          0 0 0 0 0 0
          0 0 0 0 0 0
          0 0 0 0 0 0
          0 0 0 0 0 0
          0 0 0 0 0 0
          0 0 0 0 0 0
          0 0 0 0 0 0
          0 0 0 0 0 0
          0 0 0 0 0 0
          0 0 0 0 0 0
          0 0 0 0 0 0
          0 0 0 0 0 0
          0 0 0 0 0 0
          0 0 0 0 0 0
          0 0 0 0 0 0
          0 0 0 0 0 0
          0 0 0 0 0 0
          0 0 0 0 0 0
          0 0 0 0 0 0
          0 0 0 0 0 0
          0 0 0 0 0 0
          0 0 0 0 0 0
          0 0 0 0 0 0
          0 0 0 0 0 0
          0 0 0 0 0 0
          0 0 0 0 0 0
          0 0 0 0 0 0
          0 0 0 0 0 0
          0 0 0 0 0 0
          0 0 0 0 0 0
          0 0 0 0 0 0
          0 0 0 0 0 0
          0 0 0 0 0 0
          0 0 0 0 0 0
          0 0 0 0 0 0
          0 0 0 0 0 0
          0 0 0 0 0 0
          0 0 0 0 0 0
          0 0 0 0 0 0
          0 0 0 0 0 0
          0 0 0 0 0 0
          0 0 0 0 0 0
          0 0 0 0 0 0
          0 0 0 0 0 0
          0 0 0 0 0 0
          0 0 0 0 0 0
          0 0 0 0
        </DataArray>
        <DataArray type="Float64" Name="markers_mustrefine" format="ascii" RangeMin="0" RangeMax="0">
          0 0 0 0 0 0
          0 0 0 0 0 0
          0 0 0 0 0 0
          0 0 0 0 0 0
          0 0 0 0 0 0
          0 0 0 0 0 0
          0 0 0 0 0 0
          0 0 0 0 0 0
          0 0 0 0 0 0
          0 0 0 0 0 0
          0 0 0 0 0 0
          0 0 0 0 0 0
          0 0 0 0 0 0
          0 0 0 0 0 0
          0 0 0 0 0 0
          0 0 0 0 0 0
          0 0 0 0 0 0
          0 0 0 0 0 0
          0 0 0 0 0 0
          0 0 0 0 0 0
          0 0 0 0 0 0
          0 0 0 0 0 0
          0 0 0 0 0 0
          0 0 0 0 0 0
          0 0 0 0 0 0
          0 0 0 0 0 0
          0 0 0 0 0 0
          0 0 0 0 0 0
          0 0 0 0 0 0
          0 0 0 0 0 0
          0 0 0 0 0 0
          0 0 0 0 0 0
          0 0 0 0 0 0
          0 0 0 0 0 0
          0 0 0 0 0 0
          0 0 0 0 0 0
          0 0 0 0 0 0
          0 0 0 0 0 0
          0 0 0 0 0 0
          0 0 0 0 0 0
          0 0 0 0 0 0
          0 0 0 0 0 0
          0 0 0 0 0 0
          0 0 0 0 0 0
          0 0 0 0 0 0
          0 0 0 0 0 0
          0 0 0 0 0 0
          0 0 0 0 0 0
          0 0 0 0 0 0
          0 0 0 0 0 0
          0 0 0 0 0 0
          0 0 0 0 0 0
          0 0 0 0 0 0
          0 0 0 0 0 0
          0 0 0 0 0 0
          0 0 0 0 0 0
          0 0 0 0 0 0
          0 0 0 0 0 0
          0 0 0 0 0 0
          0 0 0 0 0 0
          0 0 0 0 0 0
          0 0 0 0 0 0
          0 0 0 0 0 0
          0 0 0 0 0 0
          0 0 0 0
        </DataArray>
        <DataArray type="Float64" Name="gradient_marker" format="ascii" RangeMin="0" RangeMax="1">
          1 1 1 1 1 1
          1 1 1 1 1 1
          1 1 1 1 1 1
          1 1 1 1 1 1
          1 1 1 1 1 1
          1 1 1 1 1 1
          1 1 1 1 1 1
          1 1 1 1 1 1
          1 1 1 1 1 1
          1 1 1 1 1 1
          1 1 1 1 1 1
          1 1 1 1 1 1
          1 1 1 1 1 1
          1 1 1 1 1 1
          1 1 1 1 1 1
          1 1 1 1 1 1
          1 1 1 1 1 1
          1 1 1 1 1 1
          1 1 1 1 1 1
          1 1 1 1 1 1
          1 1 1 1 1 1
          1 1 1 1 1 1
          1 1 1 1 1 1
          1 1 1 1 1 1
          1 1 0.75 1 1 1
          1 1 1 1 1 1
          1 1 1 1 1 1
          1 1 1 1 1 1
          1 1 1 1 1 1
          1 1 1 1 1 1
          1 1 1 1 1 1
          1 1 1 1 1 1
          1 1 1 1 1 1
          1 1 1 1 1 1
          1 1 1 1 1 1
          1 1 1 1 1 1
          1 1 1 1 1 1
          1 1 1 1 1 1
          1 1 1 1 1 1
          1 1 1 1 1 1
          1 1 1 1 1 1
          1 1 1 1 1 1
          1 1 1 1 1 1
          1 1 1 1 1 1
          1 1 1 1 1 1
          1 1 1 1 1 1
          1 1 1 1 1 1
          1 1 1 1 1 1
          1 1 0 0 0 1
          1 1 1 1 1 1
          1 1 1 1 1 1
          1 1 1 1 1 1
          1 1 1 1 1 1
          1 1 1 1 1 1
          1 0 0 0 0.5 1
          1 0.5 0.5 1 1 1
          1 1 1 1 1 0.875
          0.6666666666666666 1 0.75 0.5 1 1
          1 1 1 1 1 0.5
          1 1 1 1 1 1
          0.75 0.5 0.5 0.5 0.25 0.75
          0.5 0.5 0.625 0 0.25 0.25
          0.375 0.5 0.125 0 0.125 0.25
          0 0 0 0 0.5 0.5
          0.5 0.125 0.5 0.5
        </DataArray>
        <DataArray type="Float64" Name="gradient_matprop_marker" format="ascii" RangeMin="0" RangeMax="0">
          0 0 0 0 0 0
          0 0 0 0 0 0
          0 0 0 0 0 0
          0 0 0 0 0 0
          0 0 0 0 0 0
          0 0 0 0 0 0
          0 0 0 0 0 0
          0 0 0 0 0 0
          0 0 0 0 0 0
          0 0 0 0 0 0
          0 0 0 0 0 0
          0 0 0 0 0 0
          0 0 0 0 0 0
          0 0 0 0 0 0
          0 0 0 0 0 0
          0 0 0 0 0 0
          0 0 0 0 0 0
          0 0 0 0 0 0
          0 0 0 0 0 0
          0 0 0 0 0 0
          0 0 0 0 0 0
          0 0 0 0 0 0
          0 0 0 0 0 0
          0 0 0 0 0 0
          0 0 0 0 0 0
          0 0 0 0 0 0
          0 0 0 0 0 0
          0 0 0 0 0 0
          0 0 0 0 0 0
          0 0 0 0 0 0
          0 0 0 0 0 0
          0 0 0 0 0 0
          0 0 0 0 0 0
          0 0 0 0 0 0
          0 0 0 0 0 0
          0 0 0 0 0 0
          0 0 0 0 0 0
          0 0 0 0 0 0
          0 0 0 0 0 0
          0 0 0 0 0 0
          0 0 0 0 0 0
          0 0 0 0 0 0
          0 0 0 0 0 0
          0 0 0 0 0 0
          0 0 0 0 0 0
          0 0 0 0 0 0
          0 0 0 0 0 0
          0 0 0 0 0 0
          0 0 0 0 0 0
          0 0 0 0 0 0
          0 0 0 0 0 0
          0 0 0 0 0 0
          0 0 0 0 0 0
          0 0 0 0 0 0
          0 0 0 0 0 0
          0 0 0 0 0 0
          0 0 0 0 0 0
          0 0 0 0 0 0
          0 0 0 0 0 0
          0 0 0 0 0 0
          0 0 0 0 0 0
          0 0 0 0 0 0
          0 0 0 0 0 0
          0 0 0 0 0 0
          0 0 0 0
        </DataArray>
        <DataArray type="Float64" Name="combo" format="ascii" RangeMin="0" RangeMax="1">
          1 1 1 1 1 1
          1 1 1 1 1 1
          1 1 1 1 1 1
          1 1 1 1 1 1
          1 1 1 1 1 1
          1 1 1 1 1 1
          1 1 1 1 1 1
          1 1 1 1 1 1
          1 1 1 1 1 1
          1 1 1 1 1 1
          1 1 1 1 1 1
          1 1 1 1 1 1
          1 1 1 1 1 1
          1 1 1 1 1 1
          1 1 1 1 1 1
          1 1 1 1 1 1
          1 1 1 1 1 1
          1 1 1 1 1 1
          1 1 1 1 1 1
          1 1 1 1 1 1
          1 1 1 1 1 1
          1 1 1 1 1 1
          1 1 1 1 1 1
          1 1 1 1 1 1
          1 1 0.75 1 1 1
          1 1 1 1 1 1
          1 1 1 1 1 1
          1 1 1 1 1 1
          1 1 1 1 1 1
          1 1 1 1 1 1
          1 1 1 1 1 1
          1 1 1 1 1 1
          1 1 1 1 1 1
          1 1 1 1 1 1
          1 1 1 1 1 1
          1 1 1 1 1 1
          1 1 1 1 1 1
          1 1 1 1 1 1
          1 1 1 1 1 1
          1 1 1 1 1 1
          1 1 1 1 1 1
          1 1 1 1 1 1
          1 1 1 1 1 1
          1 1 1 1 1 1
          1 1 1 1 1 1
          1 1 1 1 1 1
          1 1 1 1 1 1
          1 1 1 1 1 1
          1 1 0 0 0 1
          1 1 1 1 1 1
          1 1 1 1 1 1
          1 1 1 1 1 1
          1 1 1 1 1 1
          1 1 1 1 1 1
          1 0 0 0 0.5 1
          1 0.5 0.5 1 1 1
          1 1 1 1 1 0.875
          0.6666666666666666 1 0.75 0.5 1 1
          1 1 1 1 1 0.5
          1 1 1 1 1 1
          0.75 0.5 0.5 0.5 0.25 0.75
          0.5 0.5 0.625 0 0.25 0.25
          0.375 0.5 0.125 0 0.125 0.25
          0 0 0 0 0.5 0.5
          0.5 0.125 0.5 0.5
        </DataArray>
        <DataArray type="Float64" Name="dHdT" format="ascii" RangeMin="25.80843196397933" RangeMax="27.498384160218187">
          25.81165488000589 25.81162449660438 25.811590991344932 25.81160684316515 25.811506434366994 25.811547666983728
          25.81159536956941 25.811573464107585 25.811567413170593 25.81156123821826 25.811624820535698 25.81163642779311
          25.81154511900781 25.811549450384405 25.81165862804428 25.811654957378927 25.811552206274698 25.81155283335767
          25.811653915678797 25.811653262160657 25.811554112858666 25.811553643701863 25.81165223658842 25.81165279382882
          25.81155311065274 25.811553044961084 25.811653502625816 25.811653623663734 25.811552925852318 25.81155294159177
          25.811653836033074 25.81165383371503 25.81155296844441 25.81155297780676 25.81165382325139 25.81165381764179
          25.811557486085484 25.811558806324417 25.811643072155093 25.811640493848174 25.811555063265928 25.811648035050524
          25.811553781761 25.811651286713577 25.811553460440642 25.811652608642525 25.81155317454506 25.81165335106922
          25.81155297926943 25.811653744701655 25.811552957331223 25.811653831396995 25.811552987169108 25.81165381203219
          25.812593775332505 25.81239677459309 25.81216175645671 25.812267980075564 25.812027188852575 25.811961703085668
          25.811853151216052 25.811863746815572 25.811859948123697 25.81186201399708 25.811863495813018 25.81186110755516
          25.811856886325266 25.811856497487874 25.81185488018393 25.811855139629024 25.811854781676587 25.811855091696128
          25.811926738320324 25.811942184818626 25.811896217318765 25.81187434241509 25.81186407987046 25.8118587192973
          25.811856108650474 25.81185539907412 25.811855401715665 25.80843196397933 25.809342698733452 25.81047199332411
          25.80997114167983 25.811060984358594 25.81142318198094 25.81193720735327 25.8119321739023 25.811993288773728
          25.811996960145482 25.812006418496267 25.812022244578095 25.812042959346147 25.812049213155955 25.81205523465549
          25.812058052076345 25.812056689540693 25.81205907551713 25.81160128791477 25.81151031938033 25.81178537960328
          25.811927140451335 25.812000631517236 25.812038070659927 25.81205546696577 25.812060869497213 25.812061461493563
          25.812573254286583 25.81234620936698 25.81216854107706 25.812258278888255 25.812249776936408 25.812266541255443
          25.812268641825632 25.812273030783235 25.812408051742125 25.81230888253574 25.812280262085785 25.812277419740834
          25.81092086401585 25.81864044899221 25.81271039725294 25.812911391389516 25.81247653406559 25.81248040423313
          25.812450729292088 25.812460156262745 25.812683163993178 25.812494774033755 25.812464945807037 25.812467098808877
          25.829140358856662 25.813877434249758 25.81257946018897 25.81260143885443 25.812568419936266 25.812561074621023
          25.812584102768948 25.812570712406632 25.812554841908387 25.81254611458716 25.819427463798526 25.82669896898667
          25.812839323558286 25.81459331892239 25.841878915421475 25.812958614115715 25.815048483282965 25.814936850937546
          25.816617908434388 25.813447099924844 25.82044768455389 25.817841092904715 25.812505936833485 25.812557330947158
          25.812690023226942 25.812756638924025 25.812516339886184 25.812563894597435 25.812579717855822 25.8126026216349
          25.81269599424203 25.812588729400787 25.812839837936806 25.812609537314636 25.81273677181917 25.83650386916855
          25.82884088458732 25.815417848803435 25.82395833050563 25.84415488624181 25.817968138546078 25.86937579935772
          25.813110928839574 25.81323898029642 25.812767754048163 25.8126865384486 25.812752166716788 25.81339011722896
          25.813646047332604 25.812876809450326 25.812743547581817 25.813787793283197 25.812886428977762 25.813041856300416
          25.813051197678625 25.813625977377797 25.812690069546296 25.812735392822283 25.812536502273545 25.812551553817237
          25.812623278794838 25.812547861083573 25.813215966379495 25.814210098455177 25.81278071609827 25.812566605360928
          25.836226855352088 25.827086140462484 25.827841314006225 25.841205423504487 25.820928209237255 25.82859648754997
          25.82097335641684 25.825467497704498 25.81520518938398 25.816249715829464 25.816240320806834 25.816900503608476
          25.81445433519677 25.829961638992145 25.81729424227494 25.81756068641012 25.863527457589758 25.82848981369194
          25.819589240403555 25.82765567122204 25.812821415593753 25.808665915771115 25.81018218106906 25.811698446367004
          25.81197029191388 25.81214272954705 25.811853280900287 25.812066383879277 25.812250175677185 25.812285655537544
          25.812347122485377 25.812315167180216 25.812279486858266 25.812408589433215 25.812293683166203 25.81230410525908
          25.812361964407273 25.812377672468784 25.812315494544467 25.812371818764852 25.812380264291342 25.812314527351955
          25.812393380530303 25.81238870981783 25.812569600550493 25.81259715477943 25.812540896842116 25.812564527006668
          25.81252720327194 25.812546965631274 25.812543741072673 25.81262470900836 25.81258815717122 25.812566727990607
          25.82133593044762 25.81411234662172 25.81625716021921 25.814502592951044 25.829920423756455 25.82718858885677
          25.818401973816695 25.824456753957087 25.813627105913486 25.81376921901151 25.818369764247315 25.81755684722984
          25.81310440696326 25.81415228487484 25.814032882160287 25.813911332109534 25.816743930212358 25.813913479445745