<?xml version="1.0"?>
<VTKFile type="UnstructuredGrid" version="0.1" byte_order="LittleEndian" header_type="UInt32" compressor="vtkZLibDataCompressor">
  <UnstructuredGrid>
    <Piece NumberOfPoints="343" NumberOfCells="205">
      <PointData>
        <DataArray type="Int32" Name="libmesh_node_id" format="ascii" RangeMin="253" RangeMax="3233">
          253 713 714 715 716 719
          720 721 1302 1303 1304 1305
          1306 1307 1308 1309 1310 1311
          1312 1313 1314 1315 1316 1317
          1318 1319 1320 1321 1334 1336
          1337 1338 1339 1340 1341 1342
          1343 1344 1345 1346 1347 1348
          1349 1350 1351 1352 1353 1354
          1355 1364 1368 2270 2273 2274
          2276 2277 2278 2279 2280 2283
          2288 2289 2290 2291 2292 2293
          2296 2298 2299 2300 2301 2302
          2303 2304 2305 2306 2307 2308
          2309 2311 2313 2314 2315 2316
          2317 2318 2319 2320 2321 2322
          2323 2324 2325 2326 2327 2328
          2329 2330 2331 2332 2333 2334
          2335 2336 2337 2338 2339 2340
          2341 2342 2343 2344 2345 2346
          2347 2348 2349 2350 2351 2352
          2353 2354 2355 2356 2357 2358
          2359 2360 2361 2362 2363 2364
          2365 2366 2367 2368 2369 2370
          2371 2372 2373 2374 2375 2376
          2377 2378 2379 2380 2381 2382
          2383 2384 2385 2386 2387 2437
          2443 2444 2467 2471 2473 2474
          2475 2476 2477 2478 2479 2496
          2497 2499 2502 2504 2505 2506
          2507 2508 2509 2510 2511 2512
          2513 2515 2517 2519 2521 2522
          2523 2524 2525 2526 2527 2530
          2531 2533 2536 2538 2539 2540
          2541 2542 2543 2544 2545 2546
          2547 2549 2551 2553 2555 2556
          2557 2558 2559 2560 2561 2562
          2563 2564 2565 2566 2567 2568
          2569 2570 2571 2572 2573 2574
          2575 2576 2577 2578 2579 2580
          2581 2582 2583 2584 2585 2586
          2587 2588 2589 2590 2591 2592
          2593 2594 2595 2596 2597 2598
          2599 2600 2601 2602 2603 2604
          2605 2606 2607 2608 2609 2610
          2611 2612 2613 2614 2615 2616
          2617 2618 2619 2620 2621 2622
          2623 2624 2625 2626 2627 2628
          2629 2671 2675 2677 2678 2679
          2680 2681 2682 2683 2699 2703
          2705 2706 2707 2708 2709 2710
          2711 2866 2867 2870 2872 2873
          2875 2886 2888 2890 2892 3002
          3004 3006 3008 3063 3064 3067
          3069 3070 3072 3083 3085 3087
          3089 3097 3098 3101 3103 3104
          3106 3117 3119 3121 3123 3199
          3201 3203 3205 3227 3229 3231
          3233
        </DataArray>
        <DataArray type="Float64" Name="bounds" format="ascii" RangeMin="0" RangeMax="0">
          0 0 0 0 0 0
          0 0 0 0 0 0
          0 0 0 0 0 0
          0 0 0 0 0 0
          0 0 0 0 0 0
          0 0 0 0 0 0
          0 0 0 0 0 0
          0 0 0 0 0 0
          0 0 0 0 0 0
          0 0 0 0 0 0
          0 0 0 0 0 0
          0 0 0 0 0 0
          0 0 0 0 0 0
          0 0 0 0 0 0
          0 0 0 0 0 0
          0 0 0 0 0 0
          0 0 0 0 0 0
          0 0 0 0 0 0
          0 0 0 0 0 0
          0 0 0 0 0 0
          0 0 0 0 0 0
          0 0 0 0 0 0
          0 0 0 0 0 0
          0 0 0 0 0 0
          0 0 0 0 0 0
          0 0 0 0 0 0
          0 0 0 0 0 0
          0 0 0 0 0 0
          0 0 0 0 0 0
          0 0 0 0 0 0
          0 0 0 0 0 0
          0 0 0 0 0 0
          0 0 0 0 0 0
          0 0 0 0 0 0
          0 0 0 0 0 0
          0 0 0 0 0 0
          0 0 0 0 0 0
          0 0 0 0 0 0
          0 0 0 0 0 0
          0 0 0 0 0 0
          0 0 0 0 0 0
          0 0 0 0 0 0
          0 0 0 0 0 0
          0 0 0 0 0 0
          0 0 0 0 0 0
          0 0 0 0 0 0
          0 0 0 0 0 0
          0 0 0 0 0 0
          0 0 0 0 0 0
          0 0 0 0 0 0
          0 0 0 0 0 0
          0 0 0 0 0 0
          0 0 0 0 0 0
          0 0 0 0 0 0
          0 0 0 0 0 0
          0 0 0 0 0 0
          0 0 0 0 0 0
          0
        </DataArray>
        <DataArray type="Float64" Name="gradient_error" format="ascii" RangeMin="3.9158633502883996e-10" RangeMax="1.158408492443326e-7">
          2.6103234378609137e-8 3.979460918012262e-8 1.5136372722816717e-8 1.3254281976318065e-8 3.902411285151327e-9 4.139287367221037e-8
          3.373907347581623e-8 9.93381196839392e-9 1.1410550407048064e-7 9.676459721061146e-8 1.5135615270654317e-8 1.1918704129777566e-8
          5.787982193020184e-8 5.845726865189181e-9 1.158408492443326e-7 9.977057659825206e-8 3.2630523708213624e-8 7.65874407149694e-8
          8.549948853567398e-9 6.491347889044279e-9 3.974085220692233e-9 2.949876321283679e-9 2.892800822401664e-9 1.2546304050643574e-9
          2.5285788172445053e-8 2.0006590661895947e-8 1.0065915475733694e-8 8.475036620371928e-9 9.79085168836711e-10 5.3641579588763436e-8
          6.30313346783736e-8 4.718082704818672e-8 5.33831390142933e-8 8.462546843730901e-8 2.7437026672176837e-8 4.088806305208192e-8
          6.62934169117856e-8 5.7610194211475354e-8 9.944013472068977e-8 3.903327000120866e-8 3.684740682704204e-8 2.3101985803419237e-8
          1.9678317887003252e-8 1.620957099438021e-8 7.873881291239213e-9 3.5980164558168065e-8 4.3259010369304254e-8 2.3970983334121465e-8
          2.0065431940220848e-8 1.7743326460992777e-9 2.172445011679656e-9 2.0964307471312872e-8 7.749442826727735e-9 7.310526379546381e-9
          6.145815683675919e-9 1.9811363349459904e-8 1.8530219115693955e-8 1.4271343514115785e-8 1.5614208204966935e-8 1.3838024426420993e-8
          1.1980992901035682e-8 8.81267398553445e-9 8.121750081172519e-9 3.661615622162368e-8 3.392569863709666e-8 2.8620795330993886e-8
          5.006484352194856e-8 3.286302467573655e-8 3.0751115632017844e-8 2.6259673616787482e-8 2.483967948896707e-8 2.5875054471394276e-8
          2.0752042790398954e-8 4.560317240124294e-8 4.402714678059321e-8 3.8222127286311947e-8 3.844500209025955e-8 2.246557502008088e-8
          1.4954680015321404e-8 3.537212884570353e-8 1.9766186959226603e-8 1.516812085971445e-8 1.3103922447139641e-8 9.841141072716293e-9
          2.9166793932558386e-8 2.379910686785808e-8 1.904554175709238e-8 5.675261665205687e-9 5.331831266651784e-9 4.020825590348709e-9
          3.7656198483599614e-9 4.426336956567076e-9 3.0972347205750063e-9 1.1597149483331615e-8 1.0886445608563738e-8 7.988754376648386e-9
          8.960855194086216e-9 2.7360278638616663e-9 2.5563192059397332e-9 1.7800558755391953e-9 1.6606957080732556e-9 2.0886290666168183e-9
          1.3515381705365234e-9 5.988321273457214e-9 5.575334595330702e-9 3.690329653243674e-9 4.487301386664529e-9 3.2728257021808357e-9
          2.2573839399019473e-9 2.195239334686679e-9 1.4881409632862061e-9 6.461082004257257e-9 4.5932984358091626e-9 4.160138733706497e-9
          1.508992167392715e-9 9.719997018153515e-10 9.850315650126117e-10 6.308639697396475e-10 3.132756899882836e-9 2.0412581983288308e-9
          1.9427737738290058e-9 2.0781776818420884e-8 1.9598671509173286e-8 1.5837373776606106e-8 1.4879872017765822e-8 1.6222897595454946e-8
          1.2168624928139038e-8 3.26070665895941e-8 3.108993627330397e-8 2.4018875845706703e-8 2.6139390185297257e-8 1.150240632899113e-8
          1.0749509714991495e-8 7.856867403532006e-9 7.3063619786490454e-9 8.664264420718374e-9 5.818432752300962e-9 1.8751634829326098e-8
          1.773612703068215e-8 1.2448887490542196e-8 1.4599011411890896e-8 1.1608457973852445e-8 8.523445167870205e-9 7.277499437638674e-9
          5.197821577271827e-9 1.872411306188344e-8 1.409572045939357e-8 1.1574987834341156e-8 5.951115205747893e-9 3.939261731817814e-9
          3.555245390646723e-9 2.321347234828567e-9 1.0080866107124525e-8 6.7999947603846674e-9 5.9031404647971015e-9 1.6774054066621173e-9
          1.1117900651278566e-9 7.122190319622861e-10 2.881239537434949e-9 4.546001822091537e-9 1.9337989094413156e-9 1.2491310864651478e-9
          9.957019179709603e-10 6.355965403771644e-10 3.0884977277380732e-9 2.008972160287107e-9 1.5237934954174317e-9 5.540675516048045e-8
          5.6899203720148207e-8 5.617070024573244e-8 5.783899869370923e-8 5.2284740400957946e-8 5.3496531250766736e-8 4.8134738683306154e-8
          4.8540170165703935e-8 5.157014063290386e-8 4.500399954524096e-8 5.0840674909355336e-8 5.4960590339975315e-8 5.097265940280633e-8
          5.931193797608487e-8 4.623863063982299e-8 3.274372434750596e-8 5.647669018551164e-8 4.0644939655559146e-8 3.4020895393195963e-8
          2.6129570782861094e-8 2.132617164380477e-8 5.087132704458381e-8 4.349178272725359e-8 3.31183378775188e-8 4.66108752301259e-8
          5.51908899319657e-8 6.557851115793965e-8 5.269767791524154e-8 4.6647393120108256e-8 5.325124680445841e-8 4.3136134765904495e-8
          4.922298166113472e-8 6.219928180426416e-8 5.683236405977963e-8 4.380400806369986e-8 5.1982163902914415e-8 4.820890865144456e-8
          6.290758171401479e-8 6.193616953889116e-8 4.741612511936582e-8 6.352671449248734e-8 5.688663065420009e-8 4.9694087672368195e-8
          3.835921475431631e-8 3.202336332792775e-8 5.872033915058442e-8 5.1753512380447645e-8 4.036590847802633e-8 4.225531730829165e-8
          4.176078020330902e-8 3.4565050567701004e-8 3.3565211282495144e-8 3.7129784546253135e-8 2.8938126247465554e-8 4.354756948618139e-8
          4.6128626667366336e-8 3.981243241071515e-8 4.5719845991954814e-8 2.6202765309698345e-8 2.521882916123616e-8 1.883930711216665e-8
          1.8029596131263416e-8 2.1404961923968572e-8 1.507120968603522e-8 3.1625692631173896e-8 3.12993698103212e-8 2.261688751054458e-8
          2.7693641595574092e-8 2.713413740616496e-8 2.0685604624535564e-8 1.6620380638929e-8 1.2390453446764351e-8 3.521391399376272e-8
          2.7075606418132746e-8 2.154548096626602e-8 1.5041753286814164e-8 1.0345401278542958e-8 8.777506844670328e-9 5.8766788914722366e-9
          1.9849350639026607e-8 1.3841899203672828e-8 1.1625410901687791e-8 3.931044486948359e-8 4.502801549053662e-8 3.765956252592519e-8
          4.118045190923727e-8 5.00135420789687e-8 4.173169212712512e-8 3.700489094588175e-8 4.389267359550469e-8 4.084006793823207e-8
          5.113905011836531e-8 3.35762248236216e-8 3.4472531500718166e-8 2.543294304552843e-8 2.5407735794697154e-8 3.203125555262538e-8
          2.2848005065785835e-8 3.366686143782453e-8 3.5235748164498984e-8 2.6307310213896295e-8 3.3541712690216e-8 4.0904220061375356e-8
          3.1744855903925325e-8 2.5210369513464336e-8 1.902485188921867e-8 4.291613094376014e-8 3.345454140395983e-8 2.6574197777000796e-8
          2.3374284929000252e-8 1.639605434865501e-8 1.372892499835393e-8 9.375226677789027e-9 2.467497997734564e-8 1.7329648140697153e-8
          1.4504196840436577e-8 6.52269798718472e-9 8.455093079978411e-9 4.482459202720672e-9 2.937881955880806e-9 2.141319018017151e-9
          1.3816821098017283e-9 5.864562802703188e-9 3.86806631034505e-9 2.740487592623841e-9 9.877214788004795e-9 1.0401054357909594e-8
          6.895169356096048e-9 4.566794513312464e-9 3.1815522376962694e-9 2.064864320260874e-9 7.2778525582555306e-9 4.8272983716068435e-9
          3.344365037660452e-9 5.033754421071784e-9 4.664207819943242e-9 3.6828494683671714e-9 8.75599401396749e-9 8.16679833796332e-9
          6.499218377494895e-9 2.470838910365163e-9 1.446322019864522e-9 4.3185460994998566e-9 2.4477898484833125e-9 7.746207332898244e-10
          3.9158633502883996e-10 1.2508843208338687e-9 6.071841512361299e-10 1.290065903909312e-8 1.221267845656906e-8 9.964452754242457e-9
          1.6215379124183287e-8 1.568549072873801e-8 1.3279292061617289e-8 6.670217863658383e-9 3.7161252787453868e-9 9.05602705739702e-9
          5.018442861509777e-9 1.8003921552530836e-8 1.7790567749273438e-8 1.5595735578397194e-8 1.8500769518227e-8 1.845273890164948e-8
          1.6414186181841837e-8 1.0837368978057289e-8 6.0102436114798975e-9 1.1495417039152115e-8 6.382131154045656e-9 1.835902758717024e-9
          8.580271579610963e-10 2.426002041553407e-9 1.1031891058079115e-9 2.8720999362756017e-9 1.2849435218423937e-9 3.038996003601987e-9
          1.3523443175014674e-9
        </DataArray>
        <DataArray type="Float64" Name="gradient_matprop_error" format="ascii" RangeMin="0" RangeMax="0">
          0 0 0 0 0 0
          0 0 0 0 0 0
          0 0 0 0 0 0
          0 0 0 0 0 0
          0 0 0 0 0 0
          0 0 0 0 0 0
          0 0 0 0 0 0
          0 0 0 0 0 0
          0 0 0 0 0 0
          0 0 0 0 0 0
          0 0 0 0 0 0
          0 0 0 0 0 0
          0 0 0 0 0 0
          0 0 0 0 0 0
          0 0 0 0 0 0
          0 0 0 0 0 0
          0 0 0 0 0 0
          0 0 0 0 0 0
          0 0 0 0 0 0
          0 0 0 0 0 0
          0 0 0 0 0 0
          0 0 0 0 0 0
          0 0 0 0 0 0
          0 0 0 0 0 0
          0 0 0 0 0 0
          0 0 0 0 0 0
          0 0 0 0 0 0
          0 0 0 0 0 0
          0 0 0 0 0 0
          0 0 0 0 0 0
          0 0 0 0 0 0
          0 0 0 0 0 0
          0 0 0 0 0 0
          0 0 0 0 0 0
          0 0 0 0 0 0
          0 0 0 0 0 0
          0 0 0 0 0 0
          0 0 0 0 0 0
          0 0 0 0 0 0
          0 0 0 0 0 0
          0 0 0 0 0 0
          0 0 0 0 0 0
          0 0 0 0 0 0
          0 0 0 0 0 0
          0 0 0 0 0 0
          0 0 0 0 0 0
          0 0 0 0 0 0
          0 0 0 0 0 0
          0 0 0 0 0 0
          0 0 0 0 0 0
          0 0 0 0 0 0
          0 0 0 0 0 0
          0 0 0 0 0 0
          0 0 0 0 0 0
          0 0 0 0 0 0
          0 0 0 0 0 0
          0 0 0 0 0 0
          0
        </DataArray>
        <DataArray type="Float64" Name="initial_marker" format="ascii" RangeMin="2" RangeMax="2">
          2 2 2 2 2 2
          2 2 2 2 2 2
          2 2 2 2 2 2
          2 2 2 2 2 2
          2 2 2 2 2 2
          2 2 2 2 2 2
          2 2 2 2 2 2
          2 2 2 2 2 2
          2 2 2 2 2 2
          2 2 2 2 2 2
          2 2 2 2 2 2
          2 2 2 2 2 2
          2 2 2 2 2 2
          2 2 2 2 2 2
          2 2 2 2 2 2
          2 2 2 2 2 2
          2 2 2 2 2 2
          2 2 2 2 2 2
          2 2 2 2 2 2
          2 2 2 2 2 2
          2 2 2 2 2 2
          2 2 2 2 2 2
          2 2 2 2 2 2
          2 2 2 2 2 2
          2 2 2 2 2 2
          2 2 2 2 2 2
          2 2 2 2 2 2
          2 2 2 2 2 2
          2 2 2 2 2 2
          2 2 2 2 2 2
          2 2 2 2 2 2
          2 2 2 2 2 2
          2 2 2 2 2 2
          2 2 2 2 2 2
          2 2 2 2 2 2
          2 2 2 2 2 2
          2 2 2 2 2 2
          2 2 2 2 2 2
          2 2 2 2 2 2
          2 2 2 2 2 2
          2 2 2 2 2 2
          2 2 2 2 2 2
          2 2 2 2 2 2
          2 2 2 2 2 2
          2 2 2 2 2 2
          2 2 2 2 2 2
          2 2 2 2 2 2
          2 2 2 2 2 2
          2 2 2 2 2 2
          2 2 2 2 2 2
          2 2 2 2 2 2
          2 2 2 2 2 2
          2 2 2 2 2 2
          2 2 2 2 2 2
          2 2 2 2 2 2
          2 2 2 2 2 2
          2 2 2 2 2 2
          2
        </DataArray>
        <DataArray type="Float64" Name="markers_norefine" format="ascii" RangeMin="0" RangeMax="2">
          0 0 0 0 0 2
          0 0 0 0 0 0
          0 0 1 0.25 0 0
          0 0 0 0 0 0
          0 0 0 0 0 2
          1.75 2 0.75 0 0 2
          2 1.5 0 0.5 0 0
          0 0 0 1 0 0
          0 0 0 0 0 0
          0 0 0 0 0 0
          0 0 0 0 0 0
          1 0 0 0 0 0
          0 0.5 0.25 0 0 0
          0 0 0 0 0 0
          0 0 0 0 0 0
          0 0 0 0 0 0
          0 0 0 0 0 0
          0 0 0 0 0 0
          0 0 0 0 0 0
          0 0 0 0 0 0
          0 0 0 0 0 0
          0 0 0 0 0 0
          0 0 0 0 0 0
          0 0 0 0 0 0
          0 0 0 0 0 0
          0 0 0 0 0 0
          0 0 0 0 0 0
          0 0 0 0 0 2
          1.75 1 2 1.5 1.25 1
          0.75 0.5 0.25 2 2 1.75
          1.25 0.25 0 0.75 0 0
          0 0 0.25 0 0 2
          2 2 2 2 2 2
          2 1.75 1.25 2 2 2
          2 1 0 1 0.75 0.25
          0 0 1 0.5 0 0.5
          0.25 0 0 0 0 1.5
          1 0.25 0.25 0 0 0
          0 0 0 0 0 0
          0 0 0 0 0 0
          0 0 0 0 0 0
          0 0 0 2 1.5 1
          0.5 0.5 0 2 1.5 0.5
          0.5 0 0 0 0 0
          0 0 0 0 0 0
          0 0 0 0 0 0
          0 0 0 0 0 0
          0 0 0 0 0 0
          0 0 0 0 0 0
          0 0 0 0 0 0
          0 0 0 0 0 0
          0 0 0 0 0 0
          0 0 0 0 0 0
          0 0 0 0 0 0
          0 0 0 0 0 0
          0 0 0 0 0 0
          0 0 0 0 0 0
          0
        </DataArray>
        <DataArray type="Float64" Name="markers_mustrefine" format="ascii" RangeMin="2" RangeMax="2">
          2 2 2 2 2 2
          2 2 2 2 2 2
          2 2 2 2 2 2
          2 2 2 2 2 2
          2 2 2 2 2 2
          2 2 2 2 2 2
          2 2 2 2 2 2
          2 2 2 2 2 2
          2 2 2 2 2 2
          2 2 2 2 2 2
          2 2 2 2 2 2
          2 2 2 2 2 2
          2 2 2 2 2 2
          2 2 2 2 2 2
          2 2 2 2 2 2
          2 2 2 2 2 2
          2 2 2 2 2 2
          2 2 2 2 2 2
          2 2 2 2 2 2
          2 2 2 2 2 2
          2 2 2 2 2 2
          2 2 2 2 2 2
          2 2 2 2 2 2
          2 2 2 2 2 2
          2 2 2 2 2 2
          2 2 2 2 2 2
          2 2 2 2 2 2
          2 2 2 2 2 2
          2 2 2 2 2 2
          2 2 2 2 2 2
          2 2 2 2 2 2
          2 2 2 2 2 2
          2 2 2 2 2 2
          2 2 2 2 2 2
          2 2 2 2 2 2
          2 2 2 2 2 2
          2 2 2 2 2 2
          2 2 2 2 2 2
          2 2 2 2 2 2
          2 2 2 2 2 2
          2 2 2 2 2 2
          2 2 2 2 2 2
          2 2 2 2 2 2
          2 2 2 2 2 2
          2 2 2 2 2 2
          2 2 2 2 2 2
          2 2 2 2 2 2
          2 2 2 2 2 2
          2 2 2 2 2 2
          2 2 2 2 2 2
          2 2 2 2 2 2
          2 2 2 2 2 2
          2 2 2 2 2 2
          2 2 2 2 2 2
          2 2 2 2 2 2
          2 2 2 2 2 2
          2 2 2 2 2 2
          2
        </DataArray>
        <DataArray type="Float64" Name="gradient_marker" format="ascii" RangeMin="0.5" RangeMax="1">
          1 1 1 1 1 1
          1 1 0.75 0.75 1 1
          0.625 1 0.75 0.75 1 0.75
          1 1 1 1 1 1
          1 1 1 1 1 0.5
          0.5 1 1 0.75 1 0.5
          0.5 1 0.75 1 1 1
          1 1 1 1 1 1
          1 1 1 1 1 1
          1 1 1 1 1 1
          1 1 1 1 1 1
          0.6666666666666666 1 1 1 1 1
          1 1 1 1 1 1
          1 0.6666666666666666 1 1 1 1
          1 1 1 1 1 1
          1 1 1 1 1 1
          1 1 1 1 1 1
          1 1 1 1 1 1
          1 1 1 1 1 1
          1 1 1 1 1 1
          1 1 1 1 1 1
          1 1 1 1 1 1
          1 1 1 1 1 1
          1 1 1 1 1 1
          1 1 1 1 1 1
          1 1 1 1 1 1
          1 1 1 1 1 1
          1 1 1 1 1 0.5
          0.5 0.5 0.5 1 1 1
          1 1 1 1 1 1
          1 0.5 0.6666666666666666 0.5 1 1
          1 1 1 1 1 0.5
          0.5 0.5 0.5 1 1 1
          1 1 1 1 1 1
          1 0.5 0.6666666666666666 0.5 1 1
          1 1 1 1 1 1
          1 1 1 1 1 1
          1 1 1 1 1 1
          1 1 1 1 1 1
          1 1 1 1 1 1
          1 1 1 1 1 1
          1 1 1 1 1 1
          1 1 1 1 1 1
          1 1 1 1 1 1
          1 1 1 1 1 1
          1 1 1 1 1 1
          1 1 1 1 1 1
          1 1 1 1 1 1
          1 1 1 1 1 1
          1 1 1 1 1 1
          1 1 1 1 1 1
          1 1 1 1 1 1
          1 1 1 1 1 1
          1 1 1 1 1 1
          1 1 1 1 1 1
          1 1 1 1 1 1
          1 1 1 1 1 1
          1
        </DataArray>
        <DataArray type="Float64" Name="gradient_matprop_marker" format="ascii" RangeMin="0" RangeMax="0">
          0 0 0 0 0 0
          0 0 0 0 0 0
          0 0 0 0 0 0
          0 0 0 0 0 0
          0 0 0 0 0 0
          0 0 0 0 0 0
          0 0 0 0 0 0
          0 0 0 0 0 0
          0 0 0 0 0 0
          0 0 0 0 0 0
          0 0 0 0 0 0
          0 0 0 0 0 0
          0 0 0 0 0 0
          0 0 0 0 0 0
          0 0 0 0 0 0
          0 0 0 0 0 0
          0 0 0 0 0 0
          0 0 0 0 0 0
          0 0 0 0 0 0
          0 0 0 0 0 0
          0 0 0 0 0 0
          0 0 0 0 0 0
          0 0 0 0 0 0
          0 0 0 0 0 0
          0 0 0 0 0 0
          0 0 0 0 0 0
          0 0 0 0 0 0
          0 0 0 0 0 0
          0 0 0 0 0 0
          0 0 0 0 0 0
          0 0 0 0 0 0
          0 0 0 0 0 0
          0 0 0 0 0 0
          0 0 0 0 0 0
          0 0 0 0 0 0
          0 0 0 0 0 0
          0 0 0 0 0 0
          0 0 0 0 0 0
          0 0 0 0 0 0
          0 0 0 0 0 0
          0 0 0 0 0 0
          0 0 0 0 0 0
          0 0 0 0 0 0
          0 0 0 0 0 0
          0 0 0 0 0 0
          0 0 0 0 0 0
          0 0 0 0 0 0
          0 0 0 0 0 0
          0 0 0 0 0 0
          0 0 0 0 0 0
          0 0 0 0 0 0
          0 0 0 0 0 0
          0 0 0 0 0 0
          0 0 0 0 0 0
          0 0 0 0 0 0
          0 0 0 0 0 0
          0 0 0 0 0 0
          0
        </DataArray>
        <DataArray type="Float64" Name="combo" format="ascii" RangeMin="0.625" RangeMax="2">
          1 1 1 1 1 2
          1 1 0.75 0.75 1 1
          0.625 1 1.5 1 1 0.75
          1 1 1 1 1 1
          1 1 1 1 1 2
          1.875 2 1.375 0.75 1 2
          2 1.75 0.75 1.25 1 1
          1 1 1 1.5 1 1
          1 1 1 1 1 1
          1 1 1 1 1 1
          1 1 1 1 1 1
          1.5 1 1 1 1 1
          1 1.25 1.125 1 1 1
          1 0.6666666666666666 1 1 1 1
          1 1 1 1 1 1
          1 1 1 1 1 1
          1 1 1 1 1 1
          1 1 1 1 1 1
          1 1 1 1 1 1
          1 1 1 1 1 1
          1 1 1 1 1 1
          1 1 1 1 1 1
          1 1 1 1 1 1
          1 1 1 1 1 1
          1 1 1 1 1 1
          1 1 1 1 1 1
          1 1 1 1 1 1
          1 1 1 1 1 2
          1.875 1.375 2 1.75 1.625 1.5
          1.375 1.25 1.125 2 2 1.875
          1.625 0.75 0.6666666666666666 1.125 1 1
          1 1 1.125 1 1 2
          2 2 2 2 2 2
          2 1.875 1.625 2 2 2
          2 1.25 0.6666666666666666 1.25 1.375 1.125
          1 1 1.5 1.25 1 1.25
          1.125 1 1 1 1 1.75
          1.5 1.125 1.125 1 1 1
          1 1 1 1 1 1
          1 1 1 1 1 1
          1 1 1 1 1 1
          1 1 1 2 1.75 1.5
          1.25 1.25 1 2 1.75 1.25
          1.25 1 1 1 1 1
          1 1 1 1 1 1
          1 1 1 1 1 1
          1 1 1 1 1 1
          1 1 1 1 1 1
          1 1 1 1 1 1
          1 1 1 1 1 1
          1 1 1 1 1 1
          1 1 1 1 1 1
          1 1 1 1 1 1
          1 1 1 1 1 1
          1 1 1 1 1 1
          1 1 1 1 1 1
          1 1 1 1 1 1
          1
        </DataArray>
        <DataArray type="Float64" Name="dHdT" format="ascii" RangeMin="25.883245457341022" RangeMax="57.33683360465959">
          36.41096267720348 37.81711076060296 29.24824069000426 28.971179247238844 26.50943313678454 51.447567624285284
          33.98909181633775 27.70882388376659 32.77390806431359 31.23508558363332 29.442201814297242 28.404307299252114
          28.564892398572333 26.972707519549992 44.06602663450162 38.937482466788424 34.584202877451595 31.99100757796525
          27.541777989965432 27.057294062114003 26.557682382074812 26.346753806783816 26.35007900364323 26.036015276711
          33.205263132199825 30.770294926213282 27.853265936036 27.43631884447398 25.990415012655554 49.54482043863307
          50.28427848545608 53.37940430808567 44.38142001624718 36.215210267012395 32.67286830454559 46.30188032181947
          50.03139253308477 49.974925710981395 39.30320899114631 41.204880791535366 36.26826643910254 34.2130244045966
          31.07297798795625 29.356080659380545 27.271118954968525 49.8225449678853 39.332787439501814 32.94310529388883
          30.50217391913278 26.134902610340845 26.207692422679635 31.29179134972247 27.410581071998294 27.307881873193015
          27.047337027163383 30.895786590765304 30.51088739596717 29.133284912836658 29.555700888179835 28.942450002487394
          28.438802665914167 27.614614806473572 27.50823032829673 35.490148832335606 35.08934959610516 33.83487232276774
          44.41300384760361 34.72473984308495 34.268280576961985 33.154212668722565 32.61576583547746 32.891507210757
          31.12677080977176 41.40950057796352 39.97635256883736 36.82826602572584 36.79528104156802 31.64002058776831
          29.32573872761533 35.67524731676156 30.77457546384921 29.287938207815053 28.768914286926375 27.85002044605472
          33.59093469194463 31.83202845936319 30.659568429104304 26.932265092057197 26.857658063366582 26.580911360935477
          26.528041548901456 26.668690476263755 26.394562517965703 28.327765604234784 28.120971106070737 27.400679895479538
          27.62134925222892 26.32273025960106 26.286665826152095 26.137805540877693 26.114362946623793 26.19596028509675
          26.055631765519788 26.96910728188128 26.874729084425415 26.49656480093077 26.64418191557879 26.44041608690032
          26.234180776149344 26.234973819722793 26.091458330686372 27.065576239770635 26.67035411876011 26.60872033007306
          26.08768913957246 25.985954756980476 25.99229898712301 25.925157898765956 26.382490329569304 26.17651899687276
          26.165359644938167 31.419615969553902 30.892157965519637 29.67098214708842 29.277485691523196 29.59710508305426
          28.376760347299545 35.12523438189474 34.48817493876098 32.52434437262649 32.66291176396076 28.30960227457604
          28.069396092135683 27.39969173600455 27.251969575116895 27.50688360505034 26.900415060064237 30.949966948353506
          30.38498195308421 28.630550862869054 29.077384733556684 28.222815603125493 27.460432411719868 27.22901507059598
          26.781457378978764 30.204536446815048 28.8172196512871 28.19223657739066 26.912281256643283 26.5206031225515
          26.456923589392325 26.225213455634055 27.781774623950227 27.071541439589403 26.89484457859285 26.127367797137076
          26.01580678292479 25.94012626174612 26.35042301500708 26.662666369784382 26.16507226515973 26.03567523690945
          25.99734296299208 25.928375363733593 26.37585939472244 26.17206916522416 26.094735039983927 51.70402835707386
          50.4395317069437 45.82760301758984 50.8319147880256 50.253632556823284 47.99685676829815 45.68131874027074
          43.74876150705157 42.431517500049615 39.091543582734644 52.26790046494682 51.98397148683168 51.08203237320393
          48.24143826268809 39.32611377976394 34.74665606040289 43.61506034048746 36.85845590059085 34.594084328456795
          32.75249882062863 31.058626905866195 40.55784499857019 37.36573550574378 34.55068267789674 46.27186370947049
          48.24672610928022 50.5823661675699 47.45689785081717 48.26157978081782 50.53548666784309 53.52036516570427
          53.019496032187206 50.8062401104443 48.396242901962864 46.214786579047285 49.33592883934872 52.54391135859651
          51.25506459739675 46.510634495224124 39.80370921084914 47.58231833909279 43.41407852496458 39.965466789358516
          36.02727868443556 33.66040759864265 44.502941769244615 41.107645997778725 36.69312647725617 40.47374228780755
          39.19924713334283 36.79180655947748 35.8853761156777 36.128932211490635 33.62689992963673 48.87838270270807
          46.05606207364014 39.612523375587315 39.9052247271546 34.29125879945351 33.481361184489344 31.516719578444516
          30.849387223296343 31.388746341632768 29.320767637972185 36.662886597655124 35.908099013392274 33.31270182048665
          33.646155603384685 32.59807450868865 30.736122601197863 29.543851663374863 28.331289881136993 34.728284739622005
          32.60362005193877 30.972900801933378 29.065780884218295 27.84458789453221 27.470965048795296 26.87682743107215
          30.535959891225374 28.75714123731991 28.10781911133644 55.4244797124188 51.86830405484781 46.95815732252923
          44.090971675564525 43.53928296442302 38.45158187794142 57.33683360465959 53.84433941070465 46.239957496159235
          45.13387316903483 38.48301376641831 37.47696968735866 35.895007226961326 34.97330030918863 35.03683744749851
          32.44778416433665 39.53300309893107 38.196100715141306 35.506972804944375 35.47368697671884 36.472158046737
          33.79720483259251 31.966783901038966 30.188479894379 37.246777972839695 34.19009854267445 32.30282588168673
          31.653863879795438 29.536757796748084 28.636429445344433 27.5867914659204 32.05212672705671 29.844001099239314
          28.846502476545204 27.045244047157514 27.438817383086306 26.632768383743446 26.33905507708294 26.208262315350645
          26.063319548539944 26.893784203888472 26.50844876830337 26.31910437564744 27.745122632301786 27.862245105062694
          27.09441820724286 26.637449070567378 26.401197488691963 26.188025866284512 27.170533892720822 26.685906312788923
          26.43154343777227 26.787208891070172 26.697953773426054 26.483419433250585 27.69602775579058 27.50507331732092
          27.057240446787148 26.24878101498909 26.06546135092267 26.58904478631289 26.242422820596538 25.948626476830157
          25.883245457341022 26.03271874821489 25.9209447936027 29.109354119217627 28.735256707312992 27.888310591283947
          30.942672059121804 30.302089156380177 28.890338164577244 27.052281513027665 26.470505024956083 27.5711427918382
          26.711637583586317 32.565743494188006 31.69892019106738 29.771962098741632 33.19853100538634 32.255455912767104
          30.13024838886137 28.000073537845886 26.901226162592202 28.16900210923151 26.973683742946648 26.13662904007775
          25.96571136171798 26.242135115969777 26.00986769252718 26.32267544387361 26.042800311180102 26.353160393524952
          26.05507007179662
        </DataArray>
        <DataArray type="Float64" Name="dk/dtemperature" format="ascii" RangeMin="0.004400625000000024" RangeMax="0.035358156506401804">
          0.007899317013834837 0.008048235501403067 0.012197556001495975 0.012404059375190553 0.014990902100970573 0.007609250000000003
          0.008862549142924956 0.013518271850937433 0.010345209157059977 0.011042002728066906 0.012097230026994232 0.012885556909940737
          0.012758735456477358 0.014388500012292882 0.024923327695105604 0.012484711067392879 0.008579576847069734 0.010020699761923617
          0.013736156784429791 0.014290500500286277 0.014879313579169055 0.015247220813255549 0.015227533020140164 0.015700165855504402