<?xml version="1.0"?>
<VTKFile type="UnstructuredGrid" version="0.1" byte_order="LittleEndian" header_type="UInt32" compressor="vtkZLibDataCompressor">
  <UnstructuredGrid>
    <Piece NumberOfPoints="375" NumberOfCells="205">
      <PointData>
        <DataArray type="Int32" Name="libmesh_node_id" format="ascii" RangeMin="245" RangeMax="2476">
          245 246 346 347 348 349
          350 351 352 353 354 355
          462 463 465 466 468 469
          480 481 482 483 679 680
          681 684 687 689 690 691
          692 693 694 695 696 697
          698 699 700 701 702 725
          733 735 737 911 912 913
          914 915 916 917 918 919
          920 1169 1170 1171 1172 1175
          1180 1181 1182 1184 1186 1187
          1188 1189 1190 1191 1192 1193
          1194 1195 1196 1197 1198 1199
          1200 1201 1202 1203 1204 1205
          1206 1207 1208 1209 1210 1211
          1212 1213 1214 1215 1216 1217
          1218 1219 1220 1221 1222 1223
          1224 1225 1226 1227 1228 1229
          1230 1231 1232 1233 1246 1247
          1249 1262 1264 1322 1323 1324
          1325 1329 1330 1331 1332 1555
          1556 1557 1558 1559 1560 1561
          1562 1563 1564 1565 1566 1567
          1568 1569 1570 1571 1958 1959
          1960 1961 1962 1963 1964 1965
          1966 1967 1968 1969 1970 1971
          1972 1973 1974 1975 1976 1977
          1978 1979 1980 1981 1982 1983
          1984 1985 1986 1987 1988 1989
          1990 1991 1992 1993 1994 1995
          1996 1997 1998 1999 2000 2001
          2002 2003 2004 2005 2006 2007
          2008 2009 2010 2011 2012 2013
          2014 2015 2016 2017 2018 2019
          2020 2021 2022 2023 2024 2025
          2026 2027 2028 2029 2030 2031
          2032 2033 2034 2035 2036 2037
          2038 2039 2040 2041 2042 2043
          2044 2045 2046 2047 2048 2049
          2050 2051 2052 2053 2054 2055
          2056 2057 2058 2059 2060 2061
          2062 2063 2064 2065 2066 2067
          2068 2069 2070 2071 2072 2267
          2268 2269 2271 2272 2275 2281
          2282 2284 2285 2286 2287 2388
          2389 2390 2391 2392 2393 2394
          2395 2396 2397 2398 2399 2400
          2401 2402 2403 2404 2405 2406
          2407 2408 2409 2410 2411 2432
          2433 2434 2435 2436 2438 2439
          2440 2441 2442 2445 2446 2447
          2448 2449 2450 2451 2452 2453
          2454 2455 2456 2457 2458 2459
          2460 2461 2462 2463 2464 2465
          1302 1303 1306 2273 2274 2276
          2277 2278 2270 1304 2279 2280
          1305 2288 2283 2289 2290 1307
          2320 2321 2322 2323 2324 2325
          2330 2331 2332 2333 2334 2335
          2340 2341 2342 2343 2329 2344
          2346 2347 2348 2349 2350 1316
          2437 2353 2443 1317 2444 2473
          2474 2476 2475
        </DataArray>
        <DataArray type="Float64" Name="bounds" format="ascii" RangeMin="0" RangeMax="0">
          0 0 0 0 0 0
          0 0 0 0 0 0
          0 0 0 0 0 0
          0 0 0 0 0 0
          0 0 0 0 0 0
          0 0 0 0 0 0
          0 0 0 0 0 0
          0 0 0 0 0 0
          0 0 0 0 0 0
          0 0 0 0 0 0
          0 0 0 0 0 0
          0 0 0 0 0 0
          0 0 0 0 0 0
          0 0 0 0 0 0
          0 0 0 0 0 0
          0 0 0 0 0 0
          0 0 0 0 0 0
          0 0 0 0 0 0
          0 0 0 0 0 0
          0 0 0 0 0 0
          0 0 0 0 0 0
          0 0 0 0 0 0
          0 0 0 0 0 0
          0 0 0 0 0 0
          0 0 0 0 0 0
          0 0 0 0 0 0
          0 0 0 0 0 0
          0 0 0 0 0 0
          0 0 0 0 0 0
          0 0 0 0 0 0
          0 0 0 0 0 0
          0 0 0 0 0 0
          0 0 0 0 0 0
          0 0 0 0 0 0
          0 0 0 0 0 0
          0 0 0 0 0 0
          0 0 0 0 0 0
          0 0 0 0 0 0
          0 0 0 0 0 0
          0 0 0 0 0 0
          0 0 0 0 0 0
          0 0 0 0 0 0
          0 0 0 0 0 0
          0 0 0 0 0 0
          0 0 0 0 0 0
          0 0 0 0 0 0
          0 0 0 0 0 0
          0 0 0 0 0 0
          0 0 0 0 0 0
          0 0 0 0 0 0
          0 0 0 0 0 0
          0 0 0 0 0 0
          0 0 0 0 0 0
          0 0 0 0 0 0
          0 0 0 0 0 0
          0 0 0 0 0 0
          0 0 0 0 0 0
          0 0 0 0 0 0
          0 0 0 0 0 0
          0 0 0 0 0 0
          0 0 0 0 0 0
          0 0 0 0 0 0
          0 0 0
        </DataArray>
        <DataArray type="Float64" Name="gradient_error" format="ascii" RangeMin="7.78411932951806e-11" RangeMax="2.2079898239488737e-7">
          1.4434325027711454e-9 1.5142886171048916e-9 5.6287716059079625e-9 2.2233222253208816e-8 1.1192728426179657e-7 4.910643376450692e-8
          1.0064442322524138e-9 7.393440965639546e-10 6.975985603028202e-10 2.4891438962417077e-8 2.264243329154001e-8 1.2459725829181014e-9
          3.528844973341374e-9 2.9268269864275798e-9 7.520573782766597e-10 6.620425756395541e-10 2.324808999513785e-9 5.720277730024486e-10
          1.6754337889556396e-9 2.969634744154054e-9 6.555832296239908e-10 8.935765643163301e-10 6.936656079452579e-9 5.622657854341779e-8
          4.335316726785859e-8 2.2805538100533938e-8 7.379417990332897e-8 2.8266369261601422e-9 3.1908844851446276e-9 3.0691133862808355e-9
          2.659964946927886e-9 1.3118102847109477e-9 9.97893642307141e-10 8.059573250708392e-10 3.3544594178483472e-9 3.4659588181814625e-9
          9.363431517326072e-10 3.5853680297339453e-9 1.6381152400737707e-9 3.381197764470929e-10 2.7706750157483404e-9 2.2050693379538495e-8
          3.602686817196804e-9 9.588131286949871e-10 3.6291189045976196e-9 3.67250086661922e-9 5.5194495265341134e-9 3.7510465010362504e-9
          2.3252899230491296e-9 3.5180249747348867e-9 6.116530364152827e-10 9.246401177918756e-10 1.4967930545306782e-9 2.3674398876130847e-9
          6.16869322376438e-10 1.2742512465731158e-8 1.8976551326873903e-8 1.662938505985794e-8 1.1977695240528262e-8 7.231100329529042e-8
          5.263928154655047e-9 7.512042943852295e-9 5.350914199490042e-9 2.4851576684792773e-8 9.808460451337891e-9 8.575017276354099e-9
          1.1253288588392096e-8 9.866717835148778e-9 2.9568955563134116e-9 2.1270708845890475e-9 1.8804075719687662e-9 6.04405655200047e-9
          7.076313593671641e-9 1.3240544264618686e-9 3.424726024801039e-8 2.9703275380695874e-8 2.9185672144877625e-9 1.9465475056547154e-8
          1.1774865601418652e-9 1.0570049517717217e-9 7.928091785509987e-10 6.998662184321648e-10 4.1918468976832026e-10 3.15613920531966e-10
          2.778827386983501e-10 7.65256881248781e-10 4.883845160060961e-10 2.4445146282402853e-10 1.7305431441694775e-9 1.3727286581091785e-9
          5.806958733935322e-10 7.207481688675485e-10 3.603041280181493e-9 4.758712746049301e-9 1.3136863280401744e-9 1.3218849210326725e-9
          2.45954355773235e-9 3.880761745932585e-9 1.6472067314318036e-9 1.0284507152704393e-8 1.1715788660330425e-9 6.124972309961105e-9
          4.988203888159733e-10 5.079412199501366e-10 2.0727842351650443e-10 2.607301013515849e-10 4.036503585359628e-10 6.525213341677122e-10
          2.7562181985911705e-10 4.673190094068003e-10 3.0168353771467873e-10 6.58958502741887e-10 2.2079898239488737e-7 1.9080475383562582e-7
          1.1903386351717346e-7 5.367954866947482e-8 2.2938328460005308e-8 2.4829902810846568e-8 2.0714247575924623e-9 1.0017041366631249e-8
          2.0594656349187426e-9 9.193235955957819e-10 4.33613193292468e-10 8.588062516670903e-10 4.084963224497328e-10 4.757630246906789e-9
          6.737096009394016e-9 4.862997800706073e-9 3.4878931891398157e-9 4.9798040763692906e-9 1.575095824115423e-9 2.2790437970014637e-9
          2.3089550472636778e-9 3.3133205983311384e-9 1.2307725781637546e-9 6.907249618330505e-10 9.543799006033684e-10 3.0047381022425943e-10
          3.9200955053574357e-10 4.4865575746529305e-10 5.163611717963917e-10 2.2981066391618825e-10 2.0212368422011995e-9 2.5953280232175968e-9
          2.4779443236216408e-9 2.2207988744529748e-9 5.974740368098107e-9 1.6273229374467585e-9 1.5576286367476357e-9 2.2455590975056224e-9
          2.1456562400556043e-9 9.054481095477678e-10 1.5841424334652035e-9 1.5135302909246352e-9 1.3883960564303779e-9 1.9063573593407456e-9
          1.323768887226532e-9 5.255162744651218e-9 4.981672341345671e-9 3.4035794025465088e-9 4.3275388888337386e-9 1.5066702271002908e-9
          1.8752946166144825e-9 1.4766544609862066e-9 4.208126704571686e-9 1.1617334824742592e-9 1.5848405322563528e-9 6.671130897300408e-10
          1.0693113391233654e-9 9.112259719720902e-10 1.2285117078064009e-9 8.036907275435487e-10 3.4589241939779043e-9 2.278816004787455e-9
          2.527129207934363e-9 6.229498966303533e-10 5.967274999077228e-10 1.0652244058158123e-9 1.015164472055146e-9 3.905386120968055e-10
          7.108858883736728e-10 6.761527208203056e-10 5.253574064267163e-10 8.807496446559262e-10 5.83264939985166e-10 2.5223190868544678e-9
          2.384753844785606e-9 1.6319418704438334e-9 2.0210156881654835e-9 2.608525399690305e-10 2.490011218642209e-10 4.6313955789704417e-10
          4.397956366211769e-10 1.5595625616802386e-10 2.939915913038215e-10 2.788704442417986e-10 2.179530183281906e-10 3.77935070310913e-10
          2.394019436305414e-10 1.1510581612157975e-9 1.0837791399910847e-9 6.955221675620556e-10 9.072587858384455e-10 4.296050672945727e-10
          7.015914085430913e-10 2.7897986080407725e-10 4.6033532215499334e-10 3.278737988230314e-10 5.180051177207489e-10 3.353607749724237e-10
          1.5492554866859166e-9 1.0402390126706e-9 1.0898507202138477e-9 1.779526999347544e-10 2.9628161695219597e-10 1.1352839558871392e-10
          1.861572936773958e-10 1.354927883251873e-10 2.1262956199314312e-10 1.4832141808073863e-10 6.829872212330572e-10 4.341339239792733e-10
          4.681684059819538e-10 8.790085256721486e-10 1.094574952826561e-9 9.053930920294074e-10 2.1462147224406006e-9 6.852561415046371e-10
          8.983811072554361e-10 3.9031612898223514e-10 5.663196988099448e-10 5.826695272013692e-10 7.424585273348712e-10 4.5926099471052547e-10
          1.7374830550622629e-9 1.09327433483676e-9 1.2860166312361194e-9 2.4165476126139284e-10 3.5693514614933607e-10 1.551529576197713e-10
          2.2912698034304018e-10 2.0656234979752814e-10 2.846481229259842e-10 1.8309272834782597e-10 7.110003956190499e-10 4.640051691575199e-10
          4.994241395007881e-10 9.698304331964104e-11 1.4196409998840263e-10 7.78411932951806e-11 1.0909239565381843e-10 8.012957696144637e-11
          1.1181388461839461e-10 8.774053161238973e-11 2.970577309166432e-10 2.1784909107820233e-10 2.0549168624430884e-10 1.1471998855241422e-8
          1.0838776581148318e-8 9.477721443491225e-9 1.0185321610974329e-8 9.624974920140588e-9 8.295841777464623e-9 7.647304382485073e-9
          5.483698847332464e-9 6.536476587442922e-9 4.640277056120432e-9 4.630106456593822e-9 3.1919431882785552e-9 3.7387611869986295e-9
          2.351631519474406e-9 6.14373208849773e-9 3.0899265479733012e-9 2.0391430407615723e-9 1.9219544332912615e-9 1.228850421468189e-9
          5.179011886314998e-9 3.570834910833998e-9 3.153280270017379e-9 1.115040638980027e-9 1.3813972337438727e-9 1.114376292914172e-9
          2.168139667297602e-9 8.900726242852808e-10 1.1264520512395415e-9 5.266964336328461e-10 7.033255660743238e-10 7.054158400307135e-10
          8.745332679189657e-10 5.03882671432356e-10 1.7818684483015e-9 1.1446191044012918e-9 1.3543442409187021e-9 1.3670594480150108e-9
          9.103298426867626e-10 7.992776272320263e-10 5.214564917195684e-10 2.467936298863782e-9 1.3847816138860112e-9 5.959345590269087e-10
          3.7740005154498564e-10 3.3519506528045867e-10 2.424569567763189e-10 5.990604154789447e-10 3.179498516043716e-10 4.396753040139526e-10
          2.0041107360559108e-10 2.8042201507354714e-10 2.295623858424091e-10 3.058139395459146e-10 1.9302135053416603e-10 7.400834017245595e-10
          4.815954516676755e-10 5.023940601296106e-10 1.325309270926802e-10 1.798723428967175e-10 1.1185115250776375e-10 1.4310700026080882e-10
          1.0005807430238187e-10 1.2849729283070604e-10 1.0950466374395667e-10 3.076768298941349e-10 2.195427539403159e-10 2.085243550688864e-10
          1.1410550407048064e-7 9.676459721061146e-8 5.787982193020184e-8 7.749442826727735e-9 7.310526379546381e-9 6.145815683675919e-9
          1.9811363349459904e-8 1.8530219115693955e-8 2.0964307471312872e-8 1.5135615270654317e-8 1.4271343514115785e-8 1.5614208204966935e-8
          1.1918704129777566e-8 1.1980992901035682e-8 1.3838024426420993e-8 8.81267398553445e-9 8.121750081172519e-9 5.845726865189181e-9
          5.675261665205687e-9 5.331831266651784e-9 4.020825590348709e-9 3.7656198483599614e-9 4.426336956567076e-9 3.0972347205750063e-9
          2.7360278638616663e-9 2.5563192059397332e-9 1.7800558755391953e-9 1.6606957080732556e-9 2.0886290666168183e-9 1.3515381705365234e-9
          3.2728257021808357e-9 2.2573839399019473e-9 2.195239334686679e-9 1.4881409632862061e-9 8.960855194086216e-9 6.461082004257257e-9
          4.160138733706497e-9 1.508992167392715e-9 9.719997018153515e-10 9.850315650126117e-10 6.308639697396475e-10 2.892800822401664e-9
          1.6774054066621173e-9 1.9427737738290058e-9 1.1117900651278566e-9 1.2546304050643574e-9 7.122190319622861e-10 1.9337989094413156e-9
          1.2491310864651478e-9 6.355965403771644e-10 9.957019179709603e-10
        </DataArray>
        <DataArray type="Float64" Name="gradient_matprop_error" format="ascii" RangeMin="0" RangeMax="0">
          0 0 0 0 0 0
          0 0 0 0 0 0
          0 0 0 0 0 0
          0 0 0 0 0 0
          0 0 0 0 0 0
          0 0 0 0 0 0
          0 0 0 0 0 0
          0 0 0 0 0 0
          0 0 0 0 0 0
          0 0 0 0 0 0
          0 0 0 0 0 0
          0 0 0 0 0 0
          0 0 0 0 0 0
          0 0 0 0 0 0
          0 0 0 0 0 0
          0 0 0 0 0 0
          0 0 0 0 0 0
          0 0 0 0 0 0
          0 0 0 0 0 0
          0 0 0 0 0 0
          0 0 0 0 0 0
          0 0 0 0 0 0
          0 0 0 0 0 0
          0 0 0 0 0 0
          0 0 0 0 0 0
          0 0 0 0 0 0
          0 0 0 0 0 0
          0 0 0 0 0 0
          0 0 0 0 0 0
          0 0 0 0 0 0
          0 0 0 0 0 0
          0 0 0 0 0 0
          0 0 0 0 0 0
          0 0 0 0 0 0
          0 0 0 0 0 0
          0 0 0 0 0 0
          0 0 0 0 0 0
          0 0 0 0 0 0
          0 0 0 0 0 0
          0 0 0 0 0 0
          0 0 0 0 0 0
          0 0 0 0 0 0
          0 0 0 0 0 0
          0 0 0 0 0 0
          0 0 0 0 0 0
          0 0 0 0 0 0
          0 0 0 0 0 0
          0 0 0 0 0 0
          0 0 0 0 0 0
          0 0 0 0 0 0
          0 0 0 0 0 0
          0 0 0 0 0 0
          0 0 0 0 0 0
          0 0 0 0 0 0
          0 0 0 0 0 0
          0 0 0 0 0 0
          0 0 0 0 0 0
          0 0 0 0 0 0
          0 0 0 0 0 0
          0 0 0 0 0 0
          0 0 0 0 0 0
          0 0 0 0 0 0
          0 0 0
        </DataArray>
        <DataArray type="Float64" Name="initial_marker" format="ascii" RangeMin="0" RangeMax="2">
          0 0 0 0 2 0.75
          0 2 0 0 0 0
          0 0 0 0 0 0
          0 0 0 0 0 0.5
          0.5 0.3333333333333333 2 0 0 0
          0 0 0 0 0 0
          0 2 2 1.75 0 0
          0 0 0 0 0 0
          0 0 0 0 0 0
          0 0 1 1 1 2
          0 0.5 0 1.6666666666666667 0 0
          1 1 0 1 1 0
          0.75 0.5 2 2 2 2
          0 0 1 1 0 1
          0.5 0 0 0 2 2
          2 2 0 0.25 0 0
          0 0 0 1 0.5 0.3333333333333333
          0 0 0 0 0 0
          0 0.5 0.5 0 2 2
          2 2 1.3333333333333333 2 2 0.75
          0.5 2 1.75 0.5 0 0
          0 0 0 0 0 0
          0 0 0 0 0 0
          0 0 0 0 2 2
          2 2 2 2 2 2
          2 2 2 2 2 2
          2 2 2 2 2 2
          2 1.5 2 2 2 2
          2 1 1.5 1.5 2 2
          2 2 2 2 2 2
          2 2 2 2 2 2
          2 2 2 2 2 2
          2 2 2 2 1.5 1.75
          1.5 2 2 2 2 1.5
          1.75 1 1.5 0.5 1.25 1
          2 2 2 0.5 1.25 0
          1 0 1 1 2 2
          2 0 0.5 0 1.5 0
          0.5 0 0.5 0 0 0
          1.5 1.5 0.6666666666666666 0 0.5 0
          0.5 0 0 0 1.5 1.5
          0.6666666666666666 0 0.5 0 0.5 0
          0 0 1.5 1.6666666666666667 0.6666666666666666 2
          2 2 2 2 2 2
          2 2 2 2 2 2
          1.5 2 2 2 1.5 1.5
          2 2 2 0 0.5 0
          1.5 0 0.5 0 0.5 0
          0 0 1.5 1.5 1 2
          2 1.5 1.5 2 2 2
          2 1.5 1.6666666666666667 2 0 0.5
          0 0.5 0 0 0 1.5
          1.5 1 0 0.5 0 0.5
          0 0 0 1.25 1 0.5
          2 2 2 2 2 2
          2 2 2 2 2 2
          2 2 2 2 2 2
          2 2 2 2 2 2
          2 2 2 2 2 2
          2 2 2 2 2 2
          2 2 2 2 2 2
          2 2 2 2 2 2
          2 2 2
        </DataArray>
        <DataArray type="Float64" Name="markers_norefine" format="ascii" RangeMin="0" RangeMax="0">
          0 0 0 0 0 0
          0 0 0 0 0 0
          0 0 0 0 0 0
          0 0 0 0 0 0
          0 0 0 0 0 0
          0 0 0 0 0 0
          0 0 0 0 0 0
          0 0 0 0 0 0
          0 0 0 0 0 0
          0 0 0 0 0 0
          0 0 0 0 0 0
          0 0 0 0 0 0
          0 0 0 0 0 0
          0 0 0 0 0 0
          0 0 0 0 0 0
          0 0 0 0 0 0
          0 0 0 0 0 0
          0 0 0 0 0 0
          0 0 0 0 0 0
          0 0 0 0 0 0
          0 0 0 0 0 0
          0 0 0 0 0 0
          0 0 0 0 0 0
          0 0 0 0 0 0
          0 0 0 0 0 0
          0 0 0 0 0 0
          0 0 0 0 0 0
          0 0 0 0 0 0
          0 0 0 0 0 0
          0 0 0 0 0 0
          0 0 0 0 0 0
          0 0 0 0 0 0
          0 0 0 0 0 0
          0 0 0 0 0 0
          0 0 0 0 0 0
          0 0 0 0 0 0
          0 0 0 0 0 0
          0 0 0 0 0 0
          0 0 0 0 0 0
          0 0 0 0 0 0
          0 0 0 0 0 0
          0 0 0 0 0 0
          0 0 0 0 0 0
          0 0 0 0 0 0
          0 0 0 0 0 0
          0 0 0 0 0 0
          0 0 0 0 0 0
          0 0 0 0 0 0
          0 0 0 0 0 0
          0 0 0 0 0 0
          0 0 0 0 0 0
          0 0 0 0 0 0
          0 0 0 0 0 0
          0 0 0 0 0 0
          0 0 0 0 0 0
          0 0 0 0 0 0
          0 0 0 0 0 0
          0 0 0 0 0 0
          0 0 0 0 0 0
          0 0 0 0 0 0
          0 0 0 0 0 0
          0 0 0 0 0 0
          0 0 0
        </DataArray>
        <DataArray type="Float64" Name="markers_mustrefine" format="ascii" RangeMin="0" RangeMax="2">
          0 0 0 0 2 0.75
          0 2 0 0 0 0
          0 0 0 0 0 0
          0 0 0 0 0 0.5
          0.5 0.3333333333333333 2 0 0 0
          0 0 0 0 0 0
          0 2 2 1.75 0 0
          0 0 0 0 0 0
          0 0 0 0 0 0
          0 0 1 1 1 2
          0 0.5 0 1.6666666666666667 0 0
          1 1 0 1 1 0
          0.75 0.5 2 2 2 2
          0 0 1 1 0 1
          0.5 0 0 0 2 2
          2 2 0 0.25 0 0
          0 0 0 1 0.5 0.3333333333333333
          0 0 0 0 0 0
          0 0.5 0.5 0 2 2
          2 2 1.3333333333333333 2 2 0.75
          0.5 2 1.75 0.5 0 0
          0 0 0 0 0 0
          0 0 0 0 0 0
          0 0 0 0 2 2
          2 2 2 2 2 2
          2 2 2 2 2 2
          2 2 2 2 2 2
          2 1.5 2 2 2 2
          2 1 1.5 1.5 2 2
          2 2 2 2 2 2
          2 2 2 2 2 2
          2 2 2 2 2 2
          2 2 2 2 1.5 1.75
          1.5 2 2 2 2 1.5
          1.75 1 1.5 0.5 1.25 1
          2 2 2 0.5 1.25 0
          1 0 1 1 2 2
          2 0 0.5 0 1.5 0
          0.5 0 0.5 0 0 0
          1.5 1.5 0.6666666666666666 0 0.5 0
          0.5 0 0 0 1.5 1.5
          0.6666666666666666 0 0.5 0 0.5 0
          0 0 1.5 1.6666666666666667 0.6666666666666666 2
          2 2 2 2 2 2
          2 2 2 2 2 2
          1.5 2 2 2 1.5 1.5
          2 2 2 0 0.5 0
          1.5 0 0.5 0 0.5 0
          0 0 1.5 1.5 1 2
          2 1.5 1.5 2 2 2
          2 1.5 1.6666666666666667 2 0 0.5
          0 0.5 0 0 0 1.5
          1.5 1 0 0.5 0 0.5
          0 0 0 1.25 1 0.5
          2 2 2 2 2 2
          2 2 2 2 2 2
          2 2 2 2 2 2
          2 2 2 2 2 2
          2 2 2 2 2 2
          2 2 2 2 2 2
          2 2 2 2 2 2
          2 2 2 2 2 2
          2 2 2
        </DataArray>
        <DataArray type="Float64" Name="gradient_marker" format="ascii" RangeMin="0" RangeMax="1">
          1 1 0.75 0.875 0.5 0.25
          1 1 1 1 0.875 1
          1 1 1 1 1 1
          1 1 1 1 0.5 0.5
          0.375 0.5 0.125 1 1 1
          1 1 1 1 1 1
          1 1 1 1 1 0.5
          1 1 1 1 1 1
          1 1 1 1 1 1
          1 0 0 0 0 0.16666666666666666
          0 0 0 0 0.5 0.5
          0.5 0.5 1 1 1 0.5
          0.5 1 0.5 0.5 1 0.5
          1 1 1 1 1 1
          1 1 1 1 1 1
          1 1 0.5 0.5 1 1
          0.5 0.5 1 0.5 1 0.5
          1 1 1 1 1 1
          1 1 1 1 0.75 0.625
          0.375 0.125 0 0.5 1 0.5
          1 1 1 1 1 0
          0 0 0.5 0.5 1 1
          0.5 0.5 1 1 1 1
          1 1 1 1 1 1
          1 1 1 1 1 1
          1 1 1 1 1 1
          1 1 1 1 1 1
          1 1 1 1 1 1
          1 1 1 1 1 1
          1 1 1 1 1 1
          1 1 1 1 1 1
          1 1 1 1 1 1
          1 1 1 1 1 1
          1 1 1 1 1 1
          1 1 1 1 1 1
          1 1 1 1 1 1
          1 1 1 1 1 1
          1 1 1 1 1 1
          1 1 1 1 1 1
          1 1 1 1 1 1
          1 1 1 1 1 1
          1 1 1 1 1 1
          1 1 1 1 1 1
          1 1 1 1 1 1
          1 1 1 1 1 1
          1 1 1 1 1 1
          1 1 1 1 1 1
          1 1 1 1 1 1
          1 1 1 1 1 1
          1 1 1 1 1 1
          1 1 1 1 1 1
          1 1 1 1 1 1
          1 1 1 1 1 1
          1 1 1 1 1 1
          0.75 0.75 0.625 1 1 1
          1 1 1 1 1 1
          1 1 1 1 1 1
          1 1 1 1 1 1
          1 1 1 1 1 1
          1 1 1 1 1 1
          1 1 1 1 1 1
          1 1 1 1 1 1
          1 1 1
        </DataArray>
        <DataArray type="Float64" Name="gradient_matprop_marker" format="ascii" RangeMin="0" RangeMax="0">
          0 0 0 0 0 0
          0 0 0 0 0 0
          0 0 0 0 0 0
          0 0 0 0 0 0
          0 0 0 0 0 0
          0 0 0 0 0 0
          0 0 0 0 0 0
          0 0 0 0 0 0
          0 0 0 0 0 0
          0 0 0 0 0 0
          0 0 0 0 0 0
          0 0 0 0 0 0
          0 0 0 0 0 0
          0 0 0 0 0 0
          0 0 0 0 0 0
          0 0 0 0 0 0
          0 0 0 0 0 0
          0 0 0 0 0 0
          0 0 0 0 0 0
          0 0 0 0 0 0
          0 0 0 0 0 0
          0 0 0 0 0 0
          0 0 0 0 0 0
          0 0 0 0 0 0
          0 0 0 0 0 0
          0 0 0 0 0 0
          0 0 0 0 0 0
          0 0 0 0 0 0
          0 0 0 0 0 0
          0 0 0 0 0 0
          0 0 0 0 0 0
          0 0 0 0 0 0
          0 0 0 0 0 0
          0 0 0 0 0 0
          0 0 0 0 0 0
          0 0 0 0 0 0
          0 0 0 0 0 0
          0 0 0 0 0 0
          0 0 0 0 0 0
          0 0 0 0 0 0
          0 0 0 0 0 0
          0 0 0 0 0 0
          0 0 0 0 0 0
          0 0 0 0 0 0
          0 0 0 0 0 0
          0 0 0 0 0 0
          0 0 0 0 0 0
          0 0 0 0 0 0
          0 0 0 0 0 0
          0 0 0 0 0 0
          0 0 0 0 0 0
          0 0 0 0 0 0
          0 0 0 0 0 0
          0 0 0 0 0 0
          0 0 0 0 0 0
          0 0 0 0 0 0
          0 0 0 0 0 0
          0 0 0 0 0 0
          0 0 0 0 0 0
          0 0 0 0 0 0
          0 0 0 0 0 0
          0 0 0 0 0 0
          0 0 0
        </DataArray>
        <DataArray type="Float64" Name="combo" format="ascii" RangeMin="0" RangeMax="1">
          1 1 0.75 0.875 0.5 0.25
          1 1 1 1 0.875 1
          1 1 1 1 1 1
          1 1 1 1 0.5 0.5
          0.375 0.5 0.125 1 1 1
          1 1 1 1 1 1
          1 1 1 1 1 0.5
          1 1 1 1 1 1
          1 1 1 1 1 1
          1 0 0 0 0 0.16666666666666666
          0 0 0 0 0.5 0.5
          0.5 0.5 1 1 1 0.5
          0.5 1 0.5 0.5 1 0.5
          1 1 1 1 1 1
          1 1 1 1 1 1
          1 1 0.5 0.5 1 1
          0.5 0.5 1 0.5 1 0.5
          1 1 1 1 1 1
          1 1 1 1 0.75 0.625
          0.375 0.125 0 0.5 1 0.5
          1 1 1 1 1 0
          0 0 0.5 0.5 1 1
          0.5 0.5 1 1 1 1
          1 1 1 1 1 1
          1 1 1 1 1 1
          1 1 1 1 1 1
          1 1 1 1 1 1
          1 1 1 1 1 1
          1 1 1 1 1 1
          1 1 1 1 1 1
          1 1 1 1 1 1
          1 1 1 1 1 1
          1 1 1 1 1 1
          1 1 1 1 1 1
          1 1 1 1 1 1
          1 1 1 1 1 1
          1 1 1 1 1 1
          1 1 1 1 1 1
          1 1 1 1 1 1
          1 1 1 1 1 1
          1 1 1 1 1 1
          1 1 1 1 1 1
          1 1 1 1 1 1
          1 1 1 1 1 1
          1 1 1 1 1 1
          1 1 1 1 1 1
          1 1 1 1 1 1
          1 1 1 1 1 1
          1 1 1 1 1 1
          1 1 1 1 1 1
          1 1 1 1 1 1
          1 1 1 1 1 1
          1 1 1 1 1 1
          1 1 1 1 1 1
          0.75 0.75 0.625 1 1 1
          1 1 1 1 1 1
          1 1 1 1 1 1
          1 1 1 1 1 1
          1 1 1 1 1 1
          1 1 1 1 1 1
          1 1 1 1 1 1
          1 1 1 1 1 1
          1 1 1
        </DataArray>
        <DataArray type="Float64" Name="dHdT" format="ascii" RangeMin="25.812023575399564" RangeMax="34.98355676286766">
          25.816279787729826 25.81305378387829 25.829815661782575 25.83993076401653 28.584078113743193 26.18214016394414
          25.81482769682347 25.947404038827663 25.827174402172236 25.832285713834796 25.843739248559512 25.81563777763491
          25.81291045718065 25.812480579942115 25.812065458718614 25.812044517059093 25.812050702703576 25.812023575399564
          25.81287557034227 25.813893246086895 25.812293405075657 25.81249440834922 25.850600660962247 26.170232385602695
          26.080755101723245 25.94711744441214 27.26621257765465 25.830005767360163 25.830071041714756 25.8688309485546
          25.854742775195458 25.81882747619161 25.825250762349825 25.82176594643873 25.828482387511233 25.841902140889868
          25.819618143588038 26.53623441211821 26.143197746501617 25.866055663127057 25.889632848566404 25.946697130495295
          25.843463382911928 25.8202533506735 25.830913903173627 25.828722840559905 25.843823362429568 25.82968277584285
          25.823030694493827 25.832492572544872 25.815547489068056 25.817790976668157 25.819232930034534 25.823721497690972
          25.81583403394522 26.09480102580356 26.458246223382986 26.38152525508195 26.223059010217604 28.588500774491227
          25.96588338457221 26.0683092543752 25.995304775096116 26.64738849839215 26.034600716815113 26.013208059667715
          26.275368044298894 26.2194901683149 25.898923977160635 25.966715378515598 25.94734269318776 25.967667916947978
          26.104218341955676 25.906899742147882 27.620743144030964 27.31393755734591 26.398094374044295 26.72576939403553
          25.85531502636616 25.850954498249237 25.877748879795927 25.86895508805512 25.828660983586126 25.838964580464697
          25.835310183811597 25.841712722184255 25.851026227546384 25.828222105577787 26.143093811970232 26.073628190433233
          25.91808400990412 25.951053801697512 25.923325507417836 25.993153008623676 25.86179107273633 25.87883536846106
          25.903130583460033 25.947390253701954 25.87496096010367 26.257879951393086 25.96223227465674 26.04597394540431
          25.834405619724347 25.840261710341103 25.82195508704293 25.824410498062385 25.831979765212495 25.839701429791866
          25.823882116373433 25.87267969879269 25.83567868691381 25.851195659980604 34.98355676286766 33.31176174044123
          30.09615792281273 27.685765787857424 26.59255202344561 26.949577397441395 26.23002533778012 26.219583093787335
          25.958839615579457 25.989685217341016 25.881285862392374 25.87314939495669 25.836492916940173 25.987761390997832
          26.05067418896637 25.96205720380428 25.943041045081436 25.987524038374467 25.87535353485376 25.893235348842836
          25.9031239524502 25.921348854217918 25.862547358804786 25.84133931679198 25.847877821663445 25.82481693935471
          25.82723071989338 25.833504096135968 25.835876608464385 25.822921140905194 26.225077279963298 26.422024373142385
          26.396282918333096 26.331934192835565 27.00649428491787 26.15741813831881 26.14405835247942 26.31789523214203
          26.29635334598403 26.01754067790897 26.145144774191934 26.130456270032276 26.110094183470682 26.24123214548189
          26.091473805460673 26.87055383851179 26.816412322343126 26.49805218792236 26.68029690510103 26.1270647341541
          26.245801014890475 26.15326238332681 26.64520208642665 26.06412089304741 26.16742169655024 25.965922099430667
          26.039346620864496 26.01422521678831 26.08921928094093 25.98588218281654 26.503246070169137 26.26926357039347
          26.323936122008217 25.949187725453232 25.943727438647493 26.030927051253148 26.020778009103896 25.89656443143827
          25.954522186195742 25.94766431387073 25.92920266362928 25.993822694264892 25.929550503701062 26.3066367591966
          26.278903683032834 26.123730738045523 26.206809769820243 25.868127944174415 25.865805844581978 25.9032598560185
          25.898799134914206 25.845874195492417 25.869201845080816 25.866406995176124 25.859589980668922 25.887022635954406
          25.859015451750274 26.027338606624774 26.014428594286453 25.93918606489692 25.981089584018726 25.909272133758776
          25.95805826637633 25.87384370530114 25.905728347681624 25.888538232529605 25.92220175657498 25.882103650034786
          26.115100032320854 26.010504023367435 26.027286444802325 25.851148810140042 25.87156692875921 25.8367839927747
          25.849438226022 25.84265620272803 25.856413120071235 25.843324911602576 25.939319475645405 25.891747577045187
          25.900427516222233 26.008597733719384 26.07014255129714 26.032035443574294 26.255882360373242 25.969680630883126
          26.02079346434426 25.90796210156434 25.941376761188533 25.949662813983107 25.990338928769376 25.92250255342424
          26.173294227103852 26.040002275121285 26.088734864034794 25.871618860424828 25.893021874659745 25.849384894415177
          25.863033574357345 25.864567347891196 25.880740347347032 25.855021978151967 25.95733721824793 25.90462302238641
          25.921023318240046 25.835785388786764 25.844247345385224 25.830878034511027 25.83716214638955 25.832859776049247
          25.839095450047505 25.833264945601126 25.870448100356764 25.85421270744366 25.85544109793578 28.457003171930843