<?xml version="1.0"?>
<VTKFile type="UnstructuredGrid" version="0.1" byte_order="LittleEndian" header_type="UInt32" compressor="vtkZLibDataCompressor">
  <UnstructuredGrid>
    <Piece NumberOfPoints="370" NumberOfCells="205">
      <PointData>
        <DataArray type="Int32" Name="libmesh_node_id" format="ascii" RangeMin="245" RangeMax="3048">
          360 361 472 473 743 744
          745 746 747 748 749 750
          751 752 753 754 923 924
          929 1394 1395 1396 1397 1398
          1399 1400 1401 1402 1403 1404
          1405 1406 1407 1408 1409 1410
          1411 1412 1413 1418 1419 1425
          1432 1433 1434 1442 1446 1535
          1537 1572 1573 1574 1575 1576
          1577 1578 1579 1580 1581 1582
          1583 1584 1585 1586 1587 1588
          1589 1590 1591 1592 1593 1594
          1595 2784 2785 2786 2787 2788
          2789 2790 2791 2792 2793 2794
          2795 2796 2797 2798 2799 2800
          2801 2802 2803 2804 2805 2806
          2807 2808 2809 2810 2811 2812
          2813 2814 2815 2816 2817 2818
          2819 2820 2821 2822 2823 2824
          2825 2826 2827 2828 2829 2830
          2831 2832 2833 2834 2835 2836
          2837 2838 2839 2840 2841 2842
          2843 2844 2845 2846 2847 2848
          2849 2850 2851 2852 2853 2854
          2855 2856 2857 2858 2859 2860
          2861 2862 2863 2864 2865 2900
          2901 2902 2903 2904 2905 2906
          2907 2908 2909 2910 2911 2913
          2914 2915 2916 2917 2918 2919
          2920 2921 2922 2923 2928 2929
          2930 2931 2932 2933 2934 2935
          2937 2938 2939 2940 2941 2942
          2943 2944 2982 2983 2984 2985
          2986 2987 2988 2989 2990 2991
          2992 2993 2994 2995 2996 2997
          2998 2999 3000 3001 3016 3018
          3020 3026 3028 3030 3036 3037
          3038 3039 3040 3041 3042 465
          466 245 350 693 694 695
          698 362 767 768 755 774
          363 1204 1205 1206 1209 1232
          1436 352 1330 1437 1332 756
          1435 1438 1444 1426 1427 1445
          1443 1447 1448 917 931 735
          933 1422 1226 1227 1230 701
          2009 2010 2011 2014 351 2017
          1212 2031 2032 2035 2037 2332
          2333 2335 1314 2338 1315 2348
          2350 2352 1317 2366 2866 2867
          2367 2868 2869 2870 2369 2871
          2876 2877 2878 2879 2880 2881
          2886 2382 2887 2888 2384 2889
          2893 2894 2895 2896 1420 2912
          1421 2924 2925 1423 2926 2927
          1424 2936 2945 2946 2947 2948
          2949 2950 2951 2952 2953 2968
          2969 2970 2971 2071 2440 2442
          2444 3002 2474 3003 3004 2476
          3005 3009 3010 3011 3012 2464
          3017 2488 3019 3021 2490 3022
          3027 3029 3031 3032 3043 3044
          3045 3046 3047 3048
        </DataArray>
        <DataArray type="Float64" Name="bounds" format="ascii" RangeMin="0" RangeMax="0">
          0 0 0 0 0 0
          0 0 0 0 0 0
          0 0 0 0 0 0
          0 0 0 0 0 0
          0 0 0 0 0 0
          0 0 0 0 0 0
          0 0 0 0 0 0
          0 0 0 0 0 0
          0 0 0 0 0 0
          0 0 0 0 0 0
          0 0 0 0 0 0
          0 0 0 0 0 0
          0 0 0 0 0 0
          0 0 0 0 0 0
          0 0 0 0 0 0
          0 0 0 0 0 0
          0 0 0 0 0 0
          0 0 0 0 0 0
          0 0 0 0 0 0
          0 0 0 0 0 0
          0 0 0 0 0 0
          0 0 0 0 0 0
          0 0 0 0 0 0
          0 0 0 0 0 0
          0 0 0 0 0 0
          0 0 0 0 0 0
          0 0 0 0 0 0
          0 0 0 0 0 0
          0 0 0 0 0 0
          0 0 0 0 0 0
          0 0 0 0 0 0
          0 0 0 0 0 0
          0 0 0 0 0 0
          0 0 0 0 0 0
          0 0 0 0 0 0
          0 0 0 0 0 0
          0 0 0 0 0 0
          0 0 0 0 0 0
          0 0 0 0 0 0
          0 0 0 0 0 0
          0 0 0 0 0 0
          0 0 0 0 0 0
          0 0 0 0 0 0
          0 0 0 0 0 0
          0 0 0 0 0 0
          0 0 0 0 0 0
          0 0 0 0 0 0
          0 0 0 0 0 0
          0 0 0 0 0 0
          0 0 0 0 0 0
          0 0 0 0 0 0
          0 0 0 0 0 0
          0 0 0 0 0 0
          0 0 0 0 0 0
          0 0 0 0 0 0
          0 0 0 0 0 0
          0 0 0 0 0 0
          0 0 0 0 0 0
          0 0 0 0 0 0
          0 0 0 0 0 0
          0 0 0 0 0 0
          0 0 0 0
        </DataArray>
        <DataArray type="Float64" Name="gradient_error" format="ascii" RangeMin="7.407883799032722e-12" RangeMax="7.856867403532006e-9">
          1.6395924632519203e-10 1.8935060275816888e-10 1.6568511646995984e-10 1.9074908183531577e-10 3.4252542160816755e-10 2.9513100999557644e-10
          2.0518868743373664e-10 1.7239486419132352e-10 5.869439989176983e-11 4.7400763990752096e-11 4.236427708090493e-11 2.2066829810728138e-10
          2.0006517097850437e-10 5.802224333119934e-11 1.1347011455058983e-10 7.115466856906064e-11 2.2996570192089483e-11 2.0555963527707398e-11
          1.8115356863325312e-11 1.8501922021052983e-10 1.645938719793896e-10 1.2360158690688364e-10 1.0826423063594525e-10 6.208971118386318e-11
          7.753011510704614e-11 6.807734278112974e-11 1.1697151261960207e-10 1.4858590783099125e-10 6.993615800087703e-11 2.723593582455068e-10
          2.138787149062475e-10 9.18117704162247e-11 1.7337912177953488e-10 1.4860997632759548e-9 1.0946089964769434e-9 4.526431983599467e-10
          3.355069531627442e-10 4.6336169219506647e-10 1.4615071926447365e-10 6.459873558457278e-11 5.429032120341318e-11 4.017032701818486e-11
          2.333796989852645e-10 2.2309880212614696e-10 8.947789915286886e-11 3.679656124370486e-11 3.710556557322641e-11 2.1089485026582132e-10
          8.910988788355167e-11 2.197873508298489e-11 2.085650685593184e-11 5.953181468055639e-11 5.193379270828562e-11 1.609283365993456e-11
          3.293613067030308e-11 2.8907553343363774e-11 1.867319319169896e-11 3.63906256001965e-11 2.0150020593152016e-11 8.167423988963566e-11
          1.5386802423775306e-10 4.0958149723118394e-11 6.635212937646381e-11 7.357397828831656e-11 1.032359813331334e-10 5.154509911919205e-11
          1.6642343562995354e-11 2.431502294638703e-11 1.2582547685552236e-11 1.4583409291633475e-11 1.5672579371471573e-11 2.0184565428395915e-11
          1.3745753413387382e-11 1.0134231938578022e-10 9.661576625678232e-11 1.815767085284846e-10 1.7224910345652957e-10 5.939084135040888e-11
          1.0877156565594822e-10 1.0327093155469444e-10 8.452892482066883e-11 1.4778428273505028e-10 8.861116375720205e-11 4.5747540891739794e-10
          4.3023674297177204e-10 2.5622676025048166e-10 3.5893526242774944e-10 3.7474647477987365e-11 3.572891215745826e-11 6.200994900039812e-11
          5.888890276683117e-11 2.7499393340427888e-11 4.410845667983444e-11 4.1915611206068554e-11 3.113164291390778e-11 5.06470307776255e-11
          3.6054031988663026e-11 1.5595746105232949e-10 1.4684445149799894e-10 9.683678698151533e-11 1.228650197638753e-10 7.171390639689322e-11
          1.1463258938888237e-10 4.422321138919581e-11 6.917035841549281e-11 6.62591762802332e-11 9.661811169223876e-11 5.888868677002214e-11
          2.6657436823115617e-10 1.58853606310511e-10 2.099080250163745e-10 2.6343468866591602e-11 3.988571419392606e-11 2.0337907809796033e-11
          2.9220479311920156e-11 2.4406828742296793e-11 3.424522336586536e-11 2.605566037881692e-11 9.16011979714254e-11 6.091118460707445e-11
          7.217105094364271e-11 1.1065084773070283e-9 1.0316592665011993e-9 6.578179875307973e-10 6.133619447739607e-10 8.38324131764939e-10
          4.986638279752416e-10 2.4965157326566864e-9 2.3141592521172415e-9 1.376520669430859e-9 1.842342960635624e-9 3.7517790189201445e-10
          3.5009761120500173e-10 2.046057829453876e-10 1.9118766824184464e-10 2.853045756694602e-10 1.5638465351872724e-10 8.402877991447658e-10
          7.784331675495059e-10 4.1972728306395525e-10 6.198839644425887e-10 6.013766645818292e-10 3.578296530191423e-10 3.8848062185029695e-10
          2.3101108487237424e-10 1.269722008149013e-9 7.546196520307646e-10 7.781864879379663e-10 2.0540983037288866e-10 1.1336143597503149e-10
          1.3308791827826578e-10 7.414160666632018e-11 4.2914276261499866e-10 2.340914671168601e-10 2.652379021767373e-10 6.405592273352213e-11
          6.031555278201466e-11 1.061202696322672e-10 9.933389892768362e-11 3.0287037612155266e-11 5.3042958846321585e-11 4.9759464989611845e-11
          5.0403478199604556e-11 8.169729430589333e-11 4.1273253003824496e-11 2.331299664866651e-10 2.165514402687522e-10 1.7406994811216372e-10
          1.6151845533015864e-11 1.528221309048379e-11 2.5694092817036206e-11 2.4179715630584142e-11 1.0695638536937229e-11 1.6642864262341516e-11
          1.571316087479906e-11 1.301064822650705e-11 2.0247486147861514e-11 1.3220515011631007e-11 3.8033209783469624e-11 5.98884427193495e-11
          1.9689902792600166e-11 3.0482571814360566e-11 2.616494462263631e-11 3.961584572671563e-11 2.350431606069742e-11 1.2288969156123355e-10
          7.77462059138305e-11 1.0254275687703312e-11 1.5146337998964854e-11 7.407883799032722e-12 1.0258365601406758e-11 8.899835570344242e-12
          1.2463042146338745e-11 8.859158666808113e-12 1.5519490355082288e-10 2.30118870747162e-10 9.205675940507786e-11 1.3682463540787246e-10
          1.1721830931844162e-10 1.6619161912288136e-10 9.886465317592211e-11 4.387604830659318e-10 2.61256853677456e-10 2.6907044169251336e-10
          5.334189341939965e-11 7.915664145738211e-11 3.056969748825159e-11 4.4730035154190845e-11 4.057823072540842e-11 5.736527628307879e-11
          3.289997542665153e-11 1.5062910555584006e-10 8.396217144103296e-11 9.282329877155157e-11 1.4774468806694442e-10 8.958859954023496e-11
          1.0369576477736069e-10 5.246317128164669e-11 3.9987418605468826e-11 3.821352436318093e-11 1.686092086984202e-11 2.413701657176921e-11
          1.2612514192367484e-11 1.7049769473671737e-11 1.3226598492648752e-11 1.797216674011952e-11 1.3375808273199654e-11 7.520573782766597e-10
          6.620425756395541e-10 1.4434325027711454e-9 1.0064442322524138e-9 1.3118102847109477e-9 9.97893642307141e-10 8.059573250708392e-10
          9.363431517326072e-10 3.7012473685874056e-11 2.2216317785340533e-11 1.9031189226073708e-11 2.9405040487920586e-11 1.9577968380284058e-11
          7.374429553576554e-11 4.1918468976832026e-10 3.15613920531966e-10 2.778827386983501e-10 2.4445146282402853e-10 3.0168353771467873e-10
          2.2889153435931474e-10 6.975985603028202e-10 4.33613193292468e-10 2.2402505735418052e-10 4.084963224497328e-10 1.699239312098341e-10
          9.497236329080222e-11 1.2498996290229132e-10 2.3288697941098154e-11 4.4755920684269593e-11 2.3723527944795676e-11 2.748615749963979e-11
          5.473573163996448e-11 8.043523268016275e-11 2.5857896826300268e-11 9.246401177918756e-10 2.2730305313857514e-10 9.588131286949871e-10
          9.572656712315798e-11 2.8472345153400082e-11 2.0727842351650443e-10 2.607301013515849e-10 2.7562181985911705e-10 3.381197764470929e-10
          1.5595625616802386e-10 2.939915913038215e-10 2.788704442417986e-10 2.394019436305414e-10 7.393440965639546e-10 6.955221675620556e-10
          5.806958733935322e-10 1.1352839558871392e-10 1.861572936773958e-10 1.4832141808073863e-10 4.341339239792733e-10 1.7800558755391953e-9
          1.6606957080732556e-9 1.3515381705365234e-9 3.974085220692233e-9 3.690329653243674e-9 2.949876321283679e-9 9.719997018153515e-10
          6.308639697396475e-10 2.0412581983288308e-9 1.2546304050643574e-9 7.856867403532006e-9 5.033754421071784e-9 4.664207819943242e-9
          7.3063619786490454e-9 3.0295973822118506e-9 2.8001892132835936e-9 3.6828494683671714e-9 5.818432752300962e-9 2.1996907940103204e-9
          1.7171949671525535e-9 1.5852301801320742e-9 9.205710509930068e-10 8.49750721445494e-10 1.2433494772881115e-9 6.675775827684063e-10
          2.470838910365163e-9 3.939261731817814e-9 1.4705211629498326e-9 1.446322019864522e-9 2.321347234828567e-9 8.60825914194703e-10
          8.326136420000965e-10 4.4991519416060827e-10 4.90249589869336e-10 2.6785992637532267e-10 1.151625983804905e-10 1.0722353796754754e-10
          8.682340704915156e-11 5.4833557661643326e-11 5.1196827396155276e-11 3.2629689779947575e-11 2.784879932905172e-11 4.180882257920738e-11
          2.5779992662153103e-11 6.190693588379438e-11 3.004736135965808e-11 1.6684999853004023e-11 2.2197177975803905e-11 4.688674856397908e-10
          4.3320872490126524e-10 2.2801822116766954e-10 2.110646844115865e-10 3.4183723100957776e-10 1.6766914782093525e-10 2.3289457141327633e-10
          1.1581996597562825e-10 1.408676344863014e-10 7.112121753149687e-11 2.1784909107820233e-10 3.7740005154498564e-10 2.424569567763189e-10
          7.122190319622861e-10 7.746207332898244e-10 1.2491310864651478e-9 4.6191195262591397e-10 3.9158633502883996e-10 6.355965403771644e-10
          2.339287287801547e-10 2.6563654015993766e-10 1.4677895956471254e-10 1.351421808572175e-10 8.856909768075027e-11 2.195427539403159e-10
          1.913434435870939e-10 3.11988050393551e-10 1.1498465929923757e-10 1.2675174677779608e-10 2.058652361057213e-10 7.672572013494936e-11
          6.694149014477146e-11 4.942332953804177e-11 4.61662416918759e-11 3.6026728156162745e-11 4.495606573244102e-11 2.7115437065945415e-11
          3.2032120586199985e-11 7.795416424933962e-11 3.995033732518257e-11 5.38377044962131e-11
        </DataArray>
        <DataArray type="Float64" Name="gradient_matprop_error" format="ascii" RangeMin="0" RangeMax="0">
          0 0 0 0 0 0
          0 0 0 0 0 0
          0 0 0 0 0 0
          0 0 0 0 0 0
          0 0 0 0 0 0
          0 0 0 0 0 0
          0 0 0 0 0 0
          0 0 0 0 0 0
          0 0 0 0 0 0
          0 0 0 0 0 0
          0 0 0 0 0 0
          0 0 0 0 0 0
          0 0 0 0 0 0
          0 0 0 0 0 0
          0 0 0 0 0 0
          0 0 0 0 0 0
          0 0 0 0 0 0
          0 0 0 0 0 0
          0 0 0 0 0 0
          0 0 0 0 0 0
          0 0 0 0 0 0
          0 0 0 0 0 0
          0 0 0 0 0 0
          0 0 0 0 0 0
          0 0 0 0 0 0
          0 0 0 0 0 0
          0 0 0 0 0 0
          0 0 0 0 0 0
          0 0 0 0 0 0
          0 0 0 0 0 0
          0 0 0 0 0 0
          0 0 0 0 0 0
          0 0 0 0 0 0
          0 0 0 0 0 0
          0 0 0 0 0 0
          0 0 0 0 0 0
          0 0 0 0 0 0
          0 0 0 0 0 0
          0 0 0 0 0 0
          0 0 0 0 0 0
          0 0 0 0 0 0
          0 0 0 0 0 0
          0 0 0 0 0 0
          0 0 0 0 0 0
          0 0 0 0 0 0
          0 0 0 0 0 0
          0 0 0 0 0 0
          0 0 0 0 0 0
          0 0 0 0 0 0
          0 0 0 0 0 0
          0 0 0 0 0 0
          0 0 0 0 0 0
          0 0 0 0 0 0
          0 0 0 0 0 0
          0 0 0 0 0 0
          0 0 0 0 0 0
          0 0 0 0 0 0
          0 0 0 0 0 0
          0 0 0 0 0 0
          0 0 0 0 0 0
          0 0 0 0 0 0
          0 0 0 0
        </DataArray>
        <DataArray type="Float64" Name="initial_marker" format="ascii" RangeMin="0" RangeMax="2">
          0 0 0 0 0 0
          0 0 0 0 0 0
          0 0 1.5 0.5 0 0
          0 0 0 0 0 0
          0 0 0 0 0 2
          2 1.25 1.25 2 2 2
          2 2 2 0.5 0.25 0
          0 1.5 0 0 0 0
          0 0 0 0 0 0
          0 0 0 0 0 0
          0 0 0 0 0 0
          0 0 0 0 0 0
          0 1 1 1.5 1.5 0
          1 1 0.5 1.25 1 2
          2 2 2 0 0 1
          1 0 1 1 0 0.75
          0.5 2 2 2 1.75 0
          1 0 0.75 0 1 0.5
          2 1.75 2 0 0.25 0
          0 0 0 0 1.25 1.3333333333333333
          1 2 2 2 2 2
          2 2 2 2 2 2
          2 2 2 2 2 2
          2 2 2 2 2 2
          2 2 2 2 2 2
          1.75 1.5 2 2 2 2
          2 2 2 1 1.5 1.5
          1.5 1.75 1.25 2 2 2
          0 0 1 1 0 1
          1 0 0.75 0.5 1 1.5
          0 0.75 0.5 1 0.3333333333333333 2
          1.75 0 0.25 0 0 0
          0 0 1.5 1.75 1 1.5
          1 1.5 1 2 2 2
          0.5 1 0 0.5 0 0.5
          0 1.75 1.5 1.3333333333333333 1 1
          0 0.5 0 0 0 0.25
          0 0 0 0 0 0
          0 0 0 0 0 0
          0 0 0 0 0 0
          0 0 1 0.5 0 0.5
          0 0 1.75 0 0 0
          0.5 0 0 1.25 0.25 0
          0 0 0 0 0 0
          0 0 0 0 0 1.75
          2 2 2 1.5 2 2
          2 0 1 1 2 2
          2 2 2 2 2 2
          2 2 2 2 2 2
          2 2 2 2 2 2
          2 2 2 2 2 2
          2 2 2 2 2 2
          2 2 2 2 2 2
          2 2 2 1.5 2 1.75
          1 1.75 1.25 0.6666666666666666 1 2
          2 2 2 2 2 2
          2 2 2 1.6666666666666667 2 1.6666666666666667
          2 2 2 2 2 2
          2 2 2 1.75 1.6666666666666667 1
          1.25 1.5 1 0.5 1 0
          0.75 0.5 0 0 1 0.6666666666666666
          0.5 1.75 1.25 1.5
        </DataArray>
        <DataArray type="Float64" Name="markers_norefine" format="ascii" RangeMin="0" RangeMax="0">
          0 0 0 0 0 0
          0 0 0 0 0 0
          0 0 0 0 0 0
          0 0 0 0 0 0
          0 0 0 0 0 0
          0 0 0 0 0 0
          0 0 0 0 0 0
          0 0 0 0 0 0
          0 0 0 0 0 0
          0 0 0 0 0 0
          0 0 0 0 0 0
          0 0 0 0 0 0
          0 0 0 0 0 0
          0 0 0 0 0 0
          0 0 0 0 0 0
          0 0 0 0 0 0
          0 0 0 0 0 0
          0 0 0 0 0 0
          0 0 0 0 0 0
          0 0 0 0 0 0
          0 0 0 0 0 0
          0 0 0 0 0 0
          0 0 0 0 0 0
          0 0 0 0 0 0
          0 0 0 0 0 0
          0 0 0 0 0 0
          0 0 0 0 0 0
          0 0 0 0 0 0
          0 0 0 0 0 0
          0 0 0 0 0 0
          0 0 0 0 0 0
          0 0 0 0 0 0
          0 0 0 0 0 0
          0 0 0 0 0 0
          0 0 0 0 0 0
          0 0 0 0 0 0
          0 0 0 0 0 0
          0 0 0 0 0 0
          0 0 0 0 0 0
          0 0 0 0 0 0
          0 0 0 0 0 0
          0 0 0 0 0 0
          0 0 0 0 0 0
          0 0 0 0 0 0
          0 0 0 0 0 0
          0 0 0 0 0 0
          0 0 0 0 0 0
          0 0 0 0 0 0
          0 0 0 0 0 0
          0 0 0 0 0 0
          0 0 0 0 0 0
          0 0 0 0 0 0
          0 0 0 0 0 0
          0 0 0 0 0 0
          0 0 0 0 0 0
          0 0 0 0 0 0
          0 0 0 0 0 0
          0 0 0 0 0 0
          0 0 0 0 0 0
          0 0 0 0 0 0
          0 0 0 0 0 0
          0 0 0 0
        </DataArray>
        <DataArray type="Float64" Name="markers_mustrefine" format="ascii" RangeMin="0" RangeMax="2">
          0 0 0 0 0 0
          0 0 0 0 0 0
          0 0 1.5 0.5 0 0
          0 0 0 0 0 0
          0 0 0 0 0 2
          2 1.25 1.25 2 2 2
          2 2 2 0.5 0.25 0
          0 1.5 0 0 0 0
          0 0 0 0 0 0
          0 0 0 0 0 0
          0 0 0 0 0 0
          0 0 0 0 0 0
          0 1 1 1.5 1.5 0
          1 1 0.5 1.25 1 2
          2 2 2 0 0 1
          1 0 1 1 0 0.75
          0.5 2 2 2 1.75 0
          1 0 0.75 0 1 0.5
          2 1.75 2 0 0.25 0
          0 0 0 0 1.25 1.3333333333333333
          1 2 2 2 2 2
          2 2 2 2 2 2
          2 2 2 2 2 2
          2 2 2 2 2 2
          2 2 2 2 2 2
          1.75 1.5 2 2 2 2
          2 2 2 1 1.5 1.5
          1.5 1.75 1.25 2 2 2
          0 0 1 1 0 1
          1 0 0.75 0.5 1 1.5
          0 0.75 0.5 1 0.3333333333333333 2
          1.75 0 0.25 0 0 0
          0 0 1.5 1.75 1 1.5
          1 1.5 1 2 2 2
          0.5 1 0 0.5 0 0.5
          0 1.75 1.5 1.3333333333333333 1 1
          0 0.5 0 0 0 0.25
          0 0 0 0 0 0
          0 0 0 0 0 0
          0 0 0 0 0 0
          0 0 1 0.5 0 0.5
          0 0 1.75 0 0 0
          0.5 0 0 1.25 0.25 0
          0 0 0 0 0 0
          0 0 0 0 0 1.75
          2 2 2 1.5 2 2
          2 0 1 1 2 2
          2 2 2 2 2 2
          2 2 2 2 2 2
          2 2 2 2 2 2
          2 2 2 2 2 2
          2 2 2 2 2 2
          2 2 2 2 2 2
          2 2 2 1.5 2 1.75
          1 1.75 1.25 0.6666666666666666 1 2
          2 2 2 2 2 2
          2 2 2 1.6666666666666667 2 1.6666666666666667
          2 2 2 2 2 2
          2 2 2 1.75 1.6666666666666667 1
          1.25 1.5 1 0.5 1 0
          0.75 0.5 0 0 1 0.6666666666666666
          0.5 1.75 1.25 1.5
        </DataArray>
        <DataArray type="Float64" Name="gradient_marker" format="ascii" RangeMin="1" RangeMax="1">
          1 1 1 1 1 1
          1 1 1 1 1 1
          1 1 1 1 1 1
          1 1 1 1 1 1
          1 1 1 1 1 1
          1 1 1 1 1 1
          1 1 1 1 1 1
          1 1 1 1 1 1
          1 1 1 1 1 1
          1 1 1 1 1 1
          1 1 1 1 1 1
          1 1 1 1 1 1
          1 1 1 1 1 1
          1 1 1 1 1 1
          1 1 1 1 1 1
          1 1 1 1 1 1
          1 1 1 1 1 1
          1 1 1 1 1 1
          1 1 1 1 1 1
          1 1 1 1 1 1
          1 1 1 1 1 1
          1 1 1 1 1 1
          1 1 1 1 1 1
          1 1 1 1 1 1
          1 1 1 1 1 1
          1 1 1 1 1 1
          1 1 1 1 1 1
          1 1 1 1 1 1
          1 1 1 1 1 1
          1 1 1 1 1 1
          1 1 1 1 1 1
          1 1 1 1 1 1
          1 1 1 1 1 1
          1 1 1 1 1 1
          1 1 1 1 1 1
          1 1 1 1 1 1
          1 1 1 1 1 1
          1 1 1 1 1 1
          1 1 1 1 1 1
          1 1 1 1 1 1
          1 1 1 1 1 1
          1 1 1 1 1 1
          1 1 1 1 1 1
          1 1 1 1 1 1
          1 1 1 1 1 1
          1 1 1 1 1 1
          1 1 1 1 1 1
          1 1 1 1 1 1
          1 1 1 1 1 1
          1 1 1 1 1 1
          1 1 1 1 1 1
          1 1 1 1 1 1
          1 1 1 1 1 1
          1 1 1 1 1 1
          1 1 1 1 1 1
          1 1 1 1 1 1
          1 1 1 1 1 1
          1 1 1 1 1 1
          1 1 1 1 1 1
          1 1 1 1 1 1
          1 1 1 1 1 1
          1 1 1 1
        </DataArray>
        <DataArray type="Float64" Name="gradient_matprop_marker" format="ascii" RangeMin="0" RangeMax="0">
          0 0 0 0 0 0
          0 0 0 0 0 0
          0 0 0 0 0 0
          0 0 0 0 0 0
          0 0 0 0 0 0
          0 0 0 0 0 0
          0 0 0 0 0 0
          0 0 0 0 0 0
          0 0 0 0 0 0
          0 0 0 0 0 0
          0 0 0 0 0 0
          0 0 0 0 0 0
          0 0 0 0 0 0
          0 0 0 0 0 0
          0 0 0 0 0 0
          0 0 0 0 0 0
          0 0 0 0 0 0
          0 0 0 0 0 0
          0 0 0 0 0 0
          0 0 0 0 0 0
          0 0 0 0 0 0
          0 0 0 0 0 0
          0 0 0 0 0 0
          0 0 0 0 0 0
          0 0 0 0 0 0
          0 0 0 0 0 0
          0 0 0 0 0 0
          0 0 0 0 0 0
          0 0 0 0 0 0
          0 0 0 0 0 0
          0 0 0 0 0 0
          0 0 0 0 0 0
          0 0 0 0 0 0
          0 0 0 0 0 0
          0 0 0 0 0 0
          0 0 0 0 0 0
          0 0 0 0 0 0
          0 0 0 0 0 0
          0 0 0 0 0 0
          0 0 0 0 0 0
          0 0 0 0 0 0
          0 0 0 0 0 0
          0 0 0 0 0 0
          0 0 0 0 0 0
          0 0 0 0 0 0
          0 0 0 0 0 0
          0 0 0 0 0 0
          0 0 0 0 0 0
          0 0 0 0 0 0
          0 0 0 0 0 0
          0 0 0 0 0 0
          0 0 0 0 0 0
          0 0 0 0 0 0
          0 0 0 0 0 0
          0 0 0 0 0 0
          0 0 0 0 0 0
          0 0 0 0 0 0
          0 0 0 0 0 0
          0 0 0 0 0 0
          0 0 0 0 0 0
          0 0 0 0 0 0
          0 0 0 0
        </DataArray>
        <DataArray type="Float64" Name="combo" format="ascii" RangeMin="1" RangeMax="1">
          1 1 1 1 1 1
          1 1 1 1 1 1
          1 1 1 1 1 1
          1 1 1 1 1 1
          1 1 1 1 1 1
          1 1 1 1 1 1
          1 1 1 1 1 1
          1 1 1 1 1 1
          1 1 1 1 1 1
          1 1 1 1 1 1
          1 1 1 1 1 1
          1 1 1 1 1 1
          1 1 1 1 1 1
          1 1 1 1 1 1
          1 1 1 1 1 1
          1 1 1 1 1 1
          1 1 1 1 1 1
          1 1 1 1 1 1
          1 1 1 1 1 1
          1 1 1 1 1 1
          1 1 1 1 1 1
          1 1 1 1 1 1
          1 1 1 1 1 1
          1 1 1 1 1 1
          1 1 1 1 1 1
          1 1 1 1 1 1
          1 1 1 1 1 1
          1 1 1 1 1 1
          1 1 1 1 1 1
          1 1 1 1 1 1
          1 1 1 1 1 1
          1 1 1 1 1 1
          1 1 1 1 1 1
          1 1 1 1 1 1
          1 1 1 1 1 1
          1 1 1 1 1 1
          1 1 1 1 1 1
          1 1 1 1 1 1
          1 1 1 1 1 1
          1 1 1 1 1 1
          1 1 1 1 1 1
          1 1 1 1 1 1
          1 1 1 1 1 1
          1 1 1 1 1 1
          1 1 1 1 1 1
          1 1 1 1 1 1
          1 1 1 1 1 1
          1 1 1 1 1 1
          1 1 1 1 1 1
          1 1 1 1 1 1
          1 1 1 1 1 1
          1 1 1 1 1 1
          1 1 1 1 1 1
          1 1 1 1 1 1
          1 1 1 1 1 1
          1 1 1 1 1 1
          1 1 1 1 1 1
          1 1 1 1 1 1
          1 1 1 1 1 1
          1 1 1 1 1 1
          1 1 1 1 1 1
          1 1 1 1
        </DataArray>
        <DataArray type="Float64" Name="dHdT" format="ascii" RangeMin="25.811669133383553" RangeMax="27.39969173600455">
          25.811960142677652 25.81197872384261 25.811669133383553 25.811699024231917 25.813606871359084 25.81348515987431
          25.814146902593684 25.81376005969795 25.812079492796972 25.812111267722564 25.812070365272774 25.813293283303494
          25.81361391991978 25.812190591492097 25.826148362162737 25.81846740482126 25.811737315736803 25.81173444296781
          25.811731570198816 25.819453518262996 25.81869296677273 25.82212883115559 25.820816166809514 25.814461171791987
          25.8156986535897 25.815254910488942 25.81722889312008 25.819158674612122 25.814746608277698 25.860197169740992
          25.84994497116991 25.823277479733775 25.832030182890406 26.080360904664957 26.004087428862253 25.89104306281691
          25.869370402353912 25.892413460699803 25.836950093593256 25.816067668382644 25.81531092378625 25.813948376706094
          25.82253160049844 25.837690145532974 25.815939182779278 25.813268770172645 25.813162416244694 25.813447474395055
          25.81247477811397 25.812821813761403 25.81275481425463 25.813635774199852 25.81342762214159 25.812327387007564
          25.812716870207367 25.812613677642133 25.81263321384044 25.813028906969627 25.812412215653918 25.816265641727444
          25.81798030869737 25.813760563663173 25.814385882351594 25.816005912497193 25.816936782001342 25.81406804243274
          25.812559709142043 25.812755406755088 25.812216124566255 25.812294401806973 25.812540805351084 25.812672469654245
          25.81227485738302 25.833573264190253 25.832708935320703 25.84683080903558 25.845142346452846 25.82429013728038
          25.832557075957265 25.831569325763926 25.830350788967372 25.840684832764474 25.82899789783947 25.89425970470623
          25.88928818919159 25.857319642608754 25.87653156049392 25.819490257321448 25.81918535959285 25.823790860016373
          25.823224667612024 25.817355697041517 25.820531480937362 25.820118280114798 25.81842395930061 25.821792592823723
          25.81910029224026 25.839139488349314 25.837541082471336 25.828549584255395 25.83347277986401 25.82742842265026
          25.83513416367241 25.82137860777964 25.825921930859725 25.825999873816933 25.832352545685982 25.82442964161109
          25.86075677264273 25.84092105056838 25.85117459233572 25.817587397734105 25.820125139441295 25.816193769934806
          25.817941123852826 25.817207338731247 25.819323568442822 25.81738674251737 25.828525093288555 25.822756926950223
          25.825616800727165 26.01070054144446 25.99635774412044 25.92783039669114 25.91955524198203 25.96042940189815
          25.89882582038447 26.27082620054894 26.23309767544313 26.05828582225503 26.140396597166102 25.876745123228737
          25.87220817591626 25.846785894920785 25.844409417096536 25.860820182756868 25.83843170004572 25.96120083262681
          25.949019387778584 25.884788781368407 25.91922414978395 25.917946576793717 25.87429212353233 25.88110501467869
          25.852978964593387 26.035057189594067 25.942662618120192 25.94869063763043 25.847286744308413 25.831273353210918
          25.835477432350075 25.824976073490348 25.885448999160804 25.85168816748523 25.857627631059998 25.82298577624735
          25.8223323950087 25.830075836172526 25.8288792734892 25.817357480646116 25.82104083814925 25.82046181612163
          25.820687078529126 25.82586013237026 25.81899261236908 25.852136109990983 25.849066903561358 25.84145347556863
          25.81474608499959 25.814584758465536 25.816265993668935 25.81599483525043 25.813622974461413 25.81464514927449
          25.81447284435574 25.814177198433434 25.815310964612465 25.81404782169062 25.81862923092674 25.82218776672508
          25.815472664872296 25.8171885135262 25.816734161482252 25.818917037070044 25.816110129130845 25.832594746379794
          25.825101497244393 25.81368596778308 25.814492696207463 25.813055004739873 25.813558131060972 25.813440970630776
          25.81408714002192 25.813321158177693 25.841698865292624 25.854726629653452 25.830237687087067 25.837784275136325
          25.83540814952722 25.84429252653711 25.831823314654518 25.89037409684152 25.858541694852445 25.862271778796895
          25.822814444232655 25.827050961684908 25.81817374683087 25.820475779699343 25.82087309316868 25.823751410376538
          25.818715658020675 25.838719033552994 25.826822813639748 25.82955831214561 25.842417833071146 25.830565449796882
          25.834134836982464 25.82295742828338 25.820077220080094 25.820180813470035 25.815383585393533 25.816594468164556
          25.814385071727706 25.815197316822616 25.81486216638784 25.81569284170455 25.8146134390692 25.812065458718614
          25.812044517059093 25.816279787729826 25.81482769682347 25.81882747619161 25.825250762349825 25.82176594643873
          25.819618143588038 25.812868754863167 25.811791871673897 25.811759759211586 25.812464712973267 25.811770581845924
          25.81228767199107 25.828660983586126 25.838964580464697 25.835310183811597 25.828222105577787 25.83567868691381
          25.82002143803129 25.827174402172236 25.881285862392374 25.82230036972245 25.836492916940173 25.814876925378005
          25.82043563516608 25.816777206194356 25.812503527261708 25.818461880763174 25.813380459784643 25.812764539144013
          25.814690852814913 25.814287213243723 25.812637441554894 25.817790976668157 25.813807737311848 25.8202533506735
          25.812420148516363 25.812960901940567 25.82195508704293 25.824410498062385 25.823882116373433 25.866055663127057
          25.845874195492417 25.869201845080816 25.866406995176124 25.859015451750274 25.947404038827663 25.93918606489692