<?xml version="1.0"?>
<VTKFile type="UnstructuredGrid" version="0.1" byte_order="LittleEndian" header_type="UInt32" compressor="vtkZLibDataCompressor">
  <UnstructuredGrid>
    <Piece NumberOfPoints="438" NumberOfCells="214">
      <PointData>
        <DataArray type="Int32" Name="libmesh_node_id" format="ascii" RangeMin="0" RangeMax="3543">
          0 1 2 3 4 5
          6 7 8 9 10 11
          12 13 14 15 16 17
          18 19 20 21 22 23
          40 41 42 43 44 45
          46 47 48 49 50 51
          60 61 62 63 64 65
          66 67 68 69 70 71
          80 81 82 83 84 85
          98 99 114 128 129 144
          158 159 174 188 189 190
          204 210 211 212 213 214
          215 216 220 221 222 224
          225 226 228 257 258 261
          262 264 265 267 268 270
          285 286 287 288 289 290
          291 292 293 294 295 296
          297 298 299 300 301 302
          303 304 305 306 307 309
          311 312 314 315 317 504
          505 506 507 508 509 510
          511 512 513 514 515 516
          517 518 519 520 521 522
          523 524 525 526 527 528
          529 530 531 532 533 534
          535 536 537 538 539 540
          541 542 543 544 545 547
          548 549 550 565 566 583
          584 589 590 781 782 783
          784 785 786 787 788 789
          790 791 792 793 794 795
          796 797 798 799 800 801
          802 803 804 805 806 807
          808 809 810 811 812 813
          814 817 818 819 821 822
          824 841 842 843 844 845
          846 847 848 849 850 851
          852 853 854 855 856 857
          858 859 860 861 862 863
          864 865 866 867 868 869
          870 871 872 873 874 875
          876 879 880 882 884 3416
          3417 3420 3421 3423 3424 3468
          3470 3472 3473 3475 3477 3478
          3479 3482 3483 3485 3486 3487
          3488 3489 3491 3492 3493 3495
          3496 3498 3499 3501 3502 3503
          3505 3506 3507 3509 3510 3511
          3512 3513 3514 3515 3516 3517
          3518 3519 3520 3522 3524 3525
          3526 3527 3529 3530 3532 3533
          3534 3535 3536 3537 3538 3539
          3540 3541 3542 3543 24 25
          26 27 52 53 72 73
          86 90 91 92 93 94
          95 96 97 100 101 102
          103 110 111 112 113 115
          116 126 127 130 131 143
          145 157 173 161 175 217
          219 223 259 263 266 308
          310 313 546 316 554 555
          556 557 559 560 320 567
          562 563 568 564 321 585
          586 587 588 328 591 592
          329 376 377 380 386 160
          399 401 406 191 409 205
          424 425 428 434 218 815
          816 820 227 823 553 877
          878 881 883 3418 3419 3422
          3425 156 3469 3471 3474 187
          3476 203 3480 3481 3484 3490
          260 3494 3497 3500 3504 186
          3508 269 3521 3523 3528 3531
        </DataArray>
        <DataArray type="Float64" Name="bounds" format="ascii" RangeMin="0" RangeMax="0">
          0 0 0 0 0 0
          0 0 0 0 0 0
          0 0 0 0 0 0
          0 0 0 0 0 0
          0 0 0 0 0 0
          0 0 0 0 0 0
          0 0 0 0 0 0
          0 0 0 0 0 0
          0 0 0 0 0 0
          0 0 0 0 0 0
          0 0 0 0 0 0
          0 0 0 0 0 0
          0 0 0 0 0 0
          0 0 0 0 0 0
          0 0 0 0 0 0
          0 0 0 0 0 0
          0 0 0 0 0 0
          0 0 0 0 0 0
          0 0 0 0 0 0
          0 0 0 0 0 0
          0 0 0 0 0 0
          0 0 0 0 0 0
          0 0 0 0 0 0
          0 0 0 0 0 0
          0 0 0 0 0 0
          0 0 0 0 0 0
          0 0 0 0 0 0
          0 0 0 0 0 0
          0 0 0 0 0 0
          0 0 0 0 0 0
          0 0 0 0 0 0
          0 0 0 0 0 0
          0 0 0 0 0 0
          0 0 0 0 0 0
          0 0 0 0 0 0
          0 0 0 0 0 0
          0 0 0 0 0 0
          0 0 0 0 0 0
          0 0 0 0 0 0
          0 0 0 0 0 0
          0 0 0 0 0 0
          0 0 0 0 0 0
          0 0 0 0 0 0
          0 0 0 0 0 0
          0 0 0 0 0 0
          0 0 0 0 0 0
          0 0 0 0 0 0
          0 0 0 0 0 0
          0 0 0 0 0 0
          0 0 0 0 0 0
          0 0 0 0 0 0
          0 0 0 0 0 0
          0 0 0 0 0 0
          0 0 0 0 0 0
          0 0 0 0 0 0
          0 0 0 0 0 0
          0 0 0 0 0 0
          0 0 0 0 0 0
          0 0 0 0 0 0
          0 0 0 0 0 0
          0 0 0 0 0 0
          0 0 0 0 0 0
          0 0 0 0 0 0
          0 0 0 0 0 0
          0 0 0 0 0 0
          0 0 0 0 0 0
          0 0 0 0 0 0
          0 0 0 0 0 0
          0 0 0 0 0 0
          0 0 0 0 0 0
          0 0 0 0 0 0
          0 0 0 0 0 0
          0 0 0 0 0 0
        </DataArray>
        <DataArray type="Float64" Name="gradient_error" format="ascii" RangeMin="1.1031165404663777e-11" RangeMax="0.0000020681181700860876">
          2.1561233899450636e-10 2.3154117505325872e-10 1.488599960631583e-10 1.4140881261030962e-10 6.336218570651941e-10 6.62230255922439e-10
          4.2566069574900445e-10 4.1357811093497645e-10 2.357787373979523e-10 1.4988310553035283e-10 6.413700241882386e-10 4.0992099110006526e-10
          1.8728990915091905e-10 1.2057853720670656e-10 4.826368553493302e-10 3.143500470321272e-10 1.3360844838951506e-10 8.345538122977613e-11
          3.401905296797132e-10 2.135693032351916e-10 7.410275883107821e-11 4.5695892635227117e-11 1.9037199969175562e-10 1.1476248608288302e-10
          6.617881707305786e-11 6.720528622611288e-11 1.890911355755699e-10 1.935343648047588e-10 6.398747366275333e-11 1.7847195801189195e-10
          5.3867165262494066e-11 1.4606323871492425e-10 3.330231407003723e-11 8.694807679066998e-11 1.728902643937602e-11 3.915297247401043e-11
          2.990777797811686e-9 3.019589427924041e-9 1.963280644506047e-9 1.9635458954146354e-9 2.754154214577752e-9 1.793984416349869e-9
          1.9867101499180158e-9 1.3264400820382913e-9 1.4032158409920304e-9 8.990862235760305e-10 8.169860624121757e-10 4.955014014593716e-10
          9.069718610880535e-10 9.363139930175845e-10 8.338146181219856e-10 6.661700141585664e-10 3.9495660616003057e-10 1.7401674050656765e-10
          5.773801019403102e-9 3.82298792637806e-9 1.8721748333530188e-9 2.3388034713909082e-8 9.009707993275869e-9 1.069017991267217e-8
          8.932112639542012e-7 1.1295888726633155e-7 1.122848704882326e-8 0.0000017557885314230345 6.281891352518085e-7 3.385464584407646e-7
          3.9733539318040734e-8 4.4655897492845116e-7 2.7849396827003516e-7 5.46724972217613e-7 0.0000016832061176374606 9.508145719656582e-7
          7.785082671117356e-7 0.0000010324614894831995 8.971251978043381e-8 3.426718760701326e-7 3.9575280109641085e-7 2.0363525766123335e-7
          0.000001127705555495913 0.0000015079352969978397 5.854662338777457e-7 6.140839592801903e-7 4.298697257036923e-7 0.0000013062567357184465
          7.343694151164883e-7 1.925115087980998e-7 2.0164272020166946e-7 0.0000013191332252148642 0.0000010469610789826255 1.859078021000374e-7
          0.0000019216509704560095 0.0000015668416786881755 0.0000015015932148246763 0.0000017828418822573108 0.0000015076500940040973 0.0000015714492027561631
          0.0000016709744247919349 8.143384642474706e-7 7.518167958430498e-7 9.63324291606066e-7 0.0000012120323869203415 0.0000016400752785032147
          0.0000011482330272270727 8.664240150173343e-7 0.0000010712414201123269 0.0000015812645707572934 0.0000018403556347591935 7.977077247177683e-7
          0.0000020681181700860876 2.2146318040964768e-7 4.046909667528892e-7 3.948779384425892e-7 5.371456991165153e-7 4.707513362825129e-7
          4.5070939788735333e-7 4.452071680629197e-7 2.5513383139890467e-7 4.1004524941026975e-7 2.858401457243097e-7 3.200710534161058e-7
          3.1384269325646965e-7 2.8281678174673976e-7 2.7006291829685315e-7 2.711741701285122e-7 2.9292784023798276e-7 2.7682072695995366e-7
          3.362928894490937e-7 2.830951171839047e-7 3.230861151662047e-7 3.076143330968336e-7 3.146815103474533e-7 2.835785356230541e-7
          3.4389185881201285e-7 2.2227728684091862e-7 2.720129872194959e-7 2.7082467217316757e-7 2.841688258819174e-7 3.2174868759807306e-7
          3.6137795908125283e-7 3.491303127278546e-7 3.0682242144582927e-7 3.5145095574726486e-7 3.823634747799274e-7 3.37969595592957e-7
          3.8588692585254034e-7 3.2151827086551664e-7 3.603220098409014e-7 3.9451372743319893e-7 2.2487234717051535e-7 3.084743597899574e-7
          3.405908441804578e-7 3.752079759139834e-7 4.307198332242606e-7 4.149270588688029e-7 3.7922829877104775e-7 4.2980978667600956e-7
          4.492266369026969e-7 4.3145811349263564e-7 4.813890466219591e-7 3.767724010789761e-7 4.2875856865933307e-7 2.912902274547973e-7
          3.831676957496875e-7 4.372338562427967e-7 4.4862412765486467e-7 5.160017985096101e-7 4.868476446262429e-7 4.979711367107666e-7
          5.434085207310832e-7 4.02373667945359e-7 5.062220004133596e-7 2.8719064273378403e-8 1.643673422034071e-8 2.1429327819996596e-8
          1.3369682609254728e-7 9.476388937105976e-8 5.562849120166755e-8 7.89277359764024e-8 4.154404167303016e-9 1.649309303227535e-8
          2.415864586025752e-8 1.3157301177948985e-8 1.862225156901463e-8 6.607851009298e-8 7.588604046327252e-8 3.272767174437765e-9
          2.1512190605890742e-8 2.19525919421201e-8 1.1899971900801102e-7 1.3314982935753042e-7 3.975161403734372e-8 6.625568875612526e-8
          5.2872080666204665e-8 8.339345683381973e-8 1.699269724617083e-7 1.5053262569943188e-7 1.1186367489525427e-7 1.300619399435867e-7
          3.9488472576284074e-8 7.319472409107668e-8 9.019690742546509e-8 1.022469703501322e-7 1.2353674563287266e-7 1.5836982035723082e-7
          1.828081265325309e-7 5.174774122558424e-8 7.456091427180395e-8 1.1784867699218766e-7 2.1449267036432945e-7 2.4207950743218916e-7
          9.737408731802366e-8 2.30096139232562e-7 2.133477751816408e-7 2.252946593235782e-7 2.7937203240108816e-7 2.8203978083696225e-7
          2.585904244663888e-7 2.5508325938493766e-7 1.9634455417899773e-7 2.8853365763736295e-7 2.649442481071148e-7 1.965994111307196e-7
          2.3514106809581534e-7 2.3079448636878722e-7 2.4135483857686655e-7 1.9938259533601746e-7 1.8808076414237022e-7 2.9682794584862024e-7
          2.707415021388221e-7 1.7677893294872292e-7 2.44655058429024e-7 2.523800438920178e-7 2.4702903599817836e-7 2.806093060724603e-7
          2.7627958914275044e-7 2.601969782174362e-7 2.886264090828463e-7 2.139706079363983e-7 2.366540825118183e-7 2.470378281464716e-7
          2.2202961941141854e-7 3.088385682529028e-7 3.055301422873225e-7 3.1705583994825635e-7 2.593375570872383e-7 2.646996319443863e-7
          2.96230740724818e-7 1.9735062967853465e-7 2.1533561871194134e-7 3.277618495052498e-7 2.3332060774534802e-7 3.071884547122544e-8
          1.779120886939664e-8 1.2693445470688594e-7 7.740147558598383e-8 4.863572267567834e-9 2.786849646508168e-8 1.894338871865694e-8
          5.033896567305912e-8 3.873377388968616e-9 1.3056399511887583e-8 8.17345426274613e-8 2.223942163480655e-8 2.384780219651153e-7
          1.9205239067073142e-7 3.0980063734853893e-7 2.584520505951434e-7 2.007787757833345e-7 3.015154624927524e-7 2.496056080665411e-7
          1.456267593763475e-7 2.071034638417479e-7 1.9769575364032973e-7 9.00946207328561e-7 7.821770573112423e-7 9.888768553018556e-7
          5.654121707880996e-7 0.0000012928575379565109 0.0000012678398460709884 0.0000014390511487080356 0.000001390356276517133 8.567525949475059e-7
          8.842043200682541e-7 0.0000011649459139878628 0.000001296177288039048 0.0000014466134902563565 9.996770178664367e-7 0.0000016865475980607695
          0.0000014210242169245009 0.0000015983766769479399 0.0000015244108671419872 7.204963360013167e-7 9.069491013151755e-7 0.0000015102057558351099
          0.0000016277975173594733 0.0000010934018666290346 2.55489117259846e-7 3.2557186810677043e-7 2.3617309020400554e-7 3.0569013091384307e-7
          1.415575367432406e-7 1.8046070050399494e-7 1.846330260174083e-7 3.9565461895369493e-7 3.7520717162368067e-7 2.1936386426474924e-7
          2.135255077715109e-7 2.810968424283646e-7 2.0137891912306604e-7 2.67584528243783e-7 1.415591793286207e-7 1.9874053956241245e-7
          2.0868390945946509e-7 3.486681770852184e-7 3.337901373645e-7 2.559218997962042e-7 1.9778204520969028e-11 1.5404684962816402e-11
          4.238339231393425e-11 2.9812930727782477e-11 1.1031165404663777e-11 1.7242469141630708e-11 1.83716040862949e-10 1.2224021983835664e-10
          6.076439881376432e-11 1.3858978590289672e-8 1.3588860898489627e-8 8.997810027169149e-9 9.22088637315261e-9 1.1745677275009776e-8
          7.853917071355702e-9 8.158902061597992e-9 5.635240798711122e-9 3.503717781845998e-9 2.185258298456846e-9 8.838320992794193e-10
          6.032764362418901e-10 4.40675915584867e-9 4.582794156015549e-9 3.962156867701628e-9 3.1115795358242518e-9 8.667988150676947e-10
          3.227207732043611e-10 1.5009735930841555e-8 1.1169627596798451e-8 8.449000985776234e-9 4.765799644161472e-9 1.400113025134024e-8
          5.584640214335847e-9 1.8086140141961466e-7 1.3710082158746795e-8 3.313252633787679e-8 5.6678960630540365e-9 4.667051704443785e-8
          2.1016934771338538e-7 5.07760542619138e-8 2.4037848461115777e-7 5.827053325560649e-7 2.1450633917719033e-7 2.560412642445016e-7
          4.551952065154371e-7 2.940667206114362e-7 4.651326411361476e-7 4.923418184154734e-7 3.0474290359806843e-7 3.1066244722613327e-7
          2.7978248593156096e-7 2.761707086722663e-7 3.1413128022356435e-7 2.800044499216341e-7 5.673511693964486e-7 5.285140905545258e-7
          1.9850768428147745e-7 2.156674554896682e-7 3.7069702221458087e-7 1.9209881468040676e-7 3.903134334723061e-7 5.802036594503213e-7
          6.196979678251095e-7 5.051366860485381e-7 5.495484851394583e-7 4.844899275248316e-7 5.916476700066737e-7 5.421183651381662e-7
          5.986414905582874e-7 6.715855380343256e-9 3.55898925180341e-8 2.190454085352758e-8 8.219189189021061e-9 3.821806781263329e-8
          6.275770530767392e-9 2.6364463101705664e-8 8.903503436460785e-9 4.9376044647874576e-8 4.6453155672643924e-8 1.6193914107854292e-8
          1.566273531057376e-8 1.1007972521072679e-7 7.809821715027615e-8 4.61167090898255e-8 1.9801905285787033e-7 6.68260016950324e-8
          1.1230842065103753e-7 1.992433539377944e-8 2.6065431253707614e-7 1.577908396070427e-7 1.7943238054026016e-7 2.3040987692266344e-7
          3.0344263919995485e-7 2.079399758788969e-7 3.3826451035225015e-7 1.0225493248190522e-8 8.128847173806814e-8 5.431830674731921e-8
          2.73481417565703e-8 1.8045492113271375e-7 1.5856391260869355e-8 2.903273365338944e-8 1.4222596766838423e-8 1.389136032558641e-7
          4.220907604590952e-8 2.389821136336501e-8 1.788287395257435e-7 3.249691735519363e-7 2.7466039785477547e-7 2.243516221576147e-7
          8.626889169671267e-7 7.597761880801881e-7 0.0000011626344366130777 0.0000011583642526721002 8.266825304642471e-7 0.0000010345993833697079
          0.0000011676681853676313 9.522243909244269e-7 2.7145279180700505e-7 3.4098116097014574e-7 1.826913297429198e-7 4.1050953013328654e-7
        </DataArray>
        <DataArray type="Float64" Name="gradient_matprop_error" format="ascii" RangeMin="0" RangeMax="0">
          0 0 0 0 0 0
          0 0 0 0 0 0
          0 0 0 0 0 0
          0 0 0 0 0 0
          0 0 0 0 0 0
          0 0 0 0 0 0
          0 0 0 0 0 0
          0 0 0 0 0 0
          0 0 0 0 0 0
          0 0 0 0 0 0
          0 0 0 0 0 0
          0 0 0 0 0 0
          0 0 0 0 0 0
          0 0 0 0 0 0
          0 0 0 0 0 0
          0 0 0 0 0 0
          0 0 0 0 0 0
          0 0 0 0 0 0
          0 0 0 0 0 0
          0 0 0 0 0 0
          0 0 0 0 0 0
          0 0 0 0 0 0
          0 0 0 0 0 0
          0 0 0 0 0 0
          0 0 0 0 0 0
          0 0 0 0 0 0
          0 0 0 0 0 0
          0 0 0 0 0 0
          0 0 0 0 0 0
          0 0 0 0 0 0
          0 0 0 0 0 0
          0 0 0 0 0 0
          0 0 0 0 0 0
          0 0 0 0 0 0
          0 0 0 0 0 0
          0 0 0 0 0 0
          0 0 0 0 0 0
          0 0 0 0 0 0
          0 0 0 0 0 0
          0 0 0 0 0 0
          0 0 0 0 0 0
          0 0 0 0 0 0
          0 0 0 0 0 0
          0 0 0 0 0 0
          0 0 0 0 0 0
          0 0 0 0 0 0
          0 0 0 0 0 0
          0 0 0 0 0 0
          0 0 0 0 0 0
          0 0 0 0 0 0
          0 0 0 0 0 0
          0 0 0 0 0 0
          0 0 0 0 0 0
          0 0 0 0 0 0
          0 0 0 0 0 0
          0 0 0 0 0 0
          0 0 0 0 0 0
          0 0 0 0 0 0
          0 0 0 0 0 0
          0 0 0 0 0 0
          0 0 0 0 0 0
          0 0 0 0 0 0
          0 0 0 0 0 0
          0 0 0 0 0 0
          0 0 0 0 0 0
          0 0 0 0 0 0
          0 0 0 0 0 0
          0 0 0 0 0 0
          0 0 0 0 0 0
          0 0 0 0 0 0
          0 0 0 0 0 0
          0 0 0 0 0 0
          0 0 0 0 0 0
        </DataArray>
        <DataArray type="Float64" Name="initial_marker" format="ascii" RangeMin="0" RangeMax="2">
          0 0 0 0 0 0
          0 0 0 0 0 0
          0 0 0 0 0 0
          0 0 0 0 0 0
          0 0 0 0 0 0
          0 0 0 0 0 0
          0 0 0 0 0 0
          0 0 0 0 0 0
          0 0 0 0 0 0
          0 0 0 0 0 0
          0 0 0 0 0 2
          0 0 0 0 0 0
          0 0 0 0 0 2
          0 0 0 0 0 0
          0 0 0 0 0 0
          0 0 0 0 0 0
          0 0 0 0 0 0
          0 0 0 0 0 0
          0 0 0 1 0.25 1
          0 0 2 1 0 0
          0 0 0 0.5 0.25 0
          0 1 0.5 0 0 0
          0 1 0.5 0 1 0
          0.5 0.25 1.5 1 0.75 2
          1.75 0 0.25 0.75 2 1.5
          2 0.5 1 1 2 2
          1 2 2 0.6666666666666666 1 2
          2 2 1 1.5 1.25 2
          2 2 2 0 0 0
          0 0 0 0 0 0
          0 0 0 0 0 0
          0 0 0 0 0 0
          0 0 0 0 0 0
          0 0 0 0 0 0
          0 0 0 0 0 0
          0 0 0 0 0 0
          0 0 0 0 0 0
          0 0 0 0 0 0
          0 0 0 0 0 0
          0 0 0 0 0 0
          0 0 0 0 0 0
          0 0 0 0 0 0
          0 0 0 0 0 0
          0 0 0 0 0 0
          0 0 0 0 0 0
          0 0 0 0 0 0
          0 0 0 0 0 0
          0 0 0 0 0 0
          0 0 0 0 0 0
          0 0 0 0 0 0
          0 0 0 0 0 0
          0 0 0 0 0 0
          0 0 0 0 0 0
          0 0 0 0 0 0
          0 0 0 0 0 0
          0 0 0 0 0 0
          0 0 0 0 0 0
          0 0 0 0 0 0
          0 0 0 0 0 0
          0 0 0 0 0 0
          0.5 0 1 1 0 0.5
          0.25 0 1 0.5 2 1.5
          0 0 0.5 0 0.5 2
          2 1 1 2 2 1
          1 0 0 0 0 0
          0 0 0 0 0 0
          0 0 0 0 0 0
          0 0 0 0 0 0
          0 0 0 0 0 0
          0 0 0 0 0 0
          0 0 0 0 0 0
          0 0 0 0 0 0
          0 0 0 0 0 0
        </DataArray>
        <DataArray type="Float64" Name="markers_norefine" format="ascii" RangeMin="0" RangeMax="0">
          0 0 0 0 0 0
          0 0 0 0 0 0
          0 0 0 0 0 0
          0 0 0 0 0 0
          0 0 0 0 0 0
          0 0 0 0 0 0
          0 0 0 0 0 0
          0 0 0 0 0 0
          0 0 0 0 0 0
          0 0 0 0 0 0
          0 0 0 0 0 0
          0 0 0 0 0 0
          0 0 0 0 0 0
          0 0 0 0 0 0
          0 0 0 0 0 0
          0 0 0 0 0 0
          0 0 0 0 0 0
          0 0 0 0 0 0
          0 0 0 0 0 0
          0 0 0 0 0 0
          0 0 0 0 0 0
          0 0 0 0 0 0
          0 0 0 0 0 0
          0 0 0 0 0 0
          0 0 0 0 0 0
          0 0 0 0 0 0
          0 0 0 0 0 0
          0 0 0 0 0 0
          0 0 0 0 0 0
          0 0 0 0 0 0
          0 0 0 0 0 0
          0 0 0 0 0 0
          0 0 0 0 0 0
          0 0 0 0 0 0
          0 0 0 0 0 0
          0 0 0 0 0 0
          0 0 0 0 0 0
          0 0 0 0 0 0
          0 0 0 0 0 0
          0 0 0 0 0 0
          0 0 0 0 0 0
          0 0 0 0 0 0
          0 0 0 0 0 0
          0 0 0 0 0 0
          0 0 0 0 0 0
          0 0 0 0 0 0
          0 0 0 0 0 0
          0 0 0 0 0 0
          0 0 0 0 0 0
          0 0 0 0 0 0
          0 0 0 0 0 0
          0 0 0 0 0 0
          0 0 0 0 0 0
          0 0 0 0 0 0
          0 0 0 0 0 0
          0 0 0 0 0 0
          0 0 0 0 0 0
          0 0 0 0 0 0
          0 0 0 0 0 0
          0 0 0 0 0 0
          0 0 0 0 0 0
          0 0 0 0 0 0
          0 0 0 0 0 0
          0 0 0 0 0 0
          0 0 0 0 0 0
          0 0 0 0 0 0
          0 0 0 0 0 0
          0 0 0 0 0 0
          0 0 0 0 0 0
          0 0 0 0 0 0
          0 0 0 0 0 0
          0 0 0 0 0 0
          0 0 0 0 0 0
        </DataArray>
        <DataArray type="Float64" Name="markers_mustrefine" format="ascii" RangeMin="0" RangeMax="2">
          0 0 0 0 0 0
          0 0 0 0 0 0
          0 0 0 0 0 0
          0 0 0 0 0 0
          0 0 0 0 0 0
          0 0 0 0 0 0
          0 0 0 0 0 0
          0 0 0 0 0 0
          0 0 0 0 0 0
          0 0 0 0 0 0
          0 0 0 0 0 2
          0 0 0 0 0 0
          0 0 0 0 0 2
          0 0 0 0 0 0
          0 0 0 0 0 0
          0 0 0 0 0 0
          0 0 0 0 0 0
          0 0 0 0 0 0
          0 0 0 1 0.25 1
          0 0 2 1 0 0
          0 0 0 0.5 0.25 0
          0 1 0.5 0 0 0
          0 1 0.5 0 1 0
          0.5 0.25 1.5 1 0.75 2
          1.75 0 0.25 0.75 2 1.5
          2 0.5 1 1 2 2
          1 2 2 0.6666666666666666 1 2
          2 2 1 1.5 1.25 2
          2 2 2 0 0 0
          0 0 0 0 0 0
          0 0 0 0 0 0
          0 0 0 0 0 0
          0 0 0 0 0 0
          0 0 0 0 0 0
          0 0 0 0 0 0
          0 0 0 0 0 0
          0 0 0 0 0 0
          0 0 0 0 0 0
          0 0 0 0 0 0
          0 0 0 0 0 0
          0 0 0 0 0 0
          0 0 0 0 0 0
          0 0 0 0 0 0
          0 0 0 0 0 0
          0 0 0 0 0 0
          0 0 0 0 0 0
          0 0 0 0 0 0
          0 0 0 0 0 0
          0 0 0 0 0 0
          0 0 0 0 0 0
          0 0 0 0 0 0
          0 0 0 0 0 0
          0 0 0 0 0 0
          0 0 0 0 0 0
          0 0 0 0 0 0
          0 0 0 0 0 0
          0 0 0 0 0 0
          0 0 0 0 0 0
          0 0 0 0 0 0
          0 0 0 0 0 0
          0.5 0 1 1 0 0.5
          0.25 0 1 0.5 2 1.5
          0 0 0.5 0 0.5 2
          2 1 1 2 2 1
          1 0 0 0 0 0
          0 0 0 0 0 0
          0 0 0 0 0 0
          0 0 0 0 0 0
          0 0 0 0 0 0
          0 0 0 0 0 0
          0 0 0 0 0 0
          0 0 0 0 0 0
          0 0 0 0 0 0
        </DataArray>
        <DataArray type="Float64" Name="gradient_marker" format="ascii" RangeMin="0.75" RangeMax="1">
          1 1 1 1 1 1
          1 1 1 1 1 1
          1 1 1 1 1 1
          1 1 1 1 1 1
          1 1 1 1 1 1
          1 1 1 1 1 1
          1 1 1 1 1 1
          1 1 1 1 1 1
          1 1 1 1 1 1
          1 1 1 1 1 1
          1 1 1 1 1 1
          1 1 1 1 1 1
          1 1 1 1 1 1
          1 1 1 1 1 1
          1 1 1 1 1 1
          1 1 1 1 1 1
          1 1 1 1 1 1
          1 1 1 1 1 1
          1 1 1 1 1 1
          1 1 1 1 1 1
          1 1 1 1 1 1
          1 1 1 1 1 1
          1 1 1 1 1 1
          1 1 1 1 1 1
          1 1 1 1 1 1
          1 1 1 1 1 1
          1 1 1 1 1 1
          1 1 1 1 1 1
          1 1 1 1 1 1
          1 1 1 1 1 1
          1 1 1 1 1 1
          1 1 1 1 1 1
          1 1 1 1 1 1
          1 1 1 1 1 1
          1 1 1 1 1 1
          1 1 1 1 1 1
          1 1 1 1 1 1
          1 1 1 1 1 1
          1 1 1 1 1 1
          1 1 1 1 1 1
          1 1 1 1 1 1
          1 1 1 1 1 1
          1 1 1 1 1 1
          1 1 1 1 1 1
          1 1 1 1 1 1
          1 1 1 1 1 1
          1 1 1 1 1 1
          1 1 1 1 1 1
          1 1 1 1 1 1
          1 1 1 1 1 1
          1 1 1 1 1 1
          1 1 1 1 1 1
          1 1 1 1 1 1
          1 1 1 1 1 1
          1 1 1 1 1 1
          1 1 1 1 1 1
          1 1 1 1 1 1
          1 1 1 1 1 1
          1 1 1 1 1 1
          0.875 1 1 1 1 1
          1 1 1 1 1 1
          1 1 1 1 1 1
          0.875 1 1 0.75 1 1
          1 1 1 1 1 1
          1 1 1 1 1 1
          1 1 1 1 1 1
          1 1 1 1 1 1
          1 1 1 1 1 1
          1 1 1 1 1 1
          1 1 1 1 1 1
          1 1 1 1 1 1
          1 1 1 1 1 1
          1 1 1 1 1 1
        </DataArray>
        <DataArray type="Float64" Name="gradient_matprop_marker" format="ascii" RangeMin="0" RangeMax="0">
          0 0 0 0 0 0
          0 0 0 0 0 0
          0 0 0 0 0 0
          0 0 0 0 0 0
          0 0 0 0 0 0
          0 0 0 0 0 0
          0 0 0 0 0 0
          0 0 0 0 0 0
          0 0 0 0 0 0
          0 0 0 0 0 0
          0 0 0 0 0 0
          0 0 0 0 0 0
          0 0 0 0 0 0
          0 0 0 0 0 0
          0 0 0 0 0 0
          0 0 0 0 0 0
          0 0 0 0 0 0
          0 0 0 0 0 0
          0 0 0 0 0 0
          0 0 0 0 0 0
          0 0 0 0 0 0
          0 0 0 0 0 0
          0 0 0 0 0 0
          0 0 0 0 0 0
          0 0 0 0 0 0
          0 0 0 0 0 0
          0 0 0 0 0 0
          0 0 0 0 0 0
          0 0 0 0 0 0
          0 0 0 0 0 0
          0 0 0 0 0 0
          0 0 0 0 0 0
          0 0 0 0 0 0
          0 0 0 0 0 0
          0 0 0 0 0 0
          0 0 0 0 0 0
          0 0 0 0 0 0
          0 0 0 0 0 0
          0 0 0 0 0 0
          0 0 0 0 0 0
          0 0 0 0 0 0
          0 0 0 0 0 0
          0 0 0 0 0 0
          0 0 0 0 0 0
          0 0 0 0 0 0
          0 0 0 0 0 0
          0 0 0 0 0 0
          0 0 0 0 0 0
          0 0 0 0 0 0
          0 0 0 0 0 0
          0 0 0 0 0 0
          0 0 0 0 0 0
          0 0 0 0 0 0
          0 0 0 0 0 0
          0 0 0 0 0 0
          0 0 0 0 0 0
          0 0 0 0 0 0
          0 0 0 0 0 0
          0 0 0 0 0 0
          0 0 0 0 0 0
          0 0 0 0 0 0
          0 0 0 0 0 0
          0 0 0 0 0 0
          0 0 0 0 0 0
          0 0 0 0 0 0
          0 0 0 0 0 0
          0 0 0 0 0 0
          0 0 0 0 0 0
          0 0 0 0 0 0
          0 0 0 0 0 0
          0 0 0 0 0 0
          0 0 0 0 0 0
          0 0 0 0 0 0
        </DataArray>
        <DataArray type="Float64" Name="combo" format="ascii" RangeMin="0.75" RangeMax="1">
          1 1 1 1 1 1
          1 1 1 1 1 1
          1 1 1 1 1 1
          1 1 1 1 1 1
          1 1 1 1 1 1
          1 1 1 1 1 1
          1 1 1 1 1 1
          1 1 1 1 1 1
          1 1 1 1 1 1
          1 1 1 1 1 1
          1 1 1 1 1 1
          1 1 1 1 1 1
          1 1 1 1 1 1
          1 1 1 1 1 1
          1 1 1 1 1 1
          1 1 1 1 1 1
          1 1 1 1 1 1
          1 1 1 1 1 1
          1 1 1 1 1 1
          1 1 1 1 1 1
          1 1 1 1 1 1
          1 1 1 1 1 1
          1 1 1 1 1 1
          1 1 1 1 1 1
          1 1 1 1 1 1
          1 1 1 1 1 1
          1 1 1 1 1 1
          1 1 1 1 1 1
          1 1 1 1 1 1
          1 1 1 1 1 1
          1 1 1 1 1 1
          1 1 1 1 1 1
          1 1 1 1 1 1
          1 1 1 1 1 1
          1 1 1 1 1 1
          1 1 1 1 1 1
          1 1 1 1 1 1
          1 1 1 1 1 1
          1 1 1 1 1 1
          1 1 1 1 1 1
          1 1 1 1 1 1
          1 1 1 1 1 1
          1 1 1 1 1 1
          1 1 1 1 1 1
          1 1 1 1 1 1
          1 1 1 1 1 1
          1 1 1 1 1 1
          1 1 1 1 1 1
          1 1 1 1 1 1
          1 1 1 1 1 1
          1 1 1 1 1 1
          1 1 1 1 1 1
          1 1 1 1 1 1
          1 1 1 1 1 1
          1 1 1 1 1 1
          1 1 1 1 1 1
          1 1 1 1 1 1
          1 1 1 1 1 1
          1 1 1 1 1 1
          0.875 1 1 1 1 1
          1 1 1 1 1 1
          1 1 1 1 1 1
          0.875 1 1 0.75 1 1
          1 1 1 1 1 1
          1 1 1 1 1 1
          1 1 1 1 1 1
          1 1 1 1 1 1
          1 1 1 1 1 1
          1 1 1 1 1 1
          1 1 1 1 1 1
          1 1 1 1 1 1
          1 1 1 1 1 1
          1 1 1 1 1 1
        </DataArray>
        <DataArray type="Float64" Name="dHdT" format="ascii" RangeMin="25.79055988762729" RangeMax="38.99724480269846">
          25.81144469249119 25.811443726431634 25.811448922412282 25.81144940842353 25.811465653541198 25.81146603559447
          25.811458877771628 25.811458651604646 25.8114434343487 25.811448783085943 25.81146481833585 25.811458345406262
          25.811449430926444 25.811451707110884 25.811457085641777 25.811454663317473 25.81145700035977 25.811455287231773
          25.811448560622914 25.811450718019035 25.811456729692004 25.811454974836046 25.811449024115138 25.811451215898295
          25.811454118392923 25.811454124355873 25.811451719948785 25.811451649668093 25.81145413182319 25.811451872476677
          25.811453983295323 25.811452240993166 25.81145357410378 25.811452875415156 25.811453219980084 25.811453407681455
          25.811399343211807 25.81139939899571 25.811433396958343 25.81143364449491 25.811408159903387 25.81143713863871
          25.81144321939218 25.81145352485983 25.81147933733589 25.811469932211228 25.81147678488432 25.81146730096456
          25.811467394920975 25.811467945778013 25.81146611737404 25.811463830327476 25.811460527086567 25.81145781704479
          25.811345522844547 25.81139025456072 25.811434986276897 25.815464413086282 25.811718705055938 25.811653870138382
          25.957429255626586 25.82405240940172 25.8118931177319 34.63476738079025 25.929610363799817 37.11292837961662
          25.81697619694625 25.878055631219485 25.851148170029333 25.89820099313289 27.86502244733555 27.483532304124207
          26.335237276392807 26.44374844945175 25.820902548719022 25.861641739466265 25.873514892917353 38.99724480269846
          27.71505819185121 28.192726361179638 25.902580378741003 25.932884466425797 25.883029752846365 27.920640553728216
          26.556543840253582 25.83673019715052 25.854957444324803 33.70156320493909 28.294383388286537 25.896925346438813
          29.646602330524154 28.5388492687142 28.54468053668785 32.10739090835651 32.46727069741972 30.241207207752602
          30.407778852813998 27.337091881922362 33.40867926297979 30.19559345530433 27.431096206904247 28.701180295529433
          27.986771700730667 27.46221953199129 36.70424638596209 32.713772005161005 32.270877168940146 33.76037031786966
          29.971264384154615 26.937302336418544 26.64659380375337 33.987756973441336 30.295433026501996 33.88534137413516
          26.375635611519076 26.74890142406853 37.92621795988569 34.3808027703493 27.19329522235831 35.998710215473906
          34.624576966178935 34.43208343649891 37.2204639130336 37.45935384358926 36.119692443482776 35.9104439556923