<?xml version="1.0"?>
<VTKFile type="UnstructuredGrid" version="0.1" byte_order="LittleEndian" header_type="UInt32" compressor="vtkZLibDataCompressor">
  <UnstructuredGrid>
    <Piece NumberOfPoints="376" NumberOfCells="215">
      <PointData>
        <DataArray type="Int32" Name="libmesh_node_id" format="ascii" RangeMin="194" RangeMax="3415">
          194 362 363 365 366 370
          371 372 755 759 760 762
          765 767 768 769 770 771
          772 773 774 775 776 777
          778 779 780 933 934 939
          941 942 948 1420 1421 1422
          1423 1424 1426 1427 1428 1429
          1430 1431 1444 1445 1448 1450
          1462 1463 1464 1465 1466 1467
          1468 1469 1470 1471 1480 1482
          1484 1486 1487 1488 1489 1490
          1491 1492 1493 1494 1495 1496
          1497 1498 1499 1500 1501 1502
          1503 1504 1505 1506 1507 1508
          1509 1510 1511 1512 1513 1514
          1515 1516 1517 1518 1519 1543
          1544 1551 1552 1596 1597 1598
          1599 1600 1601 1602 1603 1604
          1605 1606 1607 1608 1609 1610
          1611 1612 1613 1614 1615 1616
          2912 2924 2925 2926 2927 2936
          2945 2946 2947 2948 2949 2950
          2951 2952 2953 2954 2955 2956
          2957 2958 2959 2960 2961 2962
          2963 2964 2965 2966 2967 2968
          2969 2970 2971 2972 2973 2974
          2975 2976 2977 2978 2979 2980
          2981 3044 3046 3047 3050 3051
          3053 3054 3055 3056 3060 3061
          3131 3132 3133 3134 3135 3136
          3137 3138 3139 3140 3141 3142
          3143 3144 3145 3146 3147 3148
          3149 3150 3151 3152 3153 3154
          3155 3156 3157 3158 3159 3160
          3161 3162 3163 3164 3165 3166
          3167 3168 3169 3170 3171 3172
          3173 3174 3175 3176 3177 3178
          3179 3180 3181 3182 3183 3184
          3185 3186 3187 3188 3189 3190
          3191 3192 3193 3194 3195 3196
          3197 3198 3255 3256 3259 3260
          3262 3263 3265 3266 3267 3279
          3280 3283 3284 3286 3287 3289
          3290 3291 3300 3301 3302 3303
          3304 3305 3306 3307 3308 3309
          3310 3311 3312 3313 3314 3315
          3316 3317 3318 3319 3320 3321
          3322 3323 3324 3325 3326 3327
          3328 3329 3330 3331 3332 3333
          3334 3335 3336 3337 3338 3339
          3340 3341 3342 3343 3344 3345
          3346 3347 3348 3349 3350 3351
          3352 3353 3354 3355 3356 3357
          3358 3359 3360 3361 3362 3363
          3364 3365 3366 3367 3368 3369
          3370 3371 3372 3373 3374 3375
          3376 3377 3378 3379 3380 3381
          3382 3383 3384 3385 3386 3387
          3388 3389 3390 3391 3392 3393
          3394 3395 3396 3397 3398 3399
          3400 3401 3402 3403 3404 3405
          3406 3407 3408 3409 3410 3411
          3412 3413 3414 3415
        </DataArray>
        <DataArray type="Float64" Name="bounds" format="ascii" RangeMin="0" RangeMax="0">
          0 0 0 0 0 0
          0 0 0 0 0 0
          0 0 0 0 0 0
          0 0 0 0 0 0
          0 0 0 0 0 0
          0 0 0 0 0 0
          0 0 0 0 0 0
          0 0 0 0 0 0
          0 0 0 0 0 0
          0 0 0 0 0 0
          0 0 0 0 0 0
          0 0 0 0 0 0
          0 0 0 0 0 0
          0 0 0 0 0 0
          0 0 0 0 0 0
          0 0 0 0 0 0
          0 0 0 0 0 0
          0 0 0 0 0 0
          0 0 0 0 0 0
          0 0 0 0 0 0
          0 0 0 0 0 0
          0 0 0 0 0 0
          0 0 0 0 0 0
          0 0 0 0 0 0
          0 0 0 0 0 0
          0 0 0 0 0 0
          0 0 0 0 0 0
          0 0 0 0 0 0
          0 0 0 0 0 0
          0 0 0 0 0 0
          0 0 0 0 0 0
          0 0 0 0 0 0
          0 0 0 0 0 0
          0 0 0 0 0 0
          0 0 0 0 0 0
          0 0 0 0 0 0
          0 0 0 0 0 0
          0 0 0 0 0 0
          0 0 0 0 0 0
          0 0 0 0 0 0
          0 0 0 0 0 0
          0 0 0 0 0 0
          0 0 0 0 0 0
          0 0 0 0 0 0
          0 0 0 0 0 0
          0 0 0 0 0 0
          0 0 0 0 0 0
          0 0 0 0 0 0
          0 0 0 0 0 0
          0 0 0 0 0 0
          0 0 0 0 0 0
          0 0 0 0 0 0
          0 0 0 0 0 0
          0 0 0 0 0 0
          0 0 0 0 0 0
          0 0 0 0 0 0
          0 0 0 0 0 0
          0 0 0 0 0 0
          0 0 0 0 0 0
          0 0 0 0 0 0
          0 0 0 0 0 0
          0 0 0 0 0 0
          0 0 0 0
        </DataArray>
        <DataArray type="Float64" Name="gradient_error" format="ascii" RangeMin="2.469633944517527e-12" RangeMax="2.2945922500969327e-9">
          4.163500643704672e-12 3.7012473685874056e-11 7.374429553576554e-11 1.3286594538630177e-11 3.4312245956296436e-11 2.1917432658233157e-10
          6.352865196391851e-11 1.5237185312028994e-11 2.9405040487920586e-11 8.209452310481178e-11 2.93891594688668e-11 6.406440728519631e-11
          6.252242128932378e-11 2.2216317785340533e-11 1.9031189226073708e-11 1.4931238361282788e-11 1.3216523511423282e-11 1.1527171384107526e-11
          8.58645334545588e-12 9.523208760829717e-12 1.9577968380284058e-11 2.1729075004644252e-11 1.1575808069167944e-11 9.682512861592694e-12
          1.3013594141742105e-11 7.996211544832736e-12 2.4890503536204853e-11 9.572656712315798e-11 7.551852826480597e-11 5.889415246840703e-11
          2.3822520776421853e-11 2.7695545606163122e-11 3.1568570435904384e-11 1.151625983804905e-10 8.682340704915156e-11 2.8472345153400082e-11
          3.2629689779947575e-11 2.5779992662153103e-11 4.4755920684269593e-11 2.3723527944795676e-11 4.0533069559000465e-10 2.936650532239302e-10
          6.077125064319222e-11 1.1664309251698786e-10 2.3288697941098154e-11 2.748615749963979e-11 2.5857896826300268e-11 3.261070126542928e-11
          8.716020415892499e-10 6.328247422819964e-10 1.717575508733143e-10 1.2566969882878822e-10 2.3241258335855291e-10 5.0042575285854694e-11
          1.112092394795713e-9 8.176926894121241e-10 1.6078141954403634e-10 2.945337590468832e-10 4.450934749945627e-11 5.746882439402172e-11
          5.2091580825307765e-11 2.5531873932009325e-11 2.174501390082558e-11 2.1410422880971733e-11 1.798911314879337e-11 8.938795556487753e-12
          1.7737587542786533e-11 1.52051549466333e-11 1.3898126411188507e-11 1.551231306740883e-11 9.94725593569301e-12 1.904745796945625e-11
          1.496184746490095e-11 1.0424647939763691e-11 1.3554590056963493e-11 2.8631627868994235e-11 2.1469335071767656e-11 7.917414010188933e-12
          6.353870842483744e-12 1.2887641967607073e-11 9.146643128293259e-12 3.613778772124213e-11 2.6999327416174063e-11 7.698613957464435e-12
          1.5541446378102487e-11 1.532742320050111e-11 1.610961208695911e-11 9.656014441443815e-12 1.3402806884818573e-11 1.408423163057539e-11
          2.0253781692765284e-11 8.676550583118531e-12 1.845869161885889e-11 1.508114812319818e-11 2.297625911876276e-11 3.0474496551936903e-12
          3.0121949672557295e-12 3.1657448506930325e-12 3.1192528579024196e-12 7.986356098327486e-12 1.247469221152337e-11 5.018170434711847e-12
          6.302866835580256e-12 6.134613243919791e-12 8.385886119151383e-12 5.383944150254559e-12 5.501773967476583e-12 4.707674447073445e-12
          6.485996278695589e-12 5.522269218129048e-12 2.9914069670568588e-12 3.331809058056409e-12 3.081453503922414e-12 3.913574926670306e-12
          4.558542157562507e-12 2.831097949788419e-12 7.470218589914595e-12 6.3368639891846515e-12 3.1715000407879694e-12 5.203509388454707e-12
          1.0722353796754754e-10 5.4833557661643326e-11 5.1196827396155276e-11 2.784879932905172e-11 4.180882257920738e-11 6.190693588379438e-11
          3.004736135965808e-11 1.6684999853004023e-11 2.2197177975803905e-11 4.688674856397908e-10 4.3320872490126524e-10 2.2801822116766954e-10
          2.110646844115865e-10 3.4183723100957776e-10 1.6766914782093525e-10 8.420504227149054e-10 7.767052072867985e-10 3.741585992219502e-10
          6.066850723194171e-10 1.0653297437745381e-10 9.88689423971569e-11 4.766177782809575e-11 4.4372628816059004e-11 7.918814371219816e-11
          3.587997398145417e-11 1.8614972622999424e-10 1.7215457203525048e-10 7.613068660506018e-11 1.3611115419878697e-10 2.3289457141327633e-10
          1.1581996597562825e-10 1.408676344863014e-10 7.112121753149687e-11 4.0232859438451646e-10 1.9723196533481083e-10 2.334921167446153e-10
          5.552500231583771e-11 2.543150229286392e-11 3.454099564584675e-11 1.8896348929302585e-11 9.305357417356527e-11 4.220503958934784e-11
          5.629464604067151e-11 2.7115437065945415e-11 7.795416424933962e-11 3.995033732518257e-11 1.24110495157156e-10 6.32493949538896e-11
          1.466481384492607e-11 1.9562063714506926e-11 1.0141259832391278e-11 1.2957201957900454e-11 3.088115469088308e-11 1.6834002142325292e-11
          1.3240372484133552e-9 1.2240947879052878e-9 6.356638399815033e-10 5.871495799740128e-10 9.553480038929121e-10 4.589223084869793e-10
          1.810421722549243e-9 1.6826288521097668e-9 8.076972606185095e-10 1.3215947382393159e-9 2.8976650328833797e-10 2.678025578390264e-10
          1.262973029068855e-10 1.169327294662605e-10 2.1039261170109026e-10 9.260981349419706e-11 3.9652866449717813e-10 3.6707854959723743e-10
          1.5909151880162931e-10 2.8822486497961674e-10 6.238784412365777e-10 3.0280190930349785e-10 3.51122806373435e-10 1.7372306691336624e-10
          8.577903518270289e-10 4.137638447328792e-10 4.730366679342232e-10 1.4096627239139744e-10 6.320084644164e-11 8.281803019779802e-11
          3.794582450738138e-11 1.9088497398792746e-10 8.47195315070392e-11 1.0975913181697411e-10 2.1659011944806275e-9 2.0243236073086124e-9
          1.0474728014076157e-9 9.743467357867425e-10 1.6030585701760462e-9 7.670796198724948e-10 2.2945922500969327e-9 2.149835485973049e-9
          1.0361950970957375e-9 1.7087792032274612e-9 4.770542384979438e-10 4.426700305415123e-10 2.0629108174817283e-10 1.913214481883256e-10
          3.483407481031804e-10 1.5115968141045507e-10 5.069198756508964e-10 4.709003816687893e-10 2.0340134474066415e-10 3.710376475869313e-10
          1.03970177501385e-9 4.999762375699007e-10 5.670446907717834e-10 2.7751056203395515e-10 1.10867597543708e-9 5.326659746312058e-10
          6.025870289084964e-10 2.2960377403297316e-10 1.0131757528196625e-10 1.3044080786443473e-10 5.91228546156261e-11 2.442566787483414e-10
          1.0757762976255057e-10 1.3820946909832854e-10 1.8050206089003442e-10 9.12566830273919e-11 2.3678491027493326e-10 1.1913165272236094e-10
          4.413601740329377e-11 2.0660584373909642e-11 1.4179741653577916e-11 5.71058727946924e-11 2.667025505274054e-11 2.7922097601796294e-10
          1.4004647671673045e-10 2.950645722593098e-10 1.4781525556467861e-10 6.68592611354122e-11 3.101165319508108e-11 2.0445199530410667e-11
          7.047581569034878e-11 3.2639533860717247e-11 1.4278823936352498e-11 1.3393378423170121e-11 2.0381838175367517e-11 1.9049279181164596e-11
          8.389306032825756e-12 1.219633925490011e-11 1.1443501701055654e-11 1.1067210603175444e-11 1.558484825489459e-11 9.420042565073927e-12
          3.5041351729070323e-11 3.260763479759327e-11 1.5727993622981713e-11 2.6310056818191952e-11 8.175599741507901e-12 1.1202099790843338e-11
          5.38716370927579e-12 7.062539780637381e-12 6.724711186652656e-12 8.951223258859161e-12 5.975658578338103e-12 1.8488646339746102e-11
          9.227011846587396e-12 1.3054527877526922e-11 5.3051020372064774e-11 4.9255775334783126e-11 2.1364529375925375e-11 1.990819263339717e-11
          3.939869475073152e-11 1.6111240335104807e-11 7.132276914765513e-11 6.619036051638159e-11 2.6646917359262625e-11 5.2739316841589695e-11
          6.766406042435415e-12 6.338485779788351e-12 8.345236867777395e-12 7.806686176374785e-12 4.051300360464031e-12 4.883236043382074e-12
          4.581457164802634e-12 5.242994799105814e-12 6.416634042881787e-12 3.790969071418271e-12 1.1201905217682965e-11 1.0456338688533267e-11
          5.797689794593811e-12 8.528378487847075e-12 2.7436583812923686e-11 1.14281226703405e-11 1.6890597243373162e-11 8.644071060612131e-12
          3.641045788402002e-11 1.5080605069903827e-11 2.2202461659675738e-11 3.858170325837751e-12 4.6405800704397735e-12 2.592711319829907e-12
          2.8859469005654374e-12 3.1409165706051595e-12 3.716027540088149e-12 2.469633944517527e-12 6.058393443172009e-12 3.5567291350718237e-12
          4.770802070033439e-12 8.538353330021491e-11 7.92711353255094e-11 3.409548970562266e-11 3.172150230621861e-11 6.308095074266464e-11
          2.5490433657105023e-11 9.0625718005491e-11 8.416301063179442e-11 3.3622413410876514e-11 6.696302957384279e-11 1.3255558167002592e-11
          1.2359572592866214e-11 7.354681545558824e-12 6.87063149348331e-12 1.0039275924333685e-11 5.590431447598401e-12 1.4031373591758633e-11
          1.3081354381627108e-11 7.257497366920235e-12 1.0612068159630975e-11 4.326501117760878e-11 1.7786013606992833e-11 2.605381157235512e-11
          1.3028850664982042e-11 4.5833581373711455e-11 1.8795502570977403e-11 2.749097016134753e-11 7.074377572934801e-12 4.142341952440135e-12
          5.533790315932069e-12 3.4904024510912604e-12 7.454958074567382e-12 4.3504081160375905e-12 5.817115001368398e-12 8.056469907642739e-12
          9.544060234131916e-12 5.672438877119931e-12 6.311632690505903e-12 6.01155000115375e-12 6.8432344034033185e-12 4.8622933218561165e-12
          1.2219464654128368e-11 7.726916384045121e-12 8.434239958873974e-12 1.4104725514958153e-11 8.90656182696573e-12 9.628686105898241e-12
          6.603921272165676e-12 1.4802172282280667e-11 9.310117389733094e-12 1.006381109970142e-11
        </DataArray>
        <DataArray type="Float64" Name="gradient_matprop_error" format="ascii" RangeMin="0" RangeMax="0">
          0 0 0 0 0 0
          0 0 0 0 0 0
          0 0 0 0 0 0
          0 0 0 0 0 0
          0 0 0 0 0 0
          0 0 0 0 0 0
          0 0 0 0 0 0
          0 0 0 0 0 0
          0 0 0 0 0 0
          0 0 0 0 0 0
          0 0 0 0 0 0
          0 0 0 0 0 0
          0 0 0 0 0 0
          0 0 0 0 0 0
          0 0 0 0 0 0
          0 0 0 0 0 0
          0 0 0 0 0 0
          0 0 0 0 0 0
          0 0 0 0 0 0
          0 0 0 0 0 0
          0 0 0 0 0 0
          0 0 0 0 0 0
          0 0 0 0 0 0
          0 0 0 0 0 0
          0 0 0 0 0 0
          0 0 0 0 0 0
          0 0 0 0 0 0
          0 0 0 0 0 0
          0 0 0 0 0 0
          0 0 0 0 0 0
          0 0 0 0 0 0
          0 0 0 0 0 0
          0 0 0 0 0 0
          0 0 0 0 0 0
          0 0 0 0 0 0
          0 0 0 0 0 0
          0 0 0 0 0 0
          0 0 0 0 0 0
          0 0 0 0 0 0
          0 0 0 0 0 0
          0 0 0 0 0 0
          0 0 0 0 0 0
          0 0 0 0 0 0
          0 0 0 0 0 0
          0 0 0 0 0 0
          0 0 0 0 0 0
          0 0 0 0 0 0
          0 0 0 0 0 0
          0 0 0 0 0 0
          0 0 0 0 0 0
          0 0 0 0 0 0
          0 0 0 0 0 0
          0 0 0 0 0 0
          0 0 0 0 0 0
          0 0 0 0 0 0
          0 0 0 0 0 0
          0 0 0 0 0 0
          0 0 0 0 0 0
          0 0 0 0 0 0
          0 0 0 0 0 0
          0 0 0 0 0 0
          0 0 0 0 0 0
          0 0 0 0
        </DataArray>
        <DataArray type="Float64" Name="initial_marker" format="ascii" RangeMin="0" RangeMax="2">
          0 0 0 0 0 2
          0 0 0 2 1.5 0
          2 0 0 0 0 0
          0 0 0 0 0 0
          0 0 0 0 0 0
          0 0 0 2 2 0
          1.5 1 1.25 0.25 2 2
          2 2 0 0 0 0
          2 2 2 2 2 2
          2 2 2 2 0.5 0
          0.5 0 0 0 0 0
          0 0 0 0 0 1.5
          0.75 0 0 2 2 0
          0 0.5 0 2 2 0
          0.5 0 0 0 0 0
          0 0 0 0 0 0
          0 0 0 0 0 0
          0 0 0 0 0 0
          0 0 0 0 0 0
          0 0 0 0 0 0
          2 2 2 2 1.75 1.75
          1.25 0.6666666666666666 1 2 2 2
          2 2 2 2 2 2
          2 2 2 2 2 2
          1.75 2 2 2 2 2
          2 2 2 2 2 2
          2 1.5 1.75 1.3333333333333333 2 2
          2 0.6666666666666666 1.75 1.25 2 1.75
          0.5 0.75 0 0.5 1.25 0.6666666666666666
          2 2 2 2 2 2
          2 2 2 2 2 2
          2 2 2 2 2 2
          2 2 2 2 2 2
          2 2 2 2 2 2
          1.75 2 2 2 2 2
          2 2 2 2 2 2
          2 2 2 2 2 2
          2 2 2 2 2 2
          2 2 2 2 2 2
          2 2 2 2 2 2
          2 2 2 2 2 2
          1.75 1 0.5 2 1.5 2
          2 2 2 2 1.5 1
          2 1.5 1 1 1.5 1.5
          0 1 1 0.5 1 0.5
          2 2 1.6666666666666667 1.75 0 0.5
          0 0 0 0.5 0 1.25
          0.3333333333333333 0.6666666666666666 2 2 2 1.75
          2 1.5 2 2 2 2
          1 0.5 1 0.75 0 0
          0 0 0.5 0 1 1
          0 1 1.75 1 1 0.3333333333333333
          2 1.5 1.5 0 0.25 0
          0 0 0 0 0.5 0
          0 2 2 2 2 2
          2 2 2 2 2 1
          1 0 0 1 0 1
          1 0 1 2 1.5 1.5
          0.6666666666666666 2 1.5 1.5 0.5 0
          0 0 0.5 0 0 0
          0.25 0 0 0 0 0
          0.5 0 0 0.5 0 0
          0 0.5 0 0
        </DataArray>
        <DataArray type="Float64" Name="markers_norefine" format="ascii" RangeMin="0" RangeMax="0">
          0 0 0 0 0 0
          0 0 0 0 0 0
          0 0 0 0 0 0
          0 0 0 0 0 0
          0 0 0 0 0 0
          0 0 0 0 0 0
          0 0 0 0 0 0
          0 0 0 0 0 0
          0 0 0 0 0 0
          0 0 0 0 0 0
          0 0 0 0 0 0
          0 0 0 0 0 0
          0 0 0 0 0 0
          0 0 0 0 0 0
          0 0 0 0 0 0
          0 0 0 0 0 0
          0 0 0 0 0 0
          0 0 0 0 0 0
          0 0 0 0 0 0
          0 0 0 0 0 0
          0 0 0 0 0 0
          0 0 0 0 0 0
          0 0 0 0 0 0
          0 0 0 0 0 0
          0 0 0 0 0 0
          0 0 0 0 0 0
          0 0 0 0 0 0
          0 0 0 0 0 0
          0 0 0 0 0 0
          0 0 0 0 0 0
          0 0 0 0 0 0
          0 0 0 0 0 0
          0 0 0 0 0 0
          0 0 0 0 0 0
          0 0 0 0 0 0
          0 0 0 0 0 0
          0 0 0 0 0 0
          0 0 0 0 0 0
          0 0 0 0 0 0
          0 0 0 0 0 0
          0 0 0 0 0 0
          0 0 0 0 0 0
          0 0 0 0 0 0
          0 0 0 0 0 0
          0 0 0 0 0 0
          0 0 0 0 0 0
          0 0 0 0 0 0
          0 0 0 0 0 0
          0 0 0 0 0 0
          0 0 0 0 0 0
          0 0 0 0 0 0
          0 0 0 0 0 0
          0 0 0 0 0 0
          0 0 0 0 0 0
          0 0 0 0 0 0
          0 0 0 0 0 0
          0 0 0 0 0 0
          0 0 0 0 0 0
          0 0 0 0 0 0
          0 0 0 0 0 0
          0 0 0 0 0 0
          0 0 0 0 0 0
          0 0 0 0
        </DataArray>
        <DataArray type="Float64" Name="markers_mustrefine" format="ascii" RangeMin="0" RangeMax="2">
          0 0 0 0 0 2
          0 0 0 2 1.5 0
          2 0 0 0 0 0
          0 0 0 0 0 0
          0 0 0 0 0 0
          0 0 0 2 2 0
          1.5 1 1.25 0.25 2 2
          2 2 0 0 0 0
          2 2 2 2 2 2
          2 2 2 2 0.5 0
          0.5 0 0 0 0 0
          0 0 0 0 0 1.5
          0.75 0 0 2 2 0
          0 0.5 0 2 2 0
          0.5 0 0 0 0 0
          0 0 0 0 0 0
          0 0 0 0 0 0
          0 0 0 0 0 0
          0 0 0 0 0 0
          0 0 0 0 0 0
          2 2 2 2 1.75 1.75
          1.25 0.6666666666666666 1 2 2 2
          2 2 2 2 2 2
          2 2 2 2 2 2
          1.75 2 2 2 2 2
          2 2 2 2 2 2
          2 1.5 1.75 1.3333333333333333 2 2
          2 0.6666666666666666 1.75 1.25 2 1.75
          0.5 0.75 0 0.5 1.25 0.6666666666666666
          2 2 2 2 2 2
          2 2 2 2 2 2
          2 2 2 2 2 2
          2 2 2 2 2 2
          2 2 2 2 2 2
          1.75 2 2 2 2 2
          2 2 2 2 2 2
          2 2 2 2 2 2
          2 2 2 2 2 2
          2 2 2 2 2 2
          2 2 2 2 2 2
          2 2 2 2 2 2
          1.75 1 0.5 2 1.5 2
          2 2 2 2 1.5 1
          2 1.5 1 1 1.5 1.5
          0 1 1 0.5 1 0.5
          2 2 1.6666666666666667 1.75 0 0.5
          0 0 0 0.5 0 1.25
          0.3333333333333333 0.6666666666666666 2 2 2 1.75
          2 1.5 2 2 2 2
          1 0.5 1 0.75 0 0
          0 0 0.5 0 1 1
          0 1 1.75 1 1 0.3333333333333333
          2 1.5 1.5 0 0.25 0
          0 0 0 0 0.5 0
          0 2 2 2 2 2
          2 2 2 2 2 1
          1 0 0 1 0 1
          1 0 1 2 1.5 1.5
          0.6666666666666666 2 1.5 1.5 0.5 0
          0 0 0.5 0 0 0
          0.25 0 0 0 0 0
          0.5 0 0 0.5 0 0
          0 0.5 0 0
        </DataArray>
        <DataArray type="Float64" Name="gradient_marker" format="ascii" RangeMin="1" RangeMax="1">
          1 1 1 1 1 1
          1 1 1 1 1 1
          1 1 1 1 1 1
          1 1 1 1 1 1
          1 1 1 1 1 1
          1 1 1 1 1 1
          1 1 1 1 1 1
          1 1 1 1 1 1
          1 1 1 1 1 1
          1 1 1 1 1 1
          1 1 1 1 1 1
          1 1 1 1 1 1
          1 1 1 1 1 1
          1 1 1 1 1 1
          1 1 1 1 1 1
          1 1 1 1 1 1
          1 1 1 1 1 1
          1 1 1 1 1 1
          1 1 1 1 1 1
          1 1 1 1 1 1
          1 1 1 1 1 1
          1 1 1 1 1 1
          1 1 1 1 1 1
          1 1 1 1 1 1
          1 1 1 1 1 1
          1 1 1 1 1 1
          1 1 1 1 1 1
          1 1 1 1 1 1
          1 1 1 1 1 1
          1 1 1 1 1 1
          1 1 1 1 1 1
          1 1 1 1 1 1
          1 1 1 1 1 1
          1 1 1 1 1 1
          1 1 1 1 1 1
          1 1 1 1 1 1
          1 1 1 1 1 1
          1 1 1 1 1 1
          1 1 1 1 1 1
          1 1 1 1 1 1
          1 1 1 1 1 1
          1 1 1 1 1 1
          1 1 1 1 1 1
          1 1 1 1 1 1
          1 1 1 1 1 1
          1 1 1 1 1 1
          1 1 1 1 1 1
          1 1 1 1 1 1
          1 1 1 1 1 1
          1 1 1 1 1 1
          1 1 1 1 1 1
          1 1 1 1 1 1
          1 1 1 1 1 1
          1 1 1 1 1 1
          1 1 1 1 1 1
          1 1 1 1 1 1
          1 1 1 1 1 1
          1 1 1 1 1 1
          1 1 1 1 1 1
          1 1 1 1 1 1
          1 1 1 1 1 1
          1 1 1 1 1 1
          1 1 1 1
        </DataArray>
        <DataArray type="Float64" Name="gradient_matprop_marker" format="ascii" RangeMin="0" RangeMax="0">
          0 0 0 0 0 0
          0 0 0 0 0 0
          0 0 0 0 0 0
          0 0 0 0 0 0
          0 0 0 0 0 0
          0 0 0 0 0 0
          0 0 0 0 0 0
          0 0 0 0 0 0
          0 0 0 0 0 0
          0 0 0 0 0 0
          0 0 0 0 0 0
          0 0 0 0 0 0
          0 0 0 0 0 0
          0 0 0 0 0 0
          0 0 0 0 0 0
          0 0 0 0 0 0
          0 0 0 0 0 0
          0 0 0 0 0 0
          0 0 0 0 0 0
          0 0 0 0 0 0
          0 0 0 0 0 0
          0 0 0 0 0 0
          0 0 0 0 0 0
          0 0 0 0 0 0
          0 0 0 0 0 0
          0 0 0 0 0 0
          0 0 0 0 0 0
          0 0 0 0 0 0
          0 0 0 0 0 0
          0 0 0 0 0 0
          0 0 0 0 0 0
          0 0 0 0 0 0
          0 0 0 0 0 0
          0 0 0 0 0 0
          0 0 0 0 0 0
          0 0 0 0 0 0
          0 0 0 0 0 0
          0 0 0 0 0 0
          0 0 0 0 0 0
          0 0 0 0 0 0
          0 0 0 0 0 0
          0 0 0 0 0 0
          0 0 0 0 0 0
          0 0 0 0 0 0
          0 0 0 0 0 0
          0 0 0 0 0 0
          0 0 0 0 0 0
          0 0 0 0 0 0
          0 0 0 0 0 0
          0 0 0 0 0 0
          0 0 0 0 0 0
          0 0 0 0 0 0
          0 0 0 0 0 0
          0 0 0 0 0 0
          0 0 0 0 0 0
          0 0 0 0 0 0
          0 0 0 0 0 0
          0 0 0 0 0 0
          0 0 0 0 0 0
          0 0 0 0 0 0
          0 0 0 0 0 0
          0 0 0 0 0 0
          0 0 0 0
        </DataArray>
        <DataArray type="Float64" Name="combo" format="ascii" RangeMin="1" RangeMax="1">
          1 1 1 1 1 1
          1 1 1 1 1 1
          1 1 1 1 1 1
          1 1 1 1 1 1
          1 1 1 1 1 1
          1 1 1 1 1 1
          1 1 1 1 1 1
          1 1 1 1 1 1
          1 1 1 1 1 1
          1 1 1 1 1 1
          1 1 1 1 1 1
          1 1 1 1 1 1
          1 1 1 1 1 1
          1 1 1 1 1 1
          1 1 1 1 1 1
          1 1 1 1 1 1
          1 1 1 1 1 1
          1 1 1 1 1 1
          1 1 1 1 1 1
          1 1 1 1 1 1
          1 1 1 1 1 1
          1 1 1 1 1 1
          1 1 1 1 1 1
          1 1 1 1 1 1
          1 1 1 1 1 1
          1 1 1 1 1 1
          1 1 1 1 1 1
          1 1 1 1 1 1
          1 1 1 1 1 1
          1 1 1 1 1 1
          1 1 1 1 1 1
          1 1 1 1 1 1
          1 1 1 1 1 1
          1 1 1 1 1 1
          1 1 1 1 1 1
          1 1 1 1 1 1
          1 1 1 1 1 1
          1 1 1 1 1 1
          1 1 1 1 1 1
          1 1 1 1 1 1
          1 1 1 1 1 1
          1 1 1 1 1 1
          1 1 1 1 1 1
          1 1 1 1 1 1
          1 1 1 1 1 1
          1 1 1 1 1 1
          1 1 1 1 1 1
          1 1 1 1 1 1
          1 1 1 1 1 1
          1 1 1 1 1 1
          1 1 1 1 1 1
          1 1 1 1 1 1
          1 1 1 1 1 1
          1 1 1 1 1 1
          1 1 1 1 1 1
          1 1 1 1 1 1
          1 1 1 1 1 1
          1 1 1 1 1 1
          1 1 1 1 1 1
          1 1 1 1 1 1
          1 1 1 1 1 1
          1 1 1 1 1 1
          1 1 1 1
        </DataArray>
        <DataArray type="Float64" Name="dHdT" format="ascii" RangeMin="25.81155084393309" RangeMax="26.339767748197886">
          25.811615852803328 25.812868754863167 25.81228767199107 25.81160918378597 25.811632236287004 25.855948384997625
          25.81323762147707 25.81162196014222 25.812464712973267 25.82630606388248 25.81607369853329 25.812818410443377
          25.82246861516719 25.811791871673897 25.811759759211586 25.812067638585596 25.81186553722386 25.811625832922356
          25.81162226238454 25.811620169064753 25.811770581845924 25.811797313945608 25.811634761612122 25.812471097817564
          25.812006778184596 25.81162131513508 25.81182853206601 25.812420148516363 25.812336608845367 25.812310991808484
          25.811800537496396 25.81181336464585 25.81182619179531 25.831510287993524 25.826487349608804 25.812960901940567
          25.81576391944354 25.81484293577248 25.818461880763174 25.813380459784643 25.886287950987608 25.863191414408643
          25.822194422574714 25.831555688499503 25.812503527261708 25.812764539144013 25.812637441554894 25.81346442919829
          25.99159978745983 25.929644175333348 25.8449130808588 25.83442995657648 25.851554186633628 25.820288425406574
          26.05606395635042 25.969276194522067 25.84147261939848 25.86250207810475 25.81445970238089 25.81347237901367
          25.81493773480429 25.81238169953442 25.812274661834557 25.81258870285552 25.812420655906546 25.811925151873336
          25.812148082310458 25.812067733845442 25.812089852505522 25.812201971432504 25.811931243279435 25.814025574494224
          25.81344475242473 25.812085582548807 25.812573796371712 25.816934526780198 25.815462127081844 25.812313239833273
          25.812160933601195 25.813210905817765 25.812039922484995 25.818497712758727 25.81651312272725 25.812275939315555
          25.813563241179505 25.812223986058623 25.8123781323414 25.811938491928828 25.8120423170737 25.812146463254102
          25.812303464738008 25.811945352973936 25.812488692603576 25.812098135720028 25.812382584636957 25.81155084393309
          25.811551663182946 25.81155097783286 25.811552035516634 25.811989174301598 25.812090192101714 25.811842790355087
          25.811866637892685 25.811966267726852 25.812017424698 25.811858174606936 25.811776123450713 25.811751956296913
          25.811798035675213 25.811771234981165 25.811659715376006 25.81166505841452 25.811660660267457 25.811727789143113
          25.811744434287117 25.811656262120394 25.81181994789971 25.811790513665414 25.811661605158907 25.811761079431122
          25.83007324216095 25.8210182286838 25.820374922647275 25.816417171661836 25.81876626275347 25.822247702589532
          25.816858603564942 25.81459798323463 25.815678179343326 25.895487356303754 25.88827279335745 25.851861599273544
          25.84855201412622 25.870761828239182 25.84045784823737 25.970191012194356 25.95512388569473 25.879500716160496
          25.91925987016852 25.830183098516045 25.828736715782888 25.81989619199918 25.819290028692727 25.825172713100432
          25.817791859998657 25.845367730688853 25.842453718810656 25.825112862967753 25.835389857430492 25.851263267703096
          25.831298599453167 25.835650839067707 25.823829570107442 25.88077123054559 25.845398986676848 25.85143283528931
          25.821062926983384 25.81603721240871 25.81765643123086 25.81501550829608 25.827527405321664 25.81887402676074
          25.821264842616024 25.816814382915265 25.82539989514351 25.818885567137023 25.83311715792577 25.82272922406409
          25.81462081346207 25.815397682578464 25.813729696136626 25.8142060211662 25.81723046647792 25.814849474251066
          26.077536565326156 26.05063592892413 25.93539398238027 25.923293312143468 25.987152236079545 25.89460518365886
          26.19985430786231 26.159076153289305 25.973075868720088 26.063305887951188 25.86663211598349 25.861505516270768
          25.835111541823277 25.83304628425352 25.849246905232015 25.828057150910677 25.890641415363362 25.882886833921198
          25.841823434107287 25.86452098433591 25.920541912486556 25.86414344839048 25.871673999100107 25.841338948946735
          25.96406170428344 25.884452519827036 25.893002461563825 25.83599557840391 25.82254733521831 25.82582729132071
          25.81820925531426 25.84505939412495 25.826429842189018 25.830533853078595 26.300458434467828 26.24794173972222
          26.037976385876597 26.01404364679077 26.12517925671343 25.958166101118493 26.339767748197886 26.282593190886516
          26.030044443634974 26.149181360899032 25.910318461013617 25.90034050121842 25.852861483535882 25.848911461928946
          25.876840494704435 25.839514301356623 25.91799850389254 25.90713942782122 25.851658555232582 25.881610747825523
          25.998930374027424 25.900642272625348 25.909682346061476 25.859487867078208 26.012362048539906 25.90687458493126
          25.916040692921335 25.8522197400492 25.829462181340872 25.834149694758963 25.82187060075835 25.854965109481725
          25.830619373875358 25.835518828923398 25.84254319546247 25.827373699879082 25.852099585526506 25.83205578524723
          25.819484730050497 25.81548516519168 25.814513215053864 25.821729970810026 25.816519266064198 25.859365258532776
          25.835603528145093 25.862099533455773 25.83693877828562 25.82340957709507 25.81729183847001 25.815699675713827