<?xml version="1.0"?>
<VTKFile type="UnstructuredGrid" version="0.1" byte_order="LittleEndian" header_type="UInt32" compressor="vtkZLibDataCompressor">
  <UnstructuredGrid>
    <Piece NumberOfPoints="995" NumberOfCells="662">
      <PointData>
        <DataArray type="Int32" Name="libmesh_node_id" format="ascii" RangeMin="791" RangeMax="5649">
          791 799 1078 1079 1080 1081
          1084 1085 1086 1947 1949 1950
          1957 1958 1959 1960 1961 1962
          1963 1964 1965 1966 1967 1968
          1969 1970 1971 1972 1973 1974
          1975 1976 1984 1985 1994 1995
          1997 1998 1999 2000 2001 2002
          2003 2004 2005 2006 2007 2008
          2009 2010 2011 2012 2013 2014
          2015 2016 2017 2018 2021 2022
          2024 2025 2028 2029 2031 2032
          2035 2037 2038 2040 2058 2071
          2072 2075 2077 2078 2080 2091
          2095 2754 2756 2757 2758 2759
          2760 2761 2762 2763 2764 2765
          2766 2767 2768 2769 2770 2771
          2772 2773 2774 2775 2776 2777
          2778 2779 2780 2781 2784 2785
          2787 2790 2792 2793 2794 2795
          2796 2797 2798 2799 2800 2801
          2802 2803 2805 2807 2808 2809
          2810 2811 2812 2813 2816 2817
          2819 2822 2824 2825 2826 2827
          2828 2829 2830 2831 2832 2833
          2835 2837 2839 2841 2842 2843
          2844 2845 2846 2847 2848 2849
          2850 2851 2852 2853 2854 2855
          2856 2857 2858 2859 2860 2861
          2862 2863 2864 2865 2866 2867
          2868 2869 2870 2871 2872 2873
          2874 2875 2876 2877 2878 2879
          2880 2881 2882 2883 2884 2885
          2886 2887 2888 2889 2890 2891
          2892 2893 2894 2895 2896 2897
          2898 2899 2900 2901 2902 2903
          2904 2905 2906 2907 2908 2909
          2910 2911 2912 2913 2914 2915
          2916 2917 2918 2919 2924 2925
          2926 2927 2928 2929 2930 2931
          2932 2933 2943 2944 2945 2946
          2947 2949 2984 2985 2986 2987
          2988 2989 2990 2991 2992 2993
          2998 3004 3005 3006 3007 3008
          3009 3010 3011 3013 3015 3017
          3018 3019 3020 3021 3022 3023
          3024 3025 3026 3027 3038 3039
          3040 3041 3042 3043 3044 4672
          4674 4687 4688 4690 4693 4698
          4699 4701 4703 4704 4705 4706
          4707 4708 4709 4710 4711 4712
          4713 4714 4715 4716 4717 4718
          4719 4720 4721 4722 4723 4724
          4725 4726 4727 4728 4729 4730
          4731 4732 4733 4734 4735 4736
          4737 4738 4739 4740 4741 4742
          4743 4744 4745 4746 4747 4748
          4749 4750 4751 4752 4753 4754
          4755 4756 4757 4770 4771 4773
          4776 4786 4788 4790 4804 4805
          4807 4810 4820 4822 4824 4826
          4827 4828 4829 4830 4831 4832
          4833 4834 4835 4836 4837 4838
          4839 4840 4841 4842 4843 4844
          4845 4846 4847 4848 4849 4850
          4851 4852 4853 4854 4855 4856
          4857 4858 4859 4860 4861 4862
          4863 4864 4865 4866 4867 4868
          4869 4870 4871 4872 4873 4874
          4875 4876 4877 4878 4879 4880
          4881 4882 4883 4884 4885 4886
          4887 4888 4889 4890 4891 4892
          4893 4897 4898 4900 4910 4912
          4914 4916 4917 4918 4919 4920
          4921 4922 4923 4924 4925 4926
          4927 4928 4929 4930 4931 4932
          4933 4934 4935 4936 4937 4938
          4939 4940 4941 4942 4943 4944
          4945 4946 4947 4948 4949 4950
          4951 4952 4953 4954 4955 4956
          4957 4958 4959 4960 4961 4962
          4963 4964 4965 4966 4967 4968
          4969 4970 4971 4972 4973 4974
          4975 4976 4977 4978 4979 4980
          4981 4982 4983 4984 4985 4986
          4987 4988 4989 4990 4991 4992
          4993 4994 4995 4996 4997 4998
          4999 5000 5001 5002 5003 5004
          5005 5006 5007 5008 5009 5010
          5011 5012 5013 5014 5015 5016
          5017 5018 5019 5020 5021 5022
          5023 5024 5025 5026 5027 5028
          5029 5030 5031 5032 5033 5034
          5035 5036 5037 5038 5039 5040
          5041 5042 5043 5044 5045 5046
          5047 5048 5049 5050 5051 5052
          5053 5054 5055 5056 5057 5058
          5059 5060 5061 5062 5063 5064
          5065 5066 5067 5068 5069 5070
          5071 5072 5073 5074 5075 5076
          5077 5078 5079 5080 5081 5082
          5083 5084 5085 5086 5087 5088
          5089 5090 5091 5092 5093 5094
          5095 5096 5097 5098 5099 5100
          5101 5102 5103 5104 5105 5106
          5107 5108 5109 5110 5111 5112
          5113 5114 5115 5116 5117 5118
          5119 5120 5121 5122 5123 5124
          5125 5126 5127 5128 5129 5130
          5131 5132 5133 5134 5135 5136
          5137 5138 5139 5140 5141 5142
          5143 5144 5145 5146 5147 5148
          5149 5150 5151 5152 5153 5154
          5155 5156 5157 5158 5159 5160
          5161 5162 5163 5164 5165 5166
          5167 5168 5169 5170 5171 5172
          5173 5174 5175 5176 5177 5178
          5179 5180 5181 5182 5183 5184
          5185 5186 5187 5188 5189 5190
          5191 5192 5193 5194 5195 5196
          5197 5198 5199 5200 5201 5202
          5203 5204 5205 5206 5207 5208
          5209 5210 5211 5212 5213 5214
          5215 5216 5217 5218 5219 5220
          5221 5222 5223 5224 5225 5226
          5227 5228 5229 5230 5231 5232
          5233 5234 5235 5236 5237 5238
          5239 5240 5241 5242 5243 5244
          5245 5246 5247 5248 5249 5250
          5251 5292 5293 5294 5295 5296
          5297 5298 5299 5300 5301 5302
          5303 5304 5305 5306 5307 5308
          5309 5310 5311 5312 5313 5314
          5315 5316 5317 5318 5319 5320
          5321 5322 5323 5324 5325 5326
          5327 5328 5329 5330 5331 5332
          5333 5334 5335 5336 5337 5338
          5339 5340 5341 5342 5343 5344
          5345 5346 5347 5348 5355 5356
          5358 5371 5373 5381 5382 5385
          5387 5388 5390 5401 5403 5404
          5405 5407 5415 5416 5417 5418
          5419 5420 5421 5422 5423 5424
          5425 5426 5427 5428 5429 5430
          5431 5432 5433 5434 5435 5436
          5437 5441 5442 5443 5444 5445
          5447 5455 5456 5457 5458 5459
          5460 5461 5462 5463 5464 5465
          5466 5467 5468 5469 5470 5471
          5472 5473 5474 5475 5476 5477
          5478 5479 5480 5481 5482 5483
          5484 5485 5486 5487 5488 5489
          5490 5491 5492 5493 5494 5495
          5496 5497 5498 5499 5500 5501
          5502 5503 5504 5505 5506 5507
          5508 5509 5510 5511 5512 5513
          5514 5515 5516 5517 5518 5519
          5520 5521 5522 5523 5524 5527
          5529 5530 5532 5543 5545 5547
          5549 5557 5558 5561 5563 5564
          5566 5577 5579 5581 5583 5591
          5592 5593 5594 5595 5596 5597
          5598 5599 5600 5601 5602 5603
          5604 5606 5607 5608 5609 5610
          5611 5612 5613 5614 5615 5616
          5617 5618 5619 5623 5625 5627
          5629 5643 5645 5647 5649
        </DataArray>
        <DataArray type="Float64" Name="bounds" format="ascii" RangeMin="0" RangeMax="0">
          0 0 0 0 0 0
          0 0 0 0 0 0
          0 0 0 0 0 0
          0 0 0 0 0 0
          0 0 0 0 0 0
          0 0 0 0 0 0
          0 0 0 0 0 0
          0 0 0 0 0 0
          0 0 0 0 0 0
          0 0 0 0 0 0
          0 0 0 0 0 0
          0 0 0 0 0 0
          0 0 0 0 0 0
          0 0 0 0 0 0
          0 0 0 0 0 0
          0 0 0 0 0 0
          0 0 0 0 0 0
          0 0 0 0 0 0
          0 0 0 0 0 0
          0 0 0 0 0 0
          0 0 0 0 0 0
          0 0 0 0 0 0
          0 0 0 0 0 0
          0 0 0 0 0 0
          0 0 0 0 0 0
          0 0 0 0 0 0
          0 0 0 0 0 0
          0 0 0 0 0 0
          0 0 0 0 0 0
          0 0 0 0 0 0
          0 0 0 0 0 0
          0 0 0 0 0 0
          0 0 0 0 0 0
          0 0 0 0 0 0
          0 0 0 0 0 0
          0 0 0 0 0 0
          0 0 0 0 0 0
          0 0 0 0 0 0
          0 0 0 0 0 0
          0 0 0 0 0 0
          0 0 0 0 0 0
          0 0 0 0 0 0
          0 0 0 0 0 0
          0 0 0 0 0 0
          0 0 0 0 0 0
          0 0 0 0 0 0
          0 0 0 0 0 0
          0 0 0 0 0 0
          0 0 0 0 0 0
          0 0 0 0 0 0
          0 0 0 0 0 0
          0 0 0 0 0 0
          0 0 0 0 0 0
          0 0 0 0 0 0
          0 0 0 0 0 0
          0 0 0 0 0 0
          0 0 0 0 0 0
          0 0 0 0 0 0
          0 0 0 0 0 0
          0 0 0 0 0 0
          0 0 0 0 0 0
          0 0 0 0 0 0
          0 0 0 0 0 0
          0 0 0 0 0 0
          0 0 0 0 0 0
          0 0 0 0 0 0
          0 0 0 0 0 0
          0 0 0 0 0 0
          0 0 0 0 0 0
          0 0 0 0 0 0
          0 0 0 0 0 0
          0 0 0 0 0 0
          0 0 0 0 0 0
          0 0 0 0 0 0
          0 0 0 0 0 0
          0 0 0 0 0 0
          0 0 0 0 0 0
          0 0 0 0 0 0
          0 0 0 0 0 0
          0 0 0 0 0 0
          0 0 0 0 0 0
          0 0 0 0 0 0
          0 0 0 0 0 0
          0 0 0 0 0 0
          0 0 0 0 0 0
          0 0 0 0 0 0
          0 0 0 0 0 0
          0 0 0 0 0 0
          0 0 0 0 0 0
          0 0 0 0 0 0
          0 0 0 0 0 0
          0 0 0 0 0 0
          0 0 0 0 0 0
          0 0 0 0 0 0
          0 0 0 0 0 0
          0 0 0 0 0 0
          0 0 0 0 0 0
          0 0 0 0 0 0
          0 0 0 0 0 0
          0 0 0 0 0 0
          0 0 0 0 0 0
          0 0 0 0 0 0
          0 0 0 0 0 0
          0 0 0 0 0 0
          0 0 0 0 0 0
          0 0 0 0 0 0
          0 0 0 0 0 0
          0 0 0 0 0 0
          0 0 0 0 0 0
          0 0 0 0 0 0
          0 0 0 0 0 0
          0 0 0 0 0 0
          0 0 0 0 0 0
          0 0 0 0 0 0
          0 0 0 0 0 0
          0 0 0 0 0 0
          0 0 0 0 0 0
          0 0 0 0 0 0
          0 0 0 0 0 0
          0 0 0 0 0 0
          0 0 0 0 0 0
          0 0 0 0 0 0
          0 0 0 0 0 0
          0 0 0 0 0 0
          0 0 0 0 0 0
          0 0 0 0 0 0
          0 0 0 0 0 0
          0 0 0 0 0 0
          0 0 0 0 0 0
          0 0 0 0 0 0
          0 0 0 0 0 0
          0 0 0 0 0 0
          0 0 0 0 0 0
          0 0 0 0 0 0
          0 0 0 0 0 0
          0 0 0 0 0 0
          0 0 0 0 0 0
          0 0 0 0 0 0
          0 0 0 0 0 0
          0 0 0 0 0 0
          0 0 0 0 0 0
          0 0 0 0 0 0
          0 0 0 0 0 0
          0 0 0 0 0 0
          0 0 0 0 0 0
          0 0 0 0 0 0
          0 0 0 0 0 0
          0 0 0 0 0 0
          0 0 0 0 0 0
          0 0 0 0 0 0
          0 0 0 0 0 0
          0 0 0 0 0 0
          0 0 0 0 0 0
          0 0 0 0 0 0
          0 0 0 0 0 0
          0 0 0 0 0 0
          0 0 0 0 0 0
          0 0 0 0 0 0
          0 0 0 0 0 0
          0 0 0 0 0 0
          0 0 0 0 0 0
          0 0 0 0 0 0
          0 0 0 0 0 0
          0 0 0 0 0 0
          0 0 0 0 0 0
          0 0 0 0 0
        </DataArray>
        <DataArray type="Float64" Name="gradient_error" format="ascii" RangeMin="5.995554783934376e-10" RangeMax="7.623166543446017e-7">
          3.115443212560977e-7 2.1147973423562892e-9 3.9280113168960404e-7 4.775863226764645e-7 2.74066533587389e-7 5.127817523303956e-7
          1.1052593553657045e-9 4.909585685799953e-7 5.669472811242963e-7 3.1273845874219266e-7 3.4400103642361283e-7 3.008030640661264e-7
          5.028486042319346e-7 4.774026206596314e-7 5.232858599259643e-7 4.937124984683136e-7 3.8814248720059117e-7 3.923275518387333e-7
          3.676600481207327e-7 4.381816407248422e-7 3.806029741176981e-7 5.384670722566616e-7 5.441323560300323e-7 5.099631295639444e-7
          3.8878548131799e-7 4.362230746706485e-7 3.9451323773645454e-7 3.933289537470532e-7 4.199191296459373e-7 4.04752017771839e-7
          3.4201560792731223e-7 4.961748598456812e-7 4.5337167764997516e-7 4.5764853452368564e-7 4.5856448546398455e-7 4.539011705314174e-7
          5.598385965290384e-9 1.3137066784518626e-7 4.3323951150974645e-9 3.400408128525736e-8 5.050989046870732e-7 4.5382537772672324e-7
          5.995554783934376e-10 6.778251697924593e-9 6.027325038593788e-9 4.578195196111934e-7 3.9998342618455295e-9 3.640390463490454e-8
          4.789218218594404e-9 2.5260565790613966e-8 4.832751854132398e-7 5.143526533107472e-7 1.5978931542020137e-9 5.923025196637308e-9
          6.972801031159617e-9 5.270752395601695e-7 6.151507462845744e-7 6.377480432471265e-7 6.716364965494545e-7 7.029135516006528e-7
          6.594916187975913e-7 6.759712370349182e-7 7.348681993564849e-7 7.623166543446017e-7 2.2027268626015077e-7 3.549993123224373e-7
          3.877455836598352e-7 6.812058509306626e-8 2.766571680254133e-7 5.247691863745157e-7 4.3975916731949263e-7 6.131875986849038e-9
          1.225921612492822e-8 4.25300562228897e-7 2.750544768233825e-9 8.784547094202331e-9 3.3810252090033316e-7 5.589785540588027e-7
          5.3771092222456e-7 8.905415818350601e-8 9.298010318411696e-8 9.345436356303607e-8 9.811210513566839e-8 9.628324950293308e-8
          9.392110742802415e-8 9.69460106334333e-8 1.0222118434159172e-7 9.525414620295559e-8 9.548720852193516e-8 1.0184603883116657e-7
          1.0274490112128977e-7 1.0754251017516822e-7 1.0599856025364203e-7 1.0284256592648797e-7 1.0005847238466921e-7 9.727437884285045e-8
          1.1175246297305247e-7 1.1294072248227523e-7 1.1341960531010751e-7 1.1647667847706239e-7 1.0671400551519e-7 1.1137853320584406e-7
          1.0507465393450888e-7 1.1635866777679232e-7 1.21730177981138e-7 1.1389296059095783e-7 4.9536875231651585e-8 5.9163786526795615e-8
          7.873940925732053e-8 1.729510836554481e-8 5.1847320855654635e-8 5.222516251024002e-8 5.4068359540272564e-8 5.469309554958728e-8
          7.625125381727528e-8 7.939443596875662e-8 4.867613292362389e-9 7.186267213448004e-9 6.639682666826746e-9 3.337255907404862e-8
          9.728115233220155e-8 9.625168005934057e-8 8.444861693407331e-8 9.964085902324035e-8 1.0430959429534054e-7 9.95883988038322e-8
          1.0527905275358407e-7 8.095573223439134e-8 8.446314767606406e-8 1.0533865496111267e-7 1.2442310064596443e-9 2.684760775281831e-9
          1.84825113888493e-8 1.8042303070625444e-9 1.3304573082095378e-9 2.5271450966231034e-9 1.633924473176997e-9 2.621483100530708e-9
          8.032151447700653e-9 7.658007723735222e-9 8.064652039730782e-10 1.883638716507935e-9 2.2143554740708342e-9 6.36742795811955e-9
          6.68995574773571e-8 1.0266743727669583e-7 5.748407619130134e-8 5.974206485454511e-8 6.250817778648122e-8 1.0742422399553687e-7
          1.1252158567624303e-7 5.984421736477933e-8 6.241275888551556e-8 1.080937894735572e-7 5.6220060531305885e-8 5.709551801534938e-8
          5.8411343884177744e-8 5.955722895327439e-8 8.305608465056467e-8 8.692630507542662e-8 4.030307754929464e-9 6.166864471331412e-9
          5.869075785371256e-9 3.516567132915039e-8 6.075671853037269e-8 6.223710375523381e-8 6.24286228307319e-8 6.455814302171981e-8
          9.121886250855975e-8 8.187337379652691e-8 4.272436028228199e-9 5.826843683613519e-9 6.067850636940268e-9 3.7767667523044315e-8
          1.0897519971511104e-7 1.1391325703202482e-7 1.0996567255363117e-7 1.1483462342193434e-7 8.840531245928758e-8 9.267430654951608e-8
          1.1626428711047537e-7 1.1928407441963008e-7 1.1114211690262552e-7 1.2005282954278344e-7 1.2565619468989877e-7 9.743494255859332e-8
          8.884428666379448e-8 1.2839212783588707e-7 2.053603527590182e-9 2.9962361985448987e-9 2.4663814086778955e-9 3.5258712133573443e-9
          7.344030966626258e-9 7.192172608292848e-9 1.3562431047213331e-9 2.6781923952841e-9 3.140009419504214e-9 5.839804108833404e-9
          2.8632809841175135e-9 4.094274443877607e-9 3.268704242259274e-9 4.690058033433828e-9 7.277422410727071e-9 7.617210700191028e-9
          1.8467364181206946e-9 3.6105832244724407e-9 4.12141052656862e-9 6.295789398058172e-9 6.544769046437888e-8 6.869886267862714e-8
          1.1793450144218433e-7 1.239206501145576e-7 6.52417818025854e-8 6.836954868735898e-8 1.1819711983617138e-7 7.235657969850172e-8
          7.654199155596077e-8 1.3071989411111657e-7 1.3864560344266948e-7 7.185633563939468e-8 7.5839763830513e-8 1.3086823104506802e-7
          9.669706004392188e-8 9.543487406262492e-8 9.641152863949884e-8 9.417268808132796e-8 1.0458177710529934e-7 1.0227548939490915e-7
          1.085018768705095e-7 1.0654406495325845e-7 9.996920168451897e-8 1.0458625303600738e-7 8.924700494698113e-8 1.0245831443594708e-7
          9.545894381868893e-8 1.2097387431100692e-7 1.1401771298209678e-7 1.2762748192051325e-7 1.3397657259374047e-7 1.237177439667563e-7
          1.405745289624259e-7 1.3463601653804803e-7 3.718521451575125e-8 5.3537653121619305e-8 1.1145324461688959e-8 4.2522791102828303e-8
          7.218077071447368e-8 7.618423419422257e-8 5.3857278418170996e-9 6.539405484953658e-9 7.243348567284783e-9 1.1962017661162193e-8
          6.470945763603088e-8 1.0294481706953837e-7 1.0846066511612565e-7 1.3164686367522406e-7 1.3837913898216326e-7 8.027810830209292e-8
          8.514638888061983e-8 1.435335154846542e-7 1.1459356593152979e-7 1.4624967250715582e-7 9.053779840438708e-8 1.5489712683441144e-7
          3.7044643895518755e-9 5.3379871202193295e-9 4.1843941836444336e-9 6.0582055271424095e-9 8.240430436213929e-9 9.125862339648597e-9
          2.4122427112089574e-9 4.684346064584128e-9 5.323511481488923e-9 7.827141739017388e-9 8.128572786897677e-8 6.825623927176742e-8
          1.4790513941604173e-7 1.2898111145505497e-7 8.053753719708541e-8 4.9684895474999144e-8 1.483192312464668e-7 1.0236020224716706e-8
          1.1185678620265859e-8 9.08515225459762e-9 9.327397176032725e-9 9.973252504726802e-9 6.21546833905557e-9 1.1002318148134115e-8
          1.122416297702349e-8 9.146397354967891e-9 1.056435617822706e-8 1.0481595766721041e-8 1.0667376367096896e-8 1.0785751236782404e-8
          1.0759500326811704e-8 1.0750690880603788e-8 1.0758091615862329e-8 1.1153739955676946e-8 1.1322204549220315e-8 1.1530730774867698e-8
          1.1471741980090842e-8 1.1707590181422714e-8 1.1920984852664214e-8 1.184958188588741e-8 8.959368572974308e-9 9.245738550530778e-9
          8.789179509589021e-9 9.11563209815948e-9 1.012245534425812e-8 1.005547879559772e-8 5.218816904214424e-9 5.855793860285221e-9
          5.500134335711388e-9 7.545153490778356e-9 8.584322428669502e-9 8.94802336228618e-9 8.366875099481938e-9 8.755230833573124e-9
          1.0010662445259827e-8 9.936228154321972e-9 4.570163389850775e-9 5.186850855691434e-9 4.922002209607897e-9 6.9067043167643945e-9
          1.1053021259141031e-8 1.1148584786653885e-8 1.1393240357853069e-8 1.1628296668842274e-8 9.4653436359238e-9 9.362586266594418e-9
          1.076648620126723e-8 1.12396659040097e-8 1.133137695520336e-8 1.1769731213402602e-8 1.1933884169427084e-8 9.250101029403013e-9
          9.098620806477665e-9 1.0966347815845957e-8 1.174886736748379e-8 1.1876538177980326e-8 1.208387074902798e-8 1.2119919965452775e-8
          1.226925103190692e-8 1.2484813465630438e-8 1.262012210989463e-8 2.4688496885195257e-9 2.9683172383754124e-9 4.617538746777402e-9
          1.5802247776038537e-9 7.184947419682593e-9 9.497254244108151e-9 5.120759131134282e-9 7.584521863631377e-10 1.0847582415080333e-9
          1.980676620662687e-9 9.335388537967901e-10 3.850659987508624e-9 7.235580463550423e-9 3.5195793576632206e-9 2.321945892108317e-9
          2.7901774414150407e-9 2.228877967768821e-9 2.656665405198254e-9 4.335160186931847e-9 4.087113365487576e-9 1.263857999615352e-9
          1.5732840223248857e-9 1.6152294035724827e-9 2.5799935260518153e-9 2.1993714171581806e-9 2.581475284997811e-9 2.241838748576299e-9
          2.5790608782392172e-9 3.897718638457602e-9 3.769903030327584e-9 1.4561960430131052e-9 1.7201304761011599e-9 1.886634579210089e-9
          2.536972230407468e-9 6.925863807205058e-9 6.670170635187022e-9 9.829487756452989e-9 9.7196372216857e-9 4.853522535308185e-9
          4.6146210143228245e-9 8.308800137224088e-9 6.430205788558476e-9 6.19441041679381e-9 9.641401253915345e-9 9.536491572586743e-9
          4.434168657094732e-9 4.31709169946851e-9 7.839160309484304e-9 8.218514225705034e-10 1.1301466569189746e-9 9.405149887967752e-10
          1.2319725836075784e-9 1.9686801347574253e-9 2.0106202359617635e-9 6.766257894196462e-10 9.923737657883313e-10 1.1104363282659866e-9
          1.8165460614520404e-9 1.1038815485085e-9 1.3918787355053296e-9 1.2745558774370407e-9 1.5813556425116663e-9 2.1217175676846786e-9
          2.299255301496399e-9 9.629315961329035e-10 1.278101221389665e-9 1.4559295151497139e-9 2.0191042527835445e-9 3.6890228993037106e-9
          3.5673898057001607e-9 7.007134219408118e-9 6.78988629981794e-9 3.3758790396153155e-9 3.2871451183799568e-9 6.563283743180841e-9
          3.5025499248697543e-9 3.516182788577054e-9 6.593695083781081e-9 6.4196099834687015e-9 3.2687136804576565e-9 3.3315304565918756e-9
          6.187290603114205e-9 1.15671222180201e-8 1.184768597179911e-8 1.0824906107065022e-8 1.0312902125867196e-8 1.1305674354978345e-8
          1.0081133625415064e-8 1.1639167702343388e-8 1.1779079925612647e-8 1.2059176123048985e-8 1.2369452789880468e-8 1.0981979417790003e-8
          1.1024627637309895e-8 1.177612662467899e-8 1.1927125145897784e-8 1.2086384632882039e-8 1.2600001237004068e-8 1.2865083901425181e-8
          1.108751462957235e-8 1.1140111730535548e-8 1.2275166402739831e-8 1.031725773316276e-8 1.0314503315195643e-8 1.1499374447869299e-8
          1.1686203348650583e-8 1.0072353857451965e-8 1.0054040457968809e-8 1.1444927927025813e-8 1.0304834661893823e-8 1.0283179946397655e-8
          1.1863819793097793e-8 1.204915030760551e-8 1.0019639324531597e-8 9.974092231857856e-9 1.1757187144829433e-8 1.067264984532112e-8
          1.0734462766352543e-8 1.0690184255238269e-8 1.1368845448669768e-8 1.0480378176333952e-8 1.0625512849348476e-8 1.0519808718541231e-8
          1.1518238708948333e-8 1.2140543141000895e-8 1.2358552488725314e-8 1.2339671072046225e-8 1.2571879560454483e-8 1.278169223058674e-8
          1.2877929225375299e-8 8.154497652140175e-9 8.55715231501997e-9 7.944500863245684e-9 8.359573472265344e-9 9.838440327465508e-9
          9.726429319249365e-9 4.1510192777592456e-9 4.707908640092523e-9 4.552827481161648e-9 6.3881507521186585e-9 7.735914548166684e-9
          8.165191671838476e-9 7.534669561647243e-9 7.972806634491331e-9 9.610377214691422e-9 9.48993670460868e-9 3.978671103191094e-9
          4.463390213335864e-9 4.44184131570752e-9 5.9899358261647936e-9 1.1421016085646451e-8 1.1500688467773005e-8 1.212495849426165e-8
          1.232316437833228e-8 8.946855851348693e-9 8.795848138706718e-9 1.0995263988894278e-8 1.1565768733385329e-8 1.1618988552813184e-8
          1.2505251832898082e-8 1.2669047403744426e-8 8.649290725712617e-9 8.51878625806915e-9 1.1021687052891092e-8 1.0075253185119263e-8
          1.034278582318748e-8 1.0088916767332327e-8 1.158122987941263e-8 9.399096175654279e-9 9.768802102786726e-9 9.47549484701909e-9
          1.1415504967996803e-8 1.2984877958392667e-8 1.3182970029600291e-8 1.3417614619215776e-8 1.3374656369181133e-8 1.3554121111007927e-8
          1.4056810832287831e-8 7.350615172693872e-9 7.78552439070524e-9 7.203025660967461e-9 7.62118693992581e-9 9.362613778079115e-9
          9.235270446074162e-9 4.097474794588106e-9 4.491842720998992e-9 4.618282884538747e-9 5.812926228508694e-9 7.105202094523715e-9
          7.496439206931108e-9 7.0675126229515175e-9 7.443162226582486e-9 9.114827682142609e-9 9.044666858241278e-9 4.512023499087868e-9
          4.8185050090593005e-9 5.073122120306382e-9 5.9136702561101855e-9 1.1661557113615897e-8 1.1698368441769539e-8 1.2818320279790172e-8
          1.2965544210274909e-8 8.414673409066836e-9 8.345930628154692e-9 1.0985545504385907e-8 1.1733511229837234e-8 1.1746462493598653e-8
          1.3125043414727746e-8 1.4059782407634463e-8 8.31714221732496e-9 8.323267969305087e-9 1.0928110099859446e-8 1.2706565411020294e-8
          1.292826926694548e-8 1.3191755257129495e-8 1.3144945743497531e-8 1.3359831893089433e-8 1.3758468573474353e-8 1.5800016912313483e-8
          1.3577180202812948e-8 1.3804525067129834e-8 1.4377133909520491e-8 1.587336899324053e-8 1.601219696543408e-8 1.4051634888511403e-8
          1.483365316442111e-8 1.5182800360365036e-8 2.356167425995731e-9 2.653393176172484e-9 2.5329324761813188e-9 2.7992218445469487e-9
          3.7120236522422435e-9 3.73211026739555e-9 1.8398663566942975e-9 2.0955419857508683e-9 2.3238149906740237e-9 2.7793979579489847e-9
          2.759299527879739e-9 3.0055572492007215e-9 3.0193517850198477e-9 3.2560420965507798e-9 3.831064552374382e-9 4.001769444658847e-9
          2.2636233529646032e-9 2.5556609112059127e-9 2.7838046035804034e-9 3.251414357691885e-9 5.9913526797047726e-9 5.835884721409831e-9
          9.430615998941037e-9 9.328049512241876e-9 4.2715493021677405e-9 4.306954313372816e-9 7.488583449842929e-9 5.740828859730845e-9
          5.716680643603926e-9 9.235096867080636e-9 9.160703434435623e-9 4.422974523128628e-9 4.610481934632162e-9 7.240758245138179e-9
          1.432850476652552e-9 1.77099113735268e-9 1.5816406111759054e-9 1.9521076729265054e-9 2.522419192077206e-9 2.766724735577946e-9
          1.2326099953487075e-9 1.6217092390509419e-9 1.778336780567984e-9 2.4418234747648615e-9 1.7259069914528355e-9 2.1267559123318933e-9
          1.8688566675125206e-9 2.2988515486352064e-9 3.014686513971321e-9 3.259219424903461e-9 1.4772750463531693e-9 1.931394568310148e-9
          2.0843000022375586e-9 2.9113174854125614e-9 3.613178687218399e-9 3.78496823895036e-9 6.279011033936537e-9 6.188728843873656e-9
          3.4737414571054803e-9 3.6789254633820113e-9 5.904314140966413e-9 4.0165328364075734e-9 4.291395544116762e-9 6.161795929922916e-9
          6.2028382533211284e-9 3.92985080091053e-9 4.213900865078377e-9 5.8460257446045406e-9 3.297314370502229e-9 3.5333854292881876e-9
          3.5775239433292014e-9 3.822754105765279e-9 4.230960764501486e-9 4.504262962849805e-9 2.665226447817766e-9 3.0079549809811735e-9
          3.2307714308394787e-9 3.807847600100884e-9 3.8487834412734355e-9 4.113098826331132e-9 4.113489800160282e-9 4.403138652411626e-9
          4.8100758833606796e-9 5.139212970747341e-9 3.063232508143683e-9 3.4564028586250435e-9 3.68917537684608e-9 4.387100890310152e-9
          5.767216897220845e-9 5.890326651943649e-9 9.111845482488101e-9 9.094728369888914e-9 4.856178892829799e-9 5.148737589168657e-9
          7.204219796809339e-9 6.080453649031816e-9 6.342553213644278e-9 9.112334517013085e-9 9.16663540775075e-9 5.481762619073006e-9
          5.847007681356248e-9 7.413047203347724e-9 2.012685637867311e-9 2.472274155754443e-9 2.1590226609558487e-9 2.6498376833372002e-9
          3.503472556157897e-9 3.753618844899588e-9 1.7205746921958159e-9 2.239986724347928e-9 2.400532059967801e-9 3.3713166608452064e-9
          2.3096762924277975e-9 2.8335668197034802e-9 2.466202654074957e-9 3.0250025700903387e-9 4.013693809107946e-9 4.285607205659788e-9
          1.9777154663325164e-9 2.5675918677760253e-9 2.742517056844888e-9 3.860147488384994e-9 4.596205744608416e-9 4.923786011524606e-9
          6.3120624293050625e-9 6.492875612639293e-9 4.52337694870438e-9 4.852655746228593e-9 6.070570943571076e-9 5.27147336453959e-9
          5.6383048272659634e-9 6.749065690637104e-9 7.07576548299744e-9 5.1984104448402125e-9 5.559968656687191e-9 6.601178857399591e-9
          1.2243186334473534e-8 1.2395833779490305e-8 1.3134417652339284e-8 1.3408628655438e-8 1.1181547670034215e-8 1.1216739368206122e-8
          1.2721448743627525e-8 1.2543725339748447e-8 1.2690435028763746e-8 1.3688600530570254e-8 1.3982017994628119e-8 1.1252773915170991e-8
          1.1295485609124916e-8 1.3214850140386329e-8 1.0252747668540561e-8 1.02260790707025e-8 1.2238124057543248e-8 1.2433762195079626e-8
          9.922207254939468e-9 9.882077697027889e-9 1.2110430675380521e-8 1.0216883080677975e-8 1.0228532950077129e-8 1.2641471779593575e-8
          1.2844588061696498e-8 9.870723267013335e-9 9.887132846342483e-9 1.247197576608065e-8 1.2839703620089103e-8 1.2997924799325428e-8
          1.4297685028714864e-8 1.4646504505262073e-8 1.1349639251352785e-8 1.1420460969598727e-8 1.3738185008689307e-8 1.3172122129123237e-8
          1.3341739566460112e-8 1.5037744966951405e-8 1.5449676307875567e-8 1.1512234057333456e-8 1.1624627631178208e-8 1.4237270374603572e-8
          1.026334693581813e-8 1.0324185274965834e-8 1.3019898063568746e-8 1.3143606363621666e-8 9.92964240629594e-9 9.998773142255236e-9
          1.2781662257668115e-8 1.0412815436318089e-8 1.0534351375942815e-8 1.320051594920442e-8 1.3206369515208827e-8 1.009377212770434e-8
          1.0225807412901566e-8 1.281918072273947e-8 1.4970982982408138e-8 1.5286895272042832e-8 1.527978223025474e-8 1.5807975629721695e-8
          1.5272669188466655e-8 1.4776091396667685e-8 1.4801407560240372e-8 1.4826723723813056e-8 8.829204432397486e-9 9.322156017508799e-9
          1.0993531547422022e-8 1.1305393899297274e-8 1.4855271344780928e-8 1.496672337228746e-8 1.504605705670782e-8 1.5270910239773656e-8
          1.5078175399793993e-8 1.5495763422839498e-8 1.1329027318940165e-8 1.1775647208332327e-8 1.1701921017911781e-8 1.2451829515995888e-8
          1.3731898720536204e-8 1.3902921900016251e-8 1.5383111847073607e-8 1.4033390747667649e-8 1.4145877297578009e-8 1.6167410116842643e-8
          7.091078434676826e-9 7.486060724671859e-9 7.11654148686328e-9 7.552418271728874e-9 9.074352320216212e-9 9.149610388240194e-9
          5.079169591980184e-9 5.35656400812408e-9 5.668011932151451e-9 6.2767641737207174e-9 7.125534968825337e-9 7.59227565977278e-9
          7.221727748676093e-9 7.691652102705291e-9 9.217913753722066e-9 9.327098848510705e-9 5.7345199021515155e-9 6.024155514936868e-9
          6.4236456901919306e-9 6.863551298349391e-9 1.174493587213187e-8 1.178313676223628e-8 1.4521729311883186e-8 1.4680320416712997e-8
          8.365945796045428e-9 8.475072298654657e-9 1.1971216748854417e-8 1.1861111686354713e-8 1.1970642949971465e-8 1.4926647290529126e-8
          1.5187188077255747e-8 8.669719060137669e-9 8.940403054428071e-9 1.2087064955497203e-8 1.1114108739324315e-8 1.170990169048337e-8