<?xml version="1.0"?>
<VTKFile type="UnstructuredGrid" version="0.1" byte_order="LittleEndian" header_type="UInt32" compressor="vtkZLibDataCompressor">
  <UnstructuredGrid>
    <Piece NumberOfPoints="991" NumberOfCells="629">
      <PointData>
        <DataArray type="Int32" Name="libmesh_node_id" format="ascii" RangeMin="795" RangeMax="9759">
          795 801 814 1093 1111 1127
          1129 1130 1131 1135 2063 2064
          2067 2069 2099 2101 2160 2169
          2170 2174 2175 2176 2177 2178
          2179 2180 2181 2182 2183 2184
          2185 2186 2187 2188 2189 2190
          2191 2192 2193 2194 2200 2215
          2216 2217 2218 2220 2222 2223
          2224 2225 2226 2227 2228 2230
          2233 2238 2249 2250 2256 2575
          2576 2577 2578 2579 2580 2583
          2584 2586 2588 3310 3311 3312
          3313 3314 3315 3316 3317 3318
          3319 3340 3341 3345 3346 3347
          3348 3351 3353 3354 3355 3357
          3359 3361 3362 3363 3364 3365
          3366 3367 3368 3369 3370 3371
          3372 3373 3374 3375 3532 3533
          3534 3535 3536 3537 3538 3539
          3540 3541 3542 3543 3544 3545
          3546 3547 3548 3549 3550 3551
          3552 3553 3554 3555 3556 3557
          3558 3561 3562 3565 3566 3567
          3568 3569 3570 3571 3572 3573
          3574 3575 3596 3598 3600 3601
          3602 3630 3631 3632 3633 3634
          3635 3636 3641 3643 3720 3722
          3723 3724 3725 3726 3727 3728
          3739 3740 3741 3742 3743 3744
          3745 3750 3791 3792 3793 3906
          3907 3908 3909 3910 3912 3920
          3921 3924 3925 3927 3929 3942
          3946 3954 3956 3958 3960 4266
          4267 4268 4269 4270 4271 4272
          4273 4274 4275 4276 4277 4278
          4279 4280 4281 4282 4283 4284
          4285 6442 6444 6445 6446 6447
          6448 6489 6490 6491 6492 6493
          6494 6495 6496 6497 6498 6499
          6500 6504 6505 6506 6507 6508
          6509 6510 6511 6512 6513 6514
          6515 6516 6517 6518 6519 6520
          6521 6522 6523 7082 7084 7085
          7086 7300 7301 7302 7303 7304
          7305 7306 7307 7308 7309 7310
          7311 7312 7313 7314 7315 7316
          7317 7318 7319 7320 7322 7323
          7324 7328 7329 7330 7331 7332
          7333 7334 7335 7336 7404 7465
          7479 7491 7492 7493 7503 7504
          7505 7506 7507 7510 7512 7513
          7514 7515 7516 7517 7518 7519
          7520 7521 7522 7523 7524 7525
          7526 7527 7528 7564 7566 7574
          7575 7576 7577 7578 7580 7724
          7725 7726 7727 7728 7729 7730
          7731 7732 7733 7734 7735 7736
          7737 7738 7739 7740 7741 7742
          7743 7744 7745 7746 7747 7748
          7749 7750 7751 7752 7753 7754
          7755 7756 7757 7758 7759 7760
          7761 7762 7763 7764 7765 7766
          7767 7768 7769 7770 7771 7772
          7773 7774 7775 7776 7777 7778
          7779 7780 7782 7784 7786 7794
          7796 7798 7800 7808 7810 7812
          7813 7814 7822 7824 7826 7827
          7828 8250 8251 8252 8260 8262
          8263 8264 8265 8266 8267 8268
          8269 8270 8271 8272 8273 8274
          8275 8276 8277 8278 8279 8280
          8281 8282 8283 8284 8285 8286
          8287 8288 8289 8290 8291 8292
          8293 8294 8295 8296 8307 8308
          8309 8310 8311 8313 8324 8325
          8326 8327 8328 8329 8330 8331
          8332 8333 8334 8335 8336 8337
          8338 8339 8340 8341 8342 8343
          8344 8345 8346 8347 8348 8349
          8350 8351 8352 8353 8354 8355
          8356 8357 8358 8359 8360 8361
          8362 8363 8364 8365 8366 8367
          8368 8369 8370 8371 8372 8373
          8374 8375 8376 8377 8378 8379
          8380 8382 8384 8386 8394 8395
          8398 8399 8401 8403 8414 8416
          8418 8419 8420 8428 8430 8432
          8433 8434 8614 8615 8621 8622
          8626 8627 8628 8629 8630 8631
          8632 8633 8634 8635 8636 8637
          8638 8639 8670 8671 8682 8683
          8684 8685 9464 9465 9466 9467
          9468 9469 9470 9471 9472 9473
          9474 9475 9476 9477 9478 9479
          9480 9481 9482 9483 9484 9485
          9486 9487 9488 9489 9490 9491
          9492 9493 9494 9495 9496 9497
          9498 9499 9501 9503 9505 9506
          9507 9508 9509 9510 9511 9512
          9513 9515 9517 9519 9520 9521
          9522 9523 9534 9535 9536 9537
          9576 9577 9578 9579 9580 9581
          9582 9583 9584 9585 9586 9587
          9588 9589 9590 9591 9592 9593
          9595 9596 9597 9598 9599 9600
          9601 9602 9603 9605 9607 9609
          9620 9621 9622 9623 9627 9629
          9634 9635 9636 9637 9638 9639
          9640 9641 9643 9645 9647 9662
          9663 9664 9665 9666 9667 9668
          9669 9671 9673 9675 9732 9733
          9734 9735 9736 9737 9738 9739
          9741 9743 9745 9746 9747 9748
          9749 9750 9751 9752 9753 9755
          9757 9759 1358 1350 1359 1351
          806 1360 1361 1365 1356 1364
          1363 1366 816 1367 2209 2251
          1125 2253 2252 2255 2254 2581
          2582 2585 2587 2258 2589 2291
          2590 2295 2596 2166 3309 3325
          3334 2168 3335 2172 3339 3349
          3343 2173 3350 3465 3471 3473
          3467 3472 3474 3477 2210 3501
          3507 3559 3508 3560 2214 3511
          3563 3564 3730 3734 3736 3738
          3922 3923 3926 3928 3752 3930
          3915 3931 2257 3932 3916 3933
          3955 3957 3959 4208 4205 4209
          4206 4286 3748 4287 4290 4291
          3934 7579 3609 7397 6468 7610
          3585 7611 7614 3614 7617 7618
          7621 3615 6485 7644 7645 7648
          3619 7651 7652 7655 2236 7678
          3595 7565 7679 7781 3607 7783
          7682 3624 7785 3637 7795 7797
          7799 3639 7712 7713 7809 7811
          7716 3629 7719 7815 7723 7819
          7817 7821 7823 7825 7829 7833
          7831 7835 8312 8381 8383 8385
          3746 8396 8397 8400 8402 8415
          8417 8421 8425 8423 8427 8429
          8431 8435 8439 8437 8441 7020
          8498 8612 7081 8499 8613 7083
          8616 8618 8617 3790 8505 8619
          8506 8620 8623 8625 8624 8647
          8648 8650 8649 7095 8642 8654
          7099 8643 8655 8656 7100 8657
          8661 8662 8663 8664 8566 8668
          8567 8669 8672 8674 8673 3797
          8573 8675 8677 8679 8681 8686
          8687 8688 3799 8689 8691 8693
          8695 8696 8698 8710 8712 8660
          3796 9500 9502 8667 2273 9504
          3911 9514 9516 9518 2289 9524
          9525 9526 3913 9527 9529 9531
          9533 9538 9539 9540 9541 9543
          9545 9547 9548 9550 9562 9564
          9594 9604 9606 9608 9610 9611
          7281 8876 8877 8880 9624 7321
          3826 9625 9626 3940 8883 8884
          9628 9630 8887 9631 3827 9632
          9633 3941 9642 9644 9646 3943
          7326 9650 9651 9654 3944 9657
          9658 9670 9672 9661 3945 9674
          2293 9740 9742 9744 9754 9756
          9758
        </DataArray>
        <DataArray type="Float64" Name="bounds" format="ascii" RangeMin="0" RangeMax="0">
          0 0 0 0 0 0
          0 0 0 0 0 0
          0 0 0 0 0 0
          0 0 0 0 0 0
          0 0 0 0 0 0
          0 0 0 0 0 0
          0 0 0 0 0 0
          0 0 0 0 0 0
          0 0 0 0 0 0
          0 0 0 0 0 0
          0 0 0 0 0 0
          0 0 0 0 0 0
          0 0 0 0 0 0
          0 0 0 0 0 0
          0 0 0 0 0 0
          0 0 0 0 0 0
          0 0 0 0 0 0
          0 0 0 0 0 0
          0 0 0 0 0 0
          0 0 0 0 0 0
          0 0 0 0 0 0
          0 0 0 0 0 0
          0 0 0 0 0 0
          0 0 0 0 0 0
          0 0 0 0 0 0
          0 0 0 0 0 0
          0 0 0 0 0 0
          0 0 0 0 0 0
          0 0 0 0 0 0
          0 0 0 0 0 0
          0 0 0 0 0 0
          0 0 0 0 0 0
          0 0 0 0 0 0
          0 0 0 0 0 0
          0 0 0 0 0 0
          0 0 0 0 0 0
          0 0 0 0 0 0
          0 0 0 0 0 0
          0 0 0 0 0 0
          0 0 0 0 0 0
          0 0 0 0 0 0
          0 0 0 0 0 0
          0 0 0 0 0 0
          0 0 0 0 0 0
          0 0 0 0 0 0
          0 0 0 0 0 0
          0 0 0 0 0 0
          0 0 0 0 0 0
          0 0 0 0 0 0
          0 0 0 0 0 0
          0 0 0 0 0 0
          0 0 0 0 0 0
          0 0 0 0 0 0
          0 0 0 0 0 0
          0 0 0 0 0 0
          0 0 0 0 0 0
          0 0 0 0 0 0
          0 0 0 0 0 0
          0 0 0 0 0 0
          0 0 0 0 0 0
          0 0 0 0 0 0
          0 0 0 0 0 0
          0 0 0 0 0 0
          0 0 0 0 0 0
          0 0 0 0 0 0
          0 0 0 0 0 0
          0 0 0 0 0 0
          0 0 0 0 0 0
          0 0 0 0 0 0
          0 0 0 0 0 0
          0 0 0 0 0 0
          0 0 0 0 0 0
          0 0 0 0 0 0
          0 0 0 0 0 0
          0 0 0 0 0 0
          0 0 0 0 0 0
          0 0 0 0 0 0
          0 0 0 0 0 0
          0 0 0 0 0 0
          0 0 0 0 0 0
          0 0 0 0 0 0
          0 0 0 0 0 0
          0 0 0 0 0 0
          0 0 0 0 0 0
          0 0 0 0 0 0
          0 0 0 0 0 0
          0 0 0 0 0 0
          0 0 0 0 0 0
          0 0 0 0 0 0
          0 0 0 0 0 0
          0 0 0 0 0 0
          0 0 0 0 0 0
          0 0 0 0 0 0
          0 0 0 0 0 0
          0 0 0 0 0 0
          0 0 0 0 0 0
          0 0 0 0 0 0
          0 0 0 0 0 0
          0 0 0 0 0 0
          0 0 0 0 0 0
          0 0 0 0 0 0
          0 0 0 0 0 0
          0 0 0 0 0 0
          0 0 0 0 0 0
          0 0 0 0 0 0
          0 0 0 0 0 0
          0 0 0 0 0 0
          0 0 0 0 0 0
          0 0 0 0 0 0
          0 0 0 0 0 0
          0 0 0 0 0 0
          0 0 0 0 0 0
          0 0 0 0 0 0
          0 0 0 0 0 0
          0 0 0 0 0 0
          0 0 0 0 0 0
          0 0 0 0 0 0
          0 0 0 0 0 0
          0 0 0 0 0 0
          0 0 0 0 0 0
          0 0 0 0 0 0
          0 0 0 0 0 0
          0 0 0 0 0 0
          0 0 0 0 0 0
          0 0 0 0 0 0
          0 0 0 0 0 0
          0 0 0 0 0 0
          0 0 0 0 0 0
          0 0 0 0 0 0
          0 0 0 0 0 0
          0 0 0 0 0 0
          0 0 0 0 0 0
          0 0 0 0 0 0
          0 0 0 0 0 0
          0 0 0 0 0 0
          0 0 0 0 0 0
          0 0 0 0 0 0
          0 0 0 0 0 0
          0 0 0 0 0 0
          0 0 0 0 0 0
          0 0 0 0 0 0
          0 0 0 0 0 0
          0 0 0 0 0 0
          0 0 0 0 0 0
          0 0 0 0 0 0
          0 0 0 0 0 0
          0 0 0 0 0 0
          0 0 0 0 0 0
          0 0 0 0 0 0
          0 0 0 0 0 0
          0 0 0 0 0 0
          0 0 0 0 0 0
          0 0 0 0 0 0
          0 0 0 0 0 0
          0 0 0 0 0 0
          0 0 0 0 0 0
          0 0 0 0 0 0
          0 0 0 0 0 0
          0 0 0 0 0 0
          0 0 0 0 0 0
          0 0 0 0 0 0
          0 0 0 0 0 0
          0 0 0 0 0 0
          0 0 0 0 0 0
          0 0 0 0 0 0
          0
        </DataArray>
        <DataArray type="Float64" Name="gradient_error" format="ascii" RangeMin="3.938578205432273e-12" RangeMax="3.6074604951492373e-7">
          3.049650963075269e-8 2.2361335948725185e-7 1.3310063214120507e-9 1.1606628963918666e-7 1.0605161742837202e-8 3.6074604951492373e-7
          1.749309178069679e-8 3.777560225346382e-8 2.693802523464786e-9 6.834533997789156e-8 4.542240736377391e-8 1.1791094143005839e-7
          4.449833437162204e-8 3.240775235092768e-7 3.2725269883501907e-7 2.2211978616655537e-7 2.396111030885982e-7 1.1090977433299383e-7
          3.710358435412525e-9 1.7742490445075744e-7 3.1079899623052067e-8 8.620913251274356e-8 1.3677141723301907e-8 5.590568242201689e-8
          1.1743590403856046e-8 2.8128822343766683e-8 1.623007185544121e-8 2.562493884283137e-7 1.7983120560999916e-7 7.442418366100591e-8
          4.613968865233006e-9 2.2852933625792578e-8 4.5754004663010265e-10 1.6403112142018787e-9 1.992785260704777e-9 8.227281569533674e-9
          1.804872984455777e-9 7.507654847474e-8 2.775481125628864e-9 1.2143533222450222e-8 3.450518971677048e-7 2.553482453182014e-7
          2.486274862576776e-7 1.4134545548464526e-7 4.9887798662528067e-8 2.321752726704516e-7 1.511578792388872e-7 4.800267970233161e-9
          1.341061605220693e-8 1.107275729759652e-9 1.8947747186062021e-7 6.578236926536546e-9 1.5290392297463786e-8 9.672859352132557e-10
          8.405888521008807e-11 5.520977130896086e-10 3.3576554076421346e-11 3.53252213875281e-11 6.124737323383556e-11 3.388260362500188e-9
          4.341294439847888e-9 3.396307398844454e-9 5.2943285171955875e-9 2.393061056372945e-9 2.9875987987653456e-9 1.771667285983055e-9
          2.1093318752108715e-9 3.582136541157746e-9 2.446996464438688e-9 8.311453807237968e-9 4.304878350153868e-9 2.6428132260673767e-8
          6.959272503632372e-9 3.006134884609269e-9 3.3482730301465823e-9 1.27385939840707e-9 2.1947494715365795e-8 9.398920266284353e-9
          9.743306219339228e-9 5.930771759148879e-8 2.8071824920491084e-8 5.0901753779262495e-8 2.3043485594165924e-8 2.2261966085524837e-8
          8.829005083158713e-9 4.027490805604962e-8 1.8059047621232864e-9 1.3084548214213576e-9 4.436340339909888e-9 1.3686270274701182e-9
          5.06876323618735e-10 9.008032896743363e-10 2.3458207330888633e-10 3.453268872223671e-9 1.3148132878303556e-9 2.2128201767536265e-9
          8.833409987836753e-9 6.469761369830464e-9 1.7483952251700755e-8 7.171796733480305e-9 2.9445687980531187e-9 4.503912024994924e-9
          1.0479556485445433e-9 1.4119490784630668e-8 5.767164967546224e-9 6.8747763050807586e-9 3.1467092300301386e-8 1.3764702515851471e-8
          4.553454470783184e-8 2.5034162103531828e-8 9.998978877800865e-9 9.919804988992787e-9 3.2451400335495256e-9 3.6603881426753635e-8
          1.49295377807403e-8 1.4583115861641687e-8 2.4319185451740968e-9 2.9398882820444774e-9 2.183091357904102e-9 3.764035491415531e-9
          1.9869335154904043e-9 2.426963384411422e-9 7.414609940061484e-10 1.090088666627506e-9 1.3795648954749896e-9 1.490448921461414e-9
          5.828165735666976e-10 3.2041643033280565e-9 1.492166648868405e-9 1.742112483081592e-9 5.71936200866759e-8 2.5366961328231523e-8
          6.248299502093251e-8 1.8350575928384367e-8 6.063018719230578e-9 1.998066645297196e-8 4.26118167954214e-9 2.8845040253199445e-9
          4.4421503951680775e-9 3.747908894682717e-9 1.8276472810810494e-9 1.9309444558313757e-9 7.54171416373001e-10 3.9544824360417616e-9
          1.9600100337428335e-9 1.978996892947405e-9 2.0158597754472666e-10 6.76661247282499e-11 7.01844779464923e-10 3.103629686483102e-10
          2.1530230856651448e-10 2.007201027536412e-9 9.291186514351597e-10 5.773186999105303e-10 2.349976643864871e-10 4.6822109886878e-9
          2.282066019053153e-9 1.3108605674900619e-9 9.428647625810793e-10 2.142810514820217e-10 4.036670697456691e-11 1.5626928327414164e-11
          5.989775206409783e-11 6.480977159826581e-11 2.4947123191586224e-11 6.424887854243503e-11 2.4711544077234782e-11 9.470153710021028e-11
          1.593114404177296e-10 5.73787550706446e-11 1.7437224881221642e-10 5.181230898117192e-11 3.4161664346155247e-10 1.2783256392648602e-10
          1.6603670196622482e-10 4.6969095598932254e-11 4.565427534017739e-9 2.4949135013772097e-9 1.08206038118277e-9 6.293007387844766e-10
          2.4077419945169587e-10 1.6128859827109622e-10 6.161856069322214e-11 9.875414823258833e-10 2.4461694446120233e-10 2.097654553349517e-10
          1.4476632599245197e-10 2.1547679114584143e-10 2.3685261655237795e-10 1.8317251571101e-10 2.89017278490706e-10 3.150615135791005e-10
          3.435371326793489e-10 2.2506751094274374e-10 3.523790877772996e-10 2.41760795423531e-10 3.7753464039403646e-10 6.700532789251843e-11
          9.922089230588502e-11 7.162964579615427e-11 2.0369794687518118e-10 3.642523309967203e-10 2.730420172960535e-10 4.281535375423676e-11
          6.33871024417747e-11 1.8625379615955105e-11 2.7553312577664386e-11 3.123461929958975e-11 4.72145470820306e-11 2.279944836790695e-11
          1.3084209568670822e-10 4.615876432214219e-11 9.779284936013102e-11 2.3193943889167932e-10 6.43186846233487e-11 1.7022529743178353e-10
          4.299241094313669e-11 2.46392768963596e-10 7.281604848738383e-10 2.118607893478835e-9 4.359923858644397e-10 2.723521453080483e-10
          7.695756953680033e-10 3.6145470218911136e-9 2.2482485002851754e-9 5.721507573118808e-9 1.2610929110778707e-9 7.678314833375993e-10
          2.0069880241494293e-9 8.462229634229735e-9 5.3890049686572194e-9 1.2057409204035936e-8 3.043845199871286e-9 1.8121070419751434e-9
          4.424226957733287e-9 9.154858368033353e-11 1.5682775373413068e-10 9.526305407866363e-11 2.643908189135009e-10 3.98514632420714e-11
          5.165742046439251e-11 4.148829380214666e-11 8.515521424210156e-11 4.2048949727845616e-10 2.501431897039429e-10 6.42844743170905e-10
          1.292529506374092e-10 1.0321441716724737e-10 1.9008272802766444e-10 9.399208456738382e-10 5.527193452386482e-10 1.3232525279654383e-9
          2.746321423496215e-10 2.1802988264029254e-10 3.911016593619898e-10 1.0803299309955316e-8 6.183211211266953e-9 3.6318797302551467e-9
          8.091264664726027e-9 1.8006407263220537e-9 1.0626061768367011e-9 2.375475034093717e-9 5.395280547105605e-10 3.129848777662666e-10
          7.037973755592395e-10 3.0609160389995945e-9 1.7871843499734053e-9 3.7611700918935e-9 8.820247774787223e-10 5.185785525045285e-10
          1.0581359459857318e-9 1.240622550837603e-10 1.5224629308149344e-10 1.2266889603911927e-10 2.0577931756461485e-10 2.5566907491155787e-10
          2.0599392592536797e-10 3.027115619977545e-10 4.429045784516626e-9 2.562719485906587e-9 1.2220636317494445e-9 7.143540073513372e-10
          1.3564649585451794e-9 1.4463587027617898e-9 8.434636371222891e-10 1.4817081336179958e-9 3.467259548699488e-10 2.805388104390348e-10
          3.8290443982218685e-10 4.066568591114841e-10 3.299989750037221e-10 4.1574347009609564e-10 1.3953183356248026e-9 6.424028019927004e-10
          3.2457975869631755e-10 1.9569655040795216e-10 1.1774516159188355e-10 1.2030872946633497e-10 5.950494057440448e-10 3.8393956289051857e-10
          1.773970419556137e-9 1.2124720601139794e-9 1.0859966846678326e-9 2.5428935367083943e-10 8.396706278798423e-10 5.692119406303806e-10
          4.691725669613998e-10 3.523051462572976e-10 2.193479645085372e-10 2.1278413280439282e-10 1.2328059203170477e-10 6.238684253361107e-10
          3.9228173764662407e-10 3.6913425725694904e-10 1.3968629948502772e-10 8.940627145487276e-11 7.57207091975489e-11 4.713656133399211e-11
          2.5248364873732344e-10 1.6275979764026103e-10 1.339339918423756e-10 3.7236415297271514e-10 1.9976967928127646e-10 5.6359299740073766e-11
          3.4581200718156165e-11 2.9174534236334556e-11 1.766238755351695e-11 1.0300001807481721e-10 5.2264394992339396e-11 3.0546111788887614e-9
          2.1298278781406774e-9 1.8505186289356901e-9 1.2191869597149611e-9 4.907290331831286e-9 3.5262791928363137e-9 2.982265662168368e-9
          1.4949840032979682e-9 1.022516363762227e-9 8.249773785025514e-10 5.501527716846512e-10 2.5205207886881994e-9 1.7432538112025502e-9
          1.3800538941852547e-9 1.0366191087658021e-9 6.698430799376748e-10 6.050583289846541e-10 3.599919413618849e-10 1.6609721951682527e-9
          1.0910143718663972e-9 9.556756337012274e-10 4.3628918869184525e-10 2.834503466773099e-10 2.2695065306850584e-10 1.4361451513757984e-10
          7.199882505584943e-10 4.717302383577884e-10 3.68439564022504e-10 7.396279587460323e-9 5.5091433434104916e-9 4.535270774634784e-9
          3.1398650122762113e-9 1.0660480196573907e-8 8.142199074581215e-9 6.611097879406158e-9 4.018389825444633e-9 2.815703406098348e-9
          2.1958091679843924e-9 1.4933295778521652e-9 6.058359495832802e-9 4.3037908614321675e-9 3.3219427291477026e-9 2.5384039722159945e-9
          1.6973186770633488e-9 1.4458603097114796e-9 8.881000140777052e-10 3.7177018862130377e-9 2.5273722011290126e-9 2.1000938003766864e-9
          1.135129160141541e-9 7.497930984335934e-10 5.732543935765277e-10 3.6822097637761094e-10 1.7094287970034741e-9 1.137290847871438e-9
          8.544010425876451e-10 6.725397174396073e-10 3.5579365005371007e-10 1.1543489478669505e-9 6.041042132395246e-10 1.802197550051522e-10
          8.975964233976783e-11 3.013463565429737e-10 1.475589604860623e-10 1.8797840531453364e-9 9.766547150285526e-10 2.900173095753743e-9
          1.848990474734121e-9 1.5017461190385822e-9 4.811477227150258e-10 2.3213137264946008e-10 7.328950452005949e-10 4.5450406379981185e-10
          3.491868683220138e-10 7.034995100122584e-11 3.8585901852943035e-11 4.8497275640298564e-11 2.24255089273673e-11 1.4011830719016925e-11
          1.2222804054303348e-10 6.924609944992355e-11 7.20683260986033e-11 3.811513874219965e-11 2.068401476764801e-10 1.185575341488678e-10
          1.2058691937860417e-10 4.083409407921097e-11 2.4690139263309264e-11 2.1640612342422097e-11 1.478088499341829e-11 7.079819791518863e-11
          4.326937910058305e-11 3.714768702137899e-11 3.107833083949119e-11 4.029478515128344e-11 1.6485783552365498e-11 2.1805081662691273e-11
          2.546574153731296e-11 3.1886323708254474e-11 1.64172551236843e-11 6.581124200976989e-11 3.5596042396212445e-11 5.0886341225530334e-11
          8.603228824563956e-12 1.1589934363219811e-11 6.5400889813078876e-12 8.501855239231426e-12 6.67478685259559e-12 8.558176038940525e-12
          6.5661954448747354e-12 1.949759635791007e-11 1.2855792008673676e-11 1.3828014701504176e-11 1.4882392305583132e-11 8.856692683369436e-12
          9.990854108231327e-12 5.918401722660752e-12 2.629582597457906e-11 1.5086353726139345e-11 3.319949351515985e-10 1.9437349469075403e-10
          1.9033571872169876e-10 1.0316409229077078e-10 5.121637793462474e-10 3.0610989953548914e-10 2.8968541160140624e-10 1.1744496436668e-10
          7.246742509750905e-11 6.055921536164388e-11 3.6235461121451284e-11 1.8717651129566173e-10 1.1640417390658047e-10 9.476317214414448e-11
          1.005328457686789e-10 5.534173686902654e-11 7.671130726903619e-11 3.824309019064213e-11 1.4845362737983813e-10 8.289221017234332e-11
          1.1092270032449588e-10 3.09002645330492e-11 1.806154471748534e-11 2.0976479999039015e-11 1.2246932913327069e-11 4.6982577098253376e-11
          2.7876493630159225e-11 3.0745127662070524e-11 7.572931529388071e-10 4.635709526812797e-10 4.249046046311481e-10 2.3752664661656404e-10
          1.0780566983496364e-9 6.750273574783088e-10 6.022277565431969e-10 2.8688329676467087e-10 1.7970025621129073e-10 1.4319069147248713e-10
          8.738005057929733e-11 4.2209498328886447e-10 2.6593496240379503e-10 2.0822168432652055e-10 2.1533227181662886e-10 1.2194525620244843e-10
          1.6019666813515696e-10 7.98987706592149e-11 3.069790745382685e-10 1.7510605626050828e-10 1.9403750883387317e-10 7.02051036787356e-11
          4.200989420239098e-11 4.568207720686126e-11 2.6982277211887687e-11 1.0200826269543274e-10 6.135845578926216e-11 5.6681366316656744e-11
          4.446423438590961e-11 2.170843725750109e-11 7.185498015339396e-11 3.481355061485117e-11 7.912762695762142e-12 1.0466613722755471e-11
          5.593530578442874e-12 6.93615337509779e-12 1.6561680358385865e-11 1.0491001627239847e-11 1.1137545056954994e-10 5.324330533453493e-11
          1.6532807869313284e-10 1.0048014959991558e-10 7.814062994177932e-11 2.509009622507622e-11 1.586436579816979e-11 3.66572531453195e-11
          2.161337239059874e-11 2.3234399309257667e-11 9.250487158825543e-9 6.647708162735019e-9 4.77603976896806e-9 3.3127520995669883e-9
          5.221318000740088e-9 3.5926642567793316e-9 2.9317349770301367e-9 1.8516792614810238e-9 6.9125433305998755e-9 4.8612055062617976e-9
          3.889210666234142e-9 2.455276916041434e-9 1.644413266586085e-9 1.217766470405025e-9 7.911276432169734e-10 3.3579573232661883e-9
          2.2641197834470635e-9 1.6569100558023265e-9 2.194017674971356e-9 1.3827355055215523e-9 1.0639474267653755e-9 6.61107997009163e-10
          5.017812042386722e-10 3.0826631125518895e-10 1.4803224069906498e-9 9.437956278581657e-10 8.242956779374894e-10 4.727604908329555e-10
          1.962635120232773e-9 1.2647348296631241e-9 1.0874821757150876e-9 5.951956330734123e-10 3.768453048766732e-10 2.9068284883026043e-10
          1.7929530575229915e-10 8.031087065050606e-10 5.107264756801034e-10 3.8897878431820863e-10 4.234470052903455e-10 2.4231790176450777e-10
          2.347534559016166e-10 1.2176798083255936e-10 5.550555352972197e-10 3.2091107727391093e-10 3.1079211545803827e-10 1.4230401759992908e-10
          8.585849489339785e-11 6.881899381488056e-11 4.7493739857413084e-11 1.8916388690629372e-10 1.1441771254729997e-10 9.179114997262976e-11
          2.522981699604094e-9 1.623471576192483e-9 1.391089878166367e-9 8.050908283079837e-10 3.099767752573059e-9 1.9970164721150557e-9
          1.7029572270704521e-9 1.03629249926331e-9 4.986970305178849e-10 1.2788869325213066e-9 6.124306231265402e-10 6.985488541833672e-10
          4.072266966728983e-10 3.887332278889547e-10 2.0286103666982446e-10 8.422451466599689e-10 4.957013305479451e-10 4.657374577951156e-10
          2.402636026542973e-10 1.1610854092922904e-10 2.9296705281809926e-10 1.4073745665845255e-10 2.348576185010793e-10 1.4284356479823522e-10
          1.0987816836412704e-10 6.61114192450985e-11 5.130723301104325e-11 3.032333030195795e-11 3.2553872034918634e-11 1.8862154885031582e-11
          1.0060979050006252e-10 1.187973474443699e-10 5.676990560274269e-11 6.412609033848227e-11 8.139095297888883e-11 9.135559967518536e-11
          4.498834826930411e-11 1.564620277096825e-10 8.166403205950185e-11 1.166896583732006e-10 2.9185856835018863e-11 3.3587596179494056e-11
          2.1989228380917047e-11 2.4271413489269886e-11 2.2434686954507566e-11 2.395778970133268e-11 1.798118617530858e-11 4.3557012389694134e-11
          2.868658447199455e-11 1.9478458545635772e-10 1.0200137316352373e-10 1.4584724576004012e-10 6.523617224185241e-11 2.3130305838416022e-10
          1.2203006097672031e-10 1.7291158796994068e-10 5.484015627576336e-11 3.4948494717775723e-11 6.595211015083197e-11 4.124906486565735e-11
          3.6504757761592683e-9 2.3533412737931138e-9 1.9974858790189846e-9 1.1597494785570697e-9 1.5089296881832677e-9 7.198707750213319e-10
          9.762950253164645e-10 5.786213180851402e-10 5.372417029281102e-10 2.8331594526937906e-10 1.0864132906510833e-9 6.469340138697608e-10
          5.959541225724684e-10 3.4261623330605837e-10 1.63612047750458e-10 3.8346222740730726e-10 1.8233522247421898e-10 1.1598619736256917e-9
          6.922334537524129e-10 6.350354537822814e-10 3.361089309057422e-10 1.1876313583931318e-9 7.082156454245233e-10 6.497564128936368e-10
          4.1046588587370084e-10 1.9468605718291912e-10 4.199236486268235e-10 1.9900776912435406e-10 2.6533208627232516e-10 1.4050746880664123e-10
          1.9833409991451842e-10 8.860639970687618e-11 2.9324245552951914e-10 1.5560211849530397e-10 2.1919720555603222e-10 7.612438695277962e-11
          4.738442944560075e-11 8.449086392018933e-11 5.246367575693331e-11 3.116501935003448e-10 1.6561996602699487e-10 2.3299069581770684e-10
          1.038565449692033e-10 3.18503551600009e-10 1.6914746800548927e-10 2.3806742555766557e-10 8.999545202210309e-11 5.5798963523104825e-11
          9.19093531038306e-11 5.6946017631949964e-11 5.6114659288091806e-9 1.554005207535942e-8 1.7414639626772195e-8 5.934762113817917e-8
          1.5099194316681313e-9 1.3584512256762265e-9 1.4758054007000114e-9 2.4511536879216592e-8 8.875863704269646e-8 4.493701156104268e-10
          1.0138105123374203e-9 4.902155486215714e-10 4.4917020103711954e-10 1.3652534339252088e-9 2.411539357954482e-7 1.5038634063977348e-11
          6.393532513898938e-11 6.640839226798346e-11 1.4179075796378107e-11 3.366819496428557e-11 9.036807407767493e-11 6.656234096648403e-10
          1.0382765885543656e-9 5.049982419538611e-10 1.1910766459375282e-9 1.556170354739364e-10 1.845502564355656e-10 2.5286343169630034e-10
          2.6913473176160453e-10 3.0352181019308624e-10 3.098389232606433e-10 1.4620692531848465e-7 3.974982688028488e-8 1.1447102186571879e-7
          9.489669109800073e-8 1.9537796749215664e-8 4.810895035009051e-8 1.9367285842334498e-7 1.1671250334201006e-7 9.73118226823889e-8
          1.286485648044349e-7 6.237430186918171e-8 4.6526888385172e-8 1.2597281406844916e-7 1.3141374094620086e-7 6.560013880923053e-8
          9.993845069199645e-8 8.162434839256201e-8 2.981092281347138e-8 9.778644932486304e-8 4.4905412197561994e-8 1.8966765411407984e-7
          1.2670514395250272e-7 4.619991450076749e-8 5.8661569475229103e-8 1.9039513581077437e-8 3.173717213735209e-7 1.3821074852359395e-7
          5.034732806569252e-8 2.068321528754406e-8 1.0042710708004182e-11 1.4135180608666319e-11 1.1941142293449621e-11 1.4321068245222083e-11
          6.596229621063851e-11 5.1773118139442524e-11 6.720358212437742e-11 5.753189625143405e-11 3.037563063093899e-11 3.184879539037493e-11
          3.5941332268152536e-11 3.2926296708115095e-11 1.4539418080290563e-11 1.428443484856277e-11 1.765204862079949e-11 1.7980950431856404e-11
          7.114849912480106e-11 1.1272770602451732e-10 7.625889931816536e-11 8.416578863150029e-11 1.3106452170718892e-10 1.1241788062003288e-10
          1.7849084417965238e-10 1.5334606015156627e-11 1.637512287454108e-11 2.007285911791724e-11 1.1806890682570006e-11 1.35958635033672e-11
          1.6355930737837893e-11 6.332383788452818e-11 3.179172432203563e-11 2.7329591519336585e-9 5.410448385817646e-9 4.6913187540619485e-9
          1.954738778331975e-9 3.4424815139488285e-9 7.504274185954268e-9 5.684386418951127e-9 2.4954002258477575e-9 1.7480904174838267e-9
          4.202303902542982e-9 2.9841589409927722e-9 1.2541502101953436e-8 1.1234853337286786e-8 8.789485089566198e-9 1.5724543377126574e-8
          1.2785999277765735e-8 6.650816030222207e-9 4.800804704678422e-9 9.90405328627204e-9 7.272602021395655e-9 1.1689389630131514e-9
          4.0636495521726626e-10 2.333450994811828e-10 7.424639803345266e-10 4.2266353480104166e-10 1.2402188558193456e-10 2.2139613188587652e-10