<?xml version="1.0"?>
<VTKFile type="UnstructuredGrid" version="0.1" byte_order="LittleEndian" header_type="UInt32" compressor="vtkZLibDataCompressor">
  <UnstructuredGrid>
    <Piece NumberOfPoints="1110" NumberOfCells="630">
      <PointData>
        <DataArray type="Int32" Name="libmesh_node_id" format="ascii" RangeMin="64" RangeMax="9894">
          64 65 66 67 68 69
          70 71 72 73 74 75
          76 77 78 79 80 81
          82 83 84 85 86 87
          88 89 90 91 92 93
          94 95 96 97 98 99
          100 101 102 103 136 137
          138 139 140 141 142 143
          144 145 146 147 148 149
          150 151 152 153 154 155
          188 189 190 191 192 193
          194 195 196 197 198 199
          200 201 202 203 204 205
          206 207 240 241 242 243
          244 245 246 247 248 249
          250 251 252 253 254 255
          256 257 258 259 276 277
          278 279 280 281 282 283
          284 285 302 303 304 305
          306 307 308 309 310 311
          344 345 346 347 348 349
          350 351 352 353 354 355
          356 357 358 359 360 361
          362 363 380 381 382 383
          384 385 386 387 388 389
          406 407 408 409 410 411
          412 413 414 415 449 450
          451 452 453 454 455 456
          457 458 459 460 461 462
          463 464 465 466 467 484
          485 486 487 488 489 490
          491 492 493 510 511 512
          513 514 515 516 517 518
          519 553 554 555 556 557
          558 559 560 561 562 563
          564 565 566 567 568 569
          570 571 587 588 589 590
          591 592 593 594 595 596
          597 613 614 615 616 617
          618 619 620 621 622 623
          659 661 662 663 664 665
          666 667 668 669 670 671
          672 673 674 675 691 692
          693 694 695 696 697 698
          699 700 701 717 718 719
          720 721 722 723 724 725
          726 727 793 796 797 798
          802 803 804 806 807 809
          810 811 812 815 816 817
          818 819 820 821 822 823
          824 825 826 827 828 829
          830 859 860 861 864 865
          866 867 868 869 870 871
          872 873 874 1068 1073 1098
          1099 1102 1105 1106 1107 1112
          1113 1115 1116 1117 1118 1119
          1120 1121 1124 1125 1140 1141
          1143 1145 1146 1147 1149 1150
          1152 1153 1154 1155 1157 1158
          1159 1180 1181 1182 1183 1184
          1185 1186 1187 1188 1189 1206
          1207 1210 1212 1214 1215 1216
          1217 1218 1219 1220 1221 1222
          1223 1224 1225 1226 1227 1228
          1229 1230 1231 1232 1233 1234
          1235 1236 1237 1238 1239 1240
          1241 1242 1243 1340 1341 1344
          1346 1348 1349 1350 1351 1352
          1353 1354 1355 1356 1357 1358
          1359 1360 1361 1362 1363 1364
          1365 1366 1367 1368 1369 1370
          1371 1372 1373 1374 1375 1376
          1377 1378 1379 1380 1381 1382
          1383 1384 1385 1386 1387 2136
          2148 2149 2150 2154 2244 2251
          2253 2254 2255 2258 2259 2260
          2261 2262 2263 2264 2265 2266
          2267 2268 2273 2274 2278 2283
          2288 2289 2290 2291 2292 2293
          2294 2295 2296 2297 2298 2299
          2300 2301 2302 2310 2311 2312
          2316 2327 2328 2329 2330 2331
          2332 2333 2334 2335 2336 2383
          2384 2387 2388 2389 2390 2391
          2392 2393 2394 2395 2396 2397
          2398 2399 2400 2401 2402 2403
          2404 2405 2406 2407 2408 2409
          2410 2411 2412 2413 2414 2415
          2416 2417 2418 2499 2500 2503
          2504 2505 2506 2507 2508 2509
          2510 2518 2519 2520 2521 2522
          2523 2524 2525 2526 2527 2528
          2529 2530 2581 2582 2585 2587
          2589 2590 2591 2592 2593 2594
          2595 2596 2597 2598 3769 3795
          3797 3798 3799 3800 3801 3802
          3803 3825 3827 3829 3831 3832
          3833 3834 3835 3836 3837 3858
          3859 3860 3861 3862 3863 3864
          3892 3893 3894 3895 3896 3897
          3898 3911 3913 3914 3915 3916
          3917 3918 3919 3922 3923 3926
          3928 3930 3931 3932 3933 3934
          3935 3936 3937 3938 3939 3941
          3943 3945 3947 3948 3949 3950
          3951 3952 3953 3955 3957 3959
          3961 3962 3963 3964 3965 3966
          3967 3968 3969 3970 3971 3972
          3973 3974 3985 3986 3987 3988
          3989 3990 3991 4088 4089 4090
          4093 4094 4095 4096 4097 4098
          4099 4100 4101 4102 4103 4104
          4105 4106 4107 4108 4109 4110
          4111 4112 4113 4138 4139 4140
          4141 4142 4143 4144 4205 4206
          4207 4208 4209 4210 4211 4212
          4213 4214 4215 4216 4217 4218
          4219 4220 4221 4222 4223 4224
          4300 4301 4302 4303 4304 4305
          4306 4307 4308 4309 4310 4311
          4312 4313 4314 4315 4316 8650
          8662 8664 8666 8674 8681 8686
          8687 8688 8693 8694 8695 8698
          8699 8702 8705 8706 8709 8710
          8711 8712 8713 8714 8715 8716
          8717 8718 8719 8720 8721 8722
          8723 8870 8882 8884 8886 8898
          8910 8912 8914 8918 8919 8922
          8925 8926 8929 8930 8931 8932
          8933 8934 8935 8936 8937 8938
          8939 8940 8941 8942 8943 8946
          8947 8950 8953 8954 8957 8958
          8959 8960 8961 8962 8963 8964
          8965 8966 8967 8968 8969 8970
          8971 9114 9121 9126 9127 9128
          9133 9134 9135 9138 9139 9142
          9145 9146 9149 9150 9151 9152
          9153 9154 9155 9156 9157 9158
          9159 9160 9161 9162 9163 9354
          9355 9358 9361 9362 9365 9366
          9367 9368 9369 9370 9371 9372
          9373 9374 9375 9376 9377 9378
          9379 9382 9383 9386 9389 9390
          9393 9394 9395 9396 9397 9398
          9399 9400 9401 9402 9403 9404
          9405 9406 9407 9500 9502 9504
          9514 9516 9518 9524 9525 9526
          9531 9532 9533 9538 9539 9540
          9545 9546 9547 9548 9549 9550
          9551 9552 9553 9554 9555 9556
          9557 9558 9559 9560 9561 9562
          9563 9564 9565 9566 9567 9568
          9569 9570 9571 9572 9573 9574
          9575 9594 9604 9606 9608 9610
          9611 9612 9613 9614 9615 9616
          9617 9618 9619 9628 9630 9632
          9642 9644 9646 9656 9658 9660
          9670 9672 9674 9676 9677 9678
          9679 9680 9681 9682 9683 9684
          9685 9686 9687 9688 9689 9690
          9691 9692 9693 9694 9695 9696
          9697 9698 9699 9700 9701 9702
          9703 9704 9705 9706 9707 9708
          9709 9710 9711 9712 9713 9714
          9715 9716 9717 9718 9719 9720
          9721 9722 9723 9724 9725 9726
          9727 9728 9729 9730 9731 9740
          9742 9744 9754 9756 9758 9760
          9761 9762 9763 9764 9765 9766
          9767 9768 9769 9770 9771 9772
          9773 9778 9779 9780 9785 9786
          9787 9795 9796 9797 9798 9799
          9800 9801 9802 9803 9804 9805
          9806 9807 9808 9809 9810 9811
          9812 9813 9814 9815 9816 9817
          9818 9836 9837 9838 9839 9840
          9841 9842 9843 9844 9845 9846
          9847 9848 9849 9850 9851 9852
          9853 9854 9855 9856 9857 9858
          9859 9860 9861 9862 9863 9864
          9865 9866 9867 9868 9869 9870
          9871 9872 9873 9874 9875 9876
          9877 9878 9879 9880 9881 9882
          9883 9884 9885 9886 9887 9888
          9889 9890 9891 9892 9893 9894
        </DataArray>
        <DataArray type="Float64" Name="bounds" format="ascii" RangeMin="0" RangeMax="0">
          0 0 0 0 0 0
          0 0 0 0 0 0
          0 0 0 0 0 0
          0 0 0 0 0 0
          0 0 0 0 0 0
          0 0 0 0 0 0
          0 0 0 0 0 0
          0 0 0 0 0 0
          0 0 0 0 0 0
          0 0 0 0 0 0
          0 0 0 0 0 0
          0 0 0 0 0 0
          0 0 0 0 0 0
          0 0 0 0 0 0
          0 0 0 0 0 0
          0 0 0 0 0 0
          0 0 0 0 0 0
          0 0 0 0 0 0
          0 0 0 0 0 0
          0 0 0 0 0 0
          0 0 0 0 0 0
          0 0 0 0 0 0
          0 0 0 0 0 0
          0 0 0 0 0 0
          0 0 0 0 0 0
          0 0 0 0 0 0
          0 0 0 0 0 0
          0 0 0 0 0 0
          0 0 0 0 0 0
          0 0 0 0 0 0
          0 0 0 0 0 0
          0 0 0 0 0 0
          0 0 0 0 0 0
          0 0 0 0 0 0
          0 0 0 0 0 0
          0 0 0 0 0 0
          0 0 0 0 0 0
          0 0 0 0 0 0
          0 0 0 0 0 0
          0 0 0 0 0 0
          0 0 0 0 0 0
          0 0 0 0 0 0
          0 0 0 0 0 0
          0 0 0 0 0 0
          0 0 0 0 0 0
          0 0 0 0 0 0
          0 0 0 0 0 0
          0 0 0 0 0 0
          0 0 0 0 0 0
          0 0 0 0 0 0
          0 0 0 0 0 0
          0 0 0 0 0 0
          0 0 0 0 0 0
          0 0 0 0 0 0
          0 0 0 0 0 0
          0 0 0 0 0 0
          0 0 0 0 0 0
          0 0 0 0 0 0
          0 0 0 0 0 0
          0 0 0 0 0 0
          0 0 0 0 0 0
          0 0 0 0 0 0
          0 0 0 0 0 0
          0 0 0 0 0 0
          0 0 0 0 0 0
          0 0 0 0 0 0
          0 0 0 0 0 0
          0 0 0 0 0 0
          0 0 0 0 0 0
          0 0 0 0 0 0
          0 0 0 0 0 0
          0 0 0 0 0 0
          0 0 0 0 0 0
          0 0 0 0 0 0
          0 0 0 0 0 0
          0 0 0 0 0 0
          0 0 0 0 0 0
          0 0 0 0 0 0
          0 0 0 0 0 0
          0 0 0 0 0 0
          0 0 0 0 0 0
          0 0 0 0 0 0
          0 0 0 0 0 0
          0 0 0 0 0 0
          0 0 0 0 0 0
          0 0 0 0 0 0
          0 0 0 0 0 0
          0 0 0 0 0 0
          0 0 0 0 0 0
          0 0 0 0 0 0
          0 0 0 0 0 0
          0 0 0 0 0 0
          0 0 0 0 0 0
          0 0 0 0 0 0
          0 0 0 0 0 0
          0 0 0 0 0 0
          0 0 0 0 0 0
          0 0 0 0 0 0
          0 0 0 0 0 0
          0 0 0 0 0 0
          0 0 0 0 0 0
          0 0 0 0 0 0
          0 0 0 0 0 0
          0 0 0 0 0 0
          0 0 0 0 0 0
          0 0 0 0 0 0
          0 0 0 0 0 0
          0 0 0 0 0 0
          0 0 0 0 0 0
          0 0 0 0 0 0
          0 0 0 0 0 0
          0 0 0 0 0 0
          0 0 0 0 0 0
          0 0 0 0 0 0
          0 0 0 0 0 0
          0 0 0 0 0 0
          0 0 0 0 0 0
          0 0 0 0 0 0
          0 0 0 0 0 0
          0 0 0 0 0 0
          0 0 0 0 0 0
          0 0 0 0 0 0
          0 0 0 0 0 0
          0 0 0 0 0 0
          0 0 0 0 0 0
          0 0 0 0 0 0
          0 0 0 0 0 0
          0 0 0 0 0 0
          0 0 0 0 0 0
          0 0 0 0 0 0
          0 0 0 0 0 0
          0 0 0 0 0 0
          0 0 0 0 0 0
          0 0 0 0 0 0
          0 0 0 0 0 0
          0 0 0 0 0 0
          0 0 0 0 0 0
          0 0 0 0 0 0
          0 0 0 0 0 0
          0 0 0 0 0 0
          0 0 0 0 0 0
          0 0 0 0 0 0
          0 0 0 0 0 0
          0 0 0 0 0 0
          0 0 0 0 0 0
          0 0 0 0 0 0
          0 0 0 0 0 0
          0 0 0 0 0 0
          0 0 0 0 0 0
          0 0 0 0 0 0
          0 0 0 0 0 0
          0 0 0 0 0 0
          0 0 0 0 0 0
          0 0 0 0 0 0
          0 0 0 0 0 0
          0 0 0 0 0 0
          0 0 0 0 0 0
          0 0 0 0 0 0
          0 0 0 0 0 0
          0 0 0 0 0 0
          0 0 0 0 0 0
          0 0 0 0 0 0
          0 0 0 0 0 0
          0 0 0 0 0 0
          0 0 0 0 0 0
          0 0 0 0 0 0
          0 0 0 0 0 0
          0 0 0 0 0 0
          0 0 0 0 0 0
          0 0 0 0 0 0
          0 0 0 0 0 0
          0 0 0 0 0 0
          0 0 0 0 0 0
          0 0 0 0 0 0
          0 0 0 0 0 0
          0 0 0 0 0 0
          0 0 0 0 0 0
          0 0 0 0 0 0
          0 0 0 0 0 0
          0 0 0 0 0 0
          0 0 0 0 0 0
          0 0 0 0 0 0
          0 0 0 0 0 0
          0 0 0 0 0 0
          0 0 0 0 0 0
        </DataArray>
        <DataArray type="Float64" Name="gradient_error" format="ascii" RangeMin="2.475681198940605e-15" RangeMax="1.8966968080307367e-7">
          1.2444868072816066e-11 8.780384094907231e-12 3.0025273196470786e-11 2.0673554771255582e-11 2.1984872595985653e-12 1.6985273953108548e-12
          4.7607148408683014e-12 3.889890538518873e-12 6.237269262207727e-13 6.013287235841278e-13 1.5205538617779253e-12 1.4635523210598161e-12
          7.282267127990695e-14 4.743236973067657e-14 1.7599576807206267e-13 1.0663142252558824e-13 1.455786975756423e-14 1.1616215243444093e-14
          4.0804446314869957e-14 2.932358681786793e-14 2.9233643933099565e-15 2.9756425607611694e-15 9.093425174380211e-15 7.367325081162995e-15
          2.5696885442880653e-15 2.692992642875899e-15 3.887722344371183e-15 3.6482756388809844e-15 2.891828203960849e-15 2.9156622406207315e-15
          3.093562074367641e-15 3.072069619554332e-15 2.958431478608536e-15 2.964882072675017e-15 2.9504724813793118e-15 2.9690298330035154e-15
          2.968454006914045e-15 2.9725069978260082e-15 2.9286624404558426e-15 2.953198596960111e-15 3.498104333084655e-12 7.790798918888956e-12
          9.067888524252496e-13 2.222345727274074e-12 3.9092752633630787e-13 9.44536443411424e-13 1.2831856000191775e-14 2.2915195827217846e-14
          5.985075820369599e-15 1.0497595689072959e-14 3.0324301939384202e-15 4.302312421860485e-15 2.907259603846757e-15 3.2076123398486847e-15
          2.965422951822228e-15 3.0329010371577348e-15 2.9808769531822347e-15 3.00212371020139e-15 2.9834515540845475e-15 2.997272881863958e-15
          1.8803085491709135e-12 4.259761491737529e-12 6.150101738273548e-13 1.4256252183787016e-12 2.0292453172513292e-13 4.82522106481141e-13
          3.621643818937355e-15 8.56331467532186e-15 3.2955909114152435e-15 3.1524640572800104e-15 3.036939659664459e-15 2.963399855775193e-15
          2.9982224662297817e-15 3.0063957463065845e-15 2.991349626363842e-15 3.0152249095744466e-15 2.9904212396229718e-15 3.01666023577506e-15
          2.990343119431124e-15 3.0168110102635364e-15 1.1961406022682376e-10 7.936351949742045e-11 1.5659158076581692e-11 1.411279595277157e-11
          6.1127127974469726e-12 5.9678294800400306e-12 5.277664710257765e-13 3.5572836985281796e-13 1.1849969768287351e-13 7.274946886363919e-14
          2.3990068734548126e-14 1.605984393626067e-14 5.5383190779092115e-15 4.52619537733084e-15 2.5418329828261612e-15 2.7309602416857043e-15
          2.475681198940605e-15 2.703152261430849e-15 2.5140105635577508e-15 2.7263092997778146e-15 2.712340338889088e-11 8.95945106777223e-12
          3.8385072103102885e-12 1.1335768629915716e-13 1.5477244946993534e-14 5.6897232593606116e-15 3.3962548863290814e-15 3.094343036516973e-15
          3.09727672729773e-15 3.1007927902895647e-15 1.5133828009764618e-11 5.352468306583008e-12 1.8540682579874884e-12 4.302510391845467e-14
          3.9552498495822096e-15 3.2498273807480076e-15 3.2784380959056932e-15 3.2685985724886978e-15 3.2639301306743666e-15 3.2629775445812506e-15
          4.994532326877809e-10 3.1577878900853367e-10 5.5056905507551295e-11 5.469214164029309e-11 2.620927029383338e-11 2.5702675801580758e-11
          1.7701851401497828e-12 1.6750975071742721e-12 2.9489924762596565e-13 2.522795231068429e-13 5.476494051236586e-14 4.8401347518800374e-14
          1.0484607659521163e-14 9.897089819881694e-15 3.6910098451035475e-15 3.967318327555143e-15 3.559232694390354e-15 3.789807935292341e-15
          3.6566553481059866e-15 3.860978431123203e-15 9.262592427841321e-11 3.725099232341258e-11 1.617486037721947e-11 9.089524781848663e-13
          1.1465170419587395e-13 2.4710845347183997e-14 7.098488640873248e-15 4.342033789344009e-15 4.210267060151655e-15 4.2321688568167495e-15
          5.314750322754006e-11 2.0174606873790278e-11 7.153639445110801e-12 2.378950821709711e-13 1.9643609804027778e-14 7.383936169133098e-15
          4.88740530150427e-15 4.440440768681279e-15 4.400150944108982e-15 4.39903619949308e-15 5.960221684412347e-10 1.0079087460312005e-10
          1.5865722395385232e-10 2.4911300347954286e-11 6.379641058309263e-11 1.696804908075827e-12 2.4976145729282124e-12 4.477273729398181e-13
          4.2293139560617335e-13 8.307134586748101e-14 8.175641058082036e-14 1.922447317493467e-14 1.9411445161132196e-14 9.355759263335297e-15
          9.161939884762287e-15 8.294253430599228e-15 7.966251303927165e-15 8.198981674325575e-15 7.855634465458087e-15 3.9088857462676747e-10
          1.5054949850359812e-10 6.527199277444145e-11 1.8774746127857104e-12 2.322426219375546e-13 4.729686282575309e-14 1.3218498490697501e-14
          7.73693631696919e-15 7.09405760821642e-15 7.035095576521668e-15 1.8393474700922742e-10 8.606870806500019e-11 3.0786111202217285e-11
          5.712545885610874e-13 6.634982560258058e-14 1.4152250357346474e-14 6.838579834065274e-15 6.5057521277491046e-15 6.549866039177734e-15
          6.557903896452738e-15 1.4348561424595096e-9 6.9166060864652905e-9 3.483282025020613e-10 4.8986989751756555e-12 5.7660691120709474e-11
          9.687621274344055e-13 1.6379327311253536e-12 6.966958221832885e-13 5.707906028903469e-13 1.426032628046949e-13 1.1866368448356036e-13
          3.4899099601467874e-14 2.9985952939815855e-14 1.440956659014744e-14 1.2917930273976855e-14 1.0608995220371514e-14 9.75673449936975e-15
          1.003840501023217e-14 9.28273540283394e-15 2.686011734483941e-9 7.914363999367898e-10 2.724085604611667e-10 8.524795163293324e-11
          1.8636644901463567e-12 3.859458784712824e-13 7.895779554132039e-14 2.041676932294214e-14 9.688791227493725e-15 7.81472755313883e-15
          7.547418997197666e-15 3.202039116172992e-9 8.871495049866562e-10 3.310482801383862e-10 8.606801979465064e-11 1.6927696534636113e-12
          3.2700637334515947e-13 6.319148492021488e-14 1.576073236772044e-14 7.951288497181182e-15 6.724981327909677e-15 6.567772198959623e-15
          4.637077855549078e-9 6.027070622111203e-11 1.881425058372256e-12 1.1213383006700805e-12 9.177870212453007e-13 7.018094814470462e-13
          1.9587706338551367e-13 1.5025656257212425e-13 4.644758616074462e-14 3.64943630773551e-14 1.5701264322953494e-14 1.3213173948655944e-14
          9.739100054594158e-15 8.727455331940164e-15 8.8530071149073e-15 8.057430333536693e-15 6.276014524577605e-9 2.1656828086020116e-9
          4.543884250285442e-10 7.279485167470851e-11 1.565103452459671e-12 5.207655471229926e-13 1.0693630425656389e-13 2.5308974249428223e-14
          9.499470449196385e-15 6.690691022773217e-15 6.2984931840497316e-15 5.20823675574886e-9 1.4890960808247128e-9 5.218396615441165e-10
          1.2192507924035048e-10 2.646275071841787e-12 5.556991525971937e-13 1.0923654675439293e-13 2.4076808504890875e-14 8.273857324034369e-15
          5.665571436260266e-15 5.3351328159333785e-15 1.7695708481318955e-9 7.982165010826345e-10 4.074617043044228e-9 1.0870596794542965e-9
          1.561860656218393e-8 5.260476229598654e-10 2.604313421126801e-10 1.5099194316681313e-9 1.5049243436387874e-11 1.2015572861619431e-11
          1.3140816950874628e-10 2.8720119129559405e-10 3.7594583859370694e-11 5.373489554945073e-12 4.4917020103711954e-10 2.0344276039987563e-12
          3.712998455915807e-12 1.332597697681441e-12 3.0429731156775627e-12 8.789593460872791e-13 1.5831619861032817e-12 1.3266040426913515e-12
          4.278325699213694e-12 4.027861597379354e-12 1.0843773770037487e-12 3.229627085879699e-12 1.4129508933759866e-12 1.5956525818780777e-12
          3.171693037525984e-12 1.1695659628455135e-10 1.9811886362178976e-10 2.3198399737650502e-10 3.6189767598804547e-10 4.695062608936445e-11
          4.914640871800857e-11 3.5026071334034125e-11 8.785229276272137e-11 1.0135751377366062e-11 5.5786562838586745e-12 1.5422956912946767e-11
          5.134219134665269e-11 1.3984613993303284e-10 2.5000715873015534e-11 4.854276474054907e-9 1.2506318505643149e-8 2.59603554614435e-9
          1.925441076357851e-9 4.3455887766933065e-10 9.748281399471122e-10 4.399761198970051e-9 2.970674273640121e-10 1.7931624749768647e-11
          2.160268723596107e-11 1.017636976682314e-11 5.493033567270149e-12 3.1396612830309983e-12 3.730507222592318e-12 2.3929558520358206e-11
          5.371634622410906e-11 7.299904112533749e-12 2.596247608286293e-12 6.393532513898938e-11 3.665593999468366e-11 1.017011553138644e-11
          3.459955413546053e-10 4.9766082702492544e-11 1.8667144086407892e-12 1.9758665421776593e-12 1.6480704942175113e-12 1.4187010647367083e-12
          2.191127553386759e-12 2.6286082697217442e-12 2.3152610117020213e-12 1.4653525805239128e-12 2.4692111741426035e-12 2.8094281869839397e-12
          2.4064522488861643e-12 1.5009213317939159e-12 1.8941538204416013e-12 2.4125320240183333e-12 2.5555121350823477e-12 6.839166395881355e-13
          5.447033997565298e-13 6.921399141290341e-13 2.287386309089287e-12 2.6984922461463625e-12 8.395764285015382e-13 6.708858635356152e-9
          1.7347768474747375e-8 4.5267271236903225e-9 2.7986678314138597e-8 2.973286817840656e-9 6.694077364464851e-9 1.397058201126219e-9
          4.675826139481812e-9 7.803797162423144e-10 2.0106202200479363e-9 1.6207709136810816e-9 1.0414867911089046e-8 7.954594077837405e-9
          3.240860723853558e-9 5.377101953275771e-10 2.162879407940858e-9 1.7686639350464582e-10 5.568378481460879e-10 1.9518891367137102e-10
          8.160012614434459e-10 2.363878725129685e-10 3.788048620554138e-9 9.368093027875298e-10 1.4368136092155208e-9 8.544344788757382e-11
          1.7975475491680332e-10 1.7948235789120568e-11 3.5797083152717094e-11 4.194435219677363e-11 8.121661199536707e-11 1.6992541845646513e-11
          2.7406606194603285e-10 5.364593051631363e-11 1.2048887179396049e-10 6.024203187657178e-8 1.289181853219546e-7 1.5520272251268856e-8
          1.4974847418129623e-7 3.383839399952835e-8 1.272350840600112e-7 1.554005207535942e-8 5.934762113817917e-8 3.0482119929957055e-9
          1.2004597174008319e-8 4.6810754163286536e-9 1.8966968080307367e-7 8.875863704269646e-8 1.9955519544021233e-8 5.6114659288091806e-9
          1.7414639626772195e-8 1.3584512256762265e-9 1.4758054007000114e-9 5.636453556231525e-10 1.0138105123374203e-9 4.493701156104268e-10
          2.4511536879216592e-8 4.902155486215714e-10 1.3652534339252088e-9 9.796998348622123e-11 1.2084435908219537e-10 2.3315251767755565e-11
          2.39584511118507e-11 9.85074032592291e-11 2.0277191992103756e-10 3.150763077671433e-11 1.452266745410862e-10 2.1609958470424095e-11
          2.471224335458726e-10 7.957545553631098e-13 1.2624614267517208e-12 1.67222147473331e-12 2.0897015928559165e-12 8.005013992587115e-13
          5.76556185641961e-13 1.0325383044712751e-12 1.7291682981403318e-12 2.5071817109785232e-12 1.488520423300589e-12 3.455729669435811e-12
          1.7014640707668356e-12 2.1758401746184127e-12 1.4495894077558447e-12 2.6444146337546347e-12 1.7522239666827012e-12 1.5038634063977348e-11
          6.640839226798346e-11 9.036807407767493e-11 3.366819496428557e-11 1.556170354739364e-10 3.822415612620677e-12 5.631394750748506e-12
          2.063180582223164e-12 2.3958932438996242e-12 4.589194184370213e-12 8.935822819468976e-12 2.9131963524546694e-12 7.56523478808949e-12
          3.102296898065263e-12 9.562004605372201e-12 1.7550881159832489e-9 2.3341057754581e-10 2.593792809861937e-9 1.6646694607630858e-11
          2.4468481674612715e-11 8.26313576199741e-11 2.6498079335469985e-11 2.5286343169630034e-10 4.3098530433109755e-11 1.1709628589790154e-10
          3.6747418704735436e-11 3.0352181019308624e-10 8.215944123909222e-12 4.338906212676992e-12 9.526244766547894e-12 5.006936299321233e-12
          7.179276416626896e-12 5.008721564506744e-12 1.0652736107821658e-11 1.6110218491183363e-12 2.809143654447226e-12 1.8190356419398728e-12
          3.2354720180772197e-12 1.4268411124202232e-12 2.253614531617878e-12 6.330580057352953e-13 6.636537619860091e-13 5.713557192644016e-13
          7.199749523800825e-13 2.285988692439426e-13 3.0803879508155326e-12 6.942495182367228e-13 8.685941854957635e-13 1.022547777373739e-9
          3.96837391920744e-9 1.8893178616593593e-9 8.365719342579623e-10 1.856436308182955e-9 5.337090905186111e-10 8.38604003787777e-10
          3.088227256765679e-10 1.1757859538362874e-9 5.986802573826853e-10 2.5369208946470375e-10 4.1032622191977136e-10 7.914141085173079e-11
          1.7305434082470748e-10 9.259297223077597e-11 2.787580463637245e-10 1.005538823448145e-10 1.5626894494960327e-11 5.6482823706117123e-11
          6.458906836925693e-12 1.1918415649997025e-11 1.0489385029395215e-11 2.454139262582545e-11 1.0973006294095083e-11 3.4074675131042724e-12
          3.391494036843462e-12 1.5398023070749407e-12 1.3229010939415918e-12 3.327298739405595e-12 3.17971789325926e-12 1.2006973184600556e-12
          3.375520560582652e-12 1.1059998808082428e-12 3.032137047112925e-12 8.858435606510552e-12 1.112545959485213e-11 1.688428294287341e-11
          1.9300191260425374e-12 2.738920380525387e-12 1.2099105148803422e-12 1.3878107144030238e-12 1.9863784032847045e-12 2.7029383631579984e-12
          1.7233703072886102e-12 1.0675235148229117e-12 1.0311395748212443e-12 5.988527392594418e-13 1.4621277758284754e-12 2.3434326852582636e-12
          6.002243890283738e-13 8.71775185252091e-13 7.885980805932091e-13 1.0651984821942688e-12 7.045337267307169e-13 2.7621290269654235e-12
          9.960910618804719e-13 1.2085762097987293e-12 6.656234096648403e-10 1.0382765885543656e-9 5.049982419538611e-10 1.1910766459375282e-9
          1.845502564355656e-10 2.6913473176160453e-10 5.150369165454623e-11 5.720890917220642e-11 1.093812215142208e-10 1.2458631817384805e-10
          3.8768330607135e-11 3.098389232606433e-10 6.487367014510107e-11 1.3300402217041605e-10 9.516615625859362e-12 7.431812410529764e-9
          1.9261671658330402e-9 6.599180910472292e-10 4.2319688449054797e-10 1.4314237333333215e-10 3.2000816867525955e-9 1.1044526200984168e-9
          6.911297138165296e-10 9.90941357980451e-9 2.351019891960749e-9 1.0901575763982162e-8 4.328646372299787e-9 1.5041550181433473e-9
          9.29363200454306e-10 3.1348531631432944e-10 4.7853844825116164e-9 1.6671376714913734e-9 1.0262301881288748e-9 1.8507498779111345e-10
          4.309720695976741e-11 4.1482580571115194e-11 1.0315260089616993e-11 3.091041223339408e-10 7.144404746594518e-11 6.734611783440189e-11
          4.2088388590031794e-10 9.689220857575595e-11 9.01911255655159e-11 2.2220360447425512e-11 4.665456587951013e-10 1.0726634930311137e-10
          9.943682258929617e-11 3.805520612461139e-10 8.903099381138101e-11 2.9824787449431083e-11 3.5941332268152536e-11 1.765204862079949e-11
          1.4120386346122547e-10 4.7223706365573506e-11 4.0345401380864634e-11 6.596229621063851e-11 5.1773118139442524e-11 6.720358212437742e-11
          5.753189625143405e-11 3.184879539037493e-11 3.2926296708115095e-11 1.428443484856277e-11 1.7980950431856404e-11 1.6355930737837893e-11
          2.0854466863932005e-11 8.841081222575112e-12 3.179371828183673e-11 2.5402748425342017e-11 2.8395942755630107e-11 5.029510712148217e-10
          1.0725464808104006e-10 5.52467621431717e-10 1.866212993617782e-10 6.231727838475764e-11 5.202778314820982e-11 3.385128781076499e-11
          2.0491108867460842e-10 6.837462204779294e-11 5.665034782537773e-11 7.114849912480106e-11 1.1272770602451732e-10 7.625889931816536e-11
          3.9677137094796844e-11 3.1761189195177734e-11 3.4483773023980716e-11 1.2311159754793616e-11 4.260811648051866e-11 3.430432187613686e-11
          3.655756911305384e-11 1.2311382821276771e-11 7.201493870398408e-12 9.610012834967765e-12 8.82080085346605e-12 1.5952769773195325e-11
          7.372620522025411e-12 1.1269665551744186e-11 1.8399600181941023e-11 6.3569413271726744e-12 1.1165602483572526e-11 6.0639046063508874e-12
          2.0164213287146644e-11 6.941024086105613e-12 1.2158543653504492e-11 1.8472587046459147e-10 1.0193441487236806e-9 6.90009264867126e-10
          3.606743810105714e-10 9.849842403670577e-11 7.532059488363772e-11 3.561468710537338e-10 2.6796663746637285e-10 2.393389083707956e-11
          7.243025421605366e-11 6.829845063787225e-11 5.214276573056969e-11 1.7978640387901194e-10 6.416664705969083e-11 8.934700242313063e-12
          8.676148822423602e-12 1.9177359202016704e-11 1.7657397766987242e-11 2.4101625908519404e-12 4.337940545267644e-12 4.739434165698876e-12
          8.417597402534141e-12 1.6137436331957786e-11 5.140927786130107e-12 6.645450169496866e-13 8.32032112527767e-13 5.460269882645233e-13
          4.995082288487804e-13 7.260807739684162e-13 6.907280902825133e-13 5.857631982381595e-13 1.3106452170718892e-10 1.7849084417965238e-10
          1.333348439441128e-10 8.416578863150029e-11 1.1241788062003288e-10 3.726705555581165e-11 4.634491706041338e-11 6.535544478289985e-11
          8.39746368170307e-11 3.4614429689948584e-11 1.0824885649404663e-11 1.2340608089382523e-11 6.331243328614649e-12 5.8828419316341605e-12
          9.716838600941563e-12 1.1138936201406491e-11 6.273715205805451e-12 1.3856330529360384e-11 5.434440534653672e-12 1.2561033801871419e-11
          4.483104017378749e-12 5.956644501434436e-12 2.3907953147028296e-12 2.893867261148889e-12 2.807808187676778e-12 3.3634560505132745e-12
          2.2250901250713114e-12 8.957917979980012e-12 4.299757965276489e-12 4.4816450853451674e-12 1.139787974764082e-11 5.63820263086684e-12
          5.346750911894082e-12 3.3835454645311196e-12 1.2310108520811735e-11 6.073828538775648e-12 5.6493155664476006e-12 5.974969841381365e-9
          2.966428119937087e-9 1.411379567749711e-9 3.698179038350633e-9 3.0434873157393315e-9 1.156849064787303e-9 1.4706958792410752e-9
          9.1569745970222e-10 6.881551800531468e-10 5.455577905198309e-10 3.1094933787471317e-10 2.508572943760818e-10 4.007951379445599e-9
          2.547811440673936e-9 5.012939222011529e-9 1.5340696006080569e-9 8.759612962083369e-10 1.931938809342524e-9 1.9345945048436332e-9
          1.2069793389759453e-9 8.999644259328679e-10 5.539981100812201e-10 2.4210096912665464e-9 1.5133983470437157e-9 1.1217572664698172e-9
          7.196283754726298e-10 4.1006102212184366e-10 3.2837207490264236e-10 1.8723981369226252e-10 9.030188513780367e-10 5.145162881311829e-10
          4.096219220881784e-10 8.79359260888717e-9 4.3892648241216526e-9 2.080672952446802e-9 4.961966845304625e-9 1.0644451118093968e-8