<?xml version="1.0"?>
<VTKFile type="UnstructuredGrid" version="0.1" byte_order="LittleEndian" header_type="UInt32" compressor="vtkZLibDataCompressor">
  <UnstructuredGrid>
    <Piece NumberOfPoints="969" NumberOfCells="649">
      <PointData>
        <DataArray type="Int32" Name="libmesh_node_id" format="ascii" RangeMin="658" RangeMax="7265">
          658 1090 1091 1096 1126 1132
          1133 1955 2043 2044 2046 2049
          2083 2084 2086 2089 2103 2109
          2110 2112 2155 2156 2159 2161
          2162 2163 2164 2195 2196 2197
          2198 2199 2201 2202 2203 2204
          2219 2221 2956 2970 2971 2973
          2976 2982 3064 3065 3067 3070
          3080 3082 3084 3098 3099 3101
          3104 3114 3116 3118 3138 3148
          3150 3152 3259 3260 3261 3262
          3263 3264 3265 3266 3267 3268
          3269 3270 3271 3272 3273 3274
          3275 3276 3277 3278 3279 3280
          3281 3282 3283 3284 3285 3286
          3287 3288 3289 3290 3291 3292
          3296 3297 3299 3320 3321 3324
          3326 3327 3329 3342 3344 3376
          3377 3378 3379 3380 3381 3382
          3383 3384 3385 3386 3387 3388
          3389 3390 3391 3392 3393 3394
          3395 3396 3397 3398 3399 3400
          3401 3402 3403 3404 3405 3406
          3407 3408 3409 3410 3411 3412
          3413 3414 3415 3416 3417 3418
          3419 3420 3421 3422 3423 3424
          3425 3426 3427 3428 3429 3430
          3431 3432 3433 3434 3435 3436
          3437 3438 3439 3440 3441 3442
          3443 3444 3445 3448 3450 3451
          3453 3464 3466 3468 3470 3478
          3479 3482 3484 3485 3487 3498
          3500 3502 3504 3512 3513 3514
          3515 3516 3517 3518 3519 3520
          3521 3522 3523 3524 3525 3526
          3527 3528 3529 3530 3531 5284
          5290 5749 5750 5751 5752 5753
          5754 5755 5756 5757 5758 5767
          5769 5771 5783 5784 5785 5786
          5787 5788 5789 5790 5791 5792
          5801 5803 5805 5831 5841 5843
          5845 5925 5926 5927 5928 5929
          5930 5931 5932 5933 5934 5943
          5945 5947 5959 5960 5961 5962
          5963 5964 5965 5966 5967 5968
          5977 5979 5981 6039 6041 6043
          6049 6059 6061 6063 6073 6075
          6077 6395 6396 6397 6398 6399
          6400 6401 6402 6403 6404 6405
          6406 6407 6408 6409 6410 6411
          6412 6413 6414 6415 6416 6417
          6418 6419 6420 6421 6422 6449
          6450 6451 6452 6453 6454 6456
          6457 6458 6459 6460 6462 6524
          6525 6526 6527 6528 6529 6530
          6531 6532 6533 6534 6535 6536
          6537 6538 6539 6540 6541 6542
          6543 6544 6545 6546 6547 6548
          6549 6550 6551 6552 6553 6554
          6555 6556 6557 6558 6559 6560
          6561 6562 6563 6564 6565 6566
          6567 6568 6569 6570 6571 6572
          6573 6574 6575 6576 6577 6578
          6579 6580 6581 6582 6583 6584
          6585 6586 6587 6588 6589 6590
          6591 6592 6593 6594 6595 6596
          6597 6598 6599 6600 6601 6602
          6603 6604 6605 6606 6607 6608
          6609 6610 6611 6612 6613 6614
          6615 6616 6617 6618 6619 6620
          6621 6622 6623 6624 6625 6626
          6627 6628 6629 6630 6631 6632
          6633 6634 6635 6636 6637 6638
          6639 6640 6641 6642 6643 6644
          6645 6646 6647 6648 6649 6650
          6651 6652 6653 6654 6655 6656
          6657 6658 6659 6660 6661 6662
          6663 6664 6665 6666 6667 6668
          6669 6670 6671 6672 6673 6674
          6675 6676 6677 6678 6679 6680
          6681 6682 6683 6684 6685 6686
          6687 6688 6689 6690 6691 6692
          6693 6694 6695 6696 6697 6698
          6699 6700 6701 6702 6703 6704
          6705 6706 6707 6708 6709 6710
          6711 6712 6713 6714 6715 6716
          6717 6718 6719 6720 6721 6722
          6723 6724 6725 6726 6727 6728
          6729 6730 6731 6732 6733 6734
          6735 6736 6737 6738 6739 6740
          6741 6742 6743 6744 6745 6746
          6747 6748 6749 6750 6751 6752
          6753 6754 6755 6756 6757 6758
          6759 6760 6761 6762 6763 6764
          6765 6766 6767 6768 6769 6770
          6771 6772 6773 6774 6775 6776
          6777 6778 6779 6780 6781 6782
          6783 6784 6785 6786 6787 6788
          6789 6790 6791 6792 6793 6794
          6795 6796 6797 6798 6799 6800
          6801 6802 6803 6804 6805 6806
          6807 6808 6809 6810 6811 6812
          6813 6814 6815 6816 6817 6818
          6819 6820 6821 6822 6823 6824
          6825 6826 6827 6828 6829 6830
          6831 6832 6833 6834 6835 6836
          6837 6838 6839 6840 6841 6842
          6843 6844 6845 6846 6847 6848
          6849 6850 6851 6852 6853 6854
          6855 6856 6857 6858 6859 6860
          6861 6862 6863 6864 6865 6866
          6867 6868 6869 6870 6871 6872
          6873 6874 6875 6876 6877 6878
          6879 6880 6881 6882 6883 6884
          6885 6886 6887 6888 6889 6890
          6891 6892 6893 6894 6895 6896
          6897 6898 6899 6900 6901 6902
          6903 6904 6905 6906 6907 6908
          6909 6910 6911 6912 6913 6914
          6915 6916 6917 6918 6919 6920
          6921 6922 6923 6924 6925 6926
          6927 6928 6929 6930 6931 6932
          6933 6936 6938 6939 6941 6942
          6943 6944 6945 6946 6947 6948
          6949 6951 6953 6955 6956 6957
          6958 6959 6960 6961 6962 6963
          6964 6965 6966 6967 6970 6972
          6973 6975 6976 6977 6978 6979
          6980 6981 6982 6983 6985 6987
          6989 7058 7059 7060 7061 7063
          7064 7065 7066 7067 7068 7069
          7070 7071 7073 7075 7077 7102
          7103 7104 7105 7106 7107 7108
          7109 7110 7111 7112 7113 7116
          7118 7119 7121 7122 7123 7124
          7125 7126 7127 7128 7129 7131
          7133 7135 7136 7137 7138 7139
          7140 7141 7142 7143 7144 7145
          7146 7147 7150 7152 7153 7155
          7156 7157 7158 7159 7160 7161
          7162 7163 7165 7167 7169 7238
          7239 7240 7241 7242 7243 7244
          7245 7247 7249 7251 7252 7253
          7254 7255 7256 7257 7258 7259
          7261 7263 7265 794 1108 2111
          2157 2158 1076 1109 2160 1127
          2166 2169 2172 2174 2175 2063
          2176 2064 2177 2178 2182 2069
          2183 2215 2099 2200 2216 2217
          2101 801 2218 2220 1135 2209
          2222 2214 2226 2165 3298 3322
          3323 3325 2171 3328 3343 3449
          3465 3467 3469 3499 3501 3503
          6455 6934 6935 6937 3446 6940
          3447 6461 6950 6952 6954 6968
          6969 6971 2205 6974 3452 6984
          6986 6988 2206 7062 7072 7074
          7076 7114 7115 7117 3480 7120
          3481 7130 7132 7134 3483 7148
          7149 7151 2211 7154 3486 7164
          7166 7168 2212 7246 7248 7250
          7260 7262 7264
        </DataArray>
        <DataArray type="Float64" Name="bounds" format="ascii" RangeMin="0" RangeMax="0">
          0 0 0 0 0 0
          0 0 0 0 0 0
          0 0 0 0 0 0
          0 0 0 0 0 0
          0 0 0 0 0 0
          0 0 0 0 0 0
          0 0 0 0 0 0
          0 0 0 0 0 0
          0 0 0 0 0 0
          0 0 0 0 0 0
          0 0 0 0 0 0
          0 0 0 0 0 0
          0 0 0 0 0 0
          0 0 0 0 0 0
          0 0 0 0 0 0
          0 0 0 0 0 0
          0 0 0 0 0 0
          0 0 0 0 0 0
          0 0 0 0 0 0
          0 0 0 0 0 0
          0 0 0 0 0 0
          0 0 0 0 0 0
          0 0 0 0 0 0
          0 0 0 0 0 0
          0 0 0 0 0 0
          0 0 0 0 0 0
          0 0 0 0 0 0
          0 0 0 0 0 0
          0 0 0 0 0 0
          0 0 0 0 0 0
          0 0 0 0 0 0
          0 0 0 0 0 0
          0 0 0 0 0 0
          0 0 0 0 0 0
          0 0 0 0 0 0
          0 0 0 0 0 0
          0 0 0 0 0 0
          0 0 0 0 0 0
          0 0 0 0 0 0
          0 0 0 0 0 0
          0 0 0 0 0 0
          0 0 0 0 0 0
          0 0 0 0 0 0
          0 0 0 0 0 0
          0 0 0 0 0 0
          0 0 0 0 0 0
          0 0 0 0 0 0
          0 0 0 0 0 0
          0 0 0 0 0 0
          0 0 0 0 0 0
          0 0 0 0 0 0
          0 0 0 0 0 0
          0 0 0 0 0 0
          0 0 0 0 0 0
          0 0 0 0 0 0
          0 0 0 0 0 0
          0 0 0 0 0 0
          0 0 0 0 0 0
          0 0 0 0 0 0
          0 0 0 0 0 0
          0 0 0 0 0 0
          0 0 0 0 0 0
          0 0 0 0 0 0
          0 0 0 0 0 0
          0 0 0 0 0 0
          0 0 0 0 0 0
          0 0 0 0 0 0
          0 0 0 0 0 0
          0 0 0 0 0 0
          0 0 0 0 0 0
          0 0 0 0 0 0
          0 0 0 0 0 0
          0 0 0 0 0 0
          0 0 0 0 0 0
          0 0 0 0 0 0
          0 0 0 0 0 0
          0 0 0 0 0 0
          0 0 0 0 0 0
          0 0 0 0 0 0
          0 0 0 0 0 0
          0 0 0 0 0 0
          0 0 0 0 0 0
          0 0 0 0 0 0
          0 0 0 0 0 0
          0 0 0 0 0 0
          0 0 0 0 0 0
          0 0 0 0 0 0
          0 0 0 0 0 0
          0 0 0 0 0 0
          0 0 0 0 0 0
          0 0 0 0 0 0
          0 0 0 0 0 0
          0 0 0 0 0 0
          0 0 0 0 0 0
          0 0 0 0 0 0
          0 0 0 0 0 0
          0 0 0 0 0 0
          0 0 0 0 0 0
          0 0 0 0 0 0
          0 0 0 0 0 0
          0 0 0 0 0 0
          0 0 0 0 0 0
          0 0 0 0 0 0
          0 0 0 0 0 0
          0 0 0 0 0 0
          0 0 0 0 0 0
          0 0 0 0 0 0
          0 0 0 0 0 0
          0 0 0 0 0 0
          0 0 0 0 0 0
          0 0 0 0 0 0
          0 0 0 0 0 0
          0 0 0 0 0 0
          0 0 0 0 0 0
          0 0 0 0 0 0
          0 0 0 0 0 0
          0 0 0 0 0 0
          0 0 0 0 0 0
          0 0 0 0 0 0
          0 0 0 0 0 0
          0 0 0 0 0 0
          0 0 0 0 0 0
          0 0 0 0 0 0
          0 0 0 0 0 0
          0 0 0 0 0 0
          0 0 0 0 0 0
          0 0 0 0 0 0
          0 0 0 0 0 0
          0 0 0 0 0 0
          0 0 0 0 0 0
          0 0 0 0 0 0
          0 0 0 0 0 0
          0 0 0 0 0 0
          0 0 0 0 0 0
          0 0 0 0 0 0
          0 0 0 0 0 0
          0 0 0 0 0 0
          0 0 0 0 0 0
          0 0 0 0 0 0
          0 0 0 0 0 0
          0 0 0 0 0 0
          0 0 0 0 0 0
          0 0 0 0 0 0
          0 0 0 0 0 0
          0 0 0 0 0 0
          0 0 0 0 0 0
          0 0 0 0 0 0
          0 0 0 0 0 0
          0 0 0 0 0 0
          0 0 0 0 0 0
          0 0 0 0 0 0
          0 0 0 0 0 0
          0 0 0 0 0 0
          0 0 0 0 0 0
          0 0 0 0 0 0
          0 0 0 0 0 0
          0 0 0 0 0 0
          0 0 0 0 0 0
          0 0 0 0 0 0
          0 0 0 0 0 0
          0 0 0 0 0 0
          0 0 0
        </DataArray>
        <DataArray type="Float64" Name="gradient_error" format="ascii" RangeMin="2.882915512913791e-9" RangeMax="4.995243559889904e-7">
          6.976877905321086e-9 9.552380423358315e-8 4.995243559889904e-7 1.1435764898921798e-7 1.2029684655074808e-7 1.8136878736318696e-8
          3.670634761757961e-7 2.2914321496879056e-7 1.9678410527056732e-7 3.3552065040103363e-7 3.332031797314381e-7 2.8778444497295686e-7
          1.348334583085301e-8 2.117441513141291e-8 3.4268405305740753e-7 2.0893534976507196e-8 1.9474947732821106e-7 2.550777505521673e-7
          1.9750265955415198e-7 9.517188869919238e-8 1.8302660835474335e-7 3.1180502736926263e-7 2.9333783228061887e-7 1.0813141070706481e-7
          2.920832615662074e-7 2.791999122309608e-7 4.461296752264835e-7 1.919297903032219e-8 2.9569529707776146e-8 2.9485975131807557e-8
          4.3138729975418786e-8 3.2510406455855607e-7 9.934260602733612e-9 3.047435326394155e-8 4.578419929169213e-8 1.0886328593013407e-7
          1.3813386005216882e-7 1.7835659793095603e-7 1.0911524976147525e-7 1.3905913542359134e-7 1.343101144441649e-7 1.2956109346473847e-7
          9.216332087135669e-8 1.804459523490775e-7 1.5632481062962767e-8 1.8387706963086183e-8 6.84483765056114e-8 1.6381092735212206e-8
          1.516002628927633e-7 1.893077153232976e-7 1.3018226669410452e-7 9.29063809645753e-9 1.4330810035180038e-8 2.100417231334061e-8
          1.3275362277027606e-8 8.168766591478739e-8 1.5862919828633138e-7 2.7115483337183762e-8 1.3759406718137264e-7 1.4601984894379467e-7
          1.1400238429289155e-7 1.5444563070621672e-7 1.1082184723883528e-7 1.096036372441007e-7 1.0917269066158392e-7 1.0838542724936609e-7
          1.1040845797591701e-7 1.0772102203987626e-7 1.0517195092159735e-7 1.050335861038355e-7 1.4498838081441707e-7 1.3931265885956814e-7
          1.5089064777316917e-7 1.441582411155971e-7 1.3363693690471917e-7 1.3742583445802503e-7 1.0160489138924445e-7 9.800693477326983e-8
          1.0426305894322415e-7 1.3315666142705918e-7 1.5597481807743178e-7 1.4823104037019237e-7 1.5929395935758502e-7 1.506819838824228e-7
          1.4048726266295294e-7 1.420700084072605e-7 1.1472405035636738e-7 1.1052985164749748e-7 1.158772384686609e-7 1.4811989588061655e-7
          1.880699152002971e-7 1.9373966951216795e-7 1.6475091684920273e-7 1.9532661992838637e-7 1.9016129409894627e-7 1.5751745425486123e-7
          1.0606229355287542e-7 1.009286841086525e-7 9.579507466442955e-8 1.5922012470740702e-7 1.5002300535212122e-7 1.408258859968354e-7
          1.231135361197531e-7 1.1869808473378791e-7 1.5034577606518016e-7 1.7640964692980322e-7 1.2634301031223092e-7 1.811385793252551e-8
          2.0880811730615074e-8 2.1466928276405184e-8 2.435229176986502e-8 7.369380237533795e-8 7.937512943032394e-8 1.589488611187765e-8
          1.9559803621017278e-8 2.3994175246602118e-8 2.4805111506124915e-8 2.563364273312932e-8 2.897388497000125e-8 3.048905449631341e-8
          3.4610217476022044e-8 8.501763159141431e-8 8.968827960962198e-8 2.371658792582103e-8 3.0237453021492306e-8 3.864341722392404e-8
          3.567243627247762e-8 1.5879746509424351e-7 1.6403339125646039e-7 1.9571659119936093e-7 1.9825826500551515e-7 1.395971178434729e-7
          1.480709492739695e-7 2.1612228047582694e-7 1.6535594583927714e-7 1.6019177721173788e-7 1.948258911474628e-7 1.826014012404645e-7
          1.540905261251541e-7 1.5367795459445966e-7 2.1838825190933542e-7 1.1002960446841423e-8 1.739349782716556e-8 1.3242618059789436e-8
          2.171650915392745e-8 2.509255081796223e-8 3.052200803701666e-8 8.489752772569479e-9 1.6287095891899246e-8 2.0192507069461128e-8
          2.5003562895634533e-8 1.6332835594609845e-8 2.80783354540202e-8 2.0082800930096675e-8 3.734591700454475e-8 3.7509651259357254e-8
          4.6081463074198325e-8 1.1997607469971478e-8 2.4873497757374728e-8 3.166985253786596e-8 3.757648456870299e-8 8.956828528338223e-8
          9.769265455081245e-8 1.6269122105877243e-7 1.6197262833754596e-7 3.1209455460057086e-8 3.6069844246290124e-8 1.1442932735615844e-7
          1.4292817695947056e-7 1.8404528852076546e-7 1.91381855848787e-7 2.541648126222078e-7 1.1558114500926048e-7 1.9372650229564112e-7
          1.7131361990311163e-7 3.533041185238409e-8 4.061327175053849e-8 9.127677594169527e-8 3.5367014034749486e-8 4.860695620791986e-8
          5.122492482921803e-8 1.4680812221470935e-7 1.6045972816794457e-7 1.4244737058346308e-7 2.3517252740751675e-7 9.558569279827515e-9
          4.597153853436216e-8 5.558570519163572e-8 1.5197465339570112e-8 3.828973846046002e-8 5.5122665965289175e-8 1.759202362799919e-7
          2.9756841182668784e-7 1.8671624268656753e-7 3.193682148620005e-7 1.3185314823349884e-7 1.2227354765538309e-7 1.0893992083205573e-7
          1.0825353299989876e-7 1.0008192570265395e-7 9.349120564045367e-8 1.4070712450010976e-7 1.3093589731647287e-7 1.0667459692125272e-7
          9.931334130342322e-8 1.4956110076672066e-7 1.3959824697756263e-7 1.0440927301044972e-7 1.1617739283625207e-7 1.0759859311963316e-7
          9.542615967372232e-8 9.490470787044659e-8 1.2410125267260538e-7 1.1511526053661236e-7 9.736111370699096e-8 2.325381116902268e-8
          2.6215154180211947e-8 1.8603724491802196e-8 1.92902187255732e-8 1.9299208811036707e-8 2.0005612487237206e-8 2.146790778920223e-8
          2.2317064389174162e-8 1.4685427331356502e-8 1.539613895667677e-8 1.633360911000653e-8 1.74316994564976e-8 2.5166213211832366e-8
          2.6410313808754106e-8 2.1847269149691468e-8 1.3873489607748576e-8 1.4350686354965384e-8 1.4976524274267557e-8 1.550685628648421e-8
          1.565314108055035e-8 1.6893801226472045e-8 1.2505704334847858e-8 1.325651290746975e-8 1.4323472321556365e-8 1.5114583341353073e-8
          1.9128667782705816e-8 2.3008121198904517e-8 1.8676966186493452e-8 2.846141465261775e-8 2.7636979049050746e-8 2.9764637111460876e-8
          2.5783428696872578e-8 1.0604453920450439e-8 1.1647469595215421e-8 1.1435910634236655e-8 1.2607536936882322e-8 1.4143665191465476e-8
          1.53806758325782e-8 8.585147481556466e-9 9.961177850079648e-9 1.083007432927572e-8 1.3122708868851838e-8 1.845480215732077e-8
          2.0925762885623333e-8 1.8027111549671823e-8 6.9749703511091045e-9 8.654815536084963e-9 7.618361635563066e-9 9.481456189909454e-9
          1.2358401606829424e-8 1.3556580731697232e-8 6.345221704103493e-9 8.15523060567825e-9 8.97480111032647e-9 1.2077426395847772e-8
          1.7681866951330142e-8 2.0947219287673157e-8 1.7545252254452754e-8 2.430225521934978e-8 2.6680400556466017e-8 2.335966085152765e-8
          3.1438816294166696e-8 2.299048978954865e-8 2.7191281619277433e-8 2.3111854366480142e-8 3.1246382062962656e-8 3.179186507464308e-8
          3.105394783175861e-8 2.347918281930416e-8 2.398541309036408e-8 2.4723561105318034e-8 2.5883391714942546e-8 2.4659146673077056e-8
          2.5514536700143e-8 2.645013590733919e-8 2.8137089568175547e-8 2.7516003453827456e-8 2.8892374245288028e-8 2.7756866839193815e-8
          3.024293866583804e-8 3.1686545221647586e-8 3.058162492253393e-8 2.6551056503667024e-8 2.759436803226058e-8 2.8973980455825294e-8
          3.0778011561242575e-8 2.942385327399744e-8 3.053885373443873e-8 3.217000371185141e-8 3.393859029987858e-8 3.3314700130661854e-8
          3.493960681448915e-8 3.3711056699692686e-8 3.635430354745953e-8 3.763466903669099e-8 3.648528069004195e-8 3.25165603633442e-8
          3.368351024168953e-8 3.500000525904677e-8 3.705789324859759e-8 3.487486823854378e-8 3.600895979780305e-8 3.9038582345809045e-8
          3.88101835240588e-8 3.955556946118474e-8 3.8355040670957285e-8 3.94979608907789e-8 3.8061808447002016e-8 2.0108155989299797e-8
          2.082946581958753e-8 2.1033002629228064e-8 2.17842897931284e-8 2.3289079263900857e-8 2.438067506091882e-8 1.676765516742853e-8
          1.7457721198900333e-8 1.8798282689956707e-8 1.9527384037043517e-8 2.209988683590217e-8 2.2897353476176694e-8 2.3364007071663704e-8
          2.41988243183926e-8 2.5598645452164285e-8 2.6994557739107065e-8 1.9684197579295616e-8 2.0379074550937953e-8 2.2200210923773958e-8
          2.2480177625306334e-8 2.635403667764218e-8 2.7633156787874922e-8 2.7680690477357906e-8 2.904054041094095e-8 2.3056705994427028e-8
          2.443478332561932e-8 2.6394957382430977e-8 2.8950429564571384e-8 3.0425226927011236e-8 3.0398388341265415e-8 3.189497994092984e-8
          2.6005202275225775e-8 2.7841038406843507e-8 2.9371537090685866e-8 1.6204091060135107e-8 1.6813103050480364e-8 1.7600530942898765e-8
          1.831028010012144e-8 1.832679154902415e-8 1.9999579325776186e-8 1.4600921658797276e-8 1.5550857475981862e-8 1.6982101049456347e-8
          1.7844981624496646e-8 1.92051287047535e-8 2.0041328871334788e-8 2.1055225244882715e-8 2.2046902688229242e-8 2.195822705793986e-8
          2.4238535146822398e-8 1.7409684596709605e-8 1.8668811248761913e-8 2.0668794100774784e-8 2.1586305717963754e-8 2.062305892935556e-8
          2.2356452408657246e-8 2.4448189264188288e-8 2.60984428938378e-8 2.0347052783458526e-8 2.2281505733677984e-8 2.2865927384757733e-8
          2.4375211015461874e-8 2.6718224959843852e-8 2.800420733588024e-8 3.0185096431928834e-8 2.4532880169873417e-8 2.716280105305926e-8
          2.7028890547300636e-8 2.4851250458628142e-8 2.570611023128362e-8 2.653797825556844e-8 2.742459665132601e-8 2.861413498737946e-8
          3.0453706295995294e-8 2.345110916953375e-8 2.42561976031744e-8 2.654440242137638e-8 2.6517532077945255e-8 2.8369036597560948e-8
          2.9317887144401103e-8 3.0278189667286745e-8 3.1302147866608774e-8 3.245764251266016e-8 3.454533379924656e-8 2.7998101220718452e-8
          2.9051543542123034e-8 3.173010590712892e-8 3.169238377702251e-8 3.2155626788911426e-8 3.404661694154272e-8 3.364395360700302e-8
          3.549703633817842e-8 3.000073360819727e-8 3.250566849835241e-8 3.32579763129917e-8 3.596046588330856e-8 3.789369206471793e-8
          3.727238443253808e-8 3.9022822596873546e-8 3.531339775665664e-8 3.831252574079408e-8 3.8337355467043914e-8 2.318334727305183e-8
          2.4360065261208836e-8 2.5602491164748657e-8 2.7003330067983e-8 2.6868733996625767e-8 2.9870719598956296e-8 2.1287134084962533e-8
          2.3039964084910184e-8 2.582709961701028e-8 2.6856673210835257e-8 2.8293757267929836e-8 2.997618102477991e-8 3.119085553549062e-8
          3.323127812297746e-8 3.3249898509672473e-8 3.697567752727857e-8 2.6470339047416762e-8 2.9043195671784203e-8 3.26486520181754e-8
          3.417209806752807e-8 2.941746250320362e-8 3.250381683750846e-8 3.264706690694805e-8 3.542777179076878e-8 3.0234350937038195e-8
          3.3790203619828544e-8 3.2448364228729955e-8 3.595159599594287e-8 3.966326052586586e-8 3.854027489715441e-8 4.188098171509354e-8
          3.7825963252715505e-8 4.227397232535322e-8 3.9248765666396624e-8 2.98103728747226e-8 3.128637955101415e-8 3.084873589243058e-8
          3.29340133822743e-8 3.469308981041064e-8 3.400141713732938e-8 2.9067130746483516e-8 3.066680788268844e-8 3.12525327660789e-8
          3.287050540080752e-8 2.740095058043468e-8 2.9245752795284882e-8 3.0574982002444115e-8 3.2481226718439354e-8 3.447170172911947e-8
          3.4665535718078324e-8 3.657117035199995e-8 3.136296609510362e-8 3.374999521795666e-8 3.4489237900239525e-8 3.6472277021924815e-8
          3.8266748945682885e-8 3.7226003299512706e-8 4.0033898397913077e-8 4.1590420905693915e-8 3.974975804028619e-8 3.657203226986139e-8
          3.877007376420697e-8 3.848417098834822e-8 4.035496739519804e-8 3.637499751037007e-8 3.92041823030301e-8 3.940141610054392e-8
          4.10165481583129e-8 4.314155981998195e-8 4.2014546276487744e-8 4.3168022917415694e-8 4.216499920721541e-8 4.515102582672622e-8
          4.475624974816408e-8 1.2387679485004627e-8 1.3716926990803548e-8 1.3491547179919824e-8 1.501700646795828e-8 1.6819784919977438e-8
          1.851595483377116e-8 1.0091878658219205e-8 1.1831967298522362e-8 1.299478894812739e-8 1.5738128806963405e-8 1.4789714364041907e-8
          1.656288464832998e-8 1.63315286923289e-8 1.8422258979591324e-8 2.054032543394207e-8 2.2981539428446092e-8 1.2039938771813621e-8
          1.4353647714165575e-8 1.596878921758821e-8 1.9358518147688542e-8 2.0169847312564752e-8 2.2171773320517967e-8 2.2758731293495555e-8
          2.485802612746259e-8 1.976846882197403e-8 2.1800857355092337e-8 2.2907986311097226e-8 2.452751821240205e-8 2.7313272649163286e-8
          2.727333345958826e-8 3.004416034356428e-8 2.4189128740753593e-8 2.700610388261034e-8 2.7614131916826315e-8 8.347697778585999e-9
          1.043390736761808e-8 9.158934319727703e-9 1.1523546714858527e-8 1.495075502112823e-8 1.6577546440033423e-8 7.695154837856877e-9
          9.920301419805844e-9 1.0996339671734382e-8 1.4668440856111675e-8 1.0016463080718315e-8 1.273937273206297e-8 1.0847390671563643e-8
          1.4038151520227794e-8 1.8467140717378224e-8 2.0635760549168597e-8 9.295597402117046e-9 1.2164275727934979e-8 1.328655062126883e-8
          1.814158477275608e-8 1.9431178830117866e-8 2.14651629789591e-8 2.2868270467948553e-8 2.5067434575052092e-8 1.9295784845814093e-8
          2.1326423917951172e-8 2.28123756436694e-8 2.3836794700074614e-8 2.659420015671718e-8 2.760664015146478e-8 3.055135153279042e-8
          2.368254594747623e-8 2.6395417478797314e-8 2.753258720958231e-8 1.81639710981375e-8 2.0667128392203082e-8 2.031510316430367e-8
          2.335912109743158e-8 2.5939922393177475e-8 2.9512435208026203e-8 1.4663951515081796e-8 1.7925213961023394e-8 2.0300528570923956e-8
          2.458058236360957e-8 2.2771388435978857e-8 2.6527604465652264e-8 2.546582572938529e-8 3.014790850392712e-8 3.376767737698686e-8
          3.871324202780436e-8 1.8233709179396654e-8 2.3137139247595634e-8 2.6319892563544287e-8 3.2317121619686266e-8 3.0611781205239335e-8
          3.450311075459631e-8 3.318749225313924e-8 3.671755956802818e-8 3.03347055473635e-8 3.4269920286461536e-8 3.382613813924513e-8
          3.903191283523919e-8 4.415957992535712e-8 4.066284649510567e-8 4.495908926665893e-8 3.8893769495781665e-8 4.423029441569873e-8
          4.1594214653585767e-8 1.1778551028826354e-8 1.5495672241356655e-8 1.3179758670819272e-8 1.7394837298698902e-8 2.3120044120003398e-8
          2.6048883518466554e-8 1.0598793674464465e-8 1.4420832921627862e-8 1.604572855643245e-8 2.239808412834946e-8 1.52874296904122e-8
          1.9999469984756087e-8 1.7698076850447564e-8 2.3189609833053296e-8 2.962091843493125e-8 3.3981454666131086e-8 1.4615071814702507e-8
          1.863967458173427e-8 2.217458396358467e-8 2.789047644014921e-8 2.9777137554327587e-8 3.3430710999746844e-8 3.3912655505950984e-8
          3.763090618370357e-8 2.9469735787504167e-8 3.289731944301455e-8 3.384688538379553e-8 3.7625764814404914e-8 4.244726759518762e-8
          4.1667259478625613e-8 4.601872801174552e-8 3.671891450002391e-8 4.105934622187402e-8 4.1578511988757816e-8 2.6085767406581328e-8
          2.8116845545225992e-8 2.8400371507948637e-8 3.0371741565017155e-8 2.5218599149593076e-8 2.7315134400730797e-8 2.84638480470201e-8
          3.0435641851596215e-8 3.307048693116628e-8 3.263505727355392e-8 3.522910888349214e-8 2.9687954010694538e-8 3.239892085538613e-8
          3.2649993844942376e-8 3.297196061115281e-8 3.461465669151881e-8 3.3060300372922265e-8 3.635321326627074e-8 3.813781419006759e-8
          3.57088890584825e-8 2.486546630105128e-8 2.6936832135708506e-8 2.904085592423696e-8 3.1111281971796884e-8 2.498725657345413e-8
          2.7032817184200376e-8 2.903949410331191e-8 2.9244674064665768e-8 3.188122350550404e-8 3.337947671759771e-8 3.5762836087121085e-8
          2.928723167553205e-8 3.185590237448336e-8 3.359460919050988e-8 3.282535988809118e-8 3.4538464823085556e-8 3.304436416854333e-8
          3.4256553011730884e-8 3.2678759165029544e-8 3.44622729546523e-8 3.302842796416439e-8 3.635825022363578e-8 3.8262189317919966e-8
          3.543520518727854e-8 3.680424199101412e-8 3.6363287181000824e-8 3.838656444577234e-8 3.516152131607458e-8 3.6018139326907773e-8
          3.9228040064375184e-8 3.8175297457929465e-8 4.140545111639372e-8 3.554095108475243e-8 3.9062888310791577e-8 3.761168306431926e-8
          4.2588000464818764e-8 4.6038678884509526e-8 4.4662599351256545e-8 4.788184630927566e-8 4.268503571718029e-8 4.6413392210862955e-8
          4.337550719517446e-8 3.978157120418976e-8 4.051931201660827e-8 3.8976790546396666e-8 3.505701716275322e-8 3.874011613470977e-8
          3.804964432500443e-8 3.962343872172119e-8 3.4990203306874954e-8 3.8675569753257586e-8 3.832681474950737e-8 4.2443452639462484e-8
          4.6247687771867754e-8 4.227358935972105e-8 4.6070688194016565e-8 4.2362034278483797e-8 4.613659597184621e-8 4.188819804796739e-8
          4.007427485175919e-8 4.0904542444083394e-8 3.8864964689649355e-8 4.012275030530621e-8 4.036697849932863e-8 4.128977287155851e-8
          3.875313883290204e-8 3.213889556584388e-8 3.324084100166958e-8 3.3811821697966224e-8 3.5003540250244257e-8 3.659022279631652e-8
          3.846912617026021e-8 3.2995302272507985e-8 3.447782167923545e-8 3.709600035422959e-8 3.763062083688625e-8 3.508164654876235e-8
          3.640825676089568e-8 4.002855750367603e-8 3.7256656942072886e-8 3.932357791478278e-8 4.332322780251722e-8 3.977025859678363e-8
          4.132066397705261e-8 4.0702858038429486e-8 4.1898334416107096e-8 4.133784306753761e-8 4.4224101716399366e-8 4.3898090272776494e-8
          4.2265654609451956e-8 4.220906118458086e-8 4.677859232636644e-8 4.78638757392337e-8 3.416706089344404e-8 3.665153158962949e-8
          3.704593652916958e-8 4.003369110363148e-8 4.095189646084473e-8 4.495588918997848e-8 3.264475409662473e-8 3.653311923658942e-8
          4.0302928384034664e-8 4.3537654582117674e-8 3.963633556616782e-8 4.312393698888277e-8 4.862011814790385e-8 3.70894131795648e-8
          4.352131172345821e-8 5.3478989929256757e-8 4.352334475661924e-8 4.7349607073902984e-8 4.5217712498572595e-8 4.831927607007509e-8
          4.7002290798722614e-8 5.175423932382434e-8 4.720279300241942e-8 5.0867757005727506e-8 5.086963236462761e-8 5.613666583318826e-8
          5.486495277150918e-8 4.269951114660922e-8 4.3150535809692235e-8 4.0454322569420244e-8 4.2707897832878925e-8 3.8426624318438996e-8
          4.489607804211187e-8 4.603279477579429e-8 4.363562996444249e-8 4.3235918857380816e-8 4.797185658345982e-8 5.031932722635829e-8
          4.8888883971844795e-8 4.6286842049655995e-8 4.194123549730175e-8 5.1870323979852724e-8 4.92793044919017e-8 2.6481611171869222e-8
          3.302867429754209e-8 2.4404906076115634e-8 3.382185516864192e-8 4.405976523401638e-8 4.9032164318121744e-8 1.7236150047335584e-8
          2.684884271496805e-8 2.312722278867004e-8 4.244878878129981e-8 2.134965788663041e-8 3.3531454041871224e-8 5.3361926945410366e-8
          4.284135760651019e-9 1.9068272673449823e-8 4.7979855974052195e-8 4.973984341139845e-8 5.549227080645993e-8 4.941775669049696e-8
          5.383394068573039e-8 5.019142651748715e-8 5.652695879218122e-8 5.084722228157961e-8 6.09195564168036e-8 5.799719665077556e-8
          6.276148351921882e-8 5.995189281838746e-8 1.5827328101673102e-8 2.384378775994908e-8 9.516621722278497e-9 2.0296756833771705e-8
          3.8326738946144794e-8 4.101887748068299e-8 1.89608182693797e-8 2.4126591794305113e-8 2.225937839966335e-8 3.556522522543978e-8
          5.123342343268425e-9 1.615329822832912e-8 4.2330723420501736e-8 1.0246684686536814e-8 1.8598607618772898e-8 4.0079922277522583e-8