<?xml version="1.0"?>
<VTKFile type="UnstructuredGrid" version="0.1" byte_order="LittleEndian" header_type="UInt32" compressor="vtkZLibDataCompressor">
  <UnstructuredGrid>
    <Piece NumberOfPoints="562" NumberOfCells="326">
      <PointData>
        <DataArray type="Int32" Name="libmesh_node_id" format="ascii" RangeMin="346" RangeMax="2838">
          346 544 547 552 554 1031
          1032 1033 1037 1038 1041 1043
          1045 1046 1047 1048 1049 1050
          1051 1052 1053 1054 1544 1545
          1546 1547 1548 1549 1550 1551
          1552 1553 1554 1555 1556 1557
          1558 1559 1560 1561 1562 1563
          1564 1565 1566 1571 1572 1573
          1574 1575 1576 1577 1578 1579
          1580 1581 1582 1583 1584 1585
          1586 1589 1595 1597 1598 1599
          1600 1601 1602 1603 1604 1605
          1606 1607 1608 1609 1610 1611
          1612 1613 1614 1615 1616 1617
          1618 1619 1620 1621 1622 1623
          1624 1625 1626 1627 1628 1629
          1630 1631 1632 1633 1634 1635
          1636 1637 1638 1639 1640 1641
          1642 1643 1644 1645 1646 1647
          1648 1649 1650 1651 1652 1653
          1654 1655 1656 1657 1658 1659
          1660 1661 1662 1663 1664 1665
          1666 1667 1668 1669 1670 1671
          1672 1673 1674 1675 1676 1677
          1678 1679 1680 1681 1682 1683
          1684 1685 1686 1688 1693 1695
          1713 1714 1717 1719 1720 1722
          1733 1735 1737 1739 1747 1748
          1751 1753 1754 1756 1767 1769
          1771 1773 2482 2483 2484 2485
          2486 2491 2492 2493 2494 2505
          2506 2507 2508 2509 2510 2511
          2512 2513 2514 2515 2516 2517
          2518 2519 2520 2521 2522 2523
          2524 2525 2526 2527 2528 2529
          2530 2531 2532 2533 2534 2535
          2536 2537 2538 2539 2540 2541
          2542 2543 2544 2545 2546 2547
          2548 2549 2550 2551 2552 2553
          2554 2555 2556 2557 2558 2559
          2560 2561 2562 2563 2564 2565
          2566 2567 2568 2569 2570 2571
          2572 2573 2574 2575 2576 2577
          2578 2579 2580 2581 2582 2583
          2584 2585 2586 2587 2588 2589
          2590 2591 2592 2593 2594 2595
          2596 2597 2598 2599 2600 2601
          2602 2603 2604 2605 2606 2607
          2608 2609 2610 2611 2612 2613
          2614 2615 2616 2617 2618 2619
          2620 2621 2622 2623 2624 2625
          2626 2627 2628 2629 2630 2631
          2632 2633 2634 2635 2636 2637
          2638 2639 2640 2641 2642 2643
          2644 2645 2646 2647 2648 2649
          2650 2651 2652 2653 2654 2655
          2656 2657 2658 2659 2660 2661
          2662 2663 2664 2665 2666 2667
          2668 2669 2670 2671 2672 2673
          2674 2675 2676 2677 2678 2679
          2680 2681 2682 2683 2684 2685
          2686 2687 2688 2689 2690 2691
          2692 2693 2694 2695 2696 2697
          2698 2699 2700 2701 2702 2703
          2704 2705 2706 2707 2708 2709
          2710 2711 2712 2713 2714 2715
          2716 2717 2718 2720 2721 2722
          2723 2727 2728 2730 2731 2732
          2733 2734 2736 2771 2772 2773
          2774 2775 2776 2777 2778 2779
          2780 2781 2782 2785 2787 2788
          2790 2791 2792 2793 2794 2795
          2796 2797 2798 2800 2802 2804
          2805 2806 2807 2808 2809 2810
          2811 2812 2813 2814 2815 2816
          2819 2821 2822 2824 2825 2826
          2827 2828 2829 2830 2831 2832
          2834 2836 2838 1009 1012 1013
          1010 1017 1019 1018 1023 1024
          1026 1027 1029 1016 1034 545
          1030 548 1020 1036 1040 1039
          1069 1059 1070 1060 1071 1072
          553 1076 1067 1077 1081 1082
          1089 1090 1087 1092 1127 1111
          1128 1116 1134 1035 1569 1567
          1568 1587 1590 1588 1592 1591
          1594 1042 1596 1044 1687 1715
          1716 1718 1107 1721 1108 1694
          1734 1736 1738 1752 1768 1770
          1114 1772 2489 2497 2498 2500
          1593 2503 2729 2783 2784 2786
          1749 2789 1750 2735 2799 2801
          2803 2817 2818 2820 1113 2823
          1755 2833 2835 2837
        </DataArray>
        <DataArray type="Float64" Name="bounds" format="ascii" RangeMin="0" RangeMax="0">
          0 0 0 0 0 0
          0 0 0 0 0 0
          0 0 0 0 0 0
          0 0 0 0 0 0
          0 0 0 0 0 0
          0 0 0 0 0 0
          0 0 0 0 0 0
          0 0 0 0 0 0
          0 0 0 0 0 0
          0 0 0 0 0 0
          0 0 0 0 0 0
          0 0 0 0 0 0
          0 0 0 0 0 0
          0 0 0 0 0 0
          0 0 0 0 0 0
          0 0 0 0 0 0
          0 0 0 0 0 0
          0 0 0 0 0 0
          0 0 0 0 0 0
          0 0 0 0 0 0
          0 0 0 0 0 0
          0 0 0 0 0 0
          0 0 0 0 0 0
          0 0 0 0 0 0
          0 0 0 0 0 0
          0 0 0 0 0 0
          0 0 0 0 0 0
          0 0 0 0 0 0
          0 0 0 0 0 0
          0 0 0 0 0 0
          0 0 0 0 0 0
          0 0 0 0 0 0
          0 0 0 0 0 0
          0 0 0 0 0 0
          0 0 0 0 0 0
          0 0 0 0 0 0
          0 0 0 0 0 0
          0 0 0 0 0 0
          0 0 0 0 0 0
          0 0 0 0 0 0
          0 0 0 0 0 0
          0 0 0 0 0 0
          0 0 0 0 0 0
          0 0 0 0 0 0
          0 0 0 0 0 0
          0 0 0 0 0 0
          0 0 0 0 0 0
          0 0 0 0 0 0
          0 0 0 0 0 0
          0 0 0 0 0 0
          0 0 0 0 0 0
          0 0 0 0 0 0
          0 0 0 0 0 0
          0 0 0 0 0 0
          0 0 0 0 0 0
          0 0 0 0 0 0
          0 0 0 0 0 0
          0 0 0 0 0 0
          0 0 0 0 0 0
          0 0 0 0 0 0
          0 0 0 0 0 0
          0 0 0 0 0 0
          0 0 0 0 0 0
          0 0 0 0 0 0
          0 0 0 0 0 0
          0 0 0 0 0 0
          0 0 0 0 0 0
          0 0 0 0 0 0
          0 0 0 0 0 0
          0 0 0 0 0 0
          0 0 0 0 0 0
          0 0 0 0 0 0
          0 0 0 0 0 0
          0 0 0 0 0 0
          0 0 0 0 0 0
          0 0 0 0 0 0
          0 0 0 0 0 0
          0 0 0 0 0 0
          0 0 0 0 0 0
          0 0 0 0 0 0
          0 0 0 0 0 0
          0 0 0 0 0 0
          0 0 0 0 0 0
          0 0 0 0 0 0
          0 0 0 0 0 0
          0 0 0 0 0 0
          0 0 0 0 0 0
          0 0 0 0 0 0
          0 0 0 0 0 0
          0 0 0 0 0 0
          0 0 0 0 0 0
          0 0 0 0 0 0
          0 0 0 0 0 0
          0 0 0 0
        </DataArray>
        <DataArray type="Float64" Name="gradient_error" format="ascii" RangeMin="1.22148656184581e-9" RangeMax="6.02663924277175e-7">
          2.4368774303667494e-9 3.5051127080249477e-7 3.7026350006591825e-7 1.3891835053577088e-9 4.081338586912395e-7 3.6191465895167995e-7
          3.068332608408834e-7 3.0751844339379214e-7 6.957071894950774e-8 2.1582143591504297e-7 2.285573655042813e-9 7.477305176485397e-8
          7.710958083921798e-8 1.2684828285123133e-7 8.497399544140212e-8 1.2620482190874218e-7 3.342540161997959e-7 3.3099286915425757e-7
          1.2467191038710005e-9 8.301572674455807e-8 9.251990149996252e-8 4.030896542604081e-7 1.1212604949300248e-7 1.1848962755447996e-7
          1.1531971549355268e-7 1.2121369190601432e-7 1.121498034326254e-7 9.655069592453009e-8 1.3014219602837745e-7 1.2669379821118884e-7
          1.3242992678942605e-7 1.1535035485254405e-7 1.4320773721456596e-7 1.384705996545234e-7 1.4497060819750388e-7 1.241054368815108e-7
          9.764976096659592e-8 1.0029983607833466e-7 8.784421262210399e-8 1.0351358664052043e-7 1.0614715872156505e-7 9.254976161250008e-8
          1.1664029017267746e-7 1.1392624461813227e-7 1.1121219906358709e-7 1.189743116272608e-7 1.1736827498670144e-7 1.2464649131418204e-7
          1.241618574854446e-7 1.1576223834614207e-7 1.2137129545121264e-7 8.823960244203848e-8 1.0299594999241896e-7 9.746058798494783e-8
          1.200882598068684e-7 1.1782585799885534e-7 1.0745380184664036e-7 9.814816465305707e-8 1.22247927668618e-7 1.261907733354572e-7
          1.198276025215897e-7 5.378800993311456e-8 5.659878804791835e-8 3.105519244143017e-8 6.021880585907361e-8 7.012897638262443e-9
          3.862402882188635e-8 1.0733867566991545e-7 1.0123692256002155e-7 1.6182099595798247e-9 3.2817914519108855e-8 7.78862916246693e-9
          9.427165888907104e-8 1.2174258133337104e-7 1.205509910808852e-7 1.2565930466788674e-7 1.2532205233163327e-7 1.3240252706706505e-7
          1.2406463577198685e-7 1.3051145610782365e-7 1.2839617699464854e-7 1.3469734801531965e-7 1.2830166902238403e-7 1.3129734164604943e-7
          1.307599963898711e-7 1.3807274648549777e-7 1.3737997469667514e-7 1.2491718561432395e-7 1.3089894462883424e-7 7.342248253566476e-8
          1.0262759604749608e-7 9.306601895978127e-8 1.3438035758969562e-7 1.453159780879838e-7 1.443947160859578e-7 1.5328677258691597e-7
          1.5208727385784775e-7 1.3696906275898083e-7 1.4335417556878225e-7 8.090773428518785e-8 8.349348161991726e-8 8.820140909729366e-8
          1.193147597524761e-7 1.0941101452562288e-7 1.1346997229762948e-7 9.921030895629065e-8 1.01829258245443e-7 1.2904079103872662e-7
          1.3517717693399506e-7 1.211067249745865e-7 1.1775513116283002e-7 1.2174548195142405e-7 1.0504559089163015e-7 1.0767038789406302e-7
          1.4142286525030824e-7 1.4800720045311013e-7 1.300633109283308e-7 5.863909366232384e-9 3.931775430721538e-8 4.998609667434535e-9
          2.5120048823124544e-8 1.0655173587772781e-7 9.732768936682726e-8 1.2467630026585706e-9 6.776887564072008e-9 5.965331082489904e-9
          7.88611416921907e-8 4.454943041870833e-9 9.911607877250873e-9 4.5890757450728945e-9 9.386082858961967e-9 8.830253179013594e-8
          9.362901742632699e-8 1.6861297136070954e-9 5.4226971787042776e-9 5.517430002732138e-9 8.752554683654699e-8 1.3936369276574894e-7
          1.464613998664428e-7 1.364139370204399e-7 1.4254578761055324e-7 1.4181807153869453e-7 1.4920855438181992e-7 1.4119082938218402e-7
          1.5404994345664066e-7 1.6241825951680935e-7 1.4897774900808492e-7 1.5585445713520496e-7 1.572508320978045e-7 1.661659233086814e-7
          1.5537029633026845e-7 1.5846170861606255e-7 1.521271578041298e-7 1.3315222274785331e-7 1.0734718480678059e-7 9.418253111005167e-8
          1.6209464924037204e-7 1.6061703136765113e-7 1.5011418738117299e-7 8.942756902334666e-8 9.336388955083602e-8 1.3378016617617644e-7
          1.2496336863421337e-7 1.0883777600101097e-7 1.5495656429077655e-7 1.391558839160194e-7 5.370670239978049e-9 9.361724504386489e-9
          9.961071524635762e-8 3.0685637767519085e-9 6.309013800949669e-9 9.813675386203735e-8 1.7173991456235783e-7 1.63272436422113e-7
          1.7614625300480872e-7 1.7172612590415747e-7 1.3033246599583707e-8 1.3451291109422931e-8 1.3394505908730942e-8 1.3922891063317701e-8
          1.3337720708038952e-8 7.51556993084938e-9 7.990027087206306e-9 7.649466756423425e-9 8.464484243563233e-9 5.109345993200572e-9
          6.672147905024026e-9 4.6604044601677785e-9 6.286690549802042e-9 8.234949816847478e-9 7.912976639436304e-9 2.7031220555517653e-9
          5.354268722841745e-9 4.923914343180658e-9 8.005415390131723e-9 1.2481535155560318e-8 1.261320454795854e-8 1.274487394035676e-8
          6.491700204614506e-9 7.380845426855451e-9 8.728770886985623e-9 8.269990649096396e-9 1.2281686769283495e-8 1.2615689822960544e-8
          1.1982092249420197e-8 1.2592553199720193e-8 1.2949692876637594e-8 1.3203014150020188e-8 7.951288948391066e-9 9.086177476249854e-9
          8.468124210446677e-9 1.1160042274316312e-8 1.3423645843487351e-8 1.3575694138607036e-8 1.3765650597595738e-8 1.411339346248242e-8
          4.19402240579112e-9 5.919657910331002e-9 3.676014310894159e-9 5.474637259725235e-9 7.645293414870885e-9 9.114964944105927e-9
          1.8963446069677347e-9 4.458470393806555e-9 3.95269943713872e-9 7.020596180645376e-9 3.1354191071834383e-9 4.893813436012103e-9
          2.706786978459292e-9 4.359073753583392e-9 9.543184159918982e-9 8.952761101978815e-9 1.480342746728805e-9 3.4521456567146434e-9
          3.0441144223961114e-9 8.62713743098161e-9 1.3306225503075301e-8 1.3814076590945445e-8 1.3188805162663252e-8 1.330762023638287e-8
          1.329614977486358e-8 1.4181079917768545e-8 1.4698137874477021e-8 1.3039546334158705e-8 1.2826648952131419e-8 1.4248766373054672e-8
          1.4245394054709179e-8 1.422194623224645e-8 1.4439329290410947e-8 1.419849840978372e-8 1.4489487045540099e-8 1.4602740765225388e-8
          1.4754695972570977e-8 1.4715994484910676e-8 1.692206477728839e-8 1.4506632724428332e-8 1.4868553834646464e-8 1.490442665378041e-8
          1.6267325006910208e-8 1.4184982612997225e-8 1.4849464041497109e-8 1.4704086670293423e-8 1.695204441727274e-8 1.7420616445327348e-8
          1.819970576912421e-8 1.7537057821698875e-8 1.8754366777955096e-8 1.931794536702344e-8 1.9118590191361706e-8 1.175716094810408e-8
          1.2522926099836943e-8 1.14965294337949e-8 1.2410200688750547e-8 1.3288691251569806e-8 1.3323871943706197e-8 6.390767003575689e-9
          7.976508166403822e-9 7.499763280285763e-9 1.0637509263010245e-8 1.1223992321282935e-8 1.2260871553652963e-8 1.09395616867861e-8
          1.204553493294161e-8 1.3297750786022986e-8 1.4251947416480125e-8 5.402819720979525e-9 7.045461005665406e-9 6.593782049780571e-9
          9.930013930935805e-9 1.3850995614090194e-8 1.391810038482542e-8 1.4913962097613564e-8 1.6742379624607257e-8 1.7031933357968377e-8
          1.3941686120482296e-8 1.4773197000151888e-8 1.546953502885975e-8 2.4081432968230848e-9 3.933574913621187e-9 2.187000337570818e-9
          3.5616135827810783e-9 8.505393124170368e-9 8.072853740785781e-9 1.3036804279937705e-9 2.738039461862164e-9 2.5047726920807815e-9
          7.243964400503316e-9 2.034314203389544e-9 3.2545527488183147e-9 1.9525796725583777e-9 3.0444437981590734e-9 7.653642091473548e-9
          7.229904297220215e-9 1.22148656184581e-9 2.337185828386354e-9 2.237697390069247e-9 6.352016830111038e-9 1.3270759207631249e-8
          1.3226040801367053e-8 1.4989738697341046e-8 1.5242600949153884e-8 1.2690522801172301e-8 1.2533981217908689e-8 1.5065515297068525e-8
          1.3151732836324052e-8 1.30296543645281e-8 1.5470972783948095e-8 1.5735808058375543e-8 1.236177955216581e-8 1.2180860464791433e-8
          1.547241053903644e-8 1.063627711340849e-8 1.1744308393613785e-8 1.031414617619359e-8 1.144073738447078e-8 1.460792363344846e-8
          1.4457178356977584e-8 4.667468706365072e-9 6.156397050699166e-9 5.81749883987674e-9 1.0473083319878246e-8 1.000268683776368e-8
          1.1176312931599553e-8 9.763012669711957e-9 1.0950310204475735e-8 1.4419520704720664e-8 1.4383962351540027e-8 4.421433545655435e-9
          5.649728724457471e-9 5.670879125508569e-9 9.59695610931103e-9 1.696917203565216e-8 1.7380272504223915e-8 1.7574836478226475e-8
          1.841351688724063e-8 1.5114468704565595e-8 1.506304339584729e-8 1.6928096164407962e-8 1.7743334981314946e-8 1.8111348364574258e-8
          1.899756757862399e-8 1.9592379765307975e-8 1.5102646140379603e-8 1.5147728083109986e-8 1.7889403965396658e-8 1.975913688269748e-9
          2.9663783918735967e-9 2.179486526967804e-9 3.038990756450029e-9 6.81884189112154e-9 6.4998434708466265e-9 1.382811466197995e-9
          2.2400256349299695e-9 2.4200319483077268e-9 5.640039402473305e-9 2.5510472935753198e-9 3.2849864272008045e-9 2.982765111118468e-9
          3.674272199859746e-9 6.339895954549887e-9 6.360274846985882e-9 2.079618558369908e-9 2.7736772271886664e-9 3.203319887360404e-9
          5.3728766826463024e-9 1.285279214480483e-8 1.2685420271723877e-8 1.6024743602844026e-8 1.6269648587686758e-8 1.1994374506455433e-8
          1.1805592991076797e-8 1.58059100116262e-8 1.2554320553305417e-8 1.2458013169908727e-8 1.6447774758337345e-8 1.656125593444671e-8
          1.1635652010526413e-8 1.152532153572256e-8 1.5993286551767646e-8 1.3492838585859555e-8 1.4486888524559438e-8 1.4259200113069746e-8
          1.7421306883300604e-8 1.2881891106604449e-8 1.4104545209023086e-8 1.781596376220884e-8 1.9900190725047392e-8 2.0485425836423202e-8
          2.0438706146752896e-8 2.10767329559855e-8 2.1848737698995045e-8 9.644841104964555e-9 1.0803443336997906e-8 9.661305966037942e-9
          1.0765821735855526e-8 1.4375852733114958e-8 1.4422297494675181e-8 4.9273170432318025e-9 5.868703530457688e-9 6.206191218389104e-9
          9.29995560313197e-9 9.791826772842347e-9 1.084802406289548e-8 1.4533743285577293e-8 5.862226200906657e-9 6.646426076980488e-9
          9.570101855290972e-9 1.850051227108465e-8 1.8906444188094396e-8 2.021136464497064e-8 2.0838630892511543e-8 1.522340058407593e-8
          1.534788730104269e-8 1.8656979979571497e-8 1.9322970032586056e-8 2.1482674846966137e-8 1.5526332807889308e-8 1.934308785825099e-8
          3.4052780677180593e-9 4.131035198518544e-9 3.807420253321947e-9 4.611951649106079e-9 6.554576815332765e-9 6.904370995435935e-9
          2.7527656730420693e-9 3.6446614855580843e-9 4.0839642200752555e-9 5.839641007330902e-9 4.211415340853902e-9 5.113127350576245e-9
          7.3870110817728995e-9 3.400140718974734e-9 4.524905463959387e-9 6.885341261909601e-9 1.2428306671065099e-8 1.2490603670438764e-8
          1.6604252040783695e-8 1.658894839489587e-8 1.151064599110024e-8 1.1612895278557739e-8 1.587856726561278e-8 1.2657778316876427e-8
          1.6556373830505643e-8 1.1832098127160849e-8 1.5543183939446536e-8 3.5984521451544585e-7 3.570130298271936e-7 3.077051732703566e-7
          3.1399604041047784e-7 5.224595053369942e-7 3.9375648716567696e-7 5.67087406764741e-7 3.5048555620196313e-7 2.9823219072108703e-7
          3.3906721503755706e-7 2.84574777750663e-7 1.719892038124778e-7 1.8750741371781379e-7 2.6349252721199466e-7 3.7185042231610013e-7
          1.8266749223515378e-7 2.8463759951759733e-7 4.6970329175374826e-7 4.790428886453943e-7 4.228886019888924e-7 6.02663924277175e-7
          1.856593750969286e-7 2.039989791518699e-7 3.381573812453383e-7 3.5283604928461857e-7 1.9550344936898583e-7 3.171346383113345e-7
          3.9268788475116073e-7 4.0568297587474507e-7 4.1739991581738036e-7 3.862084753685563e-7 3.212270501760183e-7 2.6519734859805776e-7
          3.739102230677146e-7 3.03274358920817e-7 2.091676470200972e-7 2.7214648032767247e-7 2.1982594712320848e-7 3.2043599591071395e-7
          2.8822267491762344e-7 4.0445970252908715e-7 3.566194027120384e-7 2.9216981352499876e-7 1.089702917763187e-7 9.774925287835007e-8
          1.0135245373626122e-7 5.283917964614796e-8 8.127086372444158e-8 7.85052091136348e-8 1.1307104787837758e-7 1.0378034261719424e-7
          5.548949787143341e-8 3.11174742748938e-7 1.026050306402161e-7 5.761602131760853e-7 1.6008598622603196e-7 1.3218070393916582e-7
          1.5010955865207386e-7 1.5728222265411379e-7 5.458148892404157e-8 7.903546498389408e-8 1.4216434821806683e-7 1.0755175442038635e-7
          1.2767533769436676e-7 1.0894819960211828e-7 1.6232022501992424e-7 1.0639503877192084e-7 1.8207993902407838e-7 1.7104237500552243e-7
          1.0474941137843325e-7 1.8731834897665546e-7 8.320002377873236e-9 5.5289074305791646e-9 7.035669576402418e-9 8.542431722225673e-9
          3.128708447212479e-9 5.751336774931601e-9 1.6726334413187414e-8 9.951814547207923e-9 1.099566003381279e-8 1.4703212031103883e-8
          6.391261098540433e-9 7.175964597524925e-9 9.91955872617198e-9 2.1696056560874545e-8 1.9761872731642057e-8 2.2156826921494008e-8
          1.5775511928520963e-8 4.636359590870394e-9 5.644164272125061e-9 7.975812638480316e-9 3.753235638231118e-9 4.98040343962713e-9
          7.522171876083568e-9 1.294833028882804e-8 1.6597004254075173e-8 1.2173325623023719e-8
        </DataArray>
        <DataArray type="Float64" Name="gradient_matprop_error" format="ascii" RangeMin="0" RangeMax="0">
          0 0 0 0 0 0
          0 0 0 0 0 0
          0 0 0 0 0 0
          0 0 0 0 0 0
          0 0 0 0 0 0
          0 0 0 0 0 0
          0 0 0 0 0 0
          0 0 0 0 0 0
          0 0 0 0 0 0
          0 0 0 0 0 0
          0 0 0 0 0 0
          0 0 0 0 0 0
          0 0 0 0 0 0
          0 0 0 0 0 0
          0 0 0 0 0 0
          0 0 0 0 0 0
          0 0 0 0 0 0
          0 0 0 0 0 0
          0 0 0 0 0 0
          0 0 0 0 0 0
          0 0 0 0 0 0
          0 0 0 0 0 0
          0 0 0 0 0 0
          0 0 0 0 0 0
          0 0 0 0 0 0
          0 0 0 0 0 0
          0 0 0 0 0 0
          0 0 0 0 0 0
          0 0 0 0 0 0
          0 0 0 0 0 0
          0 0 0 0 0 0
          0 0 0 0 0 0
          0 0 0 0 0 0
          0 0 0 0 0 0
          0 0 0 0 0 0
          0 0 0 0 0 0
          0 0 0 0 0 0
          0 0 0 0 0 0
          0 0 0 0 0 0
          0 0 0 0 0 0
          0 0 0 0 0 0
          0 0 0 0 0 0
          0 0 0 0 0 0
          0 0 0 0 0 0
          0 0 0 0 0 0
          0 0 0 0 0 0
          0 0 0 0 0 0
          0 0 0 0 0 0
          0 0 0 0 0 0
          0 0 0 0 0 0
          0 0 0 0 0 0
          0 0 0 0 0 0
          0 0 0 0 0 0
          0 0 0 0 0 0
          0 0 0 0 0 0
          0 0 0 0 0 0
          0 0 0 0 0 0
          0 0 0 0 0 0
          0 0 0 0 0 0
          0 0 0 0 0 0
          0 0 0 0 0 0
          0 0 0 0 0 0
          0 0 0 0 0 0
          0 0 0 0 0 0
          0 0 0 0 0 0
          0 0 0 0 0 0
          0 0 0 0 0 0
          0 0 0 0 0 0
          0 0 0 0 0 0
          0 0 0 0 0 0
          0 0 0 0 0 0
          0 0 0 0 0 0
          0 0 0 0 0 0
          0 0 0 0 0 0
          0 0 0 0 0 0
          0 0 0 0 0 0
          0 0 0 0 0 0
          0 0 0 0 0 0
          0 0 0 0 0 0
          0 0 0 0 0 0
          0 0 0 0 0 0
          0 0 0 0 0 0
          0 0 0 0 0 0
          0 0 0 0 0 0
          0 0 0 0 0 0
          0 0 0 0 0 0
          0 0 0 0 0 0
          0 0 0 0 0 0
          0 0 0 0 0 0
          0 0 0 0 0 0
          0 0 0 0 0 0
          0 0 0 0 0 0
          0 0 0 0 0 0
          0 0 0 0
        </DataArray>
        <DataArray type="Float64" Name="initial_marker" format="ascii" RangeMin="0" RangeMax="2">
          2 2 2 2 2 2
          2 2 2 2 2 2
          2 2 2 2 1.5 1.5
          2 2 2 2 2 2
          2 2 2 2 2 2
          2 2 2 2 2 2
          2 2 2 2 2 2
          2 2 2 2 2 2
          2 2 2 2 2 2
          2 2 2 2 2 2
          2 2 2 2 2 2
          2 2 2 2 2 2
          2 2 2 2 2 2
          2 2 2 2 2 2
          2 2 2 2 2 2
          2 2 2 2 2 2
          2 2 2 2 2 2
          2 2 2 2 2 2
          2 2 2 2 2 2
          2 2 2 2 2 2
          2 2 2 2 2 2
          2 2 2 2 2 2
          2 2 2 2 2 2
          2 2 2 2 2 2
          2 2 2 2 2 2
          2 2 2 2 2 2
          2 2 2 2 2 2
          2 2 2 2 2 2
          2 2 2 2 2 2
          2 2 2 2 2 2
          2 2 2 2 2 2
          2 2 2 2 2 2
          2 2 2 2 2 2
          2 2 2 2 2 2
          2 2 2 2 2 2
          2 2 2 2 2 2
          2 2 2 2 2 2
          2 2 2 2 2 2
          2 2 2 2 2 2
          2 2 2 2 2 2
          2 2 2 2 2 2
          2 2 2 2 2 2
          2 2 2 2 2 2
          2 2 2 2 2 2
          2 2 2 2 2 2
          2 2 2 2 2 2
          2 2 2 2 2 2
          2 2 2 2 2 2
          2 2 2 2 2 2
          2 2 2 2 2 2
          2 2 2 2 2 2
          2 2 2 2 2 2
          2 2 2 2 2 2
          2 2 2 2 2 2
          2 2 2 2 2 2
          2 2 2 2 2 2
          2 2 2 2 2 2
          2 2 2 2 2 2
          2 2 2 2 2 2
          2 2 2 2 2 2
          2 2 2 2 2 2
          2 2 2 2 2 2
          2 2 2 2 2 2
          2 2 2 2 2 2
          2 2 2 2 2 2
          2 2 2 2 2 2
          2 2 2 2 2 2
          2 2 2 2 2 2
          2 2 2 2 2 2
          2 2 2 2 2 2
          2 2 2 2 2 2
          2 2 2 2 2 2
          2 2 2 2 2 2
          2 2 2 2 2 2
          2 2 2 2 2 2
          2 2 2 2 2 2
          2 2 2 2 2 2
          2 2 2 1 1 1
          1 2 2 2 1 1
          1 1 0.5 0.5 1 1
          0.6666666666666666 1 1 2 1.5 1.25
          0 0 0.5 0.5 0 0.5
          2 1 1 1 1 1
          2 2 1 1.3333333333333333 0 1.5
          0.5 2 1 2 2 2
          2 2 2 2 2 2
          2 2 2 1.5 2 2
          2 2 2 2 2 2
          2 2 2 2 2 2
          2 2 2 2 2 2
          2 2 2 2 2 2
          2 2 2 2 2 2
          2 2 2 2 2 2
          2 2 2 2
        </DataArray>
        <DataArray type="Float64" Name="markers_norefine" format="ascii" RangeMin="0" RangeMax="2">
          2 0 0 2 0 0
          0 0 0 0 2 0
          0 0 1 0 0 0
          2 0 1 0 0 0
          0 0 0 0 0 0
          0 0 0 0 0 0
          0 0 0 0 0 0
          0 0 0 0 0 0
          0 0 0 0 0 0
          0 0 0 0 0 0
          0 1 1 1.5 0.5 2
          1 0 0 2 1.5 2
          0 0 0 0 0 0
          0 0 0 0 0 0
          0 0 0 0 0 0
          0 0 0 0 0 0
          0 0 0 1 0 0.5
          0 0 0 0 0 0
          0 0 0 0 0 0
          0 0 0 2 1.5 2
          1.75 0 0 2 2 2
          0 2 2 2 2 0
          0.5 2 2 2 1 0
          0 0 0 0 0 0
          0 0 0 0 0 0
          0 0 0 0 0 0
          0 0 0 1 0.5 0
          0 0 0 0 2 2
          0.5 2 2 1 0 0
          0 0 0 0 0 0
          0 2 1.5 2 1 2
          1.75 2 2 1.5 2 2
          2 2 2 1 0.5 0
          2 2 1.6666666666666667 2 1 0.5
          1 0.75 0 0.5 2 1.5
          1.75 0.6666666666666666 0 0 0.5 0
          2 2 2 2 2 1.6666666666666667
          2 2 2 2 2 2
          2 2 1.5 1.75 2 2
          2 2 0.5 0 1 0.5
          0.75 0 0 1 1 0
          0 0 0 0 0 0
          0 0 0 1 0.5 1
          0 2 1.5 2 0.5 0
          0 0 0 0 0 1
          1 1 1 1 1 2
          2 2 2 1 1 1
          1 1 1 2 2 2
          2 1 1 0 0.5 0
          1 1 0 2 2 2
          2 2 2 2 2 2
          2 2 2 2 2 2
          2 2 2 2 2 1
          1 0 0 1 1 0
          1 1 0 0 1 1
          0 1.5 1.25 2 1.5 1
          1 2 2 2 2 2
          1.75 2 2 1.25 1.5 2
          2 2 2 0.5 0.5 0
          0 1 1 0 0.5 0.5
          0 0 1.25 1.5 0.5 2
          2 2 2 2 2 2
          2 2 2 2 2 2
          2 2 2 2 2 2
          2 1.25 1.5 0.5 1 1.5
          2 1 1.75 2 1.5 2
          2 2 2 2 2 2
          1 2 2 1.5 0 0
          0 0.5 0 2 2 2
          2 1.5 1.5 2 2 2
          2 2 2 1.75 2 2
          2 0.5 0.5 0 0 1.5
          1.5 1 1 0.5 1.75 1.5
          2 2 2 2 2 2
          2 2 2 2 2 2
          2 2 2 2 2 2
          2 2 2 2 2 2
          2 2 2 0 0 0
          0 0 0 0 0 0
          0 0 0 0 0 0
          0 0 0 0 0 0
          0 0 0 0 0 0
          0 0 0 0 0 0
          0 0 0 0 0 0
          0 0 0 0 0 0
          0 1 0.5 0 0 0
          1 0 0 0 0 0
          0 0 1 1 0 0
          0 0 0 1 0 0
          1 0 1 2 1.5 1
          2 2 1.3333333333333333 2 2 2
          2 2 2 1 1.5 1
          2 2 2 2 2 2
          2 2 2 2
        </DataArray>
        <DataArray type="Float64" Name="markers_mustrefine" format="ascii" RangeMin="0" RangeMax="2">
          2 2 2 2 2 2
          2 2 2 2 2 2
          2 2 2 2 1.5 1.5
          2 2 2 2 2 2
          2 2 2 2 2 2
          2 2 2 2 2 2
          2 2 2 2 2 2
          2 2 2 2 2 2
          2 2 2 2 2 2
          2 2 2 2 2 2
          2 2 2 2 2 2
          2 2 2 2 2 2
          2 2 2 2 2 2
          2 2 2 2 2 2
          2 2 2 2 2 2
          2 2 2 2 2 2
          2 2 2 2 2 2
          2 2 2 2 2 2
          2 2 2 2 2 2
          2 2 2 2 2 2
          2 2 2 2 2 2
          2 2 2 2 2 2
          2 2 2 2 2 2
          2 2 2 2 2 2
          2 2 2 2 2 2
          2 2 2 2 2 2
          2 2 2 2 2 2
          2 2 2 2 2 2
          2 2 2 2 2 2
          2 2 2 2 2 2
          2 2 2 2 2 2
          2 2 2 2 2 2
          2 2 2 2 2 2
          2 2 2 2 2 2
          2 2 2 2 2 2
          2 2 2 2 2 2
          2 2 2 2 2 2
          2 2 2 2 2 2
          2 2 2 2 2 2
          2 2 2 2 2 2
          2 2 2 2 2 2
          2 2 2 2 2 2
          2 2 2 2 2 2
          2 2 2 2 2 2
          2 2 2 2 2 2
          2 2 2 2 2 2
          2 2 2 2 2 2
          2 2 2 2 2 2
          2 2 2 2 2 2
          2 2 2 2 2 2
          2 2 2 2 2 2
          2 2 2 2 2 2
          2 2 2 2 2 2
          2 2 2 2 2 2
          2 2 2 2 2 2
          2 2 2 2 2 2
          2 2 2 2 2 2
          2 2 2 2 2 2
          2 2 2 2 2 2
          2 2 2 2 2 2
          2 2 2 2 2 2
          2 2 2 2 2 2
          2 2 2 2 2 2
          2 2 2 2 2 2
          2 2 2 2 2 2
          2 2 2 2 2 2
          2 2 2 2 2 2
          2 2 2 2 2 2
          2 2 2 2 2 2
          2 2 2 2 2 2
          2 2 2 2 2 2
          2 2 2 2 2 2
          2 2 2 2 2 2
          2 2 2 2 2 2
          2 2 2 2 2 2
          2 2 2 2 2 2
          2 2 2 2 2 2
          2 2 2 1 1 1
          1 2 2 2 1 1
          1 1 0.5 0.5 1 1
          0.6666666666666666 1 1 2 1.5 1.25
          0 0 0.5 0.5 0 0.5
          2 1 1 1 1 1
          2 2 1 1.3333333333333333 0 1.5
          0.5 2 1 2 2 2
          2 2 2 2 2 2
          2 2 2 1.5 2 2
          2 2 2 2 2 2
          2 2 2 2 2 2
          2 2 2 2 2 2
          2 2 2 2 2 2
          2 2 2 2 2 2
          2 2 2 2 2 2
          2 2 2 2
        </DataArray>
        <DataArray type="Float64" Name="gradient_marker" format="ascii" RangeMin="0" RangeMax="1">
          0 0.5 1 0 1 0.75
          0.5 0.75 0 0.375 0 0.25
          0.5 0.75 0.5 0.75 0.75 0.75
          0 0.5 0.5 1 0 0
          0 0 0 0 0 0
          0.25 0 1 0.75 1 0.25
          0 0 0 0 0 0
          0 0 0 0 0 0
          0.125 0 0.16666666666666666 0 0 0.125
          0 0 0 0 0 0.16666666666666666
          0 0 0 0 0 0
          0 0 0.25 0 0 0
          0 0 0 0 0 0.375
          0 0.25 0 0.5 0 0.25
          0.375 0.75 0.625 0.375 0.5 0.25
          0.375 0.5 0.625 1 0.875 1
          1 0.625 0.75 0.5 0.5 0.5
          0.75 0.125 0.25 0 0 0.5
          0.75 0.25 0.25 0.25 0 0
          0.75 0.75 0.5 0 0 0
          0 0.5 0.5 0 0 0
          0.5 0 0 0 0 0.5
          0.5 0 0 0 0.5 0.875
          1 0.75 1 1 1 1
          1 1 1 1 1 1
          1 1 1 0.5 0 0
          1 1 0.75 0.5 0.5 0.75
          0.25 0 0.75 0.5 0 0
          0.5 0 0 0.5 1 1
          1 1 0 0 0 0
          0 0 0 0 0 0
          0 0 0 0 0 0
          0 0 0 0 0 0
          0 0 0 0 0 0
          0 0 0 0 0 0
          0 0 0 0 0 0
          0 0 0 0 0 0
          0 0 0 0 0 0
          0 0 0 0 0 0
          0 0 0 0 0 0
          0 0 0 0 0 0
          0 0 0 0 0 0
          0 0 0 0 0 0
          0 0 0 0 0 0
          0 0 0 0 0 0
          0 0 0 0 0 0
          0 0 0 0 0 0
          0 0 0 0 0 0
          0 0 0 0 0 0
          0 0 0 0 0 0
          0 0 0 0 0 0
          0 0 0 0 0 0