<?xml version="1.0"?>
<VTKFile type="UnstructuredGrid" version="0.1" byte_order="LittleEndian" header_type="UInt32" compressor="vtkZLibDataCompressor">
  <UnstructuredGrid>
    <Piece NumberOfPoints="403" NumberOfCells="214">
      <PointData>
        <DataArray type="Int32" Name="libmesh_node_id" format="ascii" RangeMin="240" RangeMax="3946">
          240 241 242 243 244 245
          246 247 263 264 265 266
          279 280 281 282 283 284
          285 286 302 303 304 305
          318 319 320 321 322 323
          324 325 342 343 344 398
          399 400 401 402 403 404
          407 408 409 410 545 546
          547 548 551 552 553 554
          557 558 3527 3528 3529 3530
          3531 3533 3534 3572 3573 3574
          3577 3580 3582 3583 3584 3585
          3586 3587 3588 3589 3590 3591
          3592 3593 3594 3595 3596 3597
          3598 3599 3600 3601 3602 3603
          3604 3605 3606 3607 3608 3609
          3610 3611 3612 3613 3614 3615
          3616 3617 3618 3644 3646 3649
          3651 3653 3654 3655 3656 3657
          3658 3659 3660 3661 3662 3663
          3664 3665 3666 3667 3668 3669
          3670 3671 3672 3673 3674 3675
          3676 3677 3678 3679 3680 3681
          3682 3683 3684 3685 3686 3687
          3688 3689 3690 3691 3692 3693
          3694 3695 3696 3697 3698 3699
          3700 3701 3702 3703 3704 3705
          3706 3707 3708 3709 3710 3711
          3712 3713 3714 3715 3716 3717
          3718 3719 3720 3721 3722 3724
          3725 3726 3727 3728 3729 3730
          3731 3732 3733 3734 3735 3736
          3737 3738 3739 3740 3741 3742
          3743 3744 3768 3769 3770 3773
          3776 3778 3779 3780 3781 3782
          3783 3784 3785 3786 3787 3788
          3789 3790 3791 3792 3793 3794
          3795 3796 3797 3798 3799 3800
          3801 3802 3803 3804 3805 3806
          3807 3808 3809 3810 3811 3812
          3813 3814 3815 3816 3817 3818
          3819 3820 3821 3822 3823 3824
          3825 3826 3827 3828 3829 3830
          3831 3832 3833 3834 3835 3836
          3837 3838 3839 3840 3841 3842
          3843 3844 3845 3846 3847 3848
          3849 3850 3851 3852 3853 3854
          3855 3856 3857 3858 3859 3860
          3861 3862 3863 3864 3865 3866
          3867 3868 3869 3870 3871 3872
          3873 3874 3875 3876 3877 3878
          3879 3880 3881 3882 3883 3884
          3885 3886 3887 3888 3889 3890
          3891 3892 3893 3894 3895 3896
          3897 3898 3899 3900 3901 3902
          3903 3904 3905 3906 3907 3908
          3909 3910 3911 3912 3913 3914
          3915 3916 3917 3918 3919 3920
          3921 3922 3923 3924 3925 3926
          3927 3928 3929 3930 3931 3932
          3933 3934 3935 3936 3937 3938
          3939 3940 3941 3942 3943 3944
          3945 3946 287 353 354 357
          405 406 288 363 367 327
          411 549 550 414 415 418
          424 555 556 428 747 750
          756 3643 3645 3647 3648 3650
          3652
        </DataArray>
        <DataArray type="Float64" Name="bounds" format="ascii" RangeMin="0" RangeMax="0">
          0 0 0 0 0 0
          0 0 0 0 0 0
          0 0 0 0 0 0
          0 0 0 0 0 0
          0 0 0 0 0 0
          0 0 0 0 0 0
          0 0 0 0 0 0
          0 0 0 0 0 0
          0 0 0 0 0 0
          0 0 0 0 0 0
          0 0 0 0 0 0
          0 0 0 0 0 0
          0 0 0 0 0 0
          0 0 0 0 0 0
          0 0 0 0 0 0
          0 0 0 0 0 0
          0 0 0 0 0 0
          0 0 0 0 0 0
          0 0 0 0 0 0
          0 0 0 0 0 0
          0 0 0 0 0 0
          0 0 0 0 0 0
          0 0 0 0 0 0
          0 0 0 0 0 0
          0 0 0 0 0 0
          0 0 0 0 0 0
          0 0 0 0 0 0
          0 0 0 0 0 0
          0 0 0 0 0 0
          0 0 0 0 0 0
          0 0 0 0 0 0
          0 0 0 0 0 0
          0 0 0 0 0 0
          0 0 0 0 0 0
          0 0 0 0 0 0
          0 0 0 0 0 0
          0 0 0 0 0 0
          0 0 0 0 0 0
          0 0 0 0 0 0
          0 0 0 0 0 0
          0 0 0 0 0 0
          0 0 0 0 0 0
          0 0 0 0 0 0
          0 0 0 0 0 0
          0 0 0 0 0 0
          0 0 0 0 0 0
          0 0 0 0 0 0
          0 0 0 0 0 0
          0 0 0 0 0 0
          0 0 0 0 0 0
          0 0 0 0 0 0
          0 0 0 0 0 0
          0 0 0 0 0 0
          0 0 0 0 0 0
          0 0 0 0 0 0
          0 0 0 0 0 0
          0 0 0 0 0 0
          0 0 0 0 0 0
          0 0 0 0 0 0
          0 0 0 0 0 0
          0 0 0 0 0 0
          0 0 0 0 0 0
          0 0 0 0 0 0
          0 0 0 0 0 0
          0 0 0 0 0 0
          0 0 0 0 0 0
          0 0 0 0 0 0
          0
        </DataArray>
        <DataArray type="Float64" Name="gradient_error" format="ascii" RangeMin="1.8749611990803616e-9" RangeMax="0.0000011420933245366068">
          2.15009802571063e-7 1.3393239164543521e-7 8.552495903821677e-8 5.692389268182441e-8 1.1651085240047086e-8 1.1557779145296418e-8
          6.640610344461123e-9 6.2707417237745505e-9 5.285498071980744e-8 2.9646105278809653e-8 1.518761012696443e-8 8.683815051336206e-9
          7.347220748152448e-7 4.283339915627808e-7 3.970955666561358e-7 2.1467535879682624e-7 6.179351168216655e-8 1.3847160441778173e-7
          6.806036737677857e-8 9.482394996862695e-8 3.322234856704447e-7 2.8688385897076536e-8 1.508855862712907e-8 8.58841938830736e-9
          1.2868254983404951e-7 9.711434297287713e-7 1.8099292453616969e-7 1.7810944227769286e-7 2.902876914429214e-7 1.358378818275107e-7
          5.267279759624824e-7 1.0506194167401404e-7 1.8181833022048046e-8 2.5071123382269688e-8 1.5637373391877007e-8 2.3190736283234273e-7
          1.7980858314822885e-7 1.1793725093431573e-7 4.1880707856559346e-7 6.03571738278055e-7 4.6582996692280493e-7 2.917909663008365e-7
          1.2304085079492534e-7 7.47691949111702e-7 7.87898129998075e-7 4.7392657433320293e-7 8.810064247108941e-7 7.313412214185102e-7
          4.969131434440931e-7 7.747927848923161e-7 7.431606704264406e-7 5.816760181261265e-7 7.780610192099758e-7 5.424335879647565e-7
          8.053580123777815e-7 9.744460202938252e-7 4.996314960603429e-9 3.023980024684243e-8 4.8139918886060295e-8 3.111307516905913e-8
          2.194649779868346e-8 1.4086231452057967e-8 1.365319535052449e-8 8.878291545889808e-7 6.706735298601437e-7 8.205966542675349e-7
          7.00665907486585e-7 7.573136785605008e-7 0.0000011420933245366068 8.921586884896293e-7 7.049352330960816e-7 6.946524457190156e-7
          4.1886775073153723e-7 4.928361639335169e-7 4.3358663569061934e-7 3.682232670914762e-7 4.163102529153512e-7 2.5066530585693055e-7
          1.4983388711246917e-7 5.140310669156281e-7 2.6933819987439823e-7 4.749241689331194e-7 7.191157004763183e-8 1.7117883767756894e-7
          2.8856064064208457e-7 3.132228128527125e-7 1.5182908723663784e-7 3.2832790934447984e-7 3.1272325155829545e-7 2.028259762570295e-7
          2.2168452766712095e-7 1.875204404447981e-7 2.2731709925290933e-7 3.0858452678819834e-7 3.5546466253089924e-7 1.6145872869073402e-7
          5.41080487421335e-8 1.3172992063076485e-7 3.718845071263425e-7 3.0707524550248295e-7 1.4980220579687286e-7 1.5033482999631347e-7
          3.840988662247178e-7 4.108123833188015e-7 1.078462908462285e-7 6.294691203231545e-9 2.1695737215023294e-8 9.402378505192754e-9
          3.709678322681504e-8 9.326061409879917e-8 7.829929843526076e-8 7.330235269635334e-8 1.4451571874767098e-7 1.3234547776503168e-7
          1.1218605664681907e-7 1.240536116496742e-7 8.22180108495533e-8 1.2543535336889047e-7 1.0551539211581645e-7 6.333798277172234e-8
          9.202663552860644e-8 1.035915045516774e-7 8.559543086274242e-8 4.4273710955508933e-7 3.8340698586568317e-7 3.687236550370233e-7
          2.7510947242072896e-7 5.793655433835257e-7 6.687178255563948e-7 6.538951033593119e-7 5.761257829781579e-7 4.300903067821561e-7
          4.1006174768765675e-7 6.233917734338752e-7 6.870490498456347e-7 5.896091264852643e-7 5.078740490759641e-7 1.357440420996149e-7
          1.462629785184637e-7 1.7587877642447946e-7 1.8486412974539053e-7 1.2966692245614829e-7 1.704339024039021e-7 9.431339128959714e-8
          1.3064932044687575e-7 1.2249078668825773e-7 1.3662415283466525e-7 2.1601351074934404e-7 2.2346528097231736e-7 2.1120088235165593e-7
          1.6698524960415434e-7 1.2454788911145807e-8 9.393069975577856e-9 1.1250997142832876e-8 2.7356276358294148e-8 2.8139467353211837e-8
          1.881084370260808e-8 1.930018451167442e-8 6.982538332305794e-9 2.338148693188951e-8 1.606674070721715e-8 6.331351040009902e-9
          9.482220052004325e-9 1.1244092665054689e-8 8.751994482544786e-9 7.954148855894831e-9 5.065755915181091e-9 1.7631598771447403e-8
          1.4441425816790868e-8 2.1773629744673483e-9 1.1251252862134337e-8 6.051823417671416e-8 7.226468255944639e-8 9.554950616709378e-8
          1.092567783662717e-7 4.267220499512659e-8 7.736234021790427e-8 2.6813986613127466e-8 4.174005457769406e-8 1.32406303672049e-8
          1.3058077815747342e-7 1.46248874173097e-7 1.1205247544068197e-7 5.666612254226065e-8 3.1684145632138813e-8 6.535957125716786e-8
          2.1527617700648696e-8 4.863577697302573e-8 6.194246524931603e-9 1.43960558984719e-8 1.5339516493470375e-8 9.90349968821969e-8
          7.574393624540277e-8 2.25978652720122e-8 1.2179783247241831e-8 2.965275740283162e-8 4.503464285858678e-9 1.3249962507304484e-8
          4.712573155842141e-8 2.1996460728750287e-8 2.2242339562459255e-7 1.7871561807566835e-7 1.9938162381098904e-7 2.2004762954630975e-7
          1.7633985199738558e-7 2.472020718528104e-7 2.3986424631013e-7 1.928126094818232e-7 2.1537926125724892e-7 2.589472666985852e-7
          2.0880551438401293e-7 2.3182105834666273e-7 2.325264207674496e-7 2.379459130326746e-7 2.3441829344966034e-7 1.38423147110836e-7
          1.908942762043678e-7 2.0469484999474028e-7 2.4336540529789963e-7 2.910986782236323e-7 2.8001054563575984e-7 2.274971676354749e-7
          2.4860604383149e-7 2.5764493557805984e-7 2.457887227535191e-7 2.666976238542342e-7 2.2422860359880272e-7 2.3755961160984417e-7
          2.55455695877834e-7 1.6389565704731754e-7 2.1720154202722009e-7 2.337506649234844e-7 2.508906196208856e-7 1.529756726505362e-7
          1.4937439848187698e-7 1.7482129888436092e-7 1.7206698207529738e-7 1.5806434876258312e-7 1.7964811466480833e-7 1.2641655115135444e-7
          1.4423829457653857e-7 1.5055228842023896e-7 1.3599136252889786e-7 1.966669251181856e-7 1.9475956566871778e-7 2.012318805670335e-7
          1.6206003800172272e-7 1.215853183755547e-7 1.1100354625162265e-7 1.2276411920915812e-7 1.666042107200167e-7 1.6633562218191403e-7
          1.4872163927041396e-7 1.4820488018668475e-7 9.479315759162057e-8 1.660697047848154e-7 1.4899451982543712e-7 1.004217741276906e-7
          1.3110765635891394e-7 1.298055496533528e-7 1.3191933486605884e-7 2.6766335106778157e-7 2.5142205203857027e-7 2.7044961405121857e-7
          2.2439528882408405e-7 9.206155081431708e-8 8.800414893513195e-8 1.661125212313078e-7 1.483107629355104e-7 8.345944558793092e-8
          1.6556946523729124e-7 1.4685744120825786e-7 8.394674705594683e-8 1.3050900463971299e-7 1.2814541717922449e-7 3.081972450344227e-7
          2.868799002979771e-7 3.0302414060171114e-7 2.4855169233113036e-7 2.6333970275819693e-7 2.8643307856451564e-7 2.861489826337167e-7
          3.1039152125792977e-7 2.7196851919888243e-7 2.8928454029266017e-7 2.0243862936910406e-7 2.56461785341096e-7 2.8307969647267607e-7
          2.8824087445670734e-7 3.160154306593281e-7 3.395127217610798e-7 3.516671522832886e-7 3.731194182903615e-7 3.0762929991327035e-7
          3.26823841671851e-7 2.557998628981094e-7 3.1388301986209435e-7 3.5044599220588574e-7 3.309666924415847e-7 1.6067068503752056e-7
          1.8381576189707085e-7 1.624822119957068e-7 1.876841281911135e-7 1.1851700962150699e-7 1.3322093976721133e-7 1.3143323567904947e-7
          2.069608387566212e-7 2.1288604438652018e-7 1.4792486991291567e-7 1.6336748812307996e-7 1.908100192788651e-7 1.632096781789526e-7
          1.930008507493348e-7 1.1220501037583176e-7 1.2937145159402097e-7 1.2692570245240237e-7 2.1825255043465016e-7 2.22792023319717e-7
          1.4653789281221017e-7 8.367176017525436e-8 7.918541078977408e-8 1.635897067768481e-7 1.4409072617903558e-7 7.548358372566641e-8
          1.597674172621601e-7 1.3965841902031702e-7 7.469906140429381e-8 1.2459174558122309e-7 1.19549420778474e-7 3.4955622401904175e-7
          3.195680763888593e-7 3.3631444068957634e-7 2.661158561978339e-7 8.017690727345835e-8 7.30372002191375e-8 1.5355876012128973e-7
          1.3311494282315777e-7 6.589749316481664e-8 1.1267112552502584e-7 3.950930816791138e-7 3.5289142300742324e-7 2.776691431865868e-7
          3.939970914952871e-7 4.1213055389683506e-7 4.4462004737517485e-7 4.5778766742740587e-7 3.470065032714045e-7 3.679154133281151e-7
          3.323893883309325e-7 3.941209965842486e-7 4.4677970779062683e-7 3.820814371251343e-7 5.055841360923125e-7 5.11732930974869e-7
          3.8915129570456047e-7 4.4792272179551865e-7 5.108757013620698e-7 4.415212555718582e-7 1.6180178339900738e-7 1.939641936563906e-7
          1.5879485201423167e-7 1.9329787515347373e-7 1.044158557218666e-7 1.241793970683551e-7 1.2172021113035425e-7 2.2612660391377378e-7
          2.2780089829271578e-7 1.4394293841484356e-7 1.537750586291915e-7 1.9045549060255367e-7 9.592221637008777e-8 1.2049011565341208e-7
          2.2713592257591584e-7 1.450580149367364e-7 2.1338257167656622e-7 1.4853111323998061e-7 6.570395694813076e-7 4.373930117423687e-7
          9.358213973021968e-8 2.475683337910974e-7 4.8359610454417115e-8 2.1992855965599147e-7 8.816560579517717e-7 3.7108125595384244e-7
          3.878438757627219e-7 9.01492842459417e-7 8.397769308346963e-7 5.328293247701838e-7 7.686547807565594e-7 7.968058081309201e-7
          6.053212464635848e-7 9.219792602079397e-7 9.482126402508825e-7 8.348253873028464e-7 4.10035018866884e-8 2.598237255852447e-8
          1.0961243230360539e-8 4.644384318805785e-9 3.075353071621443e-8 1.8749611990803616e-9 9.442482507046754e-9 5.686267711362307e-8
          1.7010003815013145e-8
        </DataArray>
        <DataArray type="Float64" Name="gradient_matprop_error" format="ascii" RangeMin="0" RangeMax="0">
          0 0 0 0 0 0
          0 0 0 0 0 0
          0 0 0 0 0 0
          0 0 0 0 0 0
          0 0 0 0 0 0
          0 0 0 0 0 0
          0 0 0 0 0 0
          0 0 0 0 0 0
          0 0 0 0 0 0
          0 0 0 0 0 0
          0 0 0 0 0 0
          0 0 0 0 0 0
          0 0 0 0 0 0
          0 0 0 0 0 0
          0 0 0 0 0 0
          0 0 0 0 0 0
          0 0 0 0 0 0
          0 0 0 0 0 0
          0 0 0 0 0 0
          0 0 0 0 0 0
          0 0 0 0 0 0
          0 0 0 0 0 0
          0 0 0 0 0 0
          0 0 0 0 0 0
          0 0 0 0 0 0
          0 0 0 0 0 0
          0 0 0 0 0 0
          0 0 0 0 0 0
          0 0 0 0 0 0
          0 0 0 0 0 0
          0 0 0 0 0 0
          0 0 0 0 0 0
          0 0 0 0 0 0
          0 0 0 0 0 0
          0 0 0 0 0 0
          0 0 0 0 0 0
          0 0 0 0 0 0
          0 0 0 0 0 0
          0 0 0 0 0 0
          0 0 0 0 0 0
          0 0 0 0 0 0
          0 0 0 0 0 0
          0 0 0 0 0 0
          0 0 0 0 0 0
          0 0 0 0 0 0
          0 0 0 0 0 0
          0 0 0 0 0 0
          0 0 0 0 0 0
          0 0 0 0 0 0
          0 0 0 0 0 0
          0 0 0 0 0 0
          0 0 0 0 0 0
          0 0 0 0 0 0
          0 0 0 0 0 0
          0 0 0 0 0 0
          0 0 0 0 0 0
          0 0 0 0 0 0
          0 0 0 0 0 0
          0 0 0 0 0 0
          0 0 0 0 0 0
          0 0 0 0 0 0
          0 0 0 0 0 0
          0 0 0 0 0 0
          0 0 0 0 0 0
          0 0 0 0 0 0
          0 0 0 0 0 0
          0 0 0 0 0 0
          0
        </DataArray>
        <DataArray type="Float64" Name="initial_marker" format="ascii" RangeMin="0" RangeMax="0">
          0 0 0 0 0 0
          0 0 0 0 0 0
          0 0 0 0 0 0
          0 0 0 0 0 0
          0 0 0 0 0 0
          0 0 0 0 0 0
          0 0 0 0 0 0
          0 0 0 0 0 0
          0 0 0 0 0 0
          0 0 0 0 0 0
          0 0 0 0 0 0
          0 0 0 0 0 0
          0 0 0 0 0 0
          0 0 0 0 0 0
          0 0 0 0 0 0
          0 0 0 0 0 0
          0 0 0 0 0 0
          0 0 0 0 0 0
          0 0 0 0 0 0
          0 0 0 0 0 0
          0 0 0 0 0 0
          0 0 0 0 0 0
          0 0 0 0 0 0
          0 0 0 0 0 0
          0 0 0 0 0 0
          0 0 0 0 0 0
          0 0 0 0 0 0
          0 0 0 0 0 0
          0 0 0 0 0 0
          0 0 0 0 0 0
          0 0 0 0 0 0
          0 0 0 0 0 0
          0 0 0 0 0 0
          0 0 0 0 0 0
          0 0 0 0 0 0
          0 0 0 0 0 0
          0 0 0 0 0 0
          0 0 0 0 0 0
          0 0 0 0 0 0
          0 0 0 0 0 0
          0 0 0 0 0 0
          0 0 0 0 0 0
          0 0 0 0 0 0
          0 0 0 0 0 0
          0 0 0 0 0 0
          0 0 0 0 0 0
          0 0 0 0 0 0
          0 0 0 0 0 0
          0 0 0 0 0 0
          0 0 0 0 0 0
          0 0 0 0 0 0
          0 0 0 0 0 0
          0 0 0 0 0 0
          0 0 0 0 0 0
          0 0 0 0 0 0
          0 0 0 0 0 0
          0 0 0 0 0 0
          0 0 0 0 0 0
          0 0 0 0 0 0
          0 0 0 0 0 0
          0 0 0 0 0 0
          0 0 0 0 0 0
          0 0 0 0 0 0
          0 0 0 0 0 0
          0 0 0 0 0 0
          0 0 0 0 0 0
          0 0 0 0 0 0
          0
        </DataArray>
        <DataArray type="Float64" Name="markers_norefine" format="ascii" RangeMin="0" RangeMax="0">
          0 0 0 0 0 0
          0 0 0 0 0 0
          0 0 0 0 0 0
          0 0 0 0 0 0
          0 0 0 0 0 0
          0 0 0 0 0 0
          0 0 0 0 0 0
          0 0 0 0 0 0
          0 0 0 0 0 0
          0 0 0 0 0 0
          0 0 0 0 0 0
          0 0 0 0 0 0
          0 0 0 0 0 0
          0 0 0 0 0 0
          0 0 0 0 0 0
          0 0 0 0 0 0
          0 0 0 0 0 0
          0 0 0 0 0 0
          0 0 0 0 0 0
          0 0 0 0 0 0
          0 0 0 0 0 0
          0 0 0 0 0 0
          0 0 0 0 0 0
          0 0 0 0 0 0
          0 0 0 0 0 0
          0 0 0 0 0 0
          0 0 0 0 0 0
          0 0 0 0 0 0
          0 0 0 0 0 0
          0 0 0 0 0 0
          0 0 0 0 0 0
          0 0 0 0 0 0
          0 0 0 0 0 0
          0 0 0 0 0 0
          0 0 0 0 0 0
          0 0 0 0 0 0
          0 0 0 0 0 0
          0 0 0 0 0 0
          0 0 0 0 0 0
          0 0 0 0 0 0
          0 0 0 0 0 0
          0 0 0 0 0 0
          0 0 0 0 0 0
          0 0 0 0 0 0
          0 0 0 0 0 0
          0 0 0 0 0 0
          0 0 0 0 0 0
          0 0 0 0 0 0
          0 0 0 0 0 0
          0 0 0 0 0 0
          0 0 0 0 0 0
          0 0 0 0 0 0
          0 0 0 0 0 0
          0 0 0 0 0 0
          0 0 0 0 0 0
          0 0 0 0 0 0
          0 0 0 0 0 0
          0 0 0 0 0 0
          0 0 0 0 0 0
          0 0 0 0 0 0
          0 0 0 0 0 0
          0 0 0 0 0 0
          0 0 0 0 0 0
          0 0 0 0 0 0
          0 0 0 0 0 0
          0 0 0 0 0 0
          0 0 0 0 0 0
          0
        </DataArray>
        <DataArray type="Float64" Name="markers_mustrefine" format="ascii" RangeMin="0" RangeMax="0">
          0 0 0 0 0 0
          0 0 0 0 0 0
          0 0 0 0 0 0
          0 0 0 0 0 0
          0 0 0 0 0 0
          0 0 0 0 0 0
          0 0 0 0 0 0
          0 0 0 0 0 0
          0 0 0 0 0 0
          0 0 0 0 0 0
          0 0 0 0 0 0
          0 0 0 0 0 0
          0 0 0 0 0 0
          0 0 0 0 0 0
          0 0 0 0 0 0
          0 0 0 0 0 0
          0 0 0 0 0 0
          0 0 0 0 0 0
          0 0 0 0 0 0
          0 0 0 0 0 0
          0 0 0 0 0 0
          0 0 0 0 0 0
          0 0 0 0 0 0
          0 0 0 0 0 0
          0 0 0 0 0 0
          0 0 0 0 0 0
          0 0 0 0 0 0
          0 0 0 0 0 0
          0 0 0 0 0 0
          0 0 0 0 0 0
          0 0 0 0 0 0
          0 0 0 0 0 0
          0 0 0 0 0 0
          0 0 0 0 0 0
          0 0 0 0 0 0
          0 0 0 0 0 0
          0 0 0 0 0 0
          0 0 0 0 0 0
          0 0 0 0 0 0
          0 0 0 0 0 0
          0 0 0 0 0 0
          0 0 0 0 0 0
          0 0 0 0 0 0
          0 0 0 0 0 0
          0 0 0 0 0 0
          0 0 0 0 0 0
          0 0 0 0 0 0
          0 0 0 0 0 0
          0 0 0 0 0 0
          0 0 0 0 0 0
          0 0 0 0 0 0
          0 0 0 0 0 0
          0 0 0 0 0 0
          0 0 0 0 0 0
          0 0 0 0 0 0
          0 0 0 0 0 0
          0 0 0 0 0 0
          0 0 0 0 0 0
          0 0 0 0 0 0
          0 0 0 0 0 0
          0 0 0 0 0 0
          0 0 0 0 0 0
          0 0 0 0 0 0
          0 0 0 0 0 0
          0 0 0 0 0 0
          0 0 0 0 0 0
          0 0 0 0 0 0
          0
        </DataArray>
        <DataArray type="Float64" Name="gradient_marker" format="ascii" RangeMin="1" RangeMax="1">
          1 1 1 1 1 1
          1 1 1 1 1 1
          1 1 1 1 1 1
          1 1 1 1 1 1
          1 1 1 1 1 1
          1 1 1 1 1 1
          1 1 1 1 1 1
          1 1 1 1 1 1
          1 1 1 1 1 1
          1 1 1 1 1 1
          1 1 1 1 1 1
          1 1 1 1 1 1
          1 1 1 1 1 1
          1 1 1 1 1 1
          1 1 1 1 1 1
          1 1 1 1 1 1
          1 1 1 1 1 1
          1 1 1 1 1 1
          1 1 1 1 1 1
          1 1 1 1 1 1
          1 1 1 1 1 1
          1 1 1 1 1 1
          1 1 1 1 1 1
          1 1 1 1 1 1
          1 1 1 1 1 1
          1 1 1 1 1 1
          1 1 1 1 1 1
          1 1 1 1 1 1
          1 1 1 1 1 1
          1 1 1 1 1 1
          1 1 1 1 1 1
          1 1 1 1 1 1
          1 1 1 1 1 1
          1 1 1 1 1 1
          1 1 1 1 1 1
          1 1 1 1 1 1
          1 1 1 1 1 1
          1 1 1 1 1 1
          1 1 1 1 1 1
          1 1 1 1 1 1
          1 1 1 1 1 1
          1 1 1 1 1 1
          1 1 1 1 1 1
          1 1 1 1 1 1
          1 1 1 1 1 1
          1 1 1 1 1 1
          1 1 1 1 1 1
          1 1 1 1 1 1
          1 1 1 1 1 1
          1 1 1 1 1 1
          1 1 1 1 1 1
          1 1 1 1 1 1
          1 1 1 1 1 1
          1 1 1 1 1 1
          1 1 1 1 1 1
          1 1 1 1 1 1
          1 1 1 1 1 1
          1 1 1 1 1 1
          1 1 1 1 1 1
          1 1 1 1 1 1
          1 1 1 1 1 1
          1 1 1 1 1 1
          1 1 1 1 1 1
          1 1 1 1 1 1
          1 1 1 1 1 1
          1 1 1 1 1 1
          1 1 1 1 1 1
          1
        </DataArray>
        <DataArray type="Float64" Name="gradient_matprop_marker" format="ascii" RangeMin="0" RangeMax="0">
          0 0 0 0 0 0
          0 0 0 0 0 0
          0 0 0 0 0 0
          0 0 0 0 0 0
          0 0 0 0 0 0
          0 0 0 0 0 0
          0 0 0 0 0 0
          0 0 0 0 0 0
          0 0 0 0 0 0
          0 0 0 0 0 0
          0 0 0 0 0 0
          0 0 0 0 0 0
          0 0 0 0 0 0
          0 0 0 0 0 0
          0 0 0 0 0 0
          0 0 0 0 0 0
          0 0 0 0 0 0
          0 0 0 0 0 0
          0 0 0 0 0 0
          0 0 0 0 0 0
          0 0 0 0 0 0
          0 0 0 0 0 0
          0 0 0 0 0 0
          0 0 0 0 0 0
          0 0 0 0 0 0
          0 0 0 0 0 0
          0 0 0 0 0 0
          0 0 0 0 0 0
          0 0 0 0 0 0
          0 0 0 0 0 0
          0 0 0 0 0 0
          0 0 0 0 0 0
          0 0 0 0 0 0
          0 0 0 0 0 0
          0 0 0 0 0 0
          0 0 0 0 0 0
          0 0 0 0 0 0
          0 0 0 0 0 0
          0 0 0 0 0 0
          0 0 0 0 0 0
          0 0 0 0 0 0
          0 0 0 0 0 0
          0 0 0 0 0 0
          0 0 0 0 0 0
          0 0 0 0 0 0
          0 0 0 0 0 0
          0 0 0 0 0 0
          0 0 0 0 0 0
          0 0 0 0 0 0
          0 0 0 0 0 0
          0 0 0 0 0 0
          0 0 0 0 0 0
          0 0 0 0 0 0
          0 0 0 0 0 0
          0 0 0 0 0 0
          0 0 0 0 0 0
          0 0 0 0 0 0
          0 0 0 0 0 0
          0 0 0 0 0 0
          0 0 0 0 0 0
          0 0 0 0 0 0
          0 0 0 0 0 0
          0 0 0 0 0 0
          0 0 0 0 0 0
          0 0 0 0 0 0
          0 0 0 0 0 0
          0 0 0 0 0 0
          0
        </DataArray>
        <DataArray type="Float64" Name="combo" format="ascii" RangeMin="1" RangeMax="1">
          1 1 1 1 1 1
          1 1 1 1 1 1
          1 1 1 1 1 1
          1 1 1 1 1 1
          1 1 1 1 1 1
          1 1 1 1 1 1
          1 1 1 1 1 1
          1 1 1 1 1 1
          1 1 1 1 1 1
          1 1 1 1 1 1
          1 1 1 1 1 1
          1 1 1 1 1 1
          1 1 1 1 1 1
          1 1 1 1 1 1
          1 1 1 1 1 1
          1 1 1 1 1 1
          1 1 1 1 1 1
          1 1 1 1 1 1
          1 1 1 1 1 1
          1 1 1 1 1 1
          1 1 1 1 1 1
          1 1 1 1 1 1
          1 1 1 1 1 1
          1 1 1 1 1 1
          1 1 1 1 1 1
          1 1 1 1 1 1
          1 1 1 1 1 1
          1 1 1 1 1 1
          1 1 1 1 1 1
          1 1 1 1 1 1
          1 1 1 1 1 1
          1 1 1 1 1 1
          1 1 1 1 1 1
          1 1 1 1 1 1
          1 1 1 1 1 1
          1 1 1 1 1 1
          1 1 1 1 1 1
          1 1 1 1 1 1
          1 1 1 1 1 1
          1 1 1 1 1 1
          1 1 1 1 1 1
          1 1 1 1 1 1
          1 1 1 1 1 1
          1 1 1 1 1 1
          1 1 1 1 1 1
          1 1 1 1 1 1
          1 1 1 1 1 1
          1 1 1 1 1 1
          1 1 1 1 1 1
          1 1 1 1 1 1
          1 1 1 1 1 1
          1 1 1 1 1 1
          1 1 1 1 1 1
          1 1 1 1 1 1
          1 1 1 1 1 1
          1 1 1 1 1 1
          1 1 1 1 1 1
          1 1 1 1 1 1
          1 1 1 1 1 1
          1 1 1 1 1 1
          1 1 1 1 1 1
          1 1 1 1 1 1
          1 1 1 1 1 1
          1 1 1 1 1 1
          1 1 1 1 1 1
          1 1 1 1 1 1
          1 1 1 1 1 1
          1
        </DataArray>
        <DataArray type="Float64" Name="dHdT" format="ascii" RangeMin="25.796405520458816" RangeMax="33.86432848323689">
          25.824275538261293 25.819000861276322 25.814982946427683 25.81416127662142 25.80861611430067 25.811486102220822
          25.812223320446375 25.81179217080311 25.81372618429136 25.812677595836295 25.812059676025463 25.811808410251977
          26.210704423954297 25.924889024807637 26.104370460283118 25.89780798190501 25.940303541225077 25.867175816992507
          25.875113192694602 25.841764983209693 25.83148196395137 25.81226033091682 25.81148145085809 25.811622345825274
          28.724189509209644 26.326650647063985 29.281572184949795 26.15581913325597 30.131395330683794 26.066050234139354
          31.738500910556475 25.967197392302452 25.803680290730828 25.804072472669674 25.810429059540148 25.899849388270013
          25.869952092894913 25.863748543790162 27.717674546888137 27.608068131859092 26.464241515706775 26.602872623692612
          25.890858728224337 33.1894144091671 28.030148584949607 28.131400683234194 28.971810419786614 28.159466411997926
          27.576229972100005 31.042135342402553 29.734838132591406 27.347122404209237 28.476774674768205 27.85086700376677
          31.31113327629232 29.606426945327172 25.81259331245905 25.799186564096033 25.796405520458816 25.802408584130973
          25.803741599314172 25.80841164780313 25.80829663453232 26.36977472495783 27.25655245326611 26.732585724151775
          26.27044152949631 27.406421699887847 26.557715193806168 26.346799676075047 27.301589036257415 26.74931693072209
          26.086746627655714 27.473054858393958 26.785973793604512 25.999867697339837 26.111906257042758 26.0252032193113
          28.980564995634502 27.610247887094634 27.82716779712877 26.2674364249623 25.977318564712892 25.943498091625294
          27.64046724584816 26.785340039832654 25.91528584774961 27.682409289210128 26.74497633922102 25.904645516228285
          25.99215022663633 25.958321051912186 29.64800224075921 27.909832840957886 27.9912322021675 26.113681084347693
          25.9041333948429 25.888300728404886 27.711349766574106 26.686550228127253 25.86766232204324 25.92405042180681
          30.780366583456555 28.067523466819708 26.015528711135882 25.812326472150186 25.809158609339917 25.810713582235262
          25.80599074652966 25.956260322070975 25.9353941317962 25.946698600259744 26.31782019216182 26.27445515429437
          26.19300341603087 26.235240913405725 25.93212810815286 26.252887385563756 26.171866023335937 25.914527941521428
          26.111551677767366 26.15266163464963 26.09084466110812 27.70923868122568 27.30719240984384 27.345234564819737
          26.756875009763217 30.251551789378723 30.624453781193157 29.512361530006196 29.31415698351363 27.567537775947127
          27.590190168164956 32.42308018645272 30.860950940590243 30.461628063939486 28.154050744256086 26.223935843357744
          26.27035332358708 26.391867689716207 26.437898786851438 26.200297129969726 26.36861334931125 25.98753893434985
          26.04892910635739 26.07217941502151 26.039707532882723 26.559799536074667 26.605444250115802 26.53692956865277
          26.110319278364933 25.80741491717618 25.80942896778877 25.810772654519944 25.82197612603138 25.817832565758707
          25.816386154259085 25.819785441411426 25.808754669446706 25.81043435790741 25.81069610651927 25.811443018401352
          25.814939742759467 25.817594756791475 25.81095785513113 25.809018107561428 25.810307957072084 25.804510270666913
          25.806776514554418 25.811597806582746 25.80904275844191 25.83735199971024 25.84227166824953 25.85527006990975
          25.86262119556688 25.829047068532432 25.84296548743889 25.81085276308473 25.8083562521906 25.80692289210839
          25.873188140109264 25.882970722884227 25.85688390634535 25.805859741296466 25.823055069492778 25.833352486683605
          25.8183210889795 25.824461258050043 25.809909420496147 25.806450593403877 25.80708078030139 25.843649903874443
          25.83060142712059 25.802991766311607 25.81472654686355 25.816498783849624 25.81051237194827 25.808470511833775
          25.818271020835702 25.80642865171928 27.696404793170146 28.329810828192464 28.049106621949804 27.768402415707147
          28.401808450729458 27.98943287633962 27.73347209040398 28.418372353164642 28.11457340040111 27.77579389628017
          28.513013937171582 28.187975169480048 27.477511304468333 27.810774447637577 27.597426096854324 28.84731182998967
          28.495674710398248 28.60015644267992 28.144037590806818 28.10329593894773 27.822159724930586 28.61385117802611