<?xml version="1.0"?>
<VTKFile type="UnstructuredGrid" version="0.1" byte_order="LittleEndian" header_type="UInt32" compressor="vtkZLibDataCompressor">
  <UnstructuredGrid>
    <Piece NumberOfPoints="421" NumberOfCells="224">
      <PointData>
        <DataArray type="Int32" Name="libmesh_node_id" format="ascii" RangeMin="372" RangeMax="2284">
          372 450 451 455 639 640
          646 648 649 650 651 652
          658 659 926 927 928 929
          930 931 932 1134 1154 1168
          1169 1171 1174 1184 1188 1190
          1191 1192 1193 1194 1195 1196
          1197 1198 1199 1200 1201 1202
          1203 1204 1205 1206 1207 1208
          1211 1212 1214 1215 1217 1218
          1219 1220 1221 1225 1228 1229
          1230 1232 1238 1239 1240 1241
          1242 1243 1244 1245 1246 1247
          1248 1249 1254 1255 1258 1262
          1662 1663 1664 1665 1666 1667
          1668 1669 1670 1671 1672 1673
          1674 1675 1676 1677 1678 1679
          1680 1681 1682 1683 1684 1685
          1836 1837 1838 1839 1843 1844
          1845 1924 1925 1926 1927 1928
          1929 1930 1931 1932 1933 1941
          1942 1943 1944 1945 1946 1947
          1958 1959 1960 1961 1962 1963
          1964 1965 1966 1967 1975 1976
          1977 1978 1979 1980 1981 1982
          1983 1984 1985 1986 1987 1988
          1989 1990 1991 1992 1993 1994
          1995 1996 1997 1998 1999 2000
          2001 2002 2003 2004 2005 2006
          2007 2008 2009 2010 2011 2012
          2013 2014 2015 2016 2017 2018
          2019 2020 2021 2022 2023 2024
          2025 2026 2027 2028 2029 2030
          2031 2032 2033 2034 2035 2037
          2038 2039 2040 2041 2042 2043
          2044 2045 2046 2047 2048 2049
          2050 2051 2052 2053 2054 2055
          2057 2058 2059 2060 2061 2062
          2063 2064 2065 2066 2067 2068
          2069 2072 2078 2079 2080 2081
          2082 2083 2084 2085 2087 2092
          2093 2094 2095 2103 2104 2105
          2106 2107 2108 2109 2110 2111
          2112 2113 2114 2115 2116 2117
          2118 2119 2120 2157 2158 2159
          2160 2161 2162 2163 2164 2165
          2166 2167 2168 2169 2170 2171
          2172 2173 2174 2175 2176 2177
          2178 2179 2180 2181 2182 2183
          2184 2185 2186 2187 2188 2189
          2190 2191 2192 2193 2194 2195
          2196 2197 2198 2199 2200 2201
          2202 2203 2204 2205 2206 2207
          2208 2209 2210 2211 2212 2213
          2214 2215 2216 2217 2218 2219
          2220 2221 2222 2223 2224 2225
          2226 2227 2228 2229 2230 2231
          2232 2233 2234 2245 2246 2249
          2250 2259 2260 2261 2262 2263
          2264 2265 2266 2267 2268 2279
          2280 2283 2284 824 827 828
          825 445 449 446 920 921
          922 933 934 925 935 447
          638 655 448 1124 1127 1128
          1125 1132 1133 1131 1130 1135
          1149 1147 1153 1152 1151 643
          1155 1170 1183 1175 1187 1126
          1148 1568 1566 674 672 1834
          1916 1917 1919 1166 1922 1167
          1841 1935 1937 1939 1950 1951
          1953 1172 1956 1173 1969 1971
          1973
        </DataArray>
        <DataArray type="Float64" Name="bounds" format="ascii" RangeMin="0" RangeMax="0">
          0 0 0 0 0 0
          0 0 0 0 0 0
          0 0 0 0 0 0
          0 0 0 0 0 0
          0 0 0 0 0 0
          0 0 0 0 0 0
          0 0 0 0 0 0
          0 0 0 0 0 0
          0 0 0 0 0 0
          0 0 0 0 0 0
          0 0 0 0 0 0
          0 0 0 0 0 0
          0 0 0 0 0 0
          0 0 0 0 0 0
          0 0 0 0 0 0
          0 0 0 0 0 0
          0 0 0 0 0 0
          0 0 0 0 0 0
          0 0 0 0 0 0
          0 0 0 0 0 0
          0 0 0 0 0 0
          0 0 0 0 0 0
          0 0 0 0 0 0
          0 0 0 0 0 0
          0 0 0 0 0 0
          0 0 0 0 0 0
          0 0 0 0 0 0
          0 0 0 0 0 0
          0 0 0 0 0 0
          0 0 0 0 0 0
          0 0 0 0 0 0
          0 0 0 0 0 0
          0 0 0 0 0 0
          0 0 0 0 0 0
          0 0 0 0 0 0
          0 0 0 0 0 0
          0 0 0 0 0 0
          0 0 0 0 0 0
          0 0 0 0 0 0
          0 0 0 0 0 0
          0 0 0 0 0 0
          0 0 0 0 0 0
          0 0 0 0 0 0
          0 0 0 0 0 0
          0 0 0 0 0 0
          0 0 0 0 0 0
          0 0 0 0 0 0
          0 0 0 0 0 0
          0 0 0 0 0 0
          0 0 0 0 0 0
          0 0 0 0 0 0
          0 0 0 0 0 0
          0 0 0 0 0 0
          0 0 0 0 0 0
          0 0 0 0 0 0
          0 0 0 0 0 0
          0 0 0 0 0 0
          0 0 0 0 0 0
          0 0 0 0 0 0
          0 0 0 0 0 0
          0 0 0 0 0 0
          0 0 0 0 0 0
          0 0 0 0 0 0
          0 0 0 0 0 0
          0 0 0 0 0 0
          0 0 0 0 0 0
          0 0 0 0 0 0
          0 0 0 0 0 0
          0 0 0 0 0 0
          0 0 0 0 0 0
          0
        </DataArray>
        <DataArray type="Float64" Name="gradient_error" format="ascii" RangeMin="6.576333142518666e-10" RangeMax="1.1699226616012387e-7">
          2.866587396965019e-9 2.7367863970019026e-9 3.4003332155235676e-9 1.0304087461435006e-8 6.930249856280993e-8 7.403017999712635e-8
          8.846129041077787e-8 3.100306571356308e-8 2.4154065629179068e-8 3.9914631874822664e-8 3.72686269301482e-8 1.932933528705934e-9
          1.3587804766388194e-8 5.5796770453992805e-8 5.296386939461934e-9 5.844942598083743e-9 2.3010109635553616e-8 1.929925032194135e-8
          2.5509365396819075e-9 2.0681532577578382e-9 1.837088431913013e-9 6.34574551161438e-8 7.069080242027311e-8 2.1382454334227073e-8
          2.215194268450885e-8 7.939856214790105e-8 1.8119481622615356e-8 1.0369330508172491e-7 1.1699226616012387e-7 4.026505269361728e-8
          3.7334518113362736e-8 7.29436700800503e-8 6.663493736091976e-8 1.4767919012797658e-8 3.762754885580755e-8 3.417412954923889e-8
          2.95837492733308e-8 5.059247441031358e-8 2.5557449362971468e-8 6.521925987009785e-8 5.903926883967536e-8 3.5496666580831366e-8
          6.803826231886909e-8 4.452353279667113e-9 4.088430789914664e-9 5.414037704248223e-9 4.817271276688166e-9 2.5078160391244085e-9
          3.2483685662211297e-9 3.398671852092152e-9 1.582267241274662e-8 1.3648149651194773e-8 8.926956083493972e-9 2.0229379862905187e-8
          3.225854844889223e-8 9.244628323688552e-9 1.6913687890948593e-8 6.404398019249746e-8 3.897627836041453e-9 3.435914237165546e-9
          2.201644791631279e-9 4.7062752470140196e-9 2.4584197772244025e-8 2.4937266139288158e-8 2.615213922691615e-8 2.636690473321661e-8
          7.805404234156139e-8 4.783210784447572e-8 1.1186659983696181e-8 2.0198385302861362e-8 2.1109604854982045e-8 8.906652996130148e-8
          2.6036543149006307e-8 2.550839801108968e-8 1.4709265425601994e-8 2.1197147948132605e-8 9.818727876114334e-8 1.1257431417217105e-7
          4.891403971425392e-9 6.790739450639422e-9 6.244939663738313e-9 5.100868786998822e-9 3.655328357336385e-9 3.368859993136669e-9
          5.247538432028996e-9 4.840347022546929e-9 1.3547065825147896e-9 2.8324483014924182e-9 2.624130109204553e-9 2.722930518953298e-9
          3.919814169481817e-9 2.0892485859996463e-9 2.770053438563601e-9 3.667586594585252e-9 2.8325754920100635e-9 1.9779026032419234e-9
          2.7875968806347907e-9 8.793738312796018e-10 1.4469991028144766e-9 1.5923357975142036e-9 2.1687210353708094e-9 1.1313129505463482e-9
          2.3354513572750474e-8 2.2879860053882005e-8 2.37236423731104e-8 2.147787577338395e-8 1.9207956275402626e-8 1.9546520426660927e-8
          1.7865367539050884e-8 2.1760130984175628e-8 2.17432981857335e-8 2.3219853419493704e-8 2.3120880401183054e-8 2.1508917698953656e-8
          2.2616993853324636e-8 1.9528536775871638e-8 1.985686012946193e-8 2.1680795902479732e-8 2.0499720318149064e-8 2.0459477413017545e-8
          2.1142846505638945e-8 1.9627584815419152e-8 2.0073612687501025e-8 2.1270291387071215e-8 2.2530360074733945e-8 2.1726325620896528e-8
          1.441442734003371e-8 1.582693500746059e-8 1.5460166616810736e-8 1.7104754008208478e-8 1.809349481995687e-8 1.9641186379288718e-8
          9.937529523924929e-9 1.2546886073582321e-8 1.3366034640713208e-8 1.672750862813897e-8 2.0255271027401045e-8 2.1756712479145265e-8
          2.156299508977582e-8 2.2980393599319317e-8 1.968095783129211e-8 2.1191877393439603e-8 2.1063141029545988e-8 3.4277900524486062e-9
          4.074267108069021e-9 3.9866983776900424e-9 3.750676115232881e-9 7.2026771791388695e-9 2.8342120514482623e-9 3.3435013671241474e-9
          2.8328796371459124e-9 5.770522478968404e-9 2.4776527266332423e-8 2.4150542196297264e-8 2.4150294153919064e-8 2.234829584193098e-8
          1.1697719160531351e-8 1.1260249476450684e-8 1.0311928968398075e-8 2.4499138568229086e-8 2.372248785466643e-8 1.9314947484390655e-8
          2.14112887135853e-8 1.9557581692482453e-8 1.9124054724429564e-8 1.794312882736504e-8 8.92458916064418e-9 7.2221027307164195e-9
          1.8216579446953047e-8 1.472072260923059e-8 1.655641860783926e-8 2.913974801923552e-9 2.8524540551654928e-9 3.712076044781065e-9
          3.626147152226595e-9 2.0145812219432552e-9 2.998466179776082e-9 2.919258111713097e-9 2.662905379467906e-9 3.383583834431934e-9
          2.690474697504338e-9 6.685755920107774e-9 6.481526557342201e-9 5.258937652529542e-9 5.960217554650808e-9 1.6134266303887012e-9
          1.5692504946980439e-9 2.376426051507067e-9 2.309167611676449e-9 1.2197832669761863e-9 1.8709193158727127e-9 1.8165577003583519e-9
          1.445389569082629e-9 2.1194456633311137e-9 1.6625618191419287e-9 4.458629702634691e-9 4.323463897505485e-9 3.942363859807841e-9
          2.3500472596266156e-9 2.9921601931187095e-9 1.6411216753622403e-9 2.34952265652711e-9 1.975702897291681e-9 2.514992691477143e-9
          1.9485609593495398e-9 5.1783111273115335e-9 4.163798385342498e-9 4.2512567814045764e-9 1.2659702383248647e-9 1.840580732299523e-9
          9.782653475588464e-10 1.436172122665269e-9 1.0572431835379082e-9 1.5142643788047194e-9 1.1725674868882944e-9 3.3821933437951297e-9
          2.731972086284895e-9 1.0854955837637951e-8 1.0479752699637891e-8 9.335035668012421e-9 9.036678769018281e-9 9.562697229669192e-9
          8.199984622767573e-9 1.7338387046795626e-8 1.6691807249724387e-8 1.52461590004297e-8 1.5012325877659323e-8 8.002702505589271e-9
          7.73663624668581e-9 6.995815584249451e-9 8.23719827651087e-9 6.999568816523819e-9 6.6730421025833775e-9 5.637241986849526e-9
          1.2682874347078465e-8 1.1385920384890859e-8 1.0138385686067718e-8 5.924128636726698e-9 4.703192879754701e-9 1.90427734595968e-9
          2.2687482484363212e-9 1.9565173736744147e-9 3.7629498739143954e-9 1.6027816662830932e-9 2.0007447294397618e-9 1.1376816521155842e-9
          1.5266733493107537e-9 1.4193746067076757e-9 1.7288750529709122e-9 1.314370741618082e-9 3.336989966449061e-9 2.6094303934948195e-9
          2.7756829069910524e-9 8.652427153504343e-10 1.174834012710831e-9 6.576333142518666e-10 9.021526127756977e-10 7.822347611169099e-10
          1.0053185775948722e-9 7.685869436654776e-10 2.068503585430903e-9 2.449516891366843e-8 2.4288052658434688e-8 2.5363898043611035e-8
          2.5083301949130706e-8 2.3501340017088915e-8 2.404251366348294e-8 2.3133273585724405e-8 2.334983220614757e-8 2.470960900516085e-8
          2.367090979098053e-8 2.5730129459466875e-8 2.5417109661408837e-8 2.571337659320024e-8 2.5297680343790503e-8 2.4117740869218204e-8
          2.3652476880554496e-8 2.5559469967372693e-8 2.5673404357165998e-8 2.6297619059024326e-8 2.585475724122699e-8 2.1533613256899837e-8
          2.152731483771666e-8 2.014548288282279e-8 1.977230820311782e-8 2.3625747249635795e-8 2.4439737122337665e-8 2.3476065743881267e-8
          2.1057330062452507e-8 2.021536655448496e-8 1.8983268249819402e-8 1.6533239694191268e-8 2.4824522245142117e-8 2.4731630611426144e-8
          2.3726868754789553e-8 1.6276495015079134e-8 1.8155408153744587e-8 1.722174585733727e-8 1.9141447463225027e-8 2.099293190307429e-8
          2.2065535662672866e-8 1.0500253419713897e-8 1.4036715015766149e-8 1.4879986660470698e-8 1.9298428416434374e-8 1.829608487025431e-8
          2.0059865784894765e-8 1.8994039558468387e-8 2.0635124129842632e-8 2.2836578674561805e-8 2.3369743383207848e-8 1.2434350156467905e-8
          1.5884654323608774e-8 1.6628325251409192e-8 2.078783589152073e-8 2.3113933725210134e-8 2.4205654415044514e-8 2.4276324936681726e-8
          2.534138657385608e-8 2.2486017772465903e-8 2.3462409536417452e-8 2.3948355323881458e-8 2.49193409784652e-8 2.5210834326543986e-8
          2.598917130734202e-8 2.3839173982888477e-8 2.4087718144598146e-8 2.4388518648435504e-8 2.5934722996904473e-8 2.5209536746998935e-8
          2.4619710339005996e-8 2.3952594315859383e-8 2.322895167378495e-8 2.2610861430859665e-8 2.0999707699340926e-8 2.6381839048748843e-8
          2.6510513559711952e-8 2.6082036719788164e-8 2.6299718930784167e-8 1.9047663909748816e-8 1.7455340665653417e-8 2.4122694746110006e-8
          2.286082838756286e-8 1.9276110769816807e-8 2.0844418523776123e-8 1.9374268841460567e-8 2.0799671380806765e-8 2.367635402977475e-8
          2.3614739657362153e-8 1.4379419965241481e-8 1.6919908640570637e-8 1.6780271903208125e-8 2.125956294381457e-8 2.510752549427466e-8
          2.4488160445746342e-8 2.4451288046679494e-8 2.4122969177946707e-8 5.560890430005387e-9 1.6888789962767155e-9 1.3645312192027618e-9
          3.991014983536028e-9 9.961726981870333e-9 2.1454695778486242e-9 2.7294065599000614e-8 1.1485095623207198e-8 5.384793800221826e-8
          4.536393818898501e-8 6.11944743307061e-9 1.239046698437526e-8 2.8867080076137573e-8 2.6868601231546775e-9 7.292578091403164e-8
          5.7545180743953214e-8 2.2862425727700004e-8 6.683981941388186e-8 8.533936293299023e-8 8.123287905851095e-8 7.477807335735019e-8
          7.923905424126346e-8 6.908025193085438e-8 6.407019935217515e-8 5.799502252895844e-8 6.297631115475256e-8 7.598732817200976e-8
          3.8151254708927855e-8 4.29806849924489e-8 7.425381314461781e-8 2.8635732016128245e-8 3.314749322492934e-8 8.090415908106574e-8
          5.478583376787048e-8 7.628303462302996e-8 1.0401795201468724e-7 8.315310093320457e-8 1.154790600938525e-7 4.473422995600644e-8
          2.5315248580635446e-8 2.685268792798172e-9 6.953241539302063e-9 3.505973733447344e-9 1.7874438530709002e-8 2.172411843801306e-8
          2.021271454053168e-8 2.02564686324641e-8 2.02462603815251e-8 1.7646571144311847e-8 1.7998148669508163e-8 1.879135862088193e-8
          1.861414413253218e-8 1.9564834599892725e-8 1.8937371161131768e-8 1.9887643413760842e-8 1.3155699552722167e-8 1.4387419488139669e-8
          1.644349111989973e-8 9.330450546408103e-9 1.1567360464178154e-8 1.5224013000392407e-8 1.8666805819794176e-8 2.0065768823346063e-8
          1.8073849879319933e-8
        </DataArray>
        <DataArray type="Float64" Name="gradient_matprop_error" format="ascii" RangeMin="0" RangeMax="0">
          0 0 0 0 0 0
          0 0 0 0 0 0
          0 0 0 0 0 0
          0 0 0 0 0 0
          0 0 0 0 0 0
          0 0 0 0 0 0
          0 0 0 0 0 0
          0 0 0 0 0 0
          0 0 0 0 0 0
          0 0 0 0 0 0
          0 0 0 0 0 0
          0 0 0 0 0 0
          0 0 0 0 0 0
          0 0 0 0 0 0
          0 0 0 0 0 0
          0 0 0 0 0 0
          0 0 0 0 0 0
          0 0 0 0 0 0
          0 0 0 0 0 0
          0 0 0 0 0 0
          0 0 0 0 0 0
          0 0 0 0 0 0
          0 0 0 0 0 0
          0 0 0 0 0 0
          0 0 0 0 0 0
          0 0 0 0 0 0
          0 0 0 0 0 0
          0 0 0 0 0 0
          0 0 0 0 0 0
          0 0 0 0 0 0
          0 0 0 0 0 0
          0 0 0 0 0 0
          0 0 0 0 0 0
          0 0 0 0 0 0
          0 0 0 0 0 0
          0 0 0 0 0 0
          0 0 0 0 0 0
          0 0 0 0 0 0
          0 0 0 0 0 0
          0 0 0 0 0 0
          0 0 0 0 0 0
          0 0 0 0 0 0
          0 0 0 0 0 0
          0 0 0 0 0 0
          0 0 0 0 0 0
          0 0 0 0 0 0
          0 0 0 0 0 0
          0 0 0 0 0 0
          0 0 0 0 0 0
          0 0 0 0 0 0
          0 0 0 0 0 0
          0 0 0 0 0 0
          0 0 0 0 0 0
          0 0 0 0 0 0
          0 0 0 0 0 0
          0 0 0 0 0 0
          0 0 0 0 0 0
          0 0 0 0 0 0
          0 0 0 0 0 0
          0 0 0 0 0 0
          0 0 0 0 0 0
          0 0 0 0 0 0
          0 0 0 0 0 0
          0 0 0 0 0 0
          0 0 0 0 0 0
          0 0 0 0 0 0
          0 0 0 0 0 0
          0 0 0 0 0 0
          0 0 0 0 0 0
          0 0 0 0 0 0
          0
        </DataArray>
        <DataArray type="Float64" Name="initial_marker" format="ascii" RangeMin="0" RangeMax="2">
          0 1 0 2 2 2
          2 1 0.75 2 2 0.5
          2 2 0 0 0 0
          0 0 0 2 2 2
          2 2 2 2 2 2
          2 2 2 1.3333333333333333 2 2
          2 2 2 2 2 2
          2 1 1 2 2 1
          0.5 2 2 2 2 1
          1.5 0.3333333333333333 1.5 2 0 1.5
          0 0 2 2 2 2
          2 2 2 2 2 2
          2 2 2 2 2 2
          0 0 0 0 0 0
          0 0 0 0 0 0
          0 0 0 0 0 0
          0 0 0 0 0 0
          2 2 2 2 2 2
          2 2 2 2 2 2
          2 2 2 2 2 2
          2 2 2 2 2 2
          2 2 2 2 2 2
          2 2 2 2 2 2
          2 2 2 2 2 2
          2 2 2 2 2 2
          1.5 2 2 2 2 2
          2 2 2 2 2 2
          2 2 2 2 2 2
          2 2 2 2 2 2
          2 2 2 2 2 2
          2 2 2 2 2 2
          2 2 2 2 2 2
          2 2 2 2 2 2
          2 2 2 2 1 1.5
          1.5 2 2 2 2 2
          2 2 1 1.5 1.5 2
          2 2 2 2 2 2
          2 2 2 2 2 2
          2 2 2 2 2 2
          2 2 2 2 2 0
          1 1 2 0 1 0
          1 0 1 1 2 2
          2 0 1 0 1 0
          1 1 2 2 2 2
          2 2 2 2 2 2
          2 2 2 2 2 2
          2 2 2 2 2 2
          2 2 2 2 2 2
          2 2 2 2 2 2
          2 2 2 2 2 2
          2 2 2 2 2 2
          2 2 2 2 2 2
          2 2 2 2 2 2
          2 2 2 2 2 2
          2 2 2 2 2 2
          2 2 2 2 2 2
          2 2 2 2 2 2
          2 2 2 2 2 2
          2 2 2 2 2 2
          2 2 2 0 0 0
          0 0 0 0 0 0
          0 0 0 0 0 1
          1 0 0 2 2 2
          2 2 2 2 2 2
          1.5 1.5 2 1 1 1.5
          2 2 2 2 2 2
          1 0 0 0 0 2
          2 2 2 2 2 2
          2 2 2 2 2 2
          2 2 2 2 2 2
          2
        </DataArray>
        <DataArray type="Float64" Name="markers_norefine" format="ascii" RangeMin="0" RangeMax="2">
          0 0 0 2 0 0
          1 0 0 0 0 0
          2 1 0 0 0 0
          0 0 0 0 0 2
          2 0.5 2 0 0 0
          0 0 0 0 0 0
          0 0 0 0 0 0
          0 0 0 0 0 0
          0 0 0 0 0 0
          0 0 0 0 0 0
          0 0 2 2 2 1.5
          0.5 0 2 2 2 1
          1.5 0.75 2 2 0 0
          0 0 0 0 0 0
          0 0 0 0 0 0
          0 0 0 0 0 0
          0 0 0 0 0 0
          0 0 0 0 0 0
          0 1 1 1 1 1
          1 2 2 2 2 0.5
          0.5 0 0 1.5 1.5 1
          2 2 2 2 2 2
          2 2 2 2 2 2
          2 2 2 2 2 0
          0 0 0 0 0 0
          0 0 0 0 0 0
          0 0 0 0 0 0
          0 0 0 0 0 0
          0 0 0 0 0 0
          0 0 0 0 0 0
          0 0 0 0 0 0
          0 0 0 0 0 0
          0 0 0 0 0 0
          0 0 0 0 0 0
          0 0 0 0 0 0
          0 0 0 0 0 0
          0 0 0 0 0 0
          0 0 0 0 0 0
          0 0 0 0 0 0
          0 0 0 0 0 0
          0 0 0 0 0 0
          0 0 0 0 0 0
          0 0 0 0 0 0
          0 0 0 1 1 1
          1 1 1 2 2 2
          2 1 1 1 1 0.75
          0.5 2 2 2 1.75 0.5
          0.5 0 0 1.5 1.5 1
          0.25 0 0 0 1 0.5
          0.5 2 2 2 2 2
          2 2 2 2 2 2
          2 2 2 2 2 2
          2 2 2 2 2 2
          2 2 2 2 1.75 1.5
          1.5 0.6666666666666666 2 2 2 1
          0.75 0.5 0.25 0.25 0 2
          1.75 1.25 1.25 0 0 0.5
          0.25 2 2 2 2 2
          1.75 2 2 2 2 1.25
          0.75 1.5 1 0 0 0
          0 0 0 0 0 0
          0 0 0 0 0 0
          0 0 0 0 0 0
          0 0 0 0 0 0
          0 0 0 0 0 0
          0 0.5 0 1 0 0
          0 0 0 0 0 0
          1 1 1 2 2 2
          0 0.5 0 1.5 2 2
          2 2 2 2 2 2
          2
        </DataArray>
        <DataArray type="Float64" Name="markers_mustrefine" format="ascii" RangeMin="0" RangeMax="2">
          0 1 0 2 2 2
          2 1 0.75 2 2 0.5
          2 2 0 0 0 0
          0 0 0 2 2 2
          2 2 2 2 2 2
          2 2 2 1.3333333333333333 2 2
          2 2 2 2 2 2
          2 1 1 2 2 1
          0.5 2 2 2 2 1
          1.5 0.3333333333333333 1.5 2 0 1.5
          0 0 2 2 2 2
          2 2 2 2 2 2
          2 2 2 2 2 2
          0 0 0 0 0 0
          0 0 0 0 0 0
          0 0 0 0 0 0
          0 0 0 0 0 0
          2 2 2 2 2 2
          2 2 2 2 2 2
          2 2 2 2 2 2
          2 2 2 2 2 2
          2 2 2 2 2 2
          2 2 2 2 2 2
          2 2 2 2 2 2
          2 2 2 2 2 2
          1.5 2 2 2 2 2
          2 2 2 2 2 2
          2 2 2 2 2 2
          2 2 2 2 2 2
          2 2 2 2 2 2
          2 2 2 2 2 2
          2 2 2 2 2 2
          2 2 2 2 2 2
          2 2 2 2 1 1.5
          1.5 2 2 2 2 2
          2 2 1 1.5 1.5 2
          2 2 2 2 2 2
          2 2 2 2 2 2
          2 2 2 2 2 2
          2 2 2 2 2 0
          1 1 2 0 1 0
          1 0 1 1 2 2
          2 0 1 0 1 0
          1 1 2 2 2 2
          2 2 2 2 2 2
          2 2 2 2 2 2
          2 2 2 2 2 2
          2 2 2 2 2 2
          2 2 2 2 2 2
          2 2 2 2 2 2
          2 2 2 2 2 2
          2 2 2 2 2 2
          2 2 2 2 2 2
          2 2 2 2 2 2
          2 2 2 2 2 2
          2 2 2 2 2 2
          2 2 2 2 2 2
          2 2 2 2 2 2
          2 2 2 2 2 2
          2 2 2 0 0 0
          0 0 0 0 0 0
          0 0 0 0 0 1
          1 0 0 2 2 2
          2 2 2 2 2 2
          1.5 1.5 2 1 1 1.5
          2 2 2 2 2 2
          1 0 0 0 0 2
          2 2 2 2 2 2
          2 2 2 2 2 2
          2 2 2 2 2 2
          2
        </DataArray>
        <DataArray type="Float64" Name="gradient_marker" format="ascii" RangeMin="0" RangeMax="1">
          1 1 1 0 0.5 0.75
          0.5 0.5 0.375 0.25 0.25 1
          0 0.25 0.5 0.5 0.75 0.625
          1 1 1 0.5 0.75 0
          0 0.5 0 1 1 0
          0 0.5 0.5 0.3333333333333333 0.25 0.25
          0 0.375 0.125 0.5 0.5 0.25
          0.625 1 1 1 1 1
          1 1 1 1 1 0
          0.125 0.5 0.125 0.5 1 1
          1 1 0 0 0 0
          0.5 0.25 0 0 0 0.5
          1 1 1 1 0.875 1
          1 1 1 1 1 1
          1 1 1 1 1 1
          1 1 1 1 1 1
          1 1 1 1 1 1
          0 0 0 0 0 0
          0 0 0 0 0 0
          0 0 0 0 0 0
          0 0 0 0 0 0
          0 0 0 0 0 0
          0 0 0 0 0 0
          0 0 0 0 0 0
          0 0 0 0 0 0
          0 0 0 0 0 0
          0 0 0 0 0 0
          0 0 0 0 0 0
          0 0 0 0.5 0.5 0.5
          0.5 1 1 1 0.5 0.5
          1 0.5 0.5 1 0.5 1
          1 1 1 1 1 1
          1 1 1 1 1 1
          0.5 0.5 1 1 0.5 0.5
          1 0.5 1 0.5 1 1
          1 1 1 1 1 1
          1 0.5 0.5 1 1 0.5
          1 0.5 0.5 1 0.5 1
          1 1 0.5 1 0.5 1
          0.5 1 0.5 1 1 0
          0 0 0 0.5 0.5 1
          1 0.5 0.5 1 0.5 1
          0.5 1 1 1 1 1
          1 1 1 0 0 0
          0 0 0 0 0 0
          0 0 0 0 0 0
          0 0 0 0 0 0
          0 0 0 0 0 0
          0 0 0 0 0 0
          0 0 0 0 0 0
          0 0 0 0 0 0
          0 0 0 0 0 0
          0 0 0 0 0 0
          0 0 0 0 0 0
          0 0 0 0 0 0.5
          0.5 1 1 0.5 1 0.5
          0.5 1 0.5 0.5 1 0.5
          1 0.5 0.5 1 1 0.5
          1 0.5 0.5 1 0.5 0.5
          1 0.5 1 1 1 1
          1 0.5 1 0.625 0 0.5
          0.375 0.5 0.5 0.16666666666666666 1 0.5
          0.375 0.625 0.5 0.75 0.5 0.5
          0.625 0.5 0.5 0.5 0.5 0.75
          0.25 0.25 0.75 0 0 0.625
          0.5 0.5 1 0.5 1 0
          0 1 0.5 1 0.625 0
          0 0 0 0 0 0
          0 0 0 0 0 0
          0 0 0 0 0 0
          0
        </DataArray>
        <DataArray type="Float64" Name="gradient_matprop_marker" format="ascii" RangeMin="0" RangeMax="0">
          0 0 0 0 0 0
          0 0 0 0 0 0
          0 0 0 0 0 0
          0 0 0 0 0 0
          0 0 0 0 0 0
          0 0 0 0 0 0
          0 0 0 0 0 0
          0 0 0 0 0 0
          0 0 0 0 0 0
          0 0 0 0 0 0
          0 0 0 0 0 0
          0 0 0 0 0 0
          0 0 0 0 0 0
          0 0 0 0 0 0
          0 0 0 0 0 0
          0 0 0 0 0 0
          0 0 0 0 0 0
          0 0 0 0 0 0
          0 0 0 0 0 0
          0 0 0 0 0 0
          0 0 0 0 0 0
          0 0 0 0 0 0
          0 0 0 0 0 0
          0 0 0 0 0 0
          0 0 0 0 0 0
          0 0 0 0 0 0
          0 0 0 0 0 0
          0 0 0 0 0 0
          0 0 0 0 0 0
          0 0 0 0 0 0
          0 0 0 0 0 0
          0 0 0 0 0 0
          0 0 0 0 0 0
          0 0 0 0 0 0
          0 0 0 0 0 0
          0 0 0 0 0 0
          0 0 0 0 0 0
          0 0 0 0 0 0
          0 0 0 0 0 0
          0 0 0 0 0 0
          0 0 0 0 0 0
          0 0 0 0 0 0
          0 0 0 0 0 0
          0 0 0 0 0 0
          0 0 0 0 0 0
          0 0 0 0 0 0
          0 0 0 0 0 0
          0 0 0 0 0 0
          0 0 0 0 0 0
          0 0 0 0 0 0
          0 0 0 0 0 0
          0 0 0 0 0 0
          0 0 0 0 0 0
          0 0 0 0 0 0
          0 0 0 0 0 0
          0 0 0 0 0 0
          0 0 0 0 0 0
          0 0 0 0 0 0
          0 0 0 0 0 0
          0 0 0 0 0 0
          0 0 0 0 0 0
          0 0 0 0 0 0
          0 0 0 0 0 0
          0 0 0 0 0 0
          0 0 0 0 0 0
          0 0 0 0 0 0
          0 0 0 0 0 0
          0 0 0 0 0 0
          0 0 0 0 0 0
          0 0 0 0 0 0
          0
        </DataArray>
        <DataArray type="Float64" Name="combo" format="ascii" RangeMin="0" RangeMax="2">
          1 1 1 2 0.5 0.75
          1.5 0.5 0.375 0.25 0.25 1
          2 1.25 0.5 0.5 0.75 0.625
          1 1 1 0.5 0.75 2
          2 1 2 1 1 0
          0 0.5 0.5 0.3333333333333333 0.25 0.25
          0 0.375 0.125 0.5 0.5 0.25
          0.625 1 1 1 1 1
          1 1 1 1 1 0
          0.125 0.5 0.125 0.5 1 1
          1 1 2 2 2 1.5
          1 0.25 2 2 2 1.5
          1.75 1.375 2 2 0.875 1
          1 1 1 1 1 1
          1 1 1 1 1 1
          1 1 1 1 1 1
          1 1 1 1 1 1
          0 0 0 0 0 0
          0 1 1 1 1 1
          1 2 2 2 2 0.5
          0.5 0 0 1.5 1.5 1
          2 2 2 2 2 2
          2 2 2 2 2 2
          2 2 2 2 2 0
          0 0 0 0 0 0
          0 0 0 0 0 0
          0 0 0 0 0 0
          0 0 0 0 0 0
          0 0 0 0.5 0.5 0.5
          0.5 1 1 1 0.5 0.5
          1 0.5 0.5 1 0.5 1
          1 1 1 1 1 1
          1 1 1 1 1 1
          0.5 0.5 1 1 0.5 0.5
          1 0.5 1 0.5 1 1
          1 1 1 1 1 1
          1 0.5 0.5 1 1 0.5
          1 0.5 0.5 1 0.5 1
          1 1 0.5 1 0.5 1
          0.5 1 0.5 1 1 0
          0 0 0 0.5 0.5 1
          1 0.5 0.5 1 0.5 1
          0.5 1 1 1 1 1
          1 1 1 1 1 1
          1 1 1 2 2 2
          2 1 1 1 1 0.75
          0.5 2 2 2 1.75 0.5
          0.5 0 0 1.5 1.5 1
          0.25 0 0 0 1 0.5
          0.5 2 2 2 2 2
          2 2 2 2 2 2
          2 2 2 2 2 2
          2 2 2 2 2 2
          2 2 2 2 1.75 1.5
          1.5 0.6666666666666666 2 2 2 1.25
          1.125 1.25 1.125 0.75 1 2
          1.875 1.625 1.5 0.5 1 0.875
          1.125 2 2 2 2 2
          1.875 2 2 2 2 1.5
          1.375 1.75 1.5 1 1 1
          1 0.5 1 0.625 0 0.5
          0.375 0.5 0.5 0.16666666666666666 1 0.5
          0.375 0.625 0.5 0.75 0.5 0.5
          0.625 0.5 0.5 0.5 0.5 0.75
          0.25 0.25 0.75 0 0 0.625
          0.5 1 1 1.5 1 0
          0 1 0.5 1 0.625 0
          1 1 1 2 2 2
          0 0.5 0 1.5 2 2
          2 2 2 2 2 2
          2
        </DataArray>
        <DataArray type="Float64" Name="dHdT" format="ascii" RangeMin="25.813887059271266" RangeMax="58.3641205887306">
          25.83126875681165 26.268704390707434 25.97219263783233 46.28249458297958 41.29760891174386 35.16213415587945
          49.797829861121734 27.31677877092626 26.889654546279925 37.28512225862461 33.214750546445906 26.125351594536156
          46.26444194124927 45.28122576820908 25.881685881507156 25.87886379599598 26.128555852019808 26.073938328372083
          25.842432987971183 25.88207640002721 25.870237572998796 38.97521618553224 32.43028962297385 52.376689036671635
          54.74979477709738 44.229592332038365 48.8772579716418 36.22150217868686 38.21067373111869 29.16475500391728
          28.85663032398852 31.921028144796963 31.48370695868567 27.376950361570366 30.709216463545634 30.206591936239477
          28.12927379740028 30.16541188798565 28.973499728321197 39.8178443974214 37.01148694040189 35.7568295852233
          34.058975866320466 26.619695571156146 26.547530186620428 28.59854401332407 28.244033256698206 26.226333452417478
          26.378682053797586 27.48195879442706 35.09512977382324 34.10556827235453 30.982045191497164 27.344983845068434
          28.467725675079855 26.619827039910405 27.627603044892954 31.1515332691569 26.21978213405383 26.74163177785186
          26.035634161934777 26.15857859781366 51.20491453325266 53.3436701218638 52.51564231055251 51.41036075387585
          41.71981478415116 39.28550854308868 46.28472857359807 49.622775159547345 51.38571217142909 47.63206419336625
          51.65978380435014 46.62199893927277 46.156953114174 55.688662782372546 34.68331772646407 36.654036419705605
          26.075306274200003 26.30763566613313 26.272643437884497 26.18959069452879 26.020294562264503 26.00869963867187
          26.191864494710714 26.165059389955744 25.91260171894001 26.01486693050241 26.000302280499803 25.980053740984438
          26.100134865695747 25.964058271101397 25.98850244053417 26.090251204694685 26.038972229967666 25.94586831429214
          26.02479085489778 25.88219931933089 25.92487682857859 25.92873386169465 25.98756626360484 25.907374745451577
          49.68936986844261 47.75090180905259 46.28955583561687 43.61976942531945 39.42106471166167 38.963798652162644
          37.41502432234702 54.8452807941824 53.51544870223795 52.88839344775114 52.062070591876214 50.361568691117505
          49.380298078943504 53.070603247135416 53.3427812460347 52.82890991549251 55.218952359981174 45.03409259465243
          43.932263228288875 41.530664417363326 40.339678034692014 53.75133661887412 52.5921578128675 50.6797277627199