<?xml version="1.0"?>
<VTKFile type="UnstructuredGrid" version="0.1" byte_order="LittleEndian" header_type="UInt32" compressor="vtkZLibDataCompressor">
  <UnstructuredGrid>
    <Piece NumberOfPoints="529" NumberOfCells="314">
      <PointData>
        <DataArray type="Int32" Name="libmesh_node_id" format="ascii" RangeMin="469" RangeMax="4429">
          469 715 1165 1168 1173 1175
          1197 1199 1200 1207 1208 1671
          1673 1676 2210 2211 2212 2218
          2220 2221 2222 2223 2224 2225
          2226 2230 2231 2232 2256 2257
          2262 2264 2265 2266 2267 2268
          2269 2270 2271 2272 2273 2312
          2313 2314 2315 2316 2317 2318
          2322 2323 2324 2325 2326 2327
          2328 2329 2360 2361 2362 2363
          2364 2365 2366 2367 2368 2369
          2691 2692 2693 2698 2699 2700
          2701 2702 2703 2704 2708 2709
          2710 2711 3713 3719 3721 3722
          3723 3724 3725 3726 3727 3729
          3730 3731 3732 3733 3734 3735
          3736 3737 3738 3739 3740 3741
          3742 3743 3744 3745 3746 3747
          3748 3775 3776 3778 3781 3791
          3793 3795 3809 3810 3812 3815
          3825 3829 3831 3832 3833 3834
          3835 3836 3837 3838 3839 3840
          3841 3842 3843 3844 3845 3846
          3847 3848 3849 3850 3851 3852
          3853 3854 3855 3856 3857 3858
          3859 3860 3861 3862 3863 3864
          3865 3866 3867 3868 3869 3870
          3871 3872 3873 3874 3875 3876
          3877 3878 3879 3880 3881 3882
          3883 3884 3885 3886 3887 3888
          3889 3890 3891 3892 3893 3894
          3895 3896 3897 3898 3923 3924
          3925 3928 3930 3934 3935 3936
          3937 3938 3939 3940 3941 3943
          3945 3947 3961 3962 3963 3964
          3965 3966 3967 3968 3969 3970
          3971 3972 3973 3974 3975 3976
          3977 3978 3979 3980 3981 3982
          3983 3984 3985 3986 3987 3988
          3989 3990 3991 3992 3996 3997
          3999 4000 4001 4002 4006 4007
          4009 4010 4011 4012 4013 4014
          4015 4016 4017 4018 4019 4020
          4021 4022 4023 4024 4025 4026
          4027 4028 4029 4030 4031 4032
          4033 4034 4035 4036 4037 4038
          4039 4040 4041 4042 4043 4044
          4045 4046 4047 4048 4049 4050
          4051 4052 4053 4054 4055 4056
          4071 4072 4073 4074 4078 4079
          4091 4092 4095 4097 4098 4100
          4111 4113 4115 4117 4233 4234
          4235 4236 4237 4238 4239 4240
          4241 4242 4243 4244 4245 4246
          4247 4248 4249 4250 4251 4252
          4253 4254 4255 4256 4257 4258
          4259 4260 4261 4262 4263 4264
          4265 4266 4267 4268 4269 4270
          4271 4272 4273 4274 4275 4276
          4277 4278 4279 4280 4281 4282
          4283 4284 4285 4286 4287 4288
          4289 4290 4291 4292 4293 4294
          4295 4296 4297 4298 4299 4300
          4301 4302 4305 4307 4308 4310
          4321 4323 4325 4327 1653 1656
          1657 1654 1163 1167 1164 556
          1672 1655 1674 724 1675 1677
          2206 2207 2208 2209 2213 2215
          2214 2216 2217 1166 2219 2227
          2228 2229 2233 1169 2251 2242
          2259 2281 2275 2252 2282 2283
          2277 2279 2285 2287 1176 2705
          2706 2694 2707 2319 1198 2715
          2716 2333 3711 3712 3773 3774
          3714 3777 3779 3780 3782 3718
          3790 3720 3792 3794 3796 3807
          3808 3811 3813 3814 3816 3824
          3827 3826 3828 1174 3830 3907
          3917 3919 3921 3929 3942 3944
          3946 2286 3993 3994 3728 3995
          3998 2320 4003 4004 4005 4008
          2321 4075 4076 4077 4080 2334
          4132 3755 4145 3756 4133 4146
          4149 3758 4150 4142 4152 4143
          4153 4156 4157 4186 4199 4203
          4369 3926 4370 4373 4374 4376
          4377 4380 4381 4397 4398 4401
          4402 4404 4405 4408 4409 4425
          4429
        </DataArray>
        <DataArray type="Float64" Name="bounds" format="ascii" RangeMin="0" RangeMax="0">
          0 0 0 0 0 0
          0 0 0 0 0 0
          0 0 0 0 0 0
          0 0 0 0 0 0
          0 0 0 0 0 0
          0 0 0 0 0 0
          0 0 0 0 0 0
          0 0 0 0 0 0
          0 0 0 0 0 0
          0 0 0 0 0 0
          0 0 0 0 0 0
          0 0 0 0 0 0
          0 0 0 0 0 0
          0 0 0 0 0 0
          0 0 0 0 0 0
          0 0 0 0 0 0
          0 0 0 0 0 0
          0 0 0 0 0 0
          0 0 0 0 0 0
          0 0 0 0 0 0
          0 0 0 0 0 0
          0 0 0 0 0 0
          0 0 0 0 0 0
          0 0 0 0 0 0
          0 0 0 0 0 0
          0 0 0 0 0 0
          0 0 0 0 0 0
          0 0 0 0 0 0
          0 0 0 0 0 0
          0 0 0 0 0 0
          0 0 0 0 0 0
          0 0 0 0 0 0
          0 0 0 0 0 0
          0 0 0 0 0 0
          0 0 0 0 0 0
          0 0 0 0 0 0
          0 0 0 0 0 0
          0 0 0 0 0 0
          0 0 0 0 0 0
          0 0 0 0 0 0
          0 0 0 0 0 0
          0 0 0 0 0 0
          0 0 0 0 0 0
          0 0 0 0 0 0
          0 0 0 0 0 0
          0 0 0 0 0 0
          0 0 0 0 0 0
          0 0 0 0 0 0
          0 0 0 0 0 0
          0 0 0 0 0 0
          0 0 0 0 0 0
          0 0 0 0 0 0
          0 0 0 0 0 0
          0 0 0 0 0 0
          0 0 0 0 0 0
          0 0 0 0 0 0
          0 0 0 0 0 0
          0 0 0 0 0 0
          0 0 0 0 0 0
          0 0 0 0 0 0
          0 0 0 0 0 0
          0 0 0 0 0 0
          0 0 0 0 0 0
          0 0 0 0 0 0
          0 0 0 0 0 0
          0 0 0 0 0 0
          0 0 0 0 0 0
          0 0 0 0 0 0
          0 0 0 0 0 0
          0 0 0 0 0 0
          0 0 0 0 0 0
          0 0 0 0 0 0
          0 0 0 0 0 0
          0 0 0 0 0 0
          0 0 0 0 0 0
          0 0 0 0 0 0
          0 0 0 0 0 0
          0 0 0 0 0 0
          0 0 0 0 0 0
          0 0 0 0 0 0
          0 0 0 0 0 0
          0 0 0 0 0 0
          0 0 0 0 0 0
          0 0 0 0 0 0
          0 0 0 0 0 0
          0 0 0 0 0 0
          0 0 0 0 0 0
          0 0 0 0 0 0
          0
        </DataArray>
        <DataArray type="Float64" Name="gradient_error" format="ascii" RangeMin="4.871645022220031e-12" RangeMax="1.4082047903165055e-7">
          2.394695980489088e-8 4.898396069719642e-9 1.3037196266350996e-7 6.459898782248123e-8 5.294698614163345e-9 5.203656783738946e-8
          1.904774223026879e-10 1.5196538848256627e-8 6.21391842565974e-9 2.6064004631035012e-8 2.773097109014814e-8 7.159268167705854e-11
          5.380608615017642e-11 4.871645022220031e-12 2.3509928240360634e-8 1.1623427050248007e-7 1.0229673921625982e-7 1.15774057986595e-7
          1.6374491627379112e-8 1.5041822629754014e-8 9.264677348628424e-8 8.051909609401248e-8 4.246760886237302e-9 4.3398462567775996e-8
          3.7320019407159694e-8 1.1121371453151075e-7 9.713201986665516e-8 5.5069089774628664e-8 4.981622007038917e-8 5.584448150290116e-8
          4.023511814322957e-8 5.603912809205327e-8 5.944690473409989e-8 5.7017958411860455e-8 5.6478231506678786e-8 9.011711256682478e-8
          6.035095375388633e-8 8.132807244011735e-9 4.713904285229658e-8 5.16462141256777e-8 5.567737116924146e-8 3.7521288991114575e-10
          3.300275305609776e-10 3.6227254411299005e-9 2.953053246898918e-9 1.668901742264044e-10 1.786871844006971e-9 1.4311229204816446e-9
          2.4480069993430208e-8 2.004195141579387e-8 1.2282964872399066e-8 1.0651073302800508e-8 7.594162306147058e-11 6.632640001055101e-11
          8.039496815638578e-10 6.386635692663574e-10 4.7389477204983454e-8 4.643120466004393e-8 3.456849695579177e-8 3.3088095677326375e-8
          3.126383796304079e-8 1.9996755433568692e-8 3.422059141653749e-8 4.6102089671975057e-8 3.4356723968334056e-8 4.1466019553926465e-8
          2.465406562413946e-10 3.9521843519437076e-10 3.4395446411515955e-10 1.7325536233419074e-10 1.4783939401009117e-10 2.921303464786146e-10
          2.56556370926323e-10 3.0960649449671164e-11 1.2959026949744872e-10 1.1605295136338036e-10 9.290771996634655e-12 8.411138974167745e-12
          4.846981606552812e-11 4.355240132390574e-11 5.3316026795318066e-8 4.527639442383365e-8 8.715317786454322e-10 1.297724155933738e-9
          1.250637472617326e-9 1.131462303925501e-9 6.631328147746798e-9 6.89190353429196e-10 9.580306945465896e-10 4.47229802640656e-9
          5.447002549001368e-8 5.355123531954895e-8 5.242699498284539e-8 5.015332915106127e-8 1.525718598715509e-8 1.4428320393356252e-8
          1.2606996040897018e-8 5.106097087834473e-8 4.957137849958486e-8 3.560438412350119e-8 4.450247399767448e-8 4.3492100272410423e-8
          4.034183803498095e-8 3.9309987391782535e-8 1.0103330626029992e-8 7.06563168840539e-9 3.589979723912506e-8 2.4764802035116388e-8
          3.087643260372613e-8 5.658312674263139e-8 5.578338906473126e-8 5.320898020013924e-8 5.278000257883845e-8 4.881129846211077e-8
          4.618828791077419e-8 5.424516003261644e-8 2.2987842236802284e-8 3.279840422554406e-8 4.798534326489219e-8 1.828755462755567e-8
          5.40160052183974e-8 5.188789287194981e-8 5.777524100865408e-8 5.683318761606155e-8 5.7397684412471866e-8 5.639386538189422e-8
          5.3886511662993716e-8 5.3137562307554806e-8 5.286192659314525e-8 5.567979492314979e-8 5.8109995470340816e-8 5.8258252305841845e-8
          5.537607366424095e-8 5.4314293262740716e-8 5.1716830694720566e-8 5.0618504110902387e-8 5.077885379938893e-8 4.693869183220213e-8
          5.7999155370852136e-8 5.899861572028811e-8 5.7331346259642065e-8 5.891153124174345e-8 4.840567624981372e-8 4.670871092261865e-8
          4.492946339710901e-8 4.2532343581444265e-8 5.5860728655630916e-8 5.614936318072639e-8 5.175416841621708e-8 4.3628390358915975e-8
          3.945248720772958e-8 3.895158598029461e-8 3.0064646253901e-8 5.49100811518087e-8 5.201262379817108e-8 4.929996299527574e-8
          2.468957986716893e-8 3.53186060140211e-8 2.946203416050334e-8 3.9389316118252123e-8 5.122752462173875e-8 5.4012698940213055e-8
          4.735763075341867e-9 1.939276209431675e-8 2.2919377076765685e-8 4.355823880671998e-8 3.597335439266092e-8 4.3819404751677194e-8
          4.055295219982781e-8 4.650478351623062e-8 5.546937162737462e-8 5.503113173815857e-8 1.563957449375472e-8 2.8698786088674757e-8
          3.478917037863418e-8 5.017091437236571e-8 5.658889049418275e-8 5.7994560138874377e-8 5.377343552076558e-8 5.3928126019568604e-8
          5.477557590432068e-8 5.676597772655234e-8 5.519008811842329e-8 5.792544085637096e-8 5.6138208261789994e-8 5.261028479385137e-8
          4.95858143365896e-8 5.7387702887831416e-8 5.6253408407477844e-8 5.478399477322068e-8 4.375567583313091e-8 4.125202682991442e-8
          3.9654078323075556e-8 3.750352758339665e-8 3.1097517960675235e-8 4.6047221907770023e-8 4.397955044367908e-8 4.1217936679770144e-8
          3.7383169321544535e-8 4.8338767982409136e-8 4.670707405744374e-8 4.278179503646473e-8 4.0568315336986963e-8 3.2493654654957336e-8
          4.3633103090577284e-8 3.388979134923943e-8 6.4831831090802e-10 6.296412470935199e-10 1.225293406481252e-9 1.1761463047877573e-9
          3.2820082345849616e-10 9.669453672090278e-10 9.231213066355009e-10 5.764201436138709e-10 1.0466879618741676e-9 8.036556458732654e-10
          5.642447271095057e-9 5.342921390350011e-9 3.4425863653436894e-9 4.601132040576706e-9 2.3525842080390563e-10 2.2573140347286234e-10
          6.523500602212174e-10 6.217052033931312e-10 1.51140589915107e-10 4.3580932502157557e-10 4.149310033174811e-10 1.989884620020251e-10
          5.382598916880616e-10 3.5812111717179403e-10 2.5483874378652606e-9 2.41573163861477e-9 1.690351724436962e-9 2.057146928971493e-9
          4.931785303651439e-10 8.636733867821435e-10 2.451973379573758e-10 6.395342469984195e-10 3.5925106650630663e-9 2.285413957552432e-9
          1.6137930928938588e-10 4.241381604637947e-10 1.0697132619624347e-10 2.805844303742032e-10 1.574425754749443e-9 1.0860372706863125e-9
          1.3470123057634602e-8 1.2773617440860077e-8 1.0399538339635802e-8 9.885723539599495e-9 1.1086731686447262e-8 8.476307084587977e-9
          2.8904195875617852e-8 2.761077499635081e-8 2.3316129562195672e-8 2.4009561583587754e-8 8.017336973420695e-9 7.603672323692861e-9
          5.997740706259059e-9 5.674774174437105e-9 6.47283552881471e-9 4.794280755201841e-9 1.9687898153041974e-8 1.8695701664792768e-8
          1.442276504639263e-8 1.5968714991646774e-8 8.763718714385544e-9 6.535463011297996e-9 6.126484307411989e-9 4.518975501485926e-9
          1.8783170229663615e-8 1.5440433293498174e-8 1.324154758756911e-8 4.920054738020889e-9 3.59459632634878e-9 3.3256920998671074e-9
          2.3850234228976667e-9 1.2204233779091857e-8 9.31015365404534e-9 8.285082972075469e-9 1.0193781673016394e-10 9.760385573329987e-11
          2.8688248717943247e-10 2.728451022795289e-10 6.146718351760199e-11 1.8410236021237736e-10 1.7497461633420412e-10 8.560943087628814e-11
          2.347458573641742e-10 1.5026374833006285e-10 1.2181264185382658e-9 1.1510811041945209e-9 7.589918455735777e-10 9.71434559082054e-10
          6.905488153424807e-11 1.83046060039366e-10 4.388361484542774e-11 1.167877096544644e-10 7.32834441026076e-10 4.79241879217794e-10
          4.314959773570188e-9 4.070283000404836e-9 3.4087133380565473e-9 1.1325986023153663e-8 1.0738430086992636e-8 9.107624427068235e-9
          2.5239911292846715e-9 1.651790954578221e-9 6.828623521627547e-9 4.470424996454205e-9 4.661107161929255e-8 4.5548807427822254e-8
          4.07324305800116e-8 3.9678332853052645e-8 4.188796807169696e-8 3.601453760792352e-8 5.312341080191621e-8 5.3196407662743694e-8
          4.7428891805830084e-8 5.220195207041812e-8 3.450332285347449e-8 3.3391684072919575e-8 2.8078798602951332e-8 2.6991496885711412e-8
          2.9777185212484814e-8 2.368307980937483e-8 4.08510429252973e-8 4.0930578026470735e-8 3.4533991556623735e-8 3.9840718267231154e-8
          3.4505052687862626e-8 2.9077745288331986e-8 2.4577522450813374e-8 2.0384068242718172e-8 4.739563633222944e-8 4.141454550117777e-8
          3.663536181865325e-8 2.3606249885088976e-8 1.84670158350554e-8 1.6304008166356226e-8 1.2575164301333125e-8 3.4742999086227436e-8
          2.801573035071174e-8 2.5473359061116036e-8 4.210532365018862e-8 4.650897894748632e-8 4.06733642855555e-8 4.3504416032863e-8
          5.228922465156129e-8 4.733014467697919e-8 3.083519725902779e-8 3.9085250895930296e-8 3.92797711741039e-8 5.041951321038033e-8
          3.589487172625159e-8 3.791347669482439e-8 3.015045822745779e-8 3.208684357348972e-8 4.1215795637023874e-8 3.52113813202135e-8
          3.1725847773523e-8 3.475132252643051e-8 2.8890734029089667e-8 4.0076003702322065e-8 5.236550069576655e-8 4.689414969104823e-8
          4.4951825998422734e-8 3.897025015713789e-8 5.296007798531634e-8 4.776780163293914e-8 4.745520202764103e-8 4.042517275298964e-8
          3.3649018245903424e-8 3.2287476341064185e-8 2.5696563284384216e-8 4.1546534523699764e-8 3.5051615798280584e-8 3.463373241052746e-8
          2.1749377276823287e-8 2.081350593016486e-8 1.8050467508735856e-8 2.865394798869422e-8 2.8347701704701724e-8 2.6403705501106754e-8
          1.3894023001230417e-8 9.327127124812186e-9 2.1625070953387925e-8 1.5096209048137387e-8 5.583682268189625e-9 1.6397693544206753e-9
          1.3409965000966477e-9 4.7086856150686715e-9 1.8172661736767e-8 3.5853141665252166e-9 1.318006614305584e-8 2.4622110685430113e-10
          4.930249523320211e-11 2.3764947428331116e-10 3.6179879218930015e-11 1.4861745494293052e-11 6.480696599838186e-12 5.801331389745017e-12
          3.8374746213901445e-8 3.4480381374409534e-8 1.3472545217297457e-7 1.2014877658368988e-7 2.543139331568443e-8 6.757425073097576e-8
          8.260792339453247e-8 1.4082047903165055e-7 1.270621116316545e-7 1.3044979686334877e-7 1.1736487392336473e-7 1.144310881214461e-8
          5.1441613860946314e-8 2.3233803729082575e-8 1.062285357798997e-7 5.319535724882028e-8 8.92993960749856e-8 1.1081023833676519e-7
          9.945883720069181e-8 1.0730335140126944e-7 1.3173909374973346e-7 4.171028129456809e-8 5.39846070946325e-8 5.635314586339618e-8
          8.718254815097737e-8 9.791200656044335e-8 7.880882659199914e-8 7.101910782517762e-8 1.3666918476171687e-7 1.0317957484596149e-10
          1.8448471902332428e-10 2.467821310885331e-10 8.372293790943852e-11 2.2852052964461941e-10 1.1249077892490501e-10 6.8276364824056395e-12
          3.086618042866947e-11 4.4282501479695004e-11 5.294903822748602e-8 5.2127406101056925e-8 5.417124446456416e-8 5.3584411423643966e-8
          4.980717012848672e-8 5.1504197528544254e-8 4.719381480574766e-8 4.9755136280816146e-8 5.259614669002118e-8 4.593373385103223e-8
          4.823298806267499e-8 4.355890141971884e-8 4.645515945098524e-8 5.175267521685634e-8 4.945687626227724e-8 2.3462739513307484e-8
          3.153291367133374e-8 4.465081003839377e-8 7.931300116761953e-9 1.859697152726619e-8 3.7310551625346976e-8 5.0798888297046885e-8
          5.2402875289268706e-8 5.00505349907463e-8 4.862466843469883e-8 5.345128910440811e-8 5.059146432920255e-8 4.514709498732657e-8
          4.695849770997823e-8 4.3781534962715286e-8 4.876990043262989e-8 2.9270897413758967e-8 3.600995019579281e-8 2.2234892108699214e-8
          3.904581717279978e-8 4.3130452374864504e-8 3.922226750542154e-10 6.623410479108548e-10 7.584584839464176e-10 4.675967812700149e-10
          2.517552046988969e-9 1.5973440417631981e-9 1.2280883773619354e-10 3.0574478867434304e-10 2.005282728953731e-10 1.086208738638529e-9
          7.408234045900857e-10 5.2023813852541365e-11 1.3006983762508845e-10 8.254682360136825e-11 4.953916507167432e-10 3.2154774632927457e-10
          1.6491036213952095e-9 2.0789638616044076e-9 3.969174447194705e-9 4.667965108286507e-9 1.0120562092626646e-9 2.8089872865927036e-9
          8.706452519062442e-9 9.946696134688094e-9 6.578720839092896e-9 6.749497561838049e-10 2.0071381496704876e-9 4.546615558154756e-10
          1.4097887600372235e-9 4.9585943317654325e-9 3.623782486957784e-9 3.009316360694373e-10 9.618620349154738e-10 2.547652735051785e-9
          1.5997102560416222e-8 1.7937201286572278e-8 1.259631209851203e-8 2.4026208965024666e-8 1.9712207610434346e-8 9.84313612856657e-9
          7.4341368982601765e-9 1.5710792618334903e-8 1.2098429330539617e-8 3.085436991330496e-8 2.556373139905761e-8 3.351996922524556e-8
          2.7806736623836563e-8 2.0535807332396088e-8 1.5948964463175897e-8 2.239010984102098e-8 1.7432100898055958e-8 5.386347188181282e-9
          8.957787662070927e-9
        </DataArray>
        <DataArray type="Float64" Name="gradient_matprop_error" format="ascii" RangeMin="0" RangeMax="0">
          0 0 0 0 0 0
          0 0 0 0 0 0
          0 0 0 0 0 0
          0 0 0 0 0 0
          0 0 0 0 0 0
          0 0 0 0 0 0
          0 0 0 0 0 0
          0 0 0 0 0 0
          0 0 0 0 0 0
          0 0 0 0 0 0
          0 0 0 0 0 0
          0 0 0 0 0 0
          0 0 0 0 0 0
          0 0 0 0 0 0
          0 0 0 0 0 0
          0 0 0 0 0 0
          0 0 0 0 0 0
          0 0 0 0 0 0
          0 0 0 0 0 0
          0 0 0 0 0 0
          0 0 0 0 0 0
          0 0 0 0 0 0
          0 0 0 0 0 0
          0 0 0 0 0 0
          0 0 0 0 0 0
          0 0 0 0 0 0
          0 0 0 0 0 0
          0 0 0 0 0 0
          0 0 0 0 0 0
          0 0 0 0 0 0
          0 0 0 0 0 0
          0 0 0 0 0 0
          0 0 0 0 0 0
          0 0 0 0 0 0
          0 0 0 0 0 0
          0 0 0 0 0 0
          0 0 0 0 0 0
          0 0 0 0 0 0
          0 0 0 0 0 0
          0 0 0 0 0 0
          0 0 0 0 0 0
          0 0 0 0 0 0
          0 0 0 0 0 0
          0 0 0 0 0 0
          0 0 0 0 0 0
          0 0 0 0 0 0
          0 0 0 0 0 0
          0 0 0 0 0 0
          0 0 0 0 0 0
          0 0 0 0 0 0
          0 0 0 0 0 0
          0 0 0 0 0 0
          0 0 0 0 0 0
          0 0 0 0 0 0
          0 0 0 0 0 0
          0 0 0 0 0 0
          0 0 0 0 0 0
          0 0 0 0 0 0
          0 0 0 0 0 0
          0 0 0 0 0 0
          0 0 0 0 0 0
          0 0 0 0 0 0
          0 0 0 0 0 0
          0 0 0 0 0 0
          0 0 0 0 0 0
          0 0 0 0 0 0
          0 0 0 0 0 0
          0 0 0 0 0 0
          0 0 0 0 0 0
          0 0 0 0 0 0
          0 0 0 0 0 0
          0 0 0 0 0 0
          0 0 0 0 0 0
          0 0 0 0 0 0
          0 0 0 0 0 0
          0 0 0 0 0 0
          0 0 0 0 0 0
          0 0 0 0 0 0
          0 0 0 0 0 0
          0 0 0 0 0 0
          0 0 0 0 0 0
          0 0 0 0 0 0
          0 0 0 0 0 0
          0 0 0 0 0 0
          0 0 0 0 0 0
          0 0 0 0 0 0
          0 0 0 0 0 0
          0 0 0 0 0 0
          0
        </DataArray>
        <DataArray type="Float64" Name="initial_marker" format="ascii" RangeMin="0" RangeMax="2">
          2 1 2 2 2 2
          1 2 2 2 2 0
          0 0 2 2 2 2
          2 2 2 2 1.3333333333333333 2
          2 2 2 2 2 2
          2 2 2 2 2 2
          2 2 2 2 2 1
          1 2 2 1 2 2
          2 2 2 2 1 0.25
          2 2 2 2 2 2
          2 2 2 2 2 2
          0 0 0 0 0 0
          0 0 0 0 0 0
          0 0 2 2 2 2
          2 2 2 2 2 2
          2 2 2 2 2 2
          2 2 2 2 2 2
          2 2 2 2 2 2
          2 2 2 2 2 2
          2 2 2 2 2 2
          2 2 2 2 2 2
          2 2 2 2 2 2
          2 2 2 2 2 2
          2 2 2 2 2 2
          2 2 2 2 2 2
          2 2 2 2 2 2
          2 2 2 2 2 2
          2 2 2 2 2 2
          2 2 2 2 2 2
          2 2 2 2 2 2
          2 2 2 2 2 2
          2 2 2 2 2 2
          2 2 2 2 2 2
          2 2 2 2 2 2
          2 2 2 2 2 2
          2 2 2 2 2 2
          2 2 2 2 2 2
          2 2 2 2 2 2
          2 2 2 2 2 2
          1.5 1.75 1 1.5 2 2
          1 1.5 1 1.5 2 2
          2 2 2 2 2 2
          2 2 2 2 2 2
          2 2 2 2 2 2
          2 2 2 2 2 2
          2 2 2 2 2 2
          2 2 2 2 2 2
          2 2 1.5 2 1.75 1.5
          1.75 1.25 2 2 2 2
          0.5 1.25 0 1 2 2
          2 2 2 2 2 2
          2 2 2 2 2 2
          2 2 2 2 2 2
          2 2 2 2 2 2
          2 2 2 2 2 2
          2 2 2 2 2 2
          2 2 2 2 2 2
          2 2 2 2 2 2
          2 2 2 2 2 2
          2 2 2 2 2 2
          2 2 2 2 2 2
          2 2 2 2 2 2
          2 2 2 2 2 2
          2 2 2 2 2 2
          2 2 2 2 0 0
          0 0 1 0.75 1 0
          0 0 0 0 0 0
          2 2 2 2 2 2
          2 2 2 2 2 2
          2 2 2 2 2 2
          2 2 2 2 2 2
          2 2 2 2 2 0
          0 0 0 0 0 0
          0 0 2 2 2 2
          2 2 2 2 2 2
          2 2 2 2 2 2
          2 2 2 2 2 2
          2 2 2 2 2 2
          2 2 2 2 2 2
          2 2 0.5 1.25 1.5 1
          2 2 0 1 1 2
          2 0 1 1 2 2
          2 2 2 2 2 2
          2 2 2 2 2 2
          2 2 2 2 2 2
          2 2 2 2 2 2
          2 2 2 2 2 2
          2 2 2 2 2 2
          2
        </DataArray>
        <DataArray type="Float64" Name="markers_norefine" format="ascii" RangeMin="0" RangeMax="2">
          2 0 1 0 2 1
          0 0 0 2 0 0
          0 0 0 0 0 1
          0 0 0 0 0 0
          0 1 0.5 0 2 2
          2 2 2 2 2 1.25
          0.5 2 2 2 2 0
          0 0 0 0 0 0
          0 0 0 0 0 0
          0 0 2 1.25 1 0.25
          0 0 2 2 1.5 0.5
          0 0 0 0 0 0
          0 0 0 0 0 0
          0 0 2 1 0 0
          0 0 0 0 0 0
          2 2 2 1.5 0 0
          0 1 1 0 0.5 0.5
          0 0 0 0 0 0
          0 2 2 2 2 1.5
          1 2 2 2 2 2
          2 2 2 2 2 2
          1.75 1.5 2 2 2 2
          1.5 1.5 1 1 1.25 1
          2 2 2 2 1.25 1
          1 1 2 2 2 0.75
          0.5 0.5 0 1.75 1.5 1
          2 2 2 2 2 2
          2 2 2 2 2 2
          2 2 2 2 2 2
          2 2 2 2 2 1.75
          2 2 2 2 2 1.25
          1 2 2 1.5 1 0.5
          0 0 0 1 0.75 0
          0 1 1 0 0.25 0
          0.5 0 0 0 0 0
          0 0 0 0 0 0
          0 0 0 0 0 0
          0 0 0 0 0 0
          0 0 0 0 0 0
          0 0 0 0 0 0
          0 0 0 0 0 0
          0 0 0 0 0 0
          0 0 0 0 0 0
          0 0 0 0 0 0
          0 0 0 0 0 0
          0 0 0 0 0 0
          0 0 0 0 0 0
          0 0 0 0 0 0
          0 0 0 0 0 0
          0 0 0 0 0 0
          0 0 0 0 0 0
          0 0 0 0 1 1
          1 0.75 0.75 0.25 2 2
          1.75 1.75 0.5 0.25 0 0
          0 0 1.5 1.25 0.75 0.75
          0.25 0 0 0 1 0.5
          0.25 0 0 0 0 0.25
          0 0 2 2 2 2
          2 2 2 2 2 2
          2 2 2 1.75 1.75 1
          2 2 2 2 1.75 1.25
          0.75 0.25 2 1.5 1 0.75
          0.25 0 0 1 0.5 0
          0 0 0 0.5 0.25 0
          0 0 0 0 0 0
          0 0 0 0 0 0
          0 0 0 0 0 0
          0 0 0 0 0 0
          0 1 1 0 0 0
          0 0 0 0 0 0
          1.5 0 0 0 0 0
          0 0 0 0 0 0
          0 0 0 0 0 0
          0 0 2 2 2 2
          2 2 2 2 2 1
          1.5 0 1 2 2 2
          2 2 2 2 2 2
          2 2 2 2 2 1
          1 0 1 0 0 0
          0 0 0 0 0 0
          0 0 0 0 0 0
          0 0 0 0 0 0
          0 0 0 0 0 0
          0 0 0 0 0 0
          0 0 0 0 0 0
          0 0 0 0 0 0
          0 0 0 0 0 0
          0 0 0 0 0 0
          0
        </DataArray>
        <DataArray type="Float64" Name="markers_mustrefine" format="ascii" RangeMin="0" RangeMax="2">
          2 1 2 2 2 2
          1 2 2 2 2 0
          0 0 2 2 2 2
          2 2 2 2 1.3333333333333333 2
          2 2 2 2 2 2
          2 2 2 2 2 2
          2 2 2 2 2 1
          1 2 2 1 2 2
          2 2 2 2 1 0.25
          2 2 2 2 2 2
          2 2 2 2 2 2
          0 0 0 0 0 0
          0 0 0 0 0 0
          0 0 2 2 2 2
          2 2 2 2 2 2
          2 2 2 2 2 2
          2 2 2 2 2 2
          2 2 2 2 2 2
          2 2 2 2 2 2
          2 2 2 2 2 2
          2 2 2 2 2 2
          2 2 2 2 2 2
          2 2 2 2 2 2
          2 2 2 2 2 2
          2 2 2 2 2 2
          2 2 2 2 2 2
          2 2 2 2 2 2
          2 2 2 2 2 2
          2 2 2 2 2 2
          2 2 2 2 2 2
          2 2 2 2 2 2
          2 2 2 2 2 2
          2 2 2 2 2 2
          2 2 2 2 2 2
          2 2 2 2 2 2
          2 2 2 2 2 2
          2 2 2 2 2 2
          2 2 2 2 2 2
          2 2 2 2 2 2
          1.5 1.75 1 1.5 2 2
          1 1.5 1 1.5 2 2
          2 2 2 2 2 2
          2 2 2 2 2 2
          2 2 2 2 2 2
          2 2 2 2 2 2
          2 2 2 2 2 2
          2 2 2 2 2 2
          2 2 1.5 2 1.75 1.5
          1.75 1.25 2 2 2 2
          0.5 1.25 0 1 2 2
          2 2 2 2 2 2
          2 2 2 2 2 2
          2 2 2 2 2 2
          2 2 2 2 2 2
          2 2 2 2 2 2
          2 2 2 2 2 2
          2 2 2 2 2 2
          2 2 2 2 2 2
          2 2 2 2 2 2
          2 2 2 2 2 2
          2 2 2 2 2 2
          2 2 2 2 2 2
          2 2 2 2 2 2
          2 2 2 2 2 2
          2 2 2 2 0 0
          0 0 1 0.75 1 0
          0 0 0 0 0 0
          2 2 2 2 2 2
          2 2 2 2 2 2
          2 2 2 2 2 2
          2 2 2 2 2 2
          2 2 2 2 2 0
          0 0 0 0 0 0
          0 0 2 2 2 2
          2 2 2 2 2 2
          2 2 2 2 2 2
          2 2 2 2 2 2
          2 2 2 2 2 2
          2 2 2 2 2 2
          2 2 0.5 1.25 1.5 1
          2 2 0 1 1 2
          2 0 1 1 2 2
          2 2 2 2 2 2
          2 2 2 2 2 2
          2 2 2 2 2 2
          2 2 2 2 2 2
          2 2 2 2 2 2
          2 2 2 2 2 2
          2
        </DataArray>
        <DataArray type="Float64" Name="gradient_marker" format="ascii" RangeMin="0" RangeMax="1">
          0.5 0.5 0.5 0.75 0 0.5
          1 1 1 1 1 1
          1 1 0 0.5 0.5 0.5
          0 0 0.5 0.5 0.6666666666666666 0.75
          0.75 0.5 0.5 0.75 0 0
          0 0 0 0.5 0.5 0.25
          0.625 0 0 0.5 0 1
          1 1 1 1 1 1
          1 1 1 1 1 1
          1 1 1 1 1 1
          1 1 1 1 1 1
          1 1 1 1 1 1
          1 1 1 1 1 1
          1 1 0 0 1 1
          1 1 1 1 1 1
          0 0 0 0 1 1
          1 0 0 0.6666666666666666 0 0
          0 0 1 1 0 0.6666666666666666
          0 0 0 0 0 0
          0 0 0 0 0 0
          0 0 0 0 0 0
          0 0 0 0 0 0
          0 0 0.5 0.5 0 0.5
          0 0 0.5 0 0 0
          0 0 0 0 0 0
          0.5 0 0.6666666666666666 0 0.5 0
          0 0 0 0 0 0
          0 0 0 0 0 0
          0.5 0.5 0 0.5 0 0
          0.5 0 0 0 0 0
          0 0 0 0 0.5 0
          0.5 0 0.5 0 0 0
          0 0 0 0 0 0
          0 0 0 0 0 0
          0 0 1 1 1 1
          1 1 1 1 1 1
          1 1 1 1 1 1
          1 1 1 1 1 1
          1 1 1 1 1 1
          1 1 1 1 1 1
          1 1 1 1 1 1
          1 1 1 1 1 1
          1 1 1 1 1 1
          1 1 1 1 1 1
          1 1 1 1 1 1
          1 1 1 1 1 1
          1 1 1 1 1 1
          1 1 1 1 1 1
          1 1 1 1 1 1
          1 1 1 1 1 1
          1 1 1 1 1 1
          1 1 1 1 1 1
          1 1 1 1 1 1
          1 1 1 1 1 1
          1 1 1 1 1 1
          1 1 1 1 1 1
          1 1 1 1 1 1
          1 1 1 1 1 1
          1 1 1 1 1 1
          1 1 1 1 1 1
          1 1 1 1 1 1
          1 1 1 1 1 1
          1 1 1 1 1 1
          1 1 1 1 1 1
          1 1 1 1 0 0.5
          0.5 0 0 0.5 0 0.75
          1 0.5 1 1 1 1
          0 0 0.5 0.5 0 0.25
          0.375 0.5 0.5 0.5 0.5 0
          0.25 0.625 0.5 0.75 0.25 0.375
          0.25 0.5 0.625 0.625 0.75 0.25
          0.5 0.5 0.5 0.5 0.75 1
          1 1 1 1 1 1
          1 1 0 0 0 0
          0 0 0 0 0 0
          0 0 0 0 0 0
          0 0 0 0 0 0
          0 0 0 0 0 0
          0 0 0 0.6666666666666666 0.5 0.6666666666666666
          0.5 0.75 1 1 1 1
          1 1 1 1 1 1
          1 1 1 1 1 1
          1 1 1 1 1 1
          1 1 1 1 1 1
          1 1 1 1 1 1
          1 1 1 1 1 1
          1 1 1 1 1 1
          1 1 1 1 1 1
          1
        </DataArray>
        <DataArray type="Float64" Name="gradient_matprop_marker" format="ascii" RangeMin="0" RangeMax="0">
          0 0 0 0 0 0
          0 0 0 0 0 0
          0 0 0 0 0 0
          0 0 0 0 0 0
          0 0 0 0 0 0
          0 0 0 0 0 0
          0 0 0 0 0 0
          0 0 0 0 0 0
          0 0 0 0 0 0
          0 0 0 0 0 0
          0 0 0 0 0 0
          0 0 0 0 0 0
          0 0 0 0 0 0
          0 0 0 0 0 0
          0 0 0 0 0 0
          0 0 0 0 0 0
          0 0 0 0 0 0
          0 0 0 0 0 0
          0 0 0 0 0 0
          0 0 0 0 0 0
          0 0 0 0 0 0
          0 0 0 0 0 0
          0 0 0 0 0 0
          0 0 0 0 0 0
          0 0 0 0 0 0
          0 0 0 0 0 0
          0 0 0 0 0 0
          0 0 0 0 0 0