<?xml version="1.0"?>
<VTKFile type="UnstructuredGrid" version="0.1" byte_order="LittleEndian" header_type="UInt32" compressor="vtkZLibDataCompressor">
  <UnstructuredGrid>
    <Piece NumberOfPoints="557" NumberOfCells="312">
      <PointData>
        <DataArray type="Int32" Name="libmesh_node_id" format="ascii" RangeMin="405" RangeMax="3246">
          467 564 687 694 783 830
          832 834 835 836 839 1069
          1070 1071 1072 1073 1076 1077
          1078 1079 1103 1104 1111 1112
          1114 1129 1130 1133 1134 1136
          1138 1615 1616 1617 1620 1846
          1848 1849 1850 1851 1852 1853
          1854 1855 1856 1857 1858 1859
          1860 1861 1872 1873 1874 1875
          1876 1877 1878 1879 1880 1881
          1884 1885 1887 1890 1892 1893
          1894 1895 1896 1897 1898 1899
          1900 1901 1909 1910 1911 1912
          1913 1914 1915 1916 1917 1918
          1919 1920 1921 1922 1923 1924
          1925 1926 1927 1928 1930 1931
          1932 1933 1948 1949 1952 1953
          1955 1957 1968 1969 1970 1971
          1972 1973 1974 1975 1976 1977
          1988 1989 1990 1991 1992 1993
          1994 2084 2085 2086 2087 2088
          2089 2090 2091 2092 2093 2094
          2095 2098 2099 2101 2103 2897
          2898 2899 2900 2901 2902 2903
          2904 2905 2906 2907 2908 2909
          2910 2911 2912 2913 2914 2915
          2926 2927 2928 2929 2930 2931
          2932 2933 2934 2935 2939 2940
          2941 2942 2943 2954 2955 2956
          2957 2958 2959 2960 2961 2962
          2963 2971 2972 2973 2974 2975
          2976 2977 2978 2979 2980 2981
          2982 2983 2984 2985 2986 2987
          2988 2989 2990 2991 2992 2993
          2994 2995 2996 2997 2998 2999
          3000 3001 3002 3003 3004 3005
          3006 3007 3008 3009 3010 3011
          3012 3013 3014 3015 3016 3017
          3018 3019 3020 3021 3022 3023
          3024 3025 3026 3027 3028 3029
          3030 3031 3032 3033 3034 3035
          3036 3037 3038 3039 3040 3041
          3042 3043 3044 3045 3046 3047
          3048 3049 3050 3051 3052 3053
          3054 3055 3056 3057 3058 3059
          3060 3061 3062 3063 3064 3065
          3067 3072 3074 3078 3079 3080
          3081 3082 3083 3084 3085 3086
          3087 3088 3089 3090 3091 3092
          3093 3094 3095 3096 3097 3098
          3099 3100 3101 3102 3103 3104
          3105 3106 3107 3108 3109 3110
          3111 3112 3113 3114 3115 3116
          3117 3118 3119 3120 3121 3122
          3123 3124 3125 3126 3127 3128
          3129 3130 3131 3132 3133 3134
          3135 3136 3137 3138 3139 3140
          3141 3142 3143 3144 3145 3146
          3147 3150 3152 3153 3155 3166
          3168 3170 3172 3180 3181 3184
          3186 3187 3189 3200 3202 3204
          3206 3214 3215 3216 3217 3218
          3219 3220 3221 3222 3223 3224
          3225 3226 3227 3228 3229 3230
          3231 3232 3233 3234 3236 3240
          3242 3244 3246 541 552 558
          405 543 554 559 546 686
          697 703 688 699 704 691
          777 769 468 774 822 831
          823 705 833 826 549 709
          837 828 838 1074 1093 1091
          1075 1094 1092 1080 1099 1098
          1108 1109 1131 1110 1132 1097
          1135 1137 1402 1409 1410 1403
          542 696 1415 1406 1611 1612
          1613 1614 1618 1619 1067 1068
          1621 1622 1623 1624 1628 1629
          1101 1102 1836 1839 1840 1837
          1844 1845 1843 1842 1847 1838
          1865 1863 1870 1869 1864 1868
          1883 1886 1903 1902 1891 1907
          1906 1905 1929 1934 1935 1936
          1937 1941 1942 1944 1945 1947
          1950 1951 1954 1956 1959 1965
          1982 1995 1967 1997 1999 2001
          2096 1998 2097 2100 707 2102
          2895 2918 2919 2921 1882 2924
          2946 2947 2949 1888 2952 1889
          2937 2965 2967 2969 3066 3148
          3149 3151 1978 3154 1979 3073
          3167 3169 3171 3182 3183 3185
          1984 3188 1985 3201 3203 3205
          1987 3235 3241 3243 3245
        </DataArray>
        <DataArray type="Float64" Name="bounds" format="ascii" RangeMin="0" RangeMax="0">
          0 0 0 0 0 0
          0 0 0 0 0 0
          0 0 0 0 0 0
          0 0 0 0 0 0
          0 0 0 0 0 0
          0 0 0 0 0 0
          0 0 0 0 0 0
          0 0 0 0 0 0
          0 0 0 0 0 0
          0 0 0 0 0 0
          0 0 0 0 0 0
          0 0 0 0 0 0
          0 0 0 0 0 0
          0 0 0 0 0 0
          0 0 0 0 0 0
          0 0 0 0 0 0
          0 0 0 0 0 0
          0 0 0 0 0 0
          0 0 0 0 0 0
          0 0 0 0 0 0
          0 0 0 0 0 0
          0 0 0 0 0 0
          0 0 0 0 0 0
          0 0 0 0 0 0
          0 0 0 0 0 0
          0 0 0 0 0 0
          0 0 0 0 0 0
          0 0 0 0 0 0
          0 0 0 0 0 0
          0 0 0 0 0 0
          0 0 0 0 0 0
          0 0 0 0 0 0
          0 0 0 0 0 0
          0 0 0 0 0 0
          0 0 0 0 0 0
          0 0 0 0 0 0
          0 0 0 0 0 0
          0 0 0 0 0 0
          0 0 0 0 0 0
          0 0 0 0 0 0
          0 0 0 0 0 0
          0 0 0 0 0 0
          0 0 0 0 0 0
          0 0 0 0 0 0
          0 0 0 0 0 0
          0 0 0 0 0 0
          0 0 0 0 0 0
          0 0 0 0 0 0
          0 0 0 0 0 0
          0 0 0 0 0 0
          0 0 0 0 0 0
          0 0 0 0 0 0
          0 0 0 0 0 0
          0 0 0 0 0 0
          0 0 0 0 0 0
          0 0 0 0 0 0
          0 0 0 0 0 0
          0 0 0 0 0 0
          0 0 0 0 0 0
          0 0 0 0 0 0
          0 0 0 0 0 0
          0 0 0 0 0 0
          0 0 0 0 0 0
          0 0 0 0 0 0
          0 0 0 0 0 0
          0 0 0 0 0 0
          0 0 0 0 0 0
          0 0 0 0 0 0
          0 0 0 0 0 0
          0 0 0 0 0 0
          0 0 0 0 0 0
          0 0 0 0 0 0
          0 0 0 0 0 0
          0 0 0 0 0 0
          0 0 0 0 0 0
          0 0 0 0 0 0
          0 0 0 0 0 0
          0 0 0 0 0 0
          0 0 0 0 0 0
          0 0 0 0 0 0
          0 0 0 0 0 0
          0 0 0 0 0 0
          0 0 0 0 0 0
          0 0 0 0 0 0
          0 0 0 0 0 0
          0 0 0 0 0 0
          0 0 0 0 0 0
          0 0 0 0 0 0
          0 0 0 0 0 0
          0 0 0 0 0 0
          0 0 0 0 0 0
          0 0 0 0 0 0
          0 0 0 0 0
        </DataArray>
        <DataArray type="Float64" Name="gradient_error" format="ascii" RangeMin="3.5690032903809493e-10" RangeMax="3.666689294839423e-7">
          1.7243397988021569e-9 6.539527126241712e-10 1.6207136386000128e-7 2.2484088623058765e-7 4.914868143406151e-10 7.884574853014335e-10
          1.0928495300974148e-9 5.071127491488909e-10 1.291516293154672e-9 4.167687898108791e-10 2.075919837160453e-9 6.039741432247169e-8
          9.17030482660073e-8 1.3423973794254612e-7 6.680056825670232e-8 8.954857424706022e-8 2.0673309368276353e-7 9.468952186309242e-10
          5.582779417241743e-8 3.4936606177881754e-8 7.453714648589013e-8 9.91142741707881e-8 2.4769173273487113e-9 1.0703148141534721e-8
          1.1562760702634018e-7 1.770993969547099e-7 1.3492754220723215e-7 6.5288971069119e-8 9.817440069273078e-8 9.590073124295127e-8
          1.3105983031634256e-7 1.623537717850421e-8 1.1837855191915474e-7 1.0295664524784018e-7 8.753473857652562e-8 7.032312813743378e-8
          9.090942975181943e-8 8.717651187156126e-8 1.0251643557084576e-7 1.0006426827777586e-7 8.948390529245728e-8 1.0694631083537822e-7
          1.0418422488780655e-7 7.756901685890634e-8 9.230266817593773e-8 9.54524809128081e-8 6.34712296427799e-8 6.316211727295033e-8
          6.647279965951985e-8 8.535354023591655e-8 6.519483688826042e-8 7.830589072756126e-8 6.50536602058217e-8 7.979569791634484e-8
          5.8695234050011206e-8 6.961854608795302e-8 7.010857294730838e-8 1.009414337248057e-7 1.0511365924639973e-7 9.389655884991923e-8
          4.944455291077142e-9 1.8487146590932323e-8 6.870211798252696e-8 2.9375096327466945e-9 4.714422594043634e-9 7.376928364960803e-9
          4.797977667402235e-9 7.2177249509773855e-9 6.109163810674177e-8 5.1408335557429825e-8 1.3583446493285673e-9 2.9322928498910757e-9
          3.3272225465819383e-9 5.79344335570635e-8 1.1117763999531478e-7 1.0383010087996825e-7 1.1198672326633598e-7 1.0451102583000944e-7
          1.1188935710788026e-7 9.204676764502005e-8 1.1672218695872834e-7 6.529665809010127e-8 7.25947132792315e-8 6.541231101079744e-8
          7.989276846836174e-8 9.609088088138336e-8 9.161732532174939e-8 1.1166403377235433e-7 1.0855026836335605e-7 9.346342893327931e-8
          1.166967617800356e-7 1.1312320584173211e-7 7.976424010532207e-8 9.866441246650345e-8 7.047158971452387e-8 7.01257549974621e-8
          7.415265014913115e-8 9.408009227982133e-8 6.45389496427446e-8 8.126316513705834e-8 5.669318883696048e-8 7.063400829546752e-8
          1.094960975918994e-7 9.165224908365445e-8 5.0826055457991135e-9 7.324476718197164e-9 5.658716643816875e-9 7.678431112661387e-9
          4.136202971996842e-8 4.3579319945923596e-8 2.080829100337625e-9 3.91139460292346e-9 4.654120715069707e-9 1.0529627395012871e-8
          9.604104999892271e-8 1.0109004411025025e-7 1.0239541637237988e-7 1.0764106653310491e-7 7.106282799858844e-8 7.462719272533917e-8
          1.0959987299626534e-7 6.584164621777624e-8 7.284895852153736e-8 6.606568625336179e-8 7.29586111150101e-8 5.746752326281374e-8
          6.208665567907027e-8 5.759658838636311e-8 7.985627082529848e-8 7.985153597665841e-8 6.670578809532677e-8 6.521953584443407e-8
          7.256177598812797e-8 5.249746994685664e-8 5.5666397650265666e-8 7.990401613182189e-8 5.883532535367469e-8 1.2098256084368026e-8
          1.1955962008481687e-8 1.2269342164024642e-8 1.1813667932595347e-8 1.2634643207854814e-8 1.2589523120285249e-8 1.260685496976817e-8
          1.2925909528146209e-8 1.2863822384256251e-8 1.305139613428405e-8 1.319774369691037e-8 1.3448763287593934e-8 1.3733234599058756e-8
          1.3050278714590679e-8 1.3686277164694277e-8 1.2997099479919947e-8 1.410258914270206e-8 1.4497542074037715e-8 1.4082800346823298e-8
          9.925902508633568e-9 1.0375469538656067e-8 9.876119853970129e-9 1.0367874874475113e-8 1.0825036568678564e-8 1.1332766493737607e-8
          5.173827868456878e-9 5.9839194386607575e-9 5.734988407718521e-9 7.077451242190147e-9 1.240660975462964e-8 1.253417981800665e-8
          8.905401834409855e-9 9.912747179523966e-9 1.0166471959978547e-8 1.7209571962654087e-9 2.252076251248029e-9 1.7208572996772285e-9
          2.193645071682229e-9 4.397794358555108e-9 4.169532120975681e-9 8.478075885161706e-10 1.331290694004988e-9 1.3837209128529986e-9
          3.0976144562058876e-9 7.908631192069124e-9 7.729415088303536e-9 9.80486897325868e-9 9.78619877834294e-9 6.9118605497283914e-9
          6.678997558023357e-9 9.443265986538813e-9 9.838638856807802e-9 1.0323775713038752e-8 9.820642898575859e-9 1.0305017634568296e-8
          1.1546275697154753e-8 1.1585982472007859e-8 4.787226572397782e-9 5.510982118637482e-9 5.3688361773834956e-9 7.685996487625738e-9
          9.837498512993979e-9 1.0331507846783e-8 9.89557182866481e-9 1.0390116895044176e-8 1.1692405174625704e-8 1.1806729603969351e-8
          4.724873528923605e-9 5.334259411180572e-9 5.382155121552301e-9 7.2571490624755095e-9 1.2583783418671539e-8 1.290721374956556e-8
          1.2883928012303268e-8 1.3431854925676125e-8 1.0353848830775605e-8 1.027266322919412e-8 1.1570442351176911e-8 1.3189517014987078e-8
          1.34684507746511e-8 1.381974086129477e-8 1.4208104302787034e-8 1.0285579430604669e-8 1.0306186975068416e-8 1.2000506029695856e-8
          1.8118002798056406e-9 2.2550820140077323e-9 1.982460967975903e-9 2.4032946184182646e-9 4.009420194727102e-9 3.943197248853552e-9
          1.1369020081460715e-9 1.5288962470498318e-9 1.7530426230599153e-9 2.875576424255984e-9 2.188720188210604e-9 2.6008498694197305e-9
          2.4038084011790807e-9 2.830774140012865e-9 3.979068173809024e-9 4.105134038240952e-9 1.5512942102779057e-9 1.998452913133947e-9
          2.2287085394155427e-9 3.0954139728596786e-9 7.524594040409446e-9 7.340884301997124e-9 9.72871143957451e-9 9.619502375147768e-9
          6.458778542020083e-9 6.264592480042845e-9 9.087294721481788e-9 7.2077415008524736e-9 7.097536643456331e-9 9.470326204715758e-9
          1.0834411255388867e-8 6.1207690277677085e-9 6.022058812040314e-9 8.496321725806047e-9 1.4336659872877959e-8 1.4362356779039813e-8
          1.4706569970467843e-8 1.4388053685201668e-8 1.3497855840119939e-8 1.3704099857398913e-8 1.3959200211734479e-8 1.4406125469232207e-8
          1.3890320563167448e-8 1.4199434282717853e-8 1.4414918312716642e-8 1.514173322429387e-8 1.4902809744117425e-8 1.533595510274442e-8
          1.4903712424448326e-8 1.581294502260851e-8 1.6328846661919228e-8 1.585097159889754e-8 1.4144080730604361e-8 1.4604282460848667e-8
          1.5903612598561182e-8 1.6873007687099006e-8 1.7003274368168626e-8 9.97445660116684e-9 1.0476923590140564e-8 1.006818087777795e-8
          1.0583854369987066e-8 1.1946533917824612e-8 1.2111326341136509e-8 4.914109610048102e-9 5.484367419326004e-9 5.63480501613177e-9
          7.2429507956839915e-9 1.0200610228570002e-8 1.0720689484522338e-8 1.0395200778313097e-8 1.0905397043868399e-8 1.2300229010852493e-8
          1.2517945621345458e-8 5.3277855003113285e-9 5.847376399813035e-9 6.137211061212113e-9 7.467311807716591e-9 1.3765366751493567e-8
          1.4076866339200203e-8 1.4617056246452198e-8 1.503060785832357e-8 1.0344896515867383e-8 1.0433992075247696e-8 1.2955286509024657e-8
          1.4395968797527776e-8 1.4732334755393606e-8 1.5432248313825242e-8 1.5844371577520006e-8 1.0554359492937737e-8 1.0699515715312236e-8
          1.342639231569707e-8 2.6379439472856243e-9 3.085321871002969e-9 2.907835601051195e-9 3.372611928160922e-9 4.299728646095666e-9
          4.552996973503152e-9 1.8987260366887855e-9 2.4516562262361423e-9 2.6841223522979528e-9 3.6004980672403654e-9 3.2087545911838713e-9
          3.691691279007928e-9 3.520703265017213e-9 4.03461165709669e-9 4.869278466878664e-9 5.248704622889483e-9 2.27283807571764e-9
          2.9305744447166112e-9 3.190676966789313e-9 4.2626581157352625e-9 7.012873527105518e-9 7.029018695658084e-9 1.1493060489627635e-8
          1.1487599963990293e-8 5.96387778134598e-9 6.007830816476762e-9 1.0718391249946326e-8 7.155692014072165e-9 7.365084061315577e-9
          1.1609909758350884e-8 1.1754929275140153e-8 6.181657614715896e-9 6.466959540874669e-9 1.0586993557532635e-8 1.0652646117157487e-8
          1.1147662565802506e-8 1.2773456013891383e-8 6.068825405738084e-9 6.509542668154782e-9 7.96387562190071e-9 1.5096219633468927e-8
          1.6288206253602607e-8 1.0899676773693747e-8 1.3868027220883873e-8 3.835860521652607e-9 4.397509512592791e-9 5.6804926154852025e-9
          2.6952817355396595e-9 3.466976359632359e-9 5.076533416390572e-9 7.669568002604732e-9 1.1940880263025825e-8 6.859214037660811e-9
          1.0866288764244138e-8 1.4733503956654451e-8 1.5377074075858077e-8 1.5118181724176316e-8 1.5843011586006184e-8 1.6298801013283907e-8
          1.6488971564435218e-8 1.4610707091926153e-8 1.5066444617573343e-8 1.5194282761337053e-8 1.594712100674661e-8 1.4487910227197856e-8
          1.4755815159288608e-8 1.5270383798497787e-8 1.546514441414456e-8 1.585859880838807e-8 1.6457924372806338e-8 1.698861799252419e-8
          1.508727724228294e-8 1.541839660349223e-8 1.6426877181177458e-8 1.6789504037210463e-8 1.761865088008443e-8 1.62774738876176e-8
          1.761049652695558e-8 1.5765443738024735e-8 1.760234217382673e-8 2.678137328699034e-9 1.0548416777805188e-9 7.661131565277804e-10
          1.1276859486325009e-9 6.441241551842074e-8 1.4684161823600195e-8 6.75112071164986e-10 1.5202985507072216e-9 7.770431047675393e-8
          4.3607302345102794e-8 4.675820733148046e-8 1.8525415265876388e-7 1.3376045735425217e-7 4.648430783153842e-8 9.057952871104873e-8
          3.5690032903809493e-10 9.195812420135682e-10 4.523739840873549e-9 1.4635289659418056e-9 1.7336191854725588e-9 5.161166189748994e-9
          1.6234305074512462e-8 1.7562873117370198e-8 1.4568883030563155e-9 3.6882401949702358e-9 1.0364032447726022e-7 6.02206666204995e-8
          9.533874894196553e-9 3.073499096355237e-8 1.8209270760152163e-9 1.8361414238296012e-7 1.9877034294394778e-7 2.149094159257689e-7
          2.6715432658365904e-7 2.158450411335169e-7 2.907891727048556e-7 3.3513250633352314e-7 2.3590112417229104e-7 3.666689294839423e-7
          1.5743745474186567e-7 1.4370810079288838e-7 1.5311237257894935e-7 1.3943181008097206e-7 1.1504583303858633e-7 1.182468500412439e-7
          7.523214830639919e-8 8.057887320680808e-8 1.9343857083863576e-8 1.1957087279054477e-8 1.1451325378531797e-8 1.904749305895911e-8
          1.9175696523224634e-8 1.4340987618875626e-8 1.0945563478009116e-8 1.8751129034054654e-8 9.879856581550326e-9 2.1542025533162036e-8
          1.3045212791962065e-7 1.1443066679349055e-7 3.3204194484773744e-8 9.840920566736044e-8 1.696044788020737e-7 1.4185092166899522e-7
          6.973342231882335e-9 1.3679623558080639e-8 1.0505993271407485e-7 8.970493954365892e-8 2.0385904884278942e-8 7.434994637324298e-8
          1.5075160562811826e-7 1.2305103713544148e-7 9.427762339741226e-8 9.831061924244516e-8 9.620701842493956e-8 9.240040124914032e-8
          5.7450740553502625e-8 7.737051260485261e-8 8.934352505637413e-8 8.642588617272737e-8 9.778153112711756e-8 8.488164229594061e-8
          7.682720643990833e-8 7.5439464730808e-8 9.681881507293155e-8 9.267437335883339e-8 6.52116498890381e-8 6.90707803745024e-8
          2.9027823716999212e-8 7.648260822670315e-8 1.0585857356605071e-7 1.0110126337875184e-7 5.384822170482135e-8 1.065222799770169e-7
          1.017116874914171e-7 1.0642071083181132e-7 1.0184368589810079e-7 1.0020320308179131e-7 9.485947303721004e-8 1.2207007180182095e-7
          1.1791949469392265e-7 8.050489480248892e-8 1.0497906894903306e-7 7.90865207167699e-8 7.863118001496206e-8 1.0473717130522923e-7
          6.363101059989563e-8 8.249438139003722e-8 7.085104088730145e-8 1.1444132043228538e-7 8.329232575649782e-8 1.1963159311268e-7
          4.619850588844696e-8 1.0710592059483956e-7 9.773204096031954e-8 1.1166068308831037e-7 7.92519154170973e-8 1.2057297134958252e-7
          6.386344411574417e-8 1.1521436178394707e-7 7.176642628254668e-8 5.4108663415265016e-8 1.251964798202715e-7 7.966940844934917e-8
          1.164653535794774e-8 9.965800009547011e-9 1.0338354987554992e-8 1.0710909965562969e-8 5.453726710548092e-9 6.2405137889887205e-9
          1.7960903952042486e-9 2.4010441890244026e-9 4.66137284474408e-9 8.211819512725394e-10 1.3512354172336057e-9 3.3230958850701706e-9
          8.961006056868844e-9 8.051103272165027e-9 9.78545883768645e-9 7.1412004874612094e-9 1.4781804179562222e-8 1.0970183977353202e-8
          1.1452058033116448e-8 1.3076637341855075e-8 6.550043727289603e-9 6.960111678835724e-9 8.33133095359942e-9 1.744646082043329e-8
          1.5493085583410862e-8 1.6766828571991273e-8 1.1167658659261709e-8 4.162819817086378e-9 4.779483558741601e-9 6.1540694750740396e-9
          2.929819222610776e-9 3.7610556464824294e-9 5.515908047370528e-9 8.070439797078396e-9 1.2183495848386001e-8 7.345272622021812e-9
          1.1103166277026472e-8 1.7314348774197812e-8 1.672865098194763e-8 1.83191982115288e-8 1.6142953189697445e-8
        </DataArray>
        <DataArray type="Float64" Name="gradient_matprop_error" format="ascii" RangeMin="0" RangeMax="0">
          0 0 0 0 0 0
          0 0 0 0 0 0
          0 0 0 0 0 0
          0 0 0 0 0 0
          0 0 0 0 0 0
          0 0 0 0 0 0
          0 0 0 0 0 0
          0 0 0 0 0 0
          0 0 0 0 0 0
          0 0 0 0 0 0
          0 0 0 0 0 0
          0 0 0 0 0 0
          0 0 0 0 0 0
          0 0 0 0 0 0
          0 0 0 0 0 0
          0 0 0 0 0 0
          0 0 0 0 0 0
          0 0 0 0 0 0
          0 0 0 0 0 0
          0 0 0 0 0 0
          0 0 0 0 0 0
          0 0 0 0 0 0
          0 0 0 0 0 0
          0 0 0 0 0 0
          0 0 0 0 0 0
          0 0 0 0 0 0
          0 0 0 0 0 0
          0 0 0 0 0 0
          0 0 0 0 0 0
          0 0 0 0 0 0
          0 0 0 0 0 0
          0 0 0 0 0 0
          0 0 0 0 0 0
          0 0 0 0 0 0
          0 0 0 0 0 0
          0 0 0 0 0 0
          0 0 0 0 0 0
          0 0 0 0 0 0
          0 0 0 0 0 0
          0 0 0 0 0 0
          0 0 0 0 0 0
          0 0 0 0 0 0
          0 0 0 0 0 0
          0 0 0 0 0 0
          0 0 0 0 0 0
          0 0 0 0 0 0
          0 0 0 0 0 0
          0 0 0 0 0 0
          0 0 0 0 0 0
          0 0 0 0 0 0
          0 0 0 0 0 0
          0 0 0 0 0 0
          0 0 0 0 0 0
          0 0 0 0 0 0
          0 0 0 0 0 0
          0 0 0 0 0 0
          0 0 0 0 0 0
          0 0 0 0 0 0
          0 0 0 0 0 0
          0 0 0 0 0 0
          0 0 0 0 0 0
          0 0 0 0 0 0
          0 0 0 0 0 0
          0 0 0 0 0 0
          0 0 0 0 0 0
          0 0 0 0 0 0
          0 0 0 0 0 0
          0 0 0 0 0 0
          0 0 0 0 0 0
          0 0 0 0 0 0
          0 0 0 0 0 0
          0 0 0 0 0 0
          0 0 0 0 0 0
          0 0 0 0 0 0
          0 0 0 0 0 0
          0 0 0 0 0 0
          0 0 0 0 0 0
          0 0 0 0 0 0
          0 0 0 0 0 0
          0 0 0 0 0 0
          0 0 0 0 0 0
          0 0 0 0 0 0
          0 0 0 0 0 0
          0 0 0 0 0 0
          0 0 0 0 0 0
          0 0 0 0 0 0
          0 0 0 0 0 0
          0 0 0 0 0 0
          0 0 0 0 0 0
          0 0 0 0 0 0
          0 0 0 0 0 0
          0 0 0 0 0 0
          0 0 0 0 0
        </DataArray>
        <DataArray type="Float64" Name="initial_marker" format="ascii" RangeMin="0" RangeMax="2">
          2 0 1 2 0 0
          0 0 0 0 0 2
          2 1 2 2 1.5 2
          2 2 2 2 2 2
          2 0 0 0 0 0
          0 0 0 0 0 2
          2 2 2 2 2 2
          2 2 2 2 2 2
          2 2 1 1.5 1 1.5
          0 1 1 2 2 2
          2 2 2 2 2 2
          2 2 2 2 2 2
          2 2 2 2 2 2
          2 2 2 1 1 0
          1 2 2 2 2 2
          2 2 2 2 2 2
          2 2 1 1.5 0 1
          2 2 2 2 2 2
          2 2 2 2 2 2
          2 2 2 2 2 2
          2 1 1 1 1 0
          0 0 1 1 0 1
          1 0 0 1 0 2
          2 2 2 2 2 2
          2 2 2 2 2 2
          2 2 2 2 2 2
          2 2 2 2 2 2
          2 2 2 2 2 2
          2 2 2 2 2 2
          2 2 2 2 2 2
          2 2 2 2 2 2
          2 2 2 2 2 2
          2 2 2 2 2 2
          2 2 2 2 2 2
          2 2 2 2 2 2
          2 2 2 2 2 2
          2 2 2 2 2 2
          2 2 2 2 2 2
          2 2 2 2 2 2
          2 2 2 2 2 2
          2 2 2 2 2 2
          2 2 2 2 2 2
          2 2 2 2 2 2
          2 2 2 2 2 2
          2 2 2 2 2 2
          2 2 2 2 2 2
          2 2 2 2 2 2
          2 2 2 2 2 2
          2 2 2 2 2 2
          2 2 2 2 2 2
          2 2 2 2 2 2
          2 2 2 2 2 2
          2 2 2 2 2 2
          2 2 2 2 2 2
          2 2 2 2 2 2
          2 2 2 2 2 2
          2 2 2 2 2 2
          2 2 2 2 2 2
          2 2 2 2 2 2
          2 2 2 2 2 2
          2 2 2 2 2 2
          2 2 2 2 2 2
          2 2 2 2 2 2
          2 2 2 2 2 2
          2 2 2 2 2 2
          2 2 2 0 0 0
          0 0 0 0 0 0
          0 0 0 0 0 0
          0 0 0 0 0 0
          0 0 0 0 0 0
          0 0 0 0 0 0
          1.5 0.25 0.5 2 0.5 1
          0 1.5 0 1.5 0 0
          0 0 0 0 0 0
          0 0 0 0 0 0
          0 0 0 0 1 1
          0 0 0 0 0 0
          1 1 2 2 2 2
          2 2 2 2 2 2
          1.5 1.5 2 2 1 1
          2 2 2 2 2 2
          2 2 2 2 2 2
          2 2 2 2 2 2
          1 1.5 1 2 1.5 2
          2 2 2 2 2 2
          1 2 1 0 2 1
          2 2 2 2 2 2
          2 2 2 2 2 2
          2 2 2 2 2 2
          2 2 2 2 2 2
          2 2 2 2 2 2
          2 2 2 2 2 2
          2 2 2 2 2
        </DataArray>
        <DataArray type="Float64" Name="markers_norefine" format="ascii" RangeMin="0" RangeMax="2">
          2 0 0 0 0 0
          0 0 0 0 0 0
          0 0 0 0 0 2
          1 1 1 0 2 2
          0 0 0 0 0 0
          0 0 0 0 0 0
          0 0 0 0 0 0
          0 0 0 0 0 0
          0 0 0 0 0 0
          0 0 0 0 0 0
          2 1.75 0.25 2 2 2
          2 2 0.5 0.5 2 2
          2 1 0 0 0 0
          0 0 0 0 0 0
          0 0 0 0 0 0
          0 0 0 0 1 0
          0.5 0 0 0 0 0
          0 0 2 2 2 2
          0.75 1.25 2 2 2 2
          0 0 0 0 0 0
          0 0 0 0 0 0
          0 0 0 0 0 0
          0 0 0 0 0 0
          0 0 0 0 0 0
          0 0 0 0 0 0
          0 0 0 0 0 0
          1 1 1 1 1 1
          2 2 2 2 0.5 0
          1 1.3333333333333333 0 2 2 2
          2 2 2 2 2 2
          2 1.5 1.75 1 1.5 2
          2 2 1 1 1 1
          1 1 2 2 2 2
          1 1 1 1 1 1
          2 2 2 2 0.5 0.5
          0 0 1.5 1.5 1 0.5
          0.5 0 0 1.5 1.5 1
          2 2 2 2 2 2
          2 2 2 2 2 2
          2 2 2 2 2 2
          2 2 2 2 2 2
          2 2 2 2 2 2
          1.3333333333333333 2 2 2 0 0
          0 0 1 0.5 1 0
          2 1.5 2 0.5 0 0
          0 0 0 0 2 2
          1 0 0 1.5 1.25 2
          1.5 1 1 2 2 2
          2 2 1.75 2 2 1.25
          1.5 2 2 2 2 0.5
          0.75 0 0.5 1.5 1.75 0.6666666666666666
          1 1 1 1 2 2
          1.3333333333333333 2 2 2 2 2
          2 2 2 2 2 2
          2 2 2 2 2 2
          2 2 2 2 2 1.25
          1.5 2 2 1.5 2 2
          1.5 1.75 2 2 2 2
          2 1.5 2 2 2 1
          1 2 2 2 2 2
          2 2 2 2 2 2
          2 0 0 0 0 0.5
          0 0.25 0.5 0 0 0.5
          1 0 0.5 0.75 0 0
          1 1 0 1 0 1
          0 1 0 0 0 0
          0 0 0 0 0 0
          0 0 0 0 0 0
          0 0 0 0 0 0
          0 0 0 0 0 0
          0 0 0 0 0 0
          0 0 0 0 0 0
          0 0 0 0 0 0
          0 0 0 0 0 0
          0 0 0 0 0 0
          0 0 0 0 0 0
          0 0 0 0 0 0
          0 0 0 0 0 0
          0 0 0 0 0 0
          0 0 0 0 0 0
          1.5 0 0 0 1 0
          0 0 0 0 0 0
          0 0 0 1 0.5 0
          0 0 0 0 0 0
          1.5 0 0 0 0 0
          0 0 0 0 0 0
          0 1 1 1 2 2
          2 2 2 2 2 2
          1 1.5 1 2 2 2
          2 1.5 2 2 2 0
          1 1 2 2 2 2
          2 2 2 2 2 2
          2 1 1 0 1
        </DataArray>
        <DataArray type="Float64" Name="markers_mustrefine" format="ascii" RangeMin="0" RangeMax="2">
          2 0 1 2 0 0
          0 0 0 0 0 2
          2 1 2 2 1.5 2
          2 2 2 2 2 2
          2 0 0 0 0 0
          0 0 0 0 0 2
          2 2 2 2 2 2
          2 2 2 2 2 2
          2 2 1 1.5 1 1.5
          0 1 1 2 2 2
          2 2 2 2 2 2
          2 2 2 2 2 2
          2 2 2 2 2 2
          2 2 2 1 1 0
          1 2 2 2 2 2
          2 2 2 2 2 2
          2 2 1 1.5 0 1
          2 2 2 2 2 2
          2 2 2 2 2 2
          2 2 2 2 2 2
          2 1 1 1 1 0
          0 0 1 1 0 1
          1 0 0 1 0 2
          2 2 2 2 2 2
          2 2 2 2 2 2
          2 2 2 2 2 2
          2 2 2 2 2 2
          2 2 2 2 2 2
          2 2 2 2 2 2
          2 2 2 2 2 2
          2 2 2 2 2 2
          2 2 2 2 2 2
          2 2 2 2 2 2
          2 2 2 2 2 2
          2 2 2 2 2 2
          2 2 2 2 2 2
          2 2 2 2 2 2
          2 2 2 2 2 2
          2 2 2 2 2 2
          2 2 2 2 2 2
          2 2 2 2 2 2
          2 2 2 2 2 2
          2 2 2 2 2 2
          2 2 2 2 2 2
          2 2 2 2 2 2
          2 2 2 2 2 2
          2 2 2 2 2 2
          2 2 2 2 2 2
          2 2 2 2 2 2
          2 2 2 2 2 2
          2 2 2 2 2 2
          2 2 2 2 2 2
          2 2 2 2 2 2
          2 2 2 2 2 2
          2 2 2 2 2 2
          2 2 2 2 2 2
          2 2 2 2 2 2
          2 2 2 2 2 2
          2 2 2 2 2 2
          2 2 2 2 2 2
          2 2 2 2 2 2
          2 2 2 2 2 2
          2 2 2 2 2 2
          2 2 2 2 2 2
          2 2 2 2 2 2
          2 2 2 0 0 0
          0 0 0 0 0 0
          0 0 0 0 0 0
          0 0 0 0 0 0
          0 0 0 0 0 0
          0 0 0 0 0 0
          1.5 0.25 0.5 2 0.5 1
          0 1.5 0 1.5 0 0
          0 0 0 0 0 0
          0 0 0 0 0 0
          0 0 0 0 1 1
          0 0 0 0 0 0
          1 1 2 2 2 2
          2 2 2 2 2 2
          1.5 1.5 2 2 1 1
          2 2 2 2 2 2
          2 2 2 2 2 2
          2 2 2 2 2 2
          1 1.5 1 2 1.5 2
          2 2 2 2 2 2
          1 2 1 0 2 1
          2 2 2 2 2 2
          2 2 2 2 2 2
          2 2 2 2 2 2
          2 2 2 2 2 2
          2 2 2 2 2 2
          2 2 2 2 2 2
          2 2 2 2 2
        </DataArray>
        <DataArray type="Float64" Name="gradient_marker" format="ascii" RangeMin="0" RangeMax="1">
          0 1 0.75 0.75 1 1
          1 1 1 1 1 0.5
          0.875 0.5 0.5 0.75 0.625 0
          0.5 0.25 0.5 0.75 0 0
          1 0.5 0.5 0 0.5 0.5
          1 0 0.5 0.5 0.5 0.625
          0 0 0.5 0.5 0.25 0.75
          0.625 0 0.5 0.5 0.5 0.5
          0.5 0.75 0 0.25 0 0.25
          0 0 0 0.75 0.75 0.5
          0 0.125 0.625 0 0 0
          0 0 0.5 0.375 0 0
          0 0.5 1 0.875 1 0.6666666666666666
          1 0.75 1 0 0 0
          0 1 0.5 1 0.75 0.5
          1 0.75 0 0.5 0.5 0.5
          0.5 0.75 0 0.25 0 0
          0.75 0.3333333333333333 0 0 0 0
          0.25 0.25 0 0 0 0
          0.75 0.75 0.625 0.75 0.5 0.5
          0.75 0 0.125 0 0.25 0
          0 0 0.25 0.5 0 0
          0.25 0 0 0.5 0 0
          0 0 0 0 0 0
          0 0 0 0 0 0
          0 0 0 0 0 0
          0 0 0 0 0 0
          0 0 0 0 0 0
          0 0 0 0 0 0
          0 0 0 0 0 0
          0 0 0 0 0 0
          0 0 0 0 0 0
          0 0 0 0 0 0
          0 0 0 0 0 0
          0 0 0 0 0 0
          0 0 0 0 0 0
          0 0 0 0 0 0
          0 0 0 0 0 0
          0 0 0 0 0 0
          0 0 0 0 0 0
          0 0 0 0 0 0
          0 0 0 0 0 0
          0 0 0 0 0 0
          0 0 0 0 0 0
          0 0 0 0 0 0
          0 0 0 0 0 0
          0 0 0 0 0 0
          0 0 0 0 0 0
          0 0 0 0 0 0
          0 0 0 0 0 0
          0 0 0 0 0 0
          0 0 0 0 0 0
          0 0 0 0 0 0
          0 0 0 0 0 0
          0 0 0 0 0 0
          0 0 0 0 0 0
          0 0 0 0 0 0
          0 0 0 0 0 0
          0 0 0 0 0 0
          0 0 0 0 0 0
          0 0 0 0 0 0
          0 0 0 0 0 0
          0 0 0 0 0 0
          0 0 0 0 0 0
          0 0 0 0 0 0
          0 0 0 1 1 1
          1 1 1 1 1 0.75
          0.75 1 0.75 0.625 0.75 0.75
          1 1 1 1 1 1