<?xml version="1.0"?>
<VTKFile type="UnstructuredGrid" version="0.1" byte_order="LittleEndian" header_type="UInt32" compressor="vtkZLibDataCompressor">
  <UnstructuredGrid>
    <Piece NumberOfPoints="1563" NumberOfCells="966">
      <PointData>
        <DataArray type="Int32" Name="libmesh_node_id" format="ascii" RangeMin="40" RangeMax="14823">
          44 45 46 47 48 49
          50 51 52 53 54 55
          56 57 58 59 60 61
          62 63 64 65 66 67
          68 69 70 71 72 73
          74 75 76 77 78 79
          80 81 82 83 84 85
          86 87 88 89 90 91
          92 93 94 95 96 97
          98 99 100 101 102 103
          126 127 128 129 130 131
          132 133 134 135 136 137
          138 139 140 141 142 143
          144 145 146 147 148 149
          150 151 152 153 154 155
          178 179 180 181 182 183
          184 185 186 187 188 189
          190 191 192 193 194 195
          196 197 198 199 200 201
          202 203 204 205 206 207
          230 231 232 233 234 235
          236 237 238 239 240 241
          242 243 244 245 246 247
          248 249 250 251 252 253
          254 255 256 257 258 259
          271 272 273 274 275 276
          277 278 279 280 281 282
          283 284 285 297 298 299
          300 301 302 303 304 305
          306 307 308 309 310 311
          334 335 336 337 338 339
          340 341 342 343 344 345
          346 347 348 349 350 351
          352 353 354 355 356 357
          358 359 360 361 362 363
          375 376 377 378 379 380
          381 382 383 384 385 386
          387 388 389 401 402 403
          404 405 406 407 408 409
          410 411 412 413 414 415
          438 439 440 441 442 443
          444 445 446 447 448 449
          450 451 452 453 454 455
          456 457 458 459 460 461
          462 463 464 465 466 467
          479 480 481 482 483 484
          485 486 487 488 489 490
          491 492 493 505 506 507
          508 509 510 511 512 513
          514 515 516 517 518 519
          540 541 542 543 544 545
          546 547 548 549 550 551
          552 553 554 555 556 557
          558 559 560 561 562 563
          564 565 566 567 568 569
          570 571 582 583 584 585
          586 587 588 589 590 591
          592 593 594 595 596 597
          608 609 610 611 612 613
          614 615 616 617 618 619
          620 621 622 623 644 645
          646 647 648 649 650 651
          652 653 654 655 656 657
          658 659 660 661 662 663
          664 665 666 667 668 669
          670 671 672 673 674 675
          686 687 688 689 690 691
          692 693 694 695 696 697
          698 699 700 701 712 713
          714 715 716 717 718 719
          720 721 722 723 724 725
          726 727 748 749 750 751
          752 753 754 755 756 757
          758 759 760 761 762 763
          764 765 766 767 768 769
          770 771 772 773 774 775
          776 777 778 779 790 791
          792 793 794 795 796 797
          798 799 800 801 802 803
          804 805 816 817 818 819
          820 821 822 823 824 825
          826 827 828 829 830 831
          852 853 854 855 856 857
          858 859 860 861 862 863
          864 865 866 867 868 869
          870 871 872 873 874 875
          876 877 878 879 880 881
          882 883 894 895 896 897
          898 899 900 901 902 903
          904 905 906 907 908 909
          920 921 922 923 924 925
          926 927 928 929 930 931
          932 933 934 935 956 957
          958 959 960 961 962 963
          964 965 966 967 968 969
          970 971 972 973 974 975
          976 977 978 979 980 981
          982 983 984 985 986 987
          998 999 1000 1001 1002 1003
          1004 1005 1006 1007 1008 1009
          1010 1011 1012 1013 1024 1025
          1026 1027 1028 1029 1030 1031
          1032 1033 1034 1035 1036 1037
          1038 1039 1064 1065 1066 1067
          1068 1069 1070 1071 1072 1073
          1074 1075 1076 1077 1078 1079
          1080 1081 1082 1083 1084 1085
          1086 1087 1088 1089 1090 1091
          1104 1105 1106 1107 1108 1109
          1110 1111 1112 1113 1114 1115
          1116 1117 1130 1131 1132 1133
          1134 1135 1136 1137 1138 1139
          1140 1141 1142 1143 1168 1169
          1170 1171 1172 1173 1174 1175
          1176 1177 1178 1179 1180 1181
          1182 1183 1184 1185 1186 1187
          1188 1189 1190 1191 1192 1193
          1194 1195 1208 1209 1210 1211
          1212 1213 1214 1215 1216 1217
          1218 1219 1220 1221 1234 1235
          1236 1237 1238 1239 1240 1241
          1242 1243 1244 1245 1246 1247
          1272 1273 1274 1275 1276 1277
          1278 1279 1280 1281 1282 1283
          1284 1285 1286 1287 1288 1289
          1290 1291 1292 1293 1294 1295
          1296 1297 1298 1299 1312 1313
          1314 1315 1316 1317 1318 1319
          1320 1321 1322 1323 1324 1325
          1338 1339 1340 1341 1342 1343
          1344 1345 1346 1347 1348 1349
          1350 1351 1378 1379 1380 1381
          1382 1383 1384 1385 1386 1387
          1388 1389 1390 1391 1392 1393
          1394 1395 1396 1397 1398 1399
          1400 1401 1402 1403 1417 1418
          1419 1420 1421 1422 1423 1424
          1425 1426 1427 1428 1429 1443
          1444 1445 1446 1447 1448 1449
          1450 1451 1452 1453 1454 1455
          1484 1485 1486 1487 1488 1489
          1490 1491 1492 1493 1494 1495
          1496 1497 1498 1499 1500 1501
          1502 1503 1504 1505 1506 1507
          1522 1523 1524 1525 1526 1527
          1528 1529 1530 1531 1532 1533
          1548 1549 1550 1551 1552 1553
          1554 1555 1556 1557 1558 1559
          1588 1589 1590 1591 1592 1593
          1598 1599 1600 1601 1602 1603
          1604 1605 1606 1607 1608 1609
          1610 1611 1626 1627 1628 1631
          1632 1633 1634 1635 1636 1637
          1652 1653 1654 1657 1658 1659
          1660 1661 1662 1663 1692 1693
          1694 1695 1696 1697 1704 1705
          1706 1707 1708 1709 1710 1711
          1712 1713 1714 1715 1730 1731
          1732 1736 1737 1738 1739 1740
          1741 1756 1757 1758 1762 1763
          1764 1765 1766 1767 1796 1797
          1798 1799 1810 1811 1812 1813
          1814 1815 1816 1817 1818 1819
          1834 1835 1836 1841 1842 1843
          1844 1845 1860 1861 1862 1867
          1868 1869 1870 1871 1872 1873
          1874 1875 1876 1877 1878 1879
          1880 1881 1882 1883 1884 1885
          1886 1887 1888 1889 1890 1891
          1892 1895 1898 1961 1962 1964
          1965 1967 1968 1969 1970 1972
          1974 2005 2006 2007 2008 2009
          2010 2011 2012 2013 2014 2015
          2016 2017 2018 2019 2020 2021
          2022 2023 2200 2201 2202 2203
          2204 2205 2206 2207 2208 2209
          2210 2211 2212 2213 2244 2245
          2248 2249 2251 2252 2254 2255
          2257 2258 2259 2260 2261 2262
          2263 2264 2265 2266 2267 2268
          2269 2270 2271 2272 2273 2274
          2275 2276 2277 2278 2279 2280
          2281 2282 2283 2284 2285 2286
          2287 2288 2289 2290 2291 2292
          2293 2294 2295 2296 2297 2298
          2303 2306 2390 2391 2392 2393
          2394 2395 2396 2397 2398 2399
          2400 2401 2402 2403 2404 2405
          2406 2407 2408 2409 2410 2411
          2412 2413 2414 2415 2416 2417
          2418 2419 2420 2421 2422 2423
          2424 2425 2426 2427 2428 2429
          2430 2431 2432 2433 2434 2435
          2436 2437 2438 2439 2440 2444
          2445 2447 2448 2450 2465 2466
          2469 2470 2472 2474 3149 3150
          3151 3152 3153 3154 3155 3156
          3157 3158 3159 3160 3161 3162
          3163 3164 3165 3166 3167 3168
          3169 3170 3171 3172 3173 3174
          3177 3180 3187 3261 3262 3263
          3264 3265 3266 3267 3268 3269
          3270 3271 3272 3273 3274 3275
          3276 3277 3278 3279 3280 3281
          3282 3283 3284 3285 3286 3287
          3288 3289 3290 3291 3292 3293
          3294 3295 3296 3297 3298 3299
          3300 3301 3302 3303 3304 3305
          3306 3307 3308 3312 3313 3321
          3322 3325 3326 3431 3432 3433
          3434 3435 3436 3437 3438 3439
          3440 3441 3442 3443 3444 3445
          3446 3447 3448 3451 3452 3453
          3455 3456 3458 5332 5333 5336
          5337 5338 5393 5394 5395 5396
          5397 5398 5399 5400 5401 5402
          14437 14438 14441 14442 14444 14445
          14730 14731 14732 14733 14734 14735
          14736 14737 14738 14739 14740 14741
          14742 14743 14744 14745 14746 14747
          14748 14749 14750 14751 14752 14753
          14754 14755 14756 14757 14760 14761
          14763 14764 14765 14766 14767 14769
          14770 14771 14773 14774 14775 14776
          14777 14778 14779 14780 14781 14782
          14783 14785 14786 14788 14789 14790
          14792 14793 14794 14796 14797 14798
          14799 14800 14801 14802 14803 14804
          14806 14808 14809 14810 14811 14813
          14814 14816 14817 14818 14819 14820
          14821 14822 14823 40 41 42
          43 124 125 176 177 228
          229 270 296 332 333 374
          400 436 437 478 504 434
          435 538 539 477 581 503
          607 642 643 685 711 746
          747 789 815 850 851 893
          919 954 955 997 1023 1058
          1060 1061 1059 1062 1063 1102
          1101 1103 1128 1127 1129 1166
          1167 1207 1233 1270 1271 1311
          1337 1374 1376 1377 1375 1416
          1415 1442 1441 1480 1482 1483
          1481 1521 1520 1547 1546 1586
          1587 1625 1651 1691 1729 1755
          1833 1859 1894 1899 1963 1900
          1966 1904 1971 1973 2246 2250
          2253 2299 2300 2301 2302 2304
          2305 2307 2308 2309 2031 2310
          2032 2311 2312 2313 2314 2315
          2026 2441 2442 2443 2027 2446
          2034 2449 2035 2467 2468 2471
          2473 2037 3175 3176 3178 2024
          2025 3309 3310 3311 3314 3323
          3324 3327 3449 3450 3454 3457
          5334 5335 3182 2053 2052 2058
          2056 14439 14440 14443 14446 1690
          14722 14723 14726 1795 14728 14758
          14759 14762 14768 2247 14772 14784
          14787 14791 1794 14795 2256 14805
          14807 14812 14815
        </DataArray>
        <DataArray type="Float64" Name="bounds" format="ascii" RangeMin="0" RangeMax="0">
          0 0 0 0 0 0
          0 0 0 0 0 0
          0 0 0 0 0 0
          0 0 0 0 0 0
          0 0 0 0 0 0
          0 0 0 0 0 0
          0 0 0 0 0 0
          0 0 0 0 0 0
          0 0 0 0 0 0
          0 0 0 0 0 0
          0 0 0 0 0 0
          0 0 0 0 0 0
          0 0 0 0 0 0
          0 0 0 0 0 0
          0 0 0 0 0 0
          0 0 0 0 0 0
          0 0 0 0 0 0
          0 0 0 0 0 0
          0 0 0 0 0 0
          0 0 0 0 0 0
          0 0 0 0 0 0
          0 0 0 0 0 0
          0 0 0 0 0 0
          0 0 0 0 0 0
          0 0 0 0 0 0
          0 0 0 0 0 0
          0 0 0 0 0 0
          0 0 0 0 0 0
          0 0 0 0 0 0
          0 0 0 0 0 0
          0 0 0 0 0 0
          0 0 0 0 0 0
          0 0 0 0 0 0
          0 0 0 0 0 0
          0 0 0 0 0 0
          0 0 0 0 0 0
          0 0 0 0 0 0
          0 0 0 0 0 0
          0 0 0 0 0 0
          0 0 0 0 0 0
          0 0 0 0 0 0
          0 0 0 0 0 0
          0 0 0 0 0 0
          0 0 0 0 0 0
          0 0 0 0 0 0
          0 0 0 0 0 0
          0 0 0 0 0 0
          0 0 0 0 0 0
          0 0 0 0 0 0
          0 0 0 0 0 0
          0 0 0 0 0 0
          0 0 0 0 0 0
          0 0 0 0 0 0
          0 0 0 0 0 0
          0 0 0 0 0 0
          0 0 0 0 0 0
          0 0 0 0 0 0
          0 0 0 0 0 0
          0 0 0 0 0 0
          0 0 0 0 0 0
          0 0 0 0 0 0
          0 0 0 0 0 0
          0 0 0 0 0 0
          0 0 0 0 0 0
          0 0 0 0 0 0
          0 0 0 0 0 0
          0 0 0 0 0 0
          0 0 0 0 0 0
          0 0 0 0 0 0
          0 0 0 0 0 0
          0 0 0 0 0 0
          0 0 0 0 0 0
          0 0 0 0 0 0
          0 0 0 0 0 0
          0 0 0 0 0 0
          0 0 0 0 0 0
          0 0 0 0 0 0
          0 0 0 0 0 0
          0 0 0 0 0 0
          0 0 0 0 0 0
          0 0 0 0 0 0
          0 0 0 0 0 0
          0 0 0 0 0 0
          0 0 0 0 0 0
          0 0 0 0 0 0
          0 0 0 0 0 0
          0 0 0 0 0 0
          0 0 0 0 0 0
          0 0 0 0 0 0
          0 0 0 0 0 0
          0 0 0 0 0 0
          0 0 0 0 0 0
          0 0 0 0 0 0
          0 0 0 0 0 0
          0 0 0 0 0 0
          0 0 0 0 0 0
          0 0 0 0 0 0
          0 0 0 0 0 0
          0 0 0 0 0 0
          0 0 0 0 0 0
          0 0 0 0 0 0
          0 0 0 0 0 0
          0 0 0 0 0 0
          0 0 0 0 0 0
          0 0 0 0 0 0
          0 0 0 0 0 0
          0 0 0 0 0 0
          0 0 0 0 0 0
          0 0 0 0 0 0
          0 0 0 0 0 0
          0 0 0 0 0 0
          0 0 0 0 0 0
          0 0 0 0 0 0
          0 0 0 0 0 0
          0 0 0 0 0 0
          0 0 0 0 0 0
          0 0 0 0 0 0
          0 0 0 0 0 0
          0 0 0 0 0 0
          0 0 0 0 0 0
          0 0 0 0 0 0
          0 0 0 0 0 0
          0 0 0 0 0 0
          0 0 0 0 0 0
          0 0 0 0 0 0
          0 0 0 0 0 0
          0 0 0 0 0 0
          0 0 0 0 0 0
          0 0 0 0 0 0
          0 0 0 0 0 0
          0 0 0 0 0 0
          0 0 0 0 0 0
          0 0 0 0 0 0
          0 0 0 0 0 0
          0 0 0 0 0 0
          0 0 0 0 0 0
          0 0 0 0 0 0
          0 0 0 0 0 0
          0 0 0 0 0 0
          0 0 0 0 0 0
          0 0 0 0 0 0
          0 0 0 0 0 0
          0 0 0 0 0 0
          0 0 0 0 0 0
          0 0 0 0 0 0
          0 0 0 0 0 0
          0 0 0 0 0 0
          0 0 0 0 0 0
          0 0 0 0 0 0
          0 0 0 0 0 0
          0 0 0 0 0 0
          0 0 0 0 0 0
          0 0 0 0 0 0
          0 0 0 0 0 0
          0 0 0 0 0 0
          0 0 0 0 0 0
          0 0 0 0 0 0
          0 0 0 0 0 0
          0 0 0 0 0 0
          0 0 0 0 0 0
          0 0 0 0 0 0
          0 0 0 0 0 0
          0 0 0 0 0 0
          0 0 0 0 0 0
          0 0 0 0 0 0
          0 0 0 0 0 0
          0 0 0 0 0 0
          0 0 0 0 0 0
          0 0 0 0 0 0
          0 0 0 0 0 0
          0 0 0 0 0 0
          0 0 0 0 0 0
          0 0 0 0 0 0
          0 0 0 0 0 0
          0 0 0 0 0 0
          0 0 0 0 0 0
          0 0 0 0 0 0
          0 0 0 0 0 0
          0 0 0 0 0 0
          0 0 0 0 0 0
          0 0 0 0 0 0
          0 0 0 0 0 0
          0 0 0 0 0 0
          0 0 0 0 0 0
          0 0 0 0 0 0
          0 0 0 0 0 0
          0 0 0 0 0 0
          0 0 0 0 0 0
          0 0 0 0 0 0
          0 0 0 0 0 0
          0 0 0 0 0 0
          0 0 0 0 0 0
          0 0 0 0 0 0
          0 0 0 0 0 0
          0 0 0 0 0 0
          0 0 0 0 0 0
          0 0 0 0 0 0
          0 0 0 0 0 0
          0 0 0 0 0 0
          0 0 0 0 0 0
          0 0 0 0 0 0
          0 0 0 0 0 0
          0 0 0 0 0 0
          0 0 0 0 0 0
          0 0 0 0 0 0
          0 0 0 0 0 0
          0 0 0 0 0 0
          0 0 0 0 0 0
          0 0 0 0 0 0
          0 0 0 0 0 0
          0 0 0 0 0 0
          0 0 0 0 0 0
          0 0 0 0 0 0
          0 0 0 0 0 0
          0 0 0 0 0 0
          0 0 0 0 0 0
          0 0 0 0 0 0
          0 0 0 0 0 0
          0 0 0 0 0 0
          0 0 0 0 0 0
          0 0 0 0 0 0
          0 0 0 0 0 0
          0 0 0 0 0 0
          0 0 0 0 0 0
          0 0 0 0 0 0
          0 0 0 0 0 0
          0 0 0 0 0 0
          0 0 0 0 0 0
          0 0 0 0 0 0
          0 0 0 0 0 0
          0 0 0 0 0 0
          0 0 0 0 0 0
          0 0 0 0 0 0
          0 0 0 0 0 0
          0 0 0 0 0 0
          0 0 0 0 0 0
          0 0 0 0 0 0
          0 0 0 0 0 0
          0 0 0 0 0 0
          0 0 0 0 0 0
          0 0 0 0 0 0
          0 0 0 0 0 0
          0 0 0 0 0 0
          0 0 0 0 0 0
          0 0 0 0 0 0
          0 0 0 0 0 0
          0 0 0 0 0 0
          0 0 0 0 0 0
          0 0 0 0 0 0
          0 0 0 0 0 0
          0 0 0 0 0 0
          0 0 0 0 0 0
          0 0 0 0 0 0
          0 0 0 0 0 0
          0 0 0 0 0 0
          0 0 0 0 0 0
          0 0 0 0 0 0
          0 0 0 0 0 0
          0 0 0 0 0 0
          0 0 0 0 0 0
          0 0 0
        </DataArray>
        <DataArray type="Float64" Name="gradient_error" format="ascii" RangeMin="3.432872649300353e-16" RangeMax="1.915509512653832e-7">
          4.633997198124668e-15 4.631451854743635e-15 4.6210147751984526e-15 4.62474892847457e-15 4.621384317925935e-15 4.6251644156769346e-15
          4.644831162857579e-15 4.636632993113016e-15 4.627905865644909e-15 4.628389893982624e-15 4.631161524475046e-15 4.6298787429776285e-15
          4.628291174880586e-15 4.6285557663087e-15 4.629952944785879e-15 4.629330265806525e-15 4.629175275416484e-15 4.629067761166287e-15
          4.627991556136541e-15 4.628212894268187e-15 4.629102414190572e-15 4.6289674868081374e-15 4.6281308377394895e-15 4.628421939795076e-15
          4.628722356617047e-15 4.628736895031613e-15 4.628939678181965e-15 4.62891499854581e-15 4.628762126293621e-15 4.628778618584589e-15
          4.6288714812657545e-15 4.628837135288377e-15 4.62879975537711e-15 4.628797657979707e-15 4.628791564985899e-15 4.628795532100942e-15
          4.628797768348643e-15 4.628797478067216e-15 4.6287939796982616e-15 4.628794509155897e-15 4.628796898866759e-15 4.628796747593289e-15
          4.628796023933843e-15 4.628796039606356e-15 4.6287965499837846e-15 4.628796487293878e-15 4.628796614036512e-15 4.628796523408708e-15
          4.6287965090990645e-15 4.6287964027987874e-15 4.628796706708534e-15 4.6287965867800185e-15 4.6287964954708265e-15 4.628796431418096e-15
          4.6287967026200725e-15 4.628796565656252e-15 4.62879627196768e-15 4.628796405524439e-15 4.628796577240266e-15 4.6287965009221126e-15
          4.628827998428622e-15 4.628702048128449e-15 4.628854726964274e-15 4.628656155887625e-15 4.6288340441932595e-15 4.6287050300596e-15
          4.628801683567585e-15 4.6287728340213904e-15 4.628851926894908e-15 4.6286749576009054e-15 4.628805966090714e-15 4.628774693580574e-15
          4.6287795194317625e-15 4.628832300774048e-15 4.6287968757228786e-15 4.6287969713082765e-15 4.628796049832212e-15 4.628797777932325e-15
          4.628796851168071e-15 4.6287959121829364e-15 4.628796645381477e-15 4.628796358507111e-15 4.628796612673696e-15 4.628796555435072e-15
          4.628796408250075e-15 4.628796522727282e-15 4.62879631148957e-15 4.628796415064191e-15 4.6287964055244375e-15 4.628796374179479e-15
          4.628749485494641e-15 4.62892101450621e-15 4.628764940500615e-15 4.628877488406798e-15 4.62879416606618e-15 4.62881409863899e-15
          4.628783009398356e-15 4.628838081215608e-15 4.628743606873726e-15 4.628915682801978e-15 4.6287793727557234e-15 4.628836345310485e-15
          4.628807605417346e-15 4.62877428263844e-15 4.628798640570201e-15 4.628791153305556e-15 4.62879653908212e-15 4.628796056648664e-15
          4.6287965145503505e-15 4.628796785752341e-15 4.6287966944431356e-15 4.628796661735353e-15 4.62879680074342e-15 4.6287966780892404e-15
          4.62879652000164e-15 4.628796578603063e-15 4.6287962556137745e-15 4.6287964014359505e-15 4.628796271967678e-15 4.628796323754999e-15
          4.717638042861956e-15 4.674097534424311e-15 4.574804719669021e-15 4.602650002459343e-15 4.617756985539353e-15 4.6237706163254146e-15
          4.6240420637258505e-15 4.6266959555266924e-15 4.6318656867601325e-15 4.631067531479288e-15 4.631398302267536e-15 4.630280423449687e-15
          4.628332680108503e-15 4.628394851109192e-15 4.628509888048142e-15 4.628636553290821e-15 4.628805296915559e-15 4.628794077348261e-15
          4.6288050553748806e-15 4.6288031453813575e-15 4.6287992988020705e-15 4.628798804097576e-15 4.628797010618414e-15 4.628796903636752e-15
          4.628796556797896e-15 4.62879648933811e-15 4.628796676726422e-15 4.628796537036955e-15 4.628796727150927e-15 4.628796597682632e-15
          4.62937247800355e-15 4.629450692598512e-15 4.629221236104413e-15 4.628962244294849e-15 4.629292401395207e-15 4.628896635234386e-15
          4.628665611075566e-15 4.6287907249595794e-15 4.628790986362657e-15 4.628798437502598e-15 4.628797216406473e-15 4.6287965629306865e-15
          4.628796397347477e-15 4.6287963578255906e-15 4.628796360551253e-15 4.6281879300204334e-15 4.62840609994736e-15 4.6286582250973495e-15
          4.6285746412621626e-15 4.628315426591972e-15 4.628630725836934e-15 4.6288742000412486e-15 4.62881823138566e-15 4.628799114944352e-15
          4.628795639617364e-15 4.628796123419863e-15 4.6287963292062825e-15 4.628796372816628e-15 4.628796318303693e-15 4.6287962528881686e-15
          5.310258109638865e-15 4.9650954230187255e-15 4.9102899757243695e-15 4.765535136785505e-15 4.683693551511122e-15 4.653829725187777e-15
          4.650549301439057e-15 4.638181988999372e-15 4.617155409671637e-15 4.619969875035895e-15 4.618229655430839e-15 4.622755816466193e-15
          4.630377374564186e-15 4.630235816672306e-15 4.629948070918974e-15 4.629457621954673e-15 4.6287997820723185e-15 4.628832045437468e-15
          4.6287700213030385e-15 4.62877605864051e-15 4.628786493731313e-15 4.628788212260516e-15 4.628794733340879e-15 4.628794928906245e-15
          4.628796274693378e-15 4.6287962235874646e-15 4.628796537718389e-15 4.628796444364947e-15 4.628796590868525e-15 4.628796537718401e-15
          4.62611801571078e-15 4.625855138215803e-15 4.62685503716323e-15 4.62790823665175e-15 4.626846881710951e-15 4.62841711123709e-15
          4.629305012634e-15 4.628836060200083e-15 4.628822962178945e-15 4.628789904227008e-15 4.628793410058411e-15 4.62879566619329e-15
          4.628796179977059e-15 4.628796316940882e-15 4.6287964014359955e-15 4.632303295022975e-15 4.630929978584967e-15 4.6297441754620266e-15
          4.630001796743812e-15 4.630909423021751e-15 4.6295522449726345e-15 4.628515766487573e-15 4.628704947409795e-15 4.628781615555274e-15
          4.6287977124760334e-15 4.6287968893271036e-15 4.6287962079149685e-15 4.6287961874725675e-15 4.628796282870259e-15 4.6287963183037144e-15
          9.688755098419408e-15 7.194872011404454e-15 5.1040160968207994e-15 4.891453049466945e-15 4.448390221788309e-15 4.553183917059074e-15
          4.553996427328685e-15 4.60078133932373e-15 4.683425515088485e-15 4.671279053682352e-15 4.673857590379253e-15 4.65587300205746e-15
          4.623992833978002e-15 4.6239806904752056e-15 4.624234362427345e-15 4.626107837462111e-15 4.628642800672665e-15 4.628556207092484e-15
          4.62887323569716e-15 4.628853664834731e-15 4.628835642863603e-15 4.628828053410237e-15 4.6288059889243025e-15 4.628804090517088e-15
          4.628798504274148e-15 4.628797856933145e-15 4.628797265466503e-15 4.6287967952923286e-15 4.6287971632547166e-15 4.628796739416524e-15
          4.659196871864103e-15 4.649624396112417e-15 4.641111956007365e-15 4.635393818675014e-15 4.6397859220529414e-15 4.631830709156805e-15
          4.626875669688999e-15 4.628576058956192e-15 4.628668387975765e-15 4.628814058703261e-15 4.628806746202684e-15 4.628798483167198e-15
          4.628796302632009e-15 4.628795989181853e-15 4.628796008942779e-15 4.617404819338707e-15 4.6203587901117455e-15 4.6242462996848895e-15
          4.6232213860312526e-15 4.6204392518296634e-15 4.62577300457794e-15 4.629782792405586e-15 4.629170805415509e-15 4.628867162439228e-15
          4.628794023434221e-15 4.628793028448493e-15 4.628794774224522e-15 4.628795395671878e-15 4.628795653245552e-15 4.628795702307226e-15
          5.212871490273596e-14 2.8702545095663e-14 3.2244772937844433e-14 1.8504861098076226e-14 1.1909950347502893e-14 8.248391293291497e-15
          6.360854019291329e-15 5.4690820096873395e-15 5.282070654285005e-15 4.932463488838352e-15 4.557220638463842e-15 4.567149753538104e-15
          4.470610260667978e-15 4.548085223231513e-15 4.6475570636564546e-15 4.6474532509739675e-15 4.64720732807017e-15 4.6398822465540335e-15
          4.6299869338865606e-15 4.630168990028146e-15 4.628642394033769e-15 4.628690401459849e-15 4.6286684264837486e-15 4.6286914796277164e-15
          4.628765537859051e-15 4.628769625695001e-15 4.628794892805782e-15 4.628793827075907e-15 4.628800871500639e-15 4.628798740045184e-15
          4.628801660575376e-15 4.6287994173689216e-15 5.0592005825710205e-15 4.8008813017436396e-15 4.65811478905308e-15 4.626990936054943e-15
          4.626068034726395e-15 4.628249899769613e-15 4.636950923823726e-15 4.636427997842743e-15 4.629924906213401e-15 4.629404690580913e-15
          4.6287588918117935e-15 4.628756079027121e-15 4.628783883412531e-15 4.628792792684801e-15 4.628794574573126e-15 4.628794890067375e-15
          4.842025876552006e-15 4.836813345179262e-15 4.729397339026057e-15 4.676671872026535e-15 4.6692797460610906e-15 4.679420930926859e-15
          4.648341661852403e-15 4.6255065573940054e-15 4.627292647388906e-15 4.628458334992095e-15 4.628779374737656e-15 4.628797625282558e-15
          4.628794053294112e-15 4.6287928240235696e-15 4.628792540556522e-15 4.6287926059722825e-15 2.1352536692161094e-13 1.1240327223812699e-13
          1.2421523522838387e-13 6.708094319150986e-14 3.894866709748329e-14 2.3318287219580324e-14 1.4679210800554447e-14 1.0460189308139875e-14
          9.055427166366464e-15 7.347386367693286e-15 6.9164966216700754e-15 6.369836507680986e-15 5.556940662959938e-15 5.324798726282797e-15
          4.638599570395359e-15 4.604144171260683e-15 4.5624685589000364e-15 4.5877047414135905e-15 4.622172869419637e-15 4.621987943943312e-15
          4.628804167422167e-15 4.628708538298748e-15 4.629219125544108e-15 4.6291303052327206e-15 4.6289445244547526e-15 4.628913334091434e-15
          4.628839419171311e-15 4.628826942655454e-15 4.62881426126609e-15 4.628805978741422e-15 4.6288101782409044e-15 4.6288025314627494e-15
          9.163376981496214e-15 8.137358319433549e-15 6.469594576868371e-15 5.5394994564732485e-15 5.162159225850678e-15 5.248100864372919e-15
          4.8708322274191294e-15 4.604281710401759e-15 4.6237926196088785e-15 4.62603863135082e-15 4.628757950168595e-15 4.628908615513626e-15
          4.628829533260248e-15 4.628796782602143e-15 4.628788658609375e-15 4.6287873482397986e-15 7.045576408349427e-15 6.328065484231235e-15
          5.251281812059386e-15 4.837831097221197e-15 4.6849728826812455e-15 4.673025335053942e-15 4.6490076652326026e-15 4.638874648677511e-15
          4.6346443152906115e-15 4.630274244234655e-15 4.62890299116186e-15 4.62877574610592e-15 4.62877692279238e-15 4.62877909906469e-15
          4.628779621001996e-15 4.628779811795003e-15 8.891319915531866e-13 4.686242846070437e-13 4.953690398265688e-13 2.6845534336689253e-13
          1.515309368996154e-13 8.900896237394328e-14 6.22024326318848e-14 3.931322853906495e-14 3.3119191665260224e-14 2.2644839552995166e-14
          1.731259015971507e-14 1.4880737522473295e-14 8.871112503043778e-15 8.487074293444902e-15 5.409054594476534e-15 5.145019913758288e-15
          4.94162048417713e-15 4.8224879827205316e-15 4.665723712996495e-15 4.66447046981222e-15 4.631689108039203e-15 4.631534526097807e-15
          4.627878190670403e-15 4.62806546571556e-15 4.628424408750404e-15 4.628470793199974e-15 4.628756067821642e-15 4.628740937431792e-15
          4.6288507200735646e-15 4.628819048277993e-15 4.628867896934549e-15 4.628833248899923e-15 3.6793608117475513e-14 3.1033445853466095e-14
          1.977210080081381e-14 1.2659633924842823e-14 9.837231279595226e-15 9.858965972456384e-15 6.8911785101835975e-15 4.744686496835198e-15
          4.655464228915632e-15 4.6428780566854484e-15 4.6296881906236064e-15 4.628468093720504e-15 4.6286235759909205e-15 4.628728733178442e-15
          4.628759635139029e-15 4.6287652684766675e-15 2.54706385740501e-14 2.0525244799715903e-14 1.3057213753356445e-14 8.89524340344055e-15
          7.50397511846034e-15 7.269047059681248e-15 5.679320936521171e-15 4.608387760630352e-15 4.6075729765673304e-15 4.62253888674295e-15
          4.6279964370908e-15 4.628683446680291e-15 4.628729974332297e-15 4.6287316593149424e-15 4.628731893795636e-15 4.628731936088038e-15
          3.754228152513725e-12 2.0004558841367157e-12 1.9999674924347557e-12 1.1049149732006877e-12 5.952287494212841e-13 3.6174765622751896e-13
          2.768118766316415e-13 1.7618080418097135e-13 1.4532155906384e-13 9.863175876596578e-14 7.198580179469236e-14 5.990158534583848e-14
          3.0111515538194435e-14 2.620404564220769e-14 8.841508787803904e-15 6.633834756187175e-15 4.9048447431965024e-15 4.683031805483248e-15
          4.504942308244263e-15 4.518592909027737e-15 4.607176376179334e-15 4.609495289847443e-15 4.62990020198412e-15 4.629377201823084e-15
          4.6302371251934656e-15 4.629872895112844e-15 4.6294401533766415e-15 4.629240252136494e-15 4.6291425626071644e-15 4.6289966731898986e-15
          4.629081455153003e-15 4.628946265741566e-15 1.8429334358038938e-13 1.516608283758019e-13 9.207910047211565e-14 5.449764230517514e-14
          3.841686484948714e-14 3.487412155942279e-14 1.6934984555711464e-14 4.616267647229268e-15 4.5833252268259546e-15 4.59360954696567e-15
          4.6220022489166015e-15 4.628893258728711e-15 4.629042125511874e-15 4.628785022011133e-15 4.628685642571851e-15 4.628664824237309e-15
          1.2190307140107193e-13 9.3459202784984e-14 5.5891637910477525e-14 3.34455528800491e-14 2.4891771230882726e-14 2.193087422186098e-14
          1.1573393365201983e-14 4.8063745698880875e-15 4.705431585881915e-15 4.65497558412013e-15 4.6321902943176534e-15 4.628932315795371e-15
          4.628575585991525e-15 4.628529693125921e-15 4.628520501371069e-15 4.62851857214449e-15 1.6049132454455657e-11 8.694299626980446e-12
          8.151195129672271e-12 4.616253402728864e-12 2.340771789207206e-12 1.494229272340548e-12 1.2355897289944677e-12 8.059881627618457e-13
          6.485139436262783e-13 4.4893573042568833e-13 3.077173422197373e-13 2.589364677645416e-13 1.1866079473939013e-13 1.0443733832503902e-13
          2.928255184330507e-14 1.849414412193258e-14 1.1178419306005776e-14 8.689130148128905e-15 5.602414766531337e-15 5.5685487328468645e-15