<?xml version="1.0"?>
<VTKFile type="UnstructuredGrid" version="0.1" byte_order="LittleEndian" header_type="UInt32" compressor="vtkZLibDataCompressor">
  <UnstructuredGrid>
    <Piece NumberOfPoints="1355" NumberOfCells="960">
      <PointData>
        <DataArray type="Int32" Name="libmesh_node_id" format="ascii" RangeMin="1924" RangeMax="14257">
          2140 2162 2163 2165 2170 2358
          2359 2940 3003 3005 3006 3007
          3008 3012 3027 3028 3029 3030
          3034 3035 3051 3056 3067 3068
          3069 3070 3071 3073 4373 4377
          4407 4409 4411 4481 4505 4509
          4682 4683 4688 4689 4690 4691
          4692 4693 4694 4695 4696 4697
          4698 4699 4700 4701 4702 4703
          4704 4705 4706 4707 4708 4757
          4758 4759 4760 4761 4762 4763
          4764 4765 4766 4767 4768 4769
          4770 4771 4772 4773 4774 4775
          4776 4801 4806 4807 4808 4809
          4810 4811 4812 4813 4814 4816
          4818 4820 4835 4840 4841 4842
          4843 4844 4845 4846 4847 4848
          4850 4852 4854 4923 4924 4925
          4926 4927 4928 4929 4930 4931
          4932 4933 4934 4935 4936 4937
          4938 4939 4940 4943 4944 4945
          4947 4948 4949 4950 4951 4952
          4953 4954 4955 4956 4957 4958
          4959 4960 4961 4962 4963 4964
          4966 4968 4970 4971 4972 4974
          4975 4976 4978 4980 4982 4984
          5270 5271 5274 5276 5278 5279
          5280 5281 5282 5283 5284 5285
          5286 5287 5289 5293 5295 5299
          5563 5564 5565 5566 5567 5568
          5569 5570 5571 5572 5573 5574
          5575 5576 8866 8878 8890 8894
          9098 9110 9112 9114 9126 9138
          9140 9142 9700 9714 9907 9909
          9911 9921 9925 9935 9937 9939
          9949 9953 10698 10700 10714 10715
          10716 10717 10718 10719 10720 10721
          10722 10723 10724 10725 10726 10727
          10728 10729 10730 10731 10732 10733
          10734 10735 10736 10737 10738 10739
          10740 10741 10742 10743 10744 10745
          10746 10747 10748 10749 10750 10751
          10752 10753 10754 10755 10756 10757
          10758 10759 10760 10761 10762 10763
          10768 10769 10770 10773 10774 10775
          10776 10777 10778 10779 10780 10781
          10782 10783 10784 10785 10786 10787
          10788 10789 10790 10791 10792 10793
          10940 10941 10942 10943 10944 10945
          10946 10947 10948 10949 10950 10951
          10952 10953 10954 10955 10956 10957
          10958 10959 10960 10961 10962 10963
          10964 10965 10966 10967 10968 10969
          10970 10971 10972 10973 10974 10975
          10976 10977 10978 10979 10980 10981
          10982 10983 10984 10985 10986 10987
          10988 10989 10990 10991 10992 10993
          10994 10995 10996 10997 10998 10999
          11000 11001 11002 11003 11004 11005
          11006 11007 11008 11009 11111 11145
          11156 11157 11158 11159 11160 11161
          11162 11163 11164 11165 11166 11167
          11168 11169 11170 11171 11172 11173
          11174 11175 11176 11177 11178 11179
          11180 11181 11182 11183 11184 11185
          11186 11187 11188 11189 11190 11191
          11192 11193 11194 11195 11196 11197
          11198 11199 11200 11201 11202 11203
          11204 11205 11206 11207 11208 11209
          11210 11211 11212 11213 11214 11215
          11216 11217 11218 11221 11225 11226
          11227 11228 11229 11230 11231 11232
          11233 11235 11237 11239 11240 11241
          11242 11243 11244 11245 11246 11249
          11253 11254 11255 11256 11257 11258
          11259 11260 11261 11263 11265 11267
          11359 11393 11404 11405 11406 11407
          11408 11409 11410 11411 11412 11413
          11414 11415 11416 11417 11418 11419
          11420 11421 11422 11423 11424 11425
          11426 11427 11428 11429 11430 11431
          11432 11433 11434 11435 11436 11437
          11438 11439 11440 11441 11442 11443
          11444 11445 11446 11447 11448 11449
          11450 11451 11452 11453 11454 11455
          11456 11457 11458 11459 11460 11461
          11462 11463 11464 11465 11466 11469
          11473 11474 11475 11476 11477 11478
          11479 11480 11481 11483 11485 11487
          11488 11489 11490 11491 11492 11493
          11494 11497 11501 11502 11503 11504
          11505 11506 11507 11508 11509 11511
          11513 11515 12021 12022 12023 12024
          12025 12026 12027 12028 12029 12030
          12031 12032 12033 12034 12035 12036
          12037 12038 12039 12040 12041 12042
          12043 12044 12045 12046 12047 12048
          12049 12050 12051 12052 12053 12054
          12055 12056 12057 12058 12059 12060
          12061 12062 12063 12064 12065 12066
          12067 12068 12069 12070 12071 12072
          12073 12074 12075 12076 12077 12078
          12079 12080 12081 12082 12083 12084
          12085 12086 12087 12088 12089 12090
          12091 12092 12093 12094 12095 12096
          12097 12098 12099 12100 12101 12102
          12103 12104 12105 12106 12107 12108
          12109 12110 12111 12112 12113 12114
          12115 12116 12117 12118 12119 12120
          12121 12122 12123 12124 12125 12126
          12127 12128 12129 12130 12131 12132
          12133 12134 12135 12136 12137 12138
          12139 12140 12141 12142 12143 12144
          12145 12146 12147 12148 12149 12150
          12151 12152 12153 12154 12155 12156
          12157 12158 12159 12160 12161 12162
          12163 12164 12166 12167 12168 12169
          12170 12171 12172 12173 12174 12175
          12176 12177 12178 12179 12180 12181
          12182 12183 12184 12185 12186 12187
          12188 12189 12190 12191 12194 12195
          12197 12198 12199 12200 12201 12202
          12203 12204 12205 12206 12207 12208
          12209 12210 12211 12212 12213 12214
          12215 12216 12217 12218 12219 12220
          12221 12222 12223 12224 12225 12226
          12227 12228 12229 12230 12231 12232
          12233 12234 12235 12236 12237 12238
          12239 12240 12241 12242 12243 12244
          12245 12246 12247 12248 12249 12250
          12251 12252 12253 12254 12255 12256
          12257 12258 12259 12260 12261 12262
          12263 12264 12265 12266 12267 12268
          12269 12270 12271 12272 12273 12274
          12275 12276 12277 12278 12279 12280
          12281 12282 12283 12284 12285 12286
          12287 12288 12289 12290 12291 12292
          12293 12294 12295 12296 12297 12298
          12299 12300 12301 12302 12303 12304
          12305 12306 12307 12308 12309 12310
          12311 12312 12313 12314 12315 12316
          12317 12318 12319 12320 12321 12322
          12323 12324 12325 12326 12327 12328
          12330 12332 12334 12335 12336 12337
          12338 12339 12340 12341 12342 12344
          12346 12348 12349 12350 12351 12352
          12353 12354 12355 12356 12358 12360
          12362 12363 12364 12365 12366 12367
          12368 12369 12370 12372 12374 12376
          12377 12378 12379 12380 12381 12382
          12383 12384 12385 12386 12387 12388
          12389 12390 12391 12392 12395 12396
          12398 12399 12400 12401 12402 12403
          12404 12405 12406 12407 12408 12409
          12410 12411 12412 12413 12414 12415
          12416 12417 12418 12419 12420 12423
          12424 12426 12427 12428 12429 12430
          12431 12432 12433 12434 12435 12436
          12437 12438 12439 12440 12442 12444
          12446 12447 12448 12449 12450 12451
          12452 12453 12454 12456 12458 12460
          12461 12462 12463 12464 12465 12466
          12467 12468 12470 12472 12474 12475
          12476 12477 12478 12479 12480 12481
          12482 12484 12486 12488 14122 14123
          14124 14125 14126 14127 14128 14129
          14130 14131 14132 14133 14134 14135
          14136 14137 14138 14139 14140 14141
          14142 14143 14144 14145 14146 14147
          14148 14149 14150 14151 14159 14160
          14161 14162 14163 14164 14165 14193
          14194 14195 14196 14197 14198 14199
          14214 14215 14216 14217 14218 14219
          14220 14221 14223 14225 14227 14228
          14229 14230 14231 14235 14236 14238
          14239 14240 14241 14242 14243 14244
          14245 14247 14249 14251 14252 14253
          14256 14257 2351 2352 1924 2132
          2364 2355 2169 1925 2895 3000
          2897 3002 2900 2917 2918 3031
          3032 2921 3033 3427 3425 3036
          3131 3129 4668 4189 4172 4669
          4190 4670 4193 4249 4250 4253
          4941 5268 4942 5269 5272 5273
          5275 3130 5277 3132 4269 4270
          4273 2923 4275 2137 8847 8848
          8850 8849 8851 8852 8853 8862
          8861 8865 8864 8863 4375 8867
          8875 8876 8877 8879 8880 8881
          8889 8892 8891 8893 8895 9095
          9096 9097 9099 9100 9101 9109
          9111 9113 9115 9123 9124 9125
          9127 9128 9129 9137 9139 9141
          9143 9696 9695 9699 9698 9697
          9701 9710 9709 9713 9712 9711
          2953 9715 9906 9908 9910 9912
          9920 9923 9922 9924 4507 9926
          9934 9936 9938 9940 9948 9951
          9950 9952 2957 9954 10650 7894
          7817 10651 7895 10652 7898 2903
          10655 7900 4674 4195 10660 10661
          10662 10665 3010 7914 7915 7918
          7920 2134 10699 10703 8094 8095
          8098 8100 4255 8114 8115 8118
          8120 8746 11042 11043 4360 11046
          4791 11049 11050 11053 4792 8780
          11076 11077 2938 11080 4796 11083
          11084 11087 3048 11110 11114 11144
          11148 8994 11290 11291 4394 11294
          4825 11297 11298 11301 4826 9028
          11324 11325 2943 11328 4830 11331
          11332 11335 3054 11358 11362 11392
          11396 9668 9670 9672 4477 9682
          9684 9686 4479 9787 9788 9791
          9793 4491 9807 9808 9811 9813
          12165 4493 9823 9825 9827 4495
          9837 12192 9839 12193 9841 12196
          2955 4946 10019 10021 10023 4519
          10033 12393 10035 12394 10037 12397
          4521 4973 10047 10049 10051 4523
          10061 12421 10063 12422 10065 12425
          1931 4977 14114 14115 14118 14120
          14153 14155 14157 5288 14176 14168
          14177 14169 14178 14179 14183 14174
          14184 14187 14189 14191 5292 14207
          14201 14208 14211 14205 14212
        </DataArray>
        <DataArray type="Float64" Name="bounds" format="ascii" RangeMin="0" RangeMax="0">
          0 0 0 0 0 0
          0 0 0 0 0 0
          0 0 0 0 0 0
          0 0 0 0 0 0
          0 0 0 0 0 0
          0 0 0 0 0 0
          0 0 0 0 0 0
          0 0 0 0 0 0
          0 0 0 0 0 0
          0 0 0 0 0 0
          0 0 0 0 0 0
          0 0 0 0 0 0
          0 0 0 0 0 0
          0 0 0 0 0 0
          0 0 0 0 0 0
          0 0 0 0 0 0
          0 0 0 0 0 0
          0 0 0 0 0 0
          0 0 0 0 0 0
          0 0 0 0 0 0
          0 0 0 0 0 0
          0 0 0 0 0 0
          0 0 0 0 0 0
          0 0 0 0 0 0
          0 0 0 0 0 0
          0 0 0 0 0 0
          0 0 0 0 0 0
          0 0 0 0 0 0
          0 0 0 0 0 0
          0 0 0 0 0 0
          0 0 0 0 0 0
          0 0 0 0 0 0
          0 0 0 0 0 0
          0 0 0 0 0 0
          0 0 0 0 0 0
          0 0 0 0 0 0
          0 0 0 0 0 0
          0 0 0 0 0 0
          0 0 0 0 0 0
          0 0 0 0 0 0
          0 0 0 0 0 0
          0 0 0 0 0 0
          0 0 0 0 0 0
          0 0 0 0 0 0
          0 0 0 0 0 0
          0 0 0 0 0 0
          0 0 0 0 0 0
          0 0 0 0 0 0
          0 0 0 0 0 0
          0 0 0 0 0 0
          0 0 0 0 0 0
          0 0 0 0 0 0
          0 0 0 0 0 0
          0 0 0 0 0 0
          0 0 0 0 0 0
          0 0 0 0 0 0
          0 0 0 0 0 0
          0 0 0 0 0 0
          0 0 0 0 0 0
          0 0 0 0 0 0
          0 0 0 0 0 0
          0 0 0 0 0 0
          0 0 0 0 0 0
          0 0 0 0 0 0
          0 0 0 0 0 0
          0 0 0 0 0 0
          0 0 0 0 0 0
          0 0 0 0 0 0
          0 0 0 0 0 0
          0 0 0 0 0 0
          0 0 0 0 0 0
          0 0 0 0 0 0
          0 0 0 0 0 0
          0 0 0 0 0 0
          0 0 0 0 0 0
          0 0 0 0 0 0
          0 0 0 0 0 0
          0 0 0 0 0 0
          0 0 0 0 0 0
          0 0 0 0 0 0
          0 0 0 0 0 0
          0 0 0 0 0 0
          0 0 0 0 0 0
          0 0 0 0 0 0
          0 0 0 0 0 0
          0 0 0 0 0 0
          0 0 0 0 0 0
          0 0 0 0 0 0
          0 0 0 0 0 0
          0 0 0 0 0 0
          0 0 0 0 0 0
          0 0 0 0 0 0
          0 0 0 0 0 0
          0 0 0 0 0 0
          0 0 0 0 0 0
          0 0 0 0 0 0
          0 0 0 0 0 0
          0 0 0 0 0 0
          0 0 0 0 0 0
          0 0 0 0 0 0
          0 0 0 0 0 0
          0 0 0 0 0 0
          0 0 0 0 0 0
          0 0 0 0 0 0
          0 0 0 0 0 0
          0 0 0 0 0 0
          0 0 0 0 0 0
          0 0 0 0 0 0
          0 0 0 0 0 0
          0 0 0 0 0 0
          0 0 0 0 0 0
          0 0 0 0 0 0
          0 0 0 0 0 0
          0 0 0 0 0 0
          0 0 0 0 0 0
          0 0 0 0 0 0
          0 0 0 0 0 0
          0 0 0 0 0 0
          0 0 0 0 0 0
          0 0 0 0 0 0
          0 0 0 0 0 0
          0 0 0 0 0 0
          0 0 0 0 0 0
          0 0 0 0 0 0
          0 0 0 0 0 0
          0 0 0 0 0 0
          0 0 0 0 0 0
          0 0 0 0 0 0
          0 0 0 0 0 0
          0 0 0 0 0 0
          0 0 0 0 0 0
          0 0 0 0 0 0
          0 0 0 0 0 0
          0 0 0 0 0 0
          0 0 0 0 0 0
          0 0 0 0 0 0
          0 0 0 0 0 0
          0 0 0 0 0 0
          0 0 0 0 0 0
          0 0 0 0 0 0
          0 0 0 0 0 0
          0 0 0 0 0 0
          0 0 0 0 0 0
          0 0 0 0 0 0
          0 0 0 0 0 0
          0 0 0 0 0 0
          0 0 0 0 0 0
          0 0 0 0 0 0
          0 0 0 0 0 0
          0 0 0 0 0 0
          0 0 0 0 0 0
          0 0 0 0 0 0
          0 0 0 0 0 0
          0 0 0 0 0 0
          0 0 0 0 0 0
          0 0 0 0 0 0
          0 0 0 0 0 0
          0 0 0 0 0 0
          0 0 0 0 0 0
          0 0 0 0 0 0
          0 0 0 0 0 0
          0 0 0 0 0 0
          0 0 0 0 0 0
          0 0 0 0 0 0
          0 0 0 0 0 0
          0 0 0 0 0 0
          0 0 0 0 0 0
          0 0 0 0 0 0
          0 0 0 0 0 0
          0 0 0 0 0 0
          0 0 0 0 0 0
          0 0 0 0 0 0
          0 0 0 0 0 0
          0 0 0 0 0 0
          0 0 0 0 0 0
          0 0 0 0 0 0
          0 0 0 0 0 0
          0 0 0 0 0 0
          0 0 0 0 0 0
          0 0 0 0 0 0
          0 0 0 0 0 0
          0 0 0 0 0 0
          0 0 0 0 0 0
          0 0 0 0 0 0
          0 0 0 0 0 0
          0 0 0 0 0 0
          0 0 0 0 0 0
          0 0 0 0 0 0
          0 0 0 0 0 0
          0 0 0 0 0 0
          0 0 0 0 0 0
          0 0 0 0 0 0
          0 0 0 0 0 0
          0 0 0 0 0 0
          0 0 0 0 0 0
          0 0 0 0 0 0
          0 0 0 0 0 0
          0 0 0 0 0 0
          0 0 0 0 0 0
          0 0 0 0 0 0
          0 0 0 0 0 0
          0 0 0 0 0 0
          0 0 0 0 0 0
          0 0 0 0 0 0
          0 0 0 0 0 0
          0 0 0 0 0 0
          0 0 0 0 0 0
          0 0 0 0 0 0
          0 0 0 0 0 0
          0 0 0 0 0 0
          0 0 0 0 0 0
          0 0 0 0 0 0
          0 0 0 0 0 0
          0 0 0 0 0 0
          0 0 0 0 0 0
          0 0 0 0 0 0
          0 0 0 0 0 0
          0 0 0 0 0 0
          0 0 0 0 0 0
          0 0 0 0 0 0
          0 0 0 0 0 0
          0 0 0 0 0 0
          0 0 0 0 0 0
          0 0 0 0 0 0
          0 0 0 0 0 0
          0 0 0 0 0
        </DataArray>
        <DataArray type="Float64" Name="gradient_error" format="ascii" RangeMin="4.155166813565471e-13" RangeMax="1.2801539237028848e-9">
          6.517298403849385e-10 1.1132827642572193e-11 8.192097862597737e-12 2.787748126389315e-12 2.8872508375164838e-12 5.517291616745213e-12
          5.540022626758281e-12 2.6101798905797765e-10 1.1697870240917016e-11 8.636884127568753e-12 2.0671081209231913e-11 1.5472693977812153e-11
          5.4549789652122695e-12 8.748280650751282e-12 1.1455750725946784e-11 7.753234326894398e-12 3.993216019195478e-12 2.604547350639212e-12
          4.672697678289176e-12 2.6573230186216195e-12 1.0746879206685298e-10 2.988387916890343e-10 2.5305690811061494e-11 8.672318126422572e-12
          3.836503488430607e-12 1.5420032477818368e-12 7.100678436288514e-11 9.049029561258456e-12 1.3130753802890257e-10 4.2852173165991583e-10
          9.125438009566051e-10 5.683898793700462e-10 9.379318126840938e-10 1.3812768594233557e-10 2.9901779016978176e-10 3.6656528008504727e-10
          1.0199358388177253e-11 6.7223905625172346e-12 1.0257929194230304e-11 2.50416081781757e-11 1.6282657640272852e-11 1.4364750876495347e-11
          9.361813774028326e-12 1.790796993971062e-11 1.1542579175560434e-11 6.633693138716859e-12 2.223636270305544e-11 1.320766439540717e-11
          1.476797595852384e-11 8.028013160236572e-12 5.2490593093170355e-12 4.395550597941956e-12 2.8710124690212053e-12 5.7622120715679125e-12
          3.731187263718618e-12 2.0374603998729227e-12 7.602936810916736e-12 4.24095466157414e-12 5.019439209762519e-12 1.1638584904340133e-11
          7.43725785199695e-12 6.730639599472534e-12 4.304949592549594e-12 6.9498021265082796e-12 8.1041096977614e-12 4.709094812430587e-12
          8.78688359198977e-12 5.180572114429153e-12 8.003497680134567e-12 3.721972089540191e-12 3.2000042502897835e-12 1.9976197929573713e-12
          2.542996766435688e-12 2.219096704830516e-12 3.42181121504438e-12 2.7062591787191027e-12 3.6310536894173312e-12 2.737326088488711e-12
          3.391578260872593e-12 4.209750812303226e-11 1.611808141539162e-10 8.3186117065883e-11 5.083114465926856e-11 5.253151808969277e-11
          3.194769141079577e-11 2.8446381213278433e-10 1.8076748503787588e-10 1.7086027212939637e-10 2.999625468076022e-11 1.8785480595816973e-11
          1.1023543820204684e-10 6.504744058488193e-11 3.8657950153925953e-10 3.812409221979478e-10 6.368440361305403e-10 4.227434996856479e-10
          3.8732781782438223e-10 2.521959964844482e-10 6.715632260695478e-10 4.565695265137235e-10 4.518529376057409e-10 2.6746946786492134e-10
          1.5717007779200855e-10 2.952289449986252e-10 1.8884550806289865e-10 2.94001127290292e-11 1.7785810869087514e-11 1.471200327960506e-11
          8.842986105914159e-12 8.923440985469761e-11 5.5568776067500135e-11 4.103926823645956e-11 1.0408309942254962e-11 5.892901334296152e-12
          5.142125051354924e-12 2.8926208299668354e-12 3.337342405482399e-11 1.933362788547e-11 1.507496557669474e-11 7.481727684819687e-12
          6.649781093266689e-12 4.337640463460897e-12 3.960179039140815e-12 2.6862366546828695e-12 1.6912527821606415e-11 1.0322319854448923e-11
          3.029105041330631e-12 2.802305429093867e-12 2.3016337736399078e-12 2.1273281842239723e-12 2.8180676304209085e-12 2.1085080370434883e-12
          2.10306388270308e-12 6.092717744752142e-12 3.4743355545083247e-12 2.236119217387121e-12 1.9933231216418653e-10 1.275624510719015e-10
          8.769512645206126e-11 5.5312121925783453e-11 2.4725629966387034e-10 1.5988755936852157e-10 1.1169633080114376e-10 7.844299186819183e-11
          3.361832131227688e-11 9.923070029913855e-11 4.3463386099426884e-11 3.376105290404983e-11 2.1012556125932066e-11 7.196724274441553e-12
          4.298517034901519e-11 2.6937922547036545e-11 1.2628085689819004e-11 4.272688298299796e-12 1.6290749333915167e-11 5.40695550480163e-12
          3.827333983832016e-12 3.3034738215844174e-12 3.469098192601043e-12 2.2475401845461906e-12 2.140323779216027e-12 1.8491360502225755e-12
          1.187936214046125e-12 1.3667659708143622e-12 1.3318915050016925e-12 1.9541686768214775e-12 1.0835627003339938e-12 1.6498018098034459e-12
          1.64437350012183e-12 1.9681421404831495e-12 2.2756807342497035e-12 2.7869058426446033e-12 1.6659777463208253e-12 1.6397289864188567e-12
          4.0717157958009125e-12 8.061304997837184e-12 2.421594778261869e-12 4.695387619944151e-12 3.177669417056781e-12 5.523653270919722e-12
          3.220519923472806e-12 1.3766026042349798e-12 2.6332112703591086e-12 7.898908294412372e-13 1.475114843924517e-12 1.1091244592137057e-12
          1.8002781180646704e-12 1.0041954500313687e-12 1.0632083353983529e-10 2.42536616367046e-10 1.9427138487685236e-10 3.405353983777784e-10
          6.853860622719577e-10 5.445073628503372e-10 4.160747080533967e-10 7.35371870409128e-10 9.677904874079985e-10 8.075680190915873e-10
          6.426783857870604e-10 8.026764136985254e-10 1.9312878986087822e-10 9.56686666428556e-11 3.058728415599977e-10 2.1656107719092222e-10
          4.210320268790312e-10 1.4795087316125968e-10 2.0394887369784753e-10 4.871633985073572e-10 3.5186743382024543e-10 5.017256761449212e-10
          2.42631888522382e-10 2.5480430899815995e-10 4.32375075528637e-12 4.992730354685899e-12 1.1341358049882366e-11 1.6986424968852467e-11
          8.737611613233684e-12 1.3151439375864584e-11 9.720936694872421e-12 1.453633864682323e-11 1.1270115013570957e-11 3.35353072935538e-11
          2.6161251403322696e-11 2.8518835078797585e-11 6.6720747433043075e-12 1.0103761259693976e-11 5.064117606339716e-12 7.708296359032866e-12
          5.7481127708111556e-12 8.658693052527078e-12 6.602329305405195e-12 2.02504763058184e-11 1.555315961317664e-11 1.720452442805809e-11
          8.173254101335317e-12 1.2139216283152103e-11 6.324223713189755e-12 9.408937048260816e-12 6.702418909362334e-12 9.878488704712352e-12
          7.649342482517965e-12 2.3579411207602223e-11 1.837381533327143e-11 1.8966576123597942e-11 4.828008911839428e-12 7.224700757297675e-12
          3.658428542282323e-12 5.505566216509749e-12 3.949009676006021e-12 5.869135301701795e-12 4.470363372334666e-12 1.4207427318826033e-11
          1.0900195103948844e-11 1.141077603336701e-11 3.824020718027959e-12 5.841314357008811e-12 2.8709914447125663e-12 4.394930603503506e-12
          3.2904996570519982e-12 5.001241182897932e-12 3.761608317460188e-12 1.1852467366315896e-11 8.961287956089758e-12 1.0060355737151535e-11
          1.8290497964605172e-12 2.8023435495565104e-12 2.0723461785016296e-12 5.70115247471377e-12 2.758611618923675e-12 4.1674805895903786e-12
          2.0685624428303773e-12 3.132140473695338e-12 2.2614074279277657e-12 3.3836833860898932e-12 2.543822345676064e-12 8.297912509146346e-12
          6.267329233047699e-12 6.653238191659358e-12 1.5317045466094198e-12 2.3320970327425685e-12 1.132058192955022e-12 1.724296678717547e-12
          1.2593721831070247e-12 1.8923189743823978e-12 1.3967598402018995e-12 4.696673497344375e-12 3.49093176911387e-12 3.757010021086056e-12
          5.351643708558203e-12 7.830205199827295e-12 4.133610106048648e-12 6.059493712828589e-12 4.189797746548818e-12 6.0554943638569875e-12
          4.682216055258816e-12 1.4849013245238638e-11 1.1550624883652099e-11 1.1310029960806596e-11 3.151929956798279e-12 4.645593949992806e-12
          2.395081286385394e-12 3.5365695734964465e-12 2.4658080299927524e-12 3.5857553210669545e-12 2.7256470448042198e-12 8.916735576492735e-12
          6.829712378096547e-12 6.77552967695888e-12 3.3064650174544347e-12 4.533130922997907e-12 2.5510351587971474e-12 3.5028181160309113e-12
          2.9625420058131587e-12 3.8302430947146594e-12 2.9601113509302554e-12 8.329957162431665e-12 6.465798859295592e-12 6.775901793696063e-12
          1.940738639752215e-12 2.6773790634549185e-12 1.4794771152180073e-12 2.0336140947007952e-12 1.7361802449226349e-12 2.258968786359526e-12
          1.7173234493408857e-12 4.9784994692772575e-12 3.801311000449669e-12 4.047008357882291e-12 1.8298589089144817e-12 2.6744053654724136e-12
          1.402471741288504e-12 2.0012939475016206e-12 1.464419819267042e-12 2.0486318410563215e-12 1.6557419234691626e-12 5.190815521169322e-12
          3.9015067314529795e-12 3.921290784057258e-12 1.0546751808931483e-12 1.4831805800918675e-12 7.840416184807753e-13 1.093851617002101e-12
          9.775806430425913e-13 1.283583589388334e-12 9.480256087463802e-13 2.9017090504362675e-12 2.14451120757957e-12 2.4918218012719893e-12
          1.1623484332265962e-12 1.5280575623948005e-12 1.0476646551526232e-12 1.3104281096355626e-12 1.0325927395861516e-12 1.2997980704448219e-12
          1.131425554065597e-12 2.864608390880009e-12 2.4557091841178234e-12 2.341681873389105e-12 2.0855689179582354e-11 8.394423499321634e-11
          6.537754850792745e-11 5.1404048698166366e-11 5.5093306643547456e-11 4.327901382203069e-11 1.2582730639359376e-10 9.98251535383924e-11
          1.0499592765292092e-10 4.007487298413098e-11 3.098247154812834e-11 3.3714852321240427e-11 2.6048407641909505e-11 7.846822055995634e-11
          6.112632832915996e-11 6.53148516451537e-11 4.505992560536412e-11 3.536192594740915e-11 3.579283927033225e-11 2.8058981470815412e-11
          8.487028309879975e-11 6.714315359190348e-11 6.650287697905476e-11 2.752373621480114e-11 2.1248894164779095e-11 2.1819252481567208e-11
          1.6831458456896333e-11 5.265315970002428e-11 4.093382576459853e-11 4.114072036565368e-11 2.372575934171747e-10 1.9030904089493203e-10
          1.9611914424757085e-10 1.5698060314395013e-10 4.2759218442940826e-10 3.475227863518346e-10 3.5110845638875e-10 1.5109709097745574e-10
          1.1878190608102723e-10 1.2441719189454652e-10 9.766538724263698e-11 2.7925146821657634e-10 2.2193747998931702e-10 2.2796697091893258e-10
          1.5668455655163733e-10 1.2514109180511703e-10 1.2107230499198057e-10 9.648407403727922e-11 2.7796582249443615e-10 2.244729091045976e-10
          2.122613741625288e-10 9.899979893240824e-11 7.759243886612855e-11 7.618491511826314e-11 5.961373513737856e-11 1.7939237355663522e-10
          1.419156285351081e-10 1.361700318548251e-10 2.3755902277608535e-11 1.8066202497388042e-11 1.996122766567975e-11 1.5172594225770155e-11
          4.7197437263456924e-11 3.6126146709402585e-11 3.921625980857961e-11 1.1439425954092913e-11 2.2748930194935766e-11 1.627199229540153e-11
          1.2360585108092578e-11 1.2878786602652312e-11 9.774350748497628e-12 3.155164902479984e-11 2.411437700936571e-11 2.4601023108505666e-11
          9.31419012872041e-12 7.359331948251514e-12 1.8275323025647034e-11 1.4224911053690827e-11 9.248360285331254e-11 7.133328837019823e-11
          7.594919674422155e-11 5.851886715366134e-11 1.7451934468816577e-10 1.3582060878357872e-10 1.418734821253387e-10 4.4679182781098375e-11
          8.481287160307921e-11 6.025921564811008e-11 4.6376167625657304e-11 4.623100209150417e-11 3.553560538965669e-11 1.1115883198483675e-10
          8.622325488373276e-11 8.400700697956643e-11 3.5372578162174367e-11 2.707429647927325e-11 6.624072295764629e-11 4.9895135631463004e-11
          2.77976533463766e-10 4.045897374865902e-10 6.929458578117676e-10 5.711048866816156e-10 5.693374424024902e-10 4.672186787855565e-10
          9.201761789976492e-10 7.679771413367867e-10 7.671957188077543e-10 4.648947423533508e-10 3.7390636305985686e-10 3.7888921514153323e-10
          3.0372685396509944e-10 6.326767514680369e-10 5.146103386647229e-10 5.220592515010269e-10 4.500402756925525e-10 3.676714045597893e-10
          3.4216314828030366e-10 2.7830065527711976e-10 6.144156982600546e-10 5.071310662535177e-10 4.719334917500141e-10 2.969944788982463e-10
          2.3726783816318475e-10 2.2393350626188152e-10 1.7829919994248977e-10 4.135955886169858e-10 3.333777743153718e-10 3.142913173518731e-10
          9.479951598380837e-10 7.994183831641619e-10 8.210268985678185e-10 6.875253838531139e-10 8.95521856809319e-10 7.590653207555745e-10
          7.988674484651827e-10 6.652020483992624e-10 5.462991292126966e-10 5.68376033002085e-10 4.639710172157908e-10 6.347791241037076e-10
          5.238376017223914e-10 5.572726610667108e-10 6.799267311442987e-10 5.653555313130723e-10 5.370718426926105e-10 4.4350959374283845e-10
          6.778657263308887e-10 5.65311669067527e-10 5.459261909401251e-10 4.643345882118205e-10 3.767798849982144e-10 3.6198146598022643e-10
          2.9206193931378676e-10 4.65629498732366e-10 3.788759688372963e-10 3.6960184939983643e-10 2.972307926628635e-10 2.3360935351016035e-10
          2.4075208864596523e-10 1.8875376911656915e-10 4.133890592951131e-10 3.280562408499462e-10 3.3823839424566344e-10 1.4640855862362418e-10
          2.0909363394435387e-10 1.8751966312260505e-10 1.46646862074708e-10 1.4050649318499695e-10 1.0960612840727926e-10 2.656505625640102e-10
          2.0931532796125998e-10 2.0016508703296874e-10 1.1350121019689793e-10 8.464869911704268e-11 1.6311859228286585e-10 1.221127967073868e-10
          4.4289628714894304e-10 3.5454985140323166e-10 3.740724458244424e-10 2.9794678397369565e-10 4.2667516065534166e-10 3.431076927262164e-10
          3.694049166358951e-10 2.345037253030938e-10 2.331242461923057e-10 3.021287011289774e-10 2.394675558777878e-10 2.3300238799880093e-10
          1.8383536655074433e-10 3.046175817848589e-10 2.4205748170223935e-10 2.3889058847476036e-10 1.8764953334989745e-10 1.434710865374428e-10
          1.9014488966724894e-10 1.476523871024249e-10 2.763360085384921e-11 2.1637171151115465e-11 2.075008659455611e-11 1.6225502777119054e-11
          5.0561512093881676e-11 3.987547478650038e-11 3.7341240043461086e-11 1.6808750425815752e-11 1.2957569017415159e-11 1.259030305526982e-11
          9.697523045295141e-12 3.118621932176665e-11 2.4189100448111526e-11 2.29600026602001e-11 1.5191021481235782e-11 1.1860995772993335e-11
          1.0806567622790511e-11 8.425465357238043e-12 2.6817801820894183e-11 2.1076929416328553e-11 1.8755537689266053e-11 9.191001061786357e-12
          7.069448102052701e-12 6.518141285788237e-12 5.006264317639686e-12 1.643372279718233e-11 1.2711197717708052e-11 1.1451187650660906e-11
          9.057601468335501e-11 7.202115523884707e-11 6.568758021051547e-11 5.2114760833080656e-11 1.5648703864570027e-10 1.255716915804095e-10
          1.1153769009714115e-10 5.675899013285264e-11 4.433794852524312e-11 4.099014913108292e-11 3.1963785236489844e-11 9.980698950846504e-11
          7.858613638618376e-11 7.073880532997775e-11 4.624995305041768e-11 3.661103252391785e-11 3.166958552330255e-11 2.5012153490429913e-11