<?xml version="1.0"?>
<VTKFile type="UnstructuredGrid" version="0.1" byte_order="LittleEndian" header_type="UInt32" compressor="vtkZLibDataCompressor">
  <UnstructuredGrid>
    <Piece NumberOfPoints="303" NumberOfCells="166">
      <PointData>
        <DataArray type="Int32" Name="libmesh_node_id" format="ascii" RangeMin="340" RangeMax="2433">
          346 474 939 948 949 972
          976 978 979 981 982 983
          1021 1058 1075 1080 1091 1093
          1095 1097 1303 1307 1703 1705
          1741 1742 1743 1744 1745 1746
          1747 1748 1749 1750 1751 1752
          1753 1754 1755 1756 1757 1758
          1759 1760 1761 1762 1763 1765
          1766 1767 1768 1769 1770 1771
          1772 1773 1774 1913 1915 1917
          1933 1935 1937 1949 1950 1951
          1952 1953 1954 1955 1956 1957
          1958 1959 1960 1961 1962 1963
          1964 1967 1968 1970 1971 1972
          1973 1974 1975 1976 1977 1978
          1979 1980 1981 1982 1983 1984
          1985 1986 1987 1988 1989 1990
          1991 1992 1995 1996 1998 1999
          2000 2001 2002 2003 2004 2046
          2047 2048 2049 2050 2051 2052
          2053 2054 2055 2196 2197 2198
          2199 2200 2201 2202 2203 2204
          2205 2223 2224 2269 2303 2382
          2383 2384 2385 2386 2387 2388
          2396 2397 2400 2401 2402 2413
          2414 2415 2416 2417 2418 2419
          2427 2428 2429 2430 2431 2432
          2433 933 941 945 472 934
          942 946 937 943 340 944
          947 950 1015 1013 980 1016
          1014 1019 1018 1020 501 1022
          1197 1195 1694 1695 1696 1700
          1701 1702 1596 1597 1600 468
          1704 1706 1713 1711 1714 1712
          1719 1718 912 1638 1728 1671
          925 1729 1672 1730 1675 930
          1648 1738 1678 926 1739 1679
          1740 1682 471 1717 1764 473
          1802 1803 1912 1914 1806 956
          1916 1918 1923 1922 1927 1926
          1836 1837 1932 1934 1840 476
          1936 1938 1943 1942 1947 1946
          1863 1864 1867 965 1870 1871
          1874 966 1965 1925 1966 1969
          974 1897 1898 1901 970 1904
          1905 1908 477 1993 1945 1994
          1997 478 984 2037 2040 2042
          2044 2093 2126 1031 2127 2130
          1036 2128 2129 2266 2267 2268
          2270 2271 2272 2300 2301 2302
          2304 2305 2306
        </DataArray>
        <DataArray type="Float64" Name="bounds" format="ascii" RangeMin="0" RangeMax="0">
          0 0 0 0 0 0
          0 0 0 0 0 0
          0 0 0 0 0 0
          0 0 0 0 0 0
          0 0 0 0 0 0
          0 0 0 0 0 0
          0 0 0 0 0 0
          0 0 0 0 0 0
          0 0 0 0 0 0
          0 0 0 0 0 0
          0 0 0 0 0 0
          0 0 0 0 0 0
          0 0 0 0 0 0
          0 0 0 0 0 0
          0 0 0 0 0 0
          0 0 0 0 0 0
          0 0 0 0 0 0
          0 0 0 0 0 0
          0 0 0 0 0 0
          0 0 0 0 0 0
          0 0 0 0 0 0
          0 0 0 0 0 0
          0 0 0 0 0 0
          0 0 0 0 0 0
          0 0 0 0 0 0
          0 0 0 0 0 0
          0 0 0 0 0 0
          0 0 0 0 0 0
          0 0 0 0 0 0
          0 0 0 0 0 0
          0 0 0 0 0 0
          0 0 0 0 0 0
          0 0 0 0 0 0
          0 0 0 0 0 0
          0 0 0 0 0 0
          0 0 0 0 0 0
          0 0 0 0 0 0
          0 0 0 0 0 0
          0 0 0 0 0 0
          0 0 0 0 0 0
          0 0 0 0 0 0
          0 0 0 0 0 0
          0 0 0 0 0 0
          0 0 0 0 0 0
          0 0 0 0 0 0
          0 0 0 0 0 0
          0 0 0 0 0 0
          0 0 0 0 0 0
          0 0 0 0 0 0
          0 0 0 0 0 0
          0 0 0
        </DataArray>
        <DataArray type="Float64" Name="gradient_error" format="ascii" RangeMin="4.132420822329198e-10" RangeMax="2.740633728926315e-8">
          1.7316468971010963e-9 1.9123509586533666e-9 5.418926317946896e-9 3.010121328257549e-9 1.4458569795706333e-9 9.144588645645682e-9
          1.0982826443810351e-8 5.455300811053739e-9 2.72254316737907e-9 2.056189207944067e-9 6.72970566932022e-9 3.4180089882130216e-9
          1.8144355442305697e-9 7.075696768236824e-10 2.942688381509537e-9 3.894096818593487e-9 1.1157113376123728e-9 1.2152098570111563e-9
          1.4078000809262909e-9 1.3842673681142332e-9 1.3645641112192214e-9 1.5066959144105493e-9 3.7538500481305654e-9 7.681486714597197e-9
          3.9152381169147355e-9 2.8725460181689832e-9 2.7704557786254498e-9 1.9994254204459027e-9 5.963107008408421e-9 4.472920610517691e-9
          4.097372467109603e-9 2.035312701643006e-9 1.3798211899736754e-9 1.3970405914016037e-9 9.409244878739362e-10 3.214693931656097e-9
          2.2068211150329062e-9 2.1293369103688288e-9 1.5074921644590745e-9 1.878874119722409e-9 1.0683390774228498e-9 1.336987977314199e-9
          1.2408716863694687e-9 1.5072946326999144e-9 1.064956298716133e-9 2.713668610712657e-9 1.9526348338531793e-9 7.294421266599273e-10
          9.183547493958964e-10 4.900523233579035e-10 6.155486036534332e-10 5.917867317047117e-10 7.216069583312015e-10 4.823120048502186e-10
          1.3529678668420446e-9 9.074250417020004e-10 1.0347376892080523e-9 1.065556572164859e-8 7.313050632803064e-9 1.365709234994114e-8
          1.592774794890268e-8 1.0491040702438961e-8 1.6763917624202918e-8 8.489677604374055e-9 6.4971899914576764e-9 5.657041831660104e-9
          4.22826428413124e-9 1.1058362542385087e-8 8.595926440998174e-9 7.1978731206713935e-9 4.745070340581755e-9 3.295159546643226e-9
          3.0285291086759126e-9 2.0726741840925593e-9 6.363338878996561e-9 4.4654574716309385e-9 3.949998796346573e-9 3.6566544245934663e-9
          2.6716406609672154e-9 4.538788841220446e-9 3.3569201537940517e-9 1.8673092443297944e-9 1.256653321185815e-9 1.4103284414152815e-9
          9.371266445860274e-10 2.3744697603783654e-9 1.6078773277039926e-9 1.51895469755738e-9 1.2995040360174922e-8 1.0192929755006955e-8
          8.345380347485984e-9 6.383007969991138e-9 1.37148999572099e-8 1.0786551140449584e-8 8.770842152784126e-9 7.615647020548207e-9
          5.3853920939376735e-9 4.656027171664534e-9 3.226703140686363e-9 8.08603577018648e-9 5.734418178194214e-9 4.921893433352285e-9
          5.169772508301609e-9 3.8483186813431644e-9 5.398195036909688e-9 4.026445586531845e-9 2.7543904919849915e-9 1.8788481179894956e-9
          1.5671830182552453e-9 1.2102911405596277e-9 2.8957915903206163e-9 1.9814430234875977e-9 1.6572383348604959e-9 8.623743726748358e-10
          8.993025008671189e-10 7.091707948058478e-10 7.273235995212911e-10 7.112057383067804e-10 7.0352318130867e-10 5.864020660064194e-10
          9.36230629059402e-10 7.454764042367344e-10 6.958406243105596e-10 6.687028201242688e-10 8.95230313685447e-10 4.158507893822688e-10
          5.551358355146866e-10 4.670692447135229e-10 6.082775024543037e-10 4.2539600375410825e-10 1.4480372144028056e-9 9.026326732118213e-10
          9.43673185048785e-10 5.8884050407704e-10 4.132420822329198e-10 2.0823139196397874e-9 3.6322268415057338e-9 2.174619420940192e-9
          1.362571036257525e-9 1.3572034397423984e-9 8.457293985071712e-10 2.964525647675014e-9 1.8626952060017784e-9 1.785310307312567e-9
          8.149684221577931e-10 5.079864876871438e-10 1.0388243305890177e-9 6.462405639196087e-10 7.555944559406458e-10 3.595307373000497e-9
          2.2661912700224833e-9 2.1225016243137997e-9 1.3271218744148361e-9 3.836485670972364e-9 2.421289735779922e-9 2.2509289035847773e-9
          1.2122026848201274e-9 7.502646904389348e-10 8.740834786948572e-10 5.353313091219753e-10 1.27784666468659e-9 7.898716035475359e-10
          9.19011683076966e-10 5.6294957910069325e-9 2.7907254787587e-9 3.282506062108721e-9 8.956814415335918e-9 4.623170477523515e-9
          2.3188492118552248e-9 3.434877868812341e-9 6.97248048993712e-9 1.8343125552488637e-9 2.7333601222527626e-9 1.3278659462382157e-9
          1.6033928587828886e-9 2.847689405707889e-9 2.2155561115656366e-9 3.4003262378755427e-9 2.5105204688763926e-9 2.251080263220138e-9
          2.8157545264519647e-9 1.633583836193914e-9 3.546468038431389e-9 2.4618847985064332e-9 4.504801499947612e-9 3.921806382447038e-9
          1.390479519158349e-9 2.888846673584885e-9 4.495849810693444e-9 3.3055206131680604e-9 3.759982758730352e-9 6.812358935447413e-9
          5.183931716341833e-9 5.050457764186192e-9 8.683289401481115e-9 6.817912187839062e-9 1.2740370281607587e-8 1.0415012329181943e-8
          9.718864607968025e-9 7.035725145969974e-9 2.11631603446491e-9 3.0145026893537338e-9 2.603818477220833e-9 3.606902837104814e-9
          3.678530470577138e-9 4.909171100212026e-9 4.2605714815521865e-9 3.177163245023773e-9 2.4250264998416797e-9 5.25173759630737e-9
          2.3098599742941557e-9 1.743742120279893e-9 3.9149013008083165e-9 1.9632407477033688e-9 8.270507826818336e-9 6.323713041759812e-9
          1.62429813485073e-9 1.2136752258437923e-9 2.8072355743215884e-9 1.3260627754636367e-9 9.284951021269674e-10 1.919952574336487e-9
          9.671948572690526e-10 4.613924695576693e-9 3.2016874499961205e-9 2.1108557510137104e-9 1.907617818234653e-9 4.594946027415934e-9
          1.7872317885677113e-8 1.490851658902359e-8 1.3235104704577662e-8 9.332578654861951e-9 2.265224961025263e-8 1.9587011962737263e-8
          1.6461055703664798e-8 1.1405481632504452e-8 4.849030173261823e-9 6.334508870415785e-9 5.935788234105032e-9 7.564562893845877e-9
          2.6110866936041682e-8 2.3041324204500526e-8 1.901291856625179e-8 1.2983956209214145e-8 2.740633728926315e-8 2.4256128816982862e-8
          2.013020749293846e-8 1.366577442522501e-8 6.724458960310607e-9 8.445076866795882e-9 7.009661777757272e-9 8.811006471163424e-9
          1.2119175051919102e-8 9.465397390242303e-9 1.611625173821258e-8 1.2739192151446924e-8 7.042974331377696e-9 4.9649677920518976e-9
          9.623408740930563e-9 6.885548329344895e-9 2.2625244322914403e-9 3.100099081651691e-9 1.8267444122725981e-9 2.7748749168394905e-9
          3.749274259696803e-9 1.9112551707442748e-8 1.5177807444617322e-8 2.0199411802459575e-8 1.6061558995642624e-8 1.1560523039031249e-8
          8.363068172907501e-9 1.2262412191594832e-8 8.907235920300102e-9 3.126698065071843e-9 4.1927291941177785e-9 2.250728814245659e-9
          3.2541272232107874e-9 4.35061019110743e-9 2.3626085227766757e-9 1.2603415530444985e-9 1.3137544896013133e-9 9.964078262482e-10
          1.3723008621967514e-9 7.846948840931563e-10 1.2493382114969614e-9 7.982339544055356e-10 7.793787416571023e-10 2.1096324262464795e-9
          1.3206483381585314e-9 2.8874198122204184e-9 1.8149760266763637e-9 4.668821374747493e-9 2.961693834455449e-9 3.307687745024008e-9
          6.61965820887376e-9 4.2528863197309305e-9 4.6405676213614714e-9 8.055725459915434e-9 5.239811128325743e-9 5.6900595973379615e-9
          8.55435125103327e-9 5.594419090234499e-9 6.083446159417687e-9
        </DataArray>
        <DataArray type="Float64" Name="gradient_matprop_error" format="ascii" RangeMin="0" RangeMax="0">
          0 0 0 0 0 0
          0 0 0 0 0 0
          0 0 0 0 0 0
          0 0 0 0 0 0
          0 0 0 0 0 0
          0 0 0 0 0 0
          0 0 0 0 0 0
          0 0 0 0 0 0
          0 0 0 0 0 0
          0 0 0 0 0 0
          0 0 0 0 0 0
          0 0 0 0 0 0
          0 0 0 0 0 0
          0 0 0 0 0 0
          0 0 0 0 0 0
          0 0 0 0 0 0
          0 0 0 0 0 0
          0 0 0 0 0 0
          0 0 0 0 0 0
          0 0 0 0 0 0
          0 0 0 0 0 0
          0 0 0 0 0 0
          0 0 0 0 0 0
          0 0 0 0 0 0
          0 0 0 0 0 0
          0 0 0 0 0 0
          0 0 0 0 0 0
          0 0 0 0 0 0
          0 0 0 0 0 0
          0 0 0 0 0 0
          0 0 0 0 0 0
          0 0 0 0 0 0
          0 0 0 0 0 0
          0 0 0 0 0 0
          0 0 0 0 0 0
          0 0 0 0 0 0
          0 0 0 0 0 0
          0 0 0 0 0 0
          0 0 0 0 0 0
          0 0 0 0 0 0
          0 0 0 0 0 0
          0 0 0 0 0 0
          0 0 0 0 0 0
          0 0 0 0 0 0
          0 0 0 0 0 0
          0 0 0 0 0 0
          0 0 0 0 0 0
          0 0 0 0 0 0
          0 0 0 0 0 0
          0 0 0 0 0 0
          0 0 0
        </DataArray>
        <DataArray type="Float64" Name="initial_marker" format="ascii" RangeMin="0" RangeMax="2">
          1.5 0.5 2 2 2 2
          2 2 2 1.25 2 2
          0 1.75 2 2 2 1
          2 1 0 0 2 2
          2 2 2 1.75 2 2
          2 2 2 1.5 1.5 2
          2 2 1 1.25 0.5 0.75
          0 0.5 0 1.75 1.5 0
          0.5 0 0.5 0 0 0
          1.5 1.5 1 2 2 2
          2 2 2 2 2 2
          2 2 2 2 2 2
          2 2 2 2 2 2
          2 2 2 2 2 2
          2 2 2 2 2 2
          2 2 2 2 2 2
          2 2 2 2 2 2
          2 2 2 2 2 2
          2 2 2 2 2 1
          1 1 1 0 0 0
          1 1 0 2 2 1.5
          1.75 1 1.5 1.3333333333333333 2 2
          2 1.25 1 2 2 2
          2 2 2 2 2 2
          1.75 1.5 2 2 2 2
          2 2 2 2 2 2
          2 2 2 2 2 2
          2 0 0 0 0 1
          0.75 0 0 0 0 0.5
          0 0.5 0 0 1.75 0
          0 0 0 0 0 0
          0 0 1.5 1.5 1.3333333333333333 2
          2 2 2 2 2 2
          2 2 1 1 1.5 1.5
          2 2 2 2 1.5 2
          2 1.5 2 1.3333333333333333 2 2
          2 1.5 2 1.75 1.6666666666666667 2
          0.6666666666666666 2 2 1 1 1
          2 2 2 2 2 2
          2 2 2 2 2 2
          2 2 2 2 2 2
          2 2 2 2 2 2
          2 2 2 2 2 2
          2 2 1.5 1.5 1.6666666666666667 2
          2 2 2 2 2 2
          2 2 2 2 2 2
          2 2 2 1 1 0
          1 2 2 1.25 2 2
          2 2 2 2 2 2
          2 2 2 2 2 2
          2 2 2
        </DataArray>
        <DataArray type="Float64" Name="markers_norefine" format="ascii" RangeMin="0" RangeMax="0">
          0 0 0 0 0 0
          0 0 0 0 0 0
          0 0 0 0 0 0
          0 0 0 0 0 0
          0 0 0 0 0 0
          0 0 0 0 0 0
          0 0 0 0 0 0
          0 0 0 0 0 0
          0 0 0 0 0 0
          0 0 0 0 0 0
          0 0 0 0 0 0
          0 0 0 0 0 0
          0 0 0 0 0 0
          0 0 0 0 0 0
          0 0 0 0 0 0
          0 0 0 0 0 0
          0 0 0 0 0 0
          0 0 0 0 0 0
          0 0 0 0 0 0
          0 0 0 0 0 0
          0 0 0 0 0 0
          0 0 0 0 0 0
          0 0 0 0 0 0
          0 0 0 0 0 0
          0 0 0 0 0 0
          0 0 0 0 0 0
          0 0 0 0 0 0
          0 0 0 0 0 0
          0 0 0 0 0 0
          0 0 0 0 0 0
          0 0 0 0 0 0
          0 0 0 0 0 0
          0 0 0 0 0 0
          0 0 0 0 0 0
          0 0 0 0 0 0
          0 0 0 0 0 0
          0 0 0 0 0 0
          0 0 0 0 0 0
          0 0 0 0 0 0
          0 0 0 0 0 0
          0 0 0 0 0 0
          0 0 0 0 0 0
          0 0 0 0 0 0
          0 0 0 0 0 0
          0 0 0 0 0 0
          0 0 0 0 0 0
          0 0 0 0 0 0
          0 0 0 0 0 0
          0 0 0 0 0 0
          0 0 0 0 0 0
          0 0 0
        </DataArray>
        <DataArray type="Float64" Name="markers_mustrefine" format="ascii" RangeMin="0" RangeMax="2">
          1.5 0.5 2 2 2 2
          2 2 2 1.25 2 2
          0 1.75 2 2 2 1
          2 1 0 0 2 2
          2 2 2 1.75 2 2
          2 2 2 1.5 1.5 2
          2 2 1 1.25 0.5 0.75
          0 0.5 0 1.75 1.5 0
          0.5 0 0.5 0 0 0
          1.5 1.5 1 2 2 2
          2 2 2 2 2 2
          2 2 2 2 2 2
          2 2 2 2 2 2
          2 2 2 2 2 2
          2 2 2 2 2 2
          2 2 2 2 2 2
          2 2 2 2 2 2
          2 2 2 2 2 2
          2 2 2 2 2 1
          1 1 1 0 0 0
          1 1 0 2 2 1.5
          1.75 1 1.5 1.3333333333333333 2 2
          2 1.25 1 2 2 2
          2 2 2 2 2 2
          1.75 1.5 2 2 2 2
          2 2 2 2 2 2
          2 2 2 2 2 2
          2 0 0 0 0 1
          0.75 0 0 0 0 0.5
          0 0.5 0 0 1.75 0
          0 0 0 0 0 0
          0 0 1.5 1.5 1.3333333333333333 2
          2 2 2 2 2 2
          2 2 1 1 1.5 1.5
          2 2 2 2 1.5 2
          2 1.5 2 1.3333333333333333 2 2
          2 1.5 2 1.75 1.6666666666666667 2
          0.6666666666666666 2 2 1 1 1
          2 2 2 2 2 2
          2 2 2 2 2 2
          2 2 2 2 2 2
          2 2 2 2 2 2
          2 2 2 2 2 2
          2 2 1.5 1.5 1.6666666666666667 2
          2 2 2 2 2 2
          2 2 2 2 2 2
          2 2 2 1 1 0
          1 2 2 1.25 2 2
          2 2 2 2 2 2
          2 2 2 2 2 2
          2 2 2
        </DataArray>
        <DataArray type="Float64" Name="gradient_marker" format="ascii" RangeMin="1" RangeMax="1">
          1 1 1 1 1 1
          1 1 1 1 1 1
          1 1 1 1 1 1
          1 1 1 1 1 1
          1 1 1 1 1 1
          1 1 1 1 1 1
          1 1 1 1 1 1
          1 1 1 1 1 1
          1 1 1 1 1 1
          1 1 1 1 1 1
          1 1 1 1 1 1
          1 1 1 1 1 1
          1 1 1 1 1 1
          1 1 1 1 1 1
          1 1 1 1 1 1
          1 1 1 1 1 1
          1 1 1 1 1 1
          1 1 1 1 1 1
          1 1 1 1 1 1
          1 1 1 1 1 1
          1 1 1 1 1 1
          1 1 1 1 1 1
          1 1 1 1 1 1
          1 1 1 1 1 1
          1 1 1 1 1 1
          1 1 1 1 1 1
          1 1 1 1 1 1
          1 1 1 1 1 1
          1 1 1 1 1 1
          1 1 1 1 1 1
          1 1 1 1 1 1
          1 1 1 1 1 1
          1 1 1 1 1 1
          1 1 1 1 1 1
          1 1 1 1 1 1
          1 1 1 1 1 1
          1 1 1 1 1 1
          1 1 1 1 1 1
          1 1 1 1 1 1
          1 1 1 1 1 1
          1 1 1 1 1 1
          1 1 1 1 1 1
          1 1 1 1 1 1
          1 1 1 1 1 1
          1 1 1 1 1 1
          1 1 1 1 1 1
          1 1 1 1 1 1
          1 1 1 1 1 1
          1 1 1 1 1 1
          1 1 1 1 1 1
          1 1 1
        </DataArray>
        <DataArray type="Float64" Name="gradient_matprop_marker" format="ascii" RangeMin="0" RangeMax="0">
          0 0 0 0 0 0
          0 0 0 0 0 0
          0 0 0 0 0 0
          0 0 0 0 0 0
          0 0 0 0 0 0
          0 0 0 0 0 0
          0 0 0 0 0 0
          0 0 0 0 0 0
          0 0 0 0 0 0
          0 0 0 0 0 0
          0 0 0 0 0 0
          0 0 0 0 0 0
          0 0 0 0 0 0
          0 0 0 0 0 0
          0 0 0 0 0 0
          0 0 0 0 0 0
          0 0 0 0 0 0
          0 0 0 0 0 0
          0 0 0 0 0 0
          0 0 0 0 0 0
          0 0 0 0 0 0
          0 0 0 0 0 0
          0 0 0 0 0 0
          0 0 0 0 0 0
          0 0 0 0 0 0
          0 0 0 0 0 0
          0 0 0 0 0 0
          0 0 0 0 0 0
          0 0 0 0 0 0
          0 0 0 0 0 0
          0 0 0 0 0 0
          0 0 0 0 0 0
          0 0 0 0 0 0
          0 0 0 0 0 0
          0 0 0 0 0 0
          0 0 0 0 0 0
          0 0 0 0 0 0
          0 0 0 0 0 0
          0 0 0 0 0 0
          0 0 0 0 0 0
          0 0 0 0 0 0
          0 0 0 0 0 0
          0 0 0 0 0 0
          0 0 0 0 0 0
          0 0 0 0 0 0
          0 0 0 0 0 0
          0 0 0 0 0 0
          0 0 0 0 0 0
          0 0 0 0 0 0
          0 0 0 0 0 0
          0 0 0
        </DataArray>
        <DataArray type="Float64" Name="combo" format="ascii" RangeMin="1" RangeMax="1">
          1 1 1 1 1 1
          1 1 1 1 1 1
          1 1 1 1 1 1
          1 1 1 1 1 1
          1 1 1 1 1 1
          1 1 1 1 1 1
          1 1 1 1 1 1
          1 1 1 1 1 1
          1 1 1 1 1 1
          1 1 1 1 1 1
          1 1 1 1 1 1
          1 1 1 1 1 1
          1 1 1 1 1 1
          1 1 1 1 1 1
          1 1 1 1 1 1
          1 1 1 1 1 1
          1 1 1 1 1 1
          1 1 1 1 1 1
          1 1 1 1 1 1
          1 1 1 1 1 1
          1 1 1 1 1 1
          1 1 1 1 1 1
          1 1 1 1 1 1
          1 1 1 1 1 1
          1 1 1 1 1 1
          1 1 1 1 1 1
          1 1 1 1 1 1
          1 1 1 1 1 1
          1 1 1 1 1 1
          1 1 1 1 1 1
          1 1 1 1 1 1
          1 1 1 1 1 1
          1 1 1 1 1 1
          1 1 1 1 1 1
          1 1 1 1 1 1
          1 1 1 1 1 1
          1 1 1 1 1 1
          1 1 1 1 1 1
          1 1 1 1 1 1
          1 1 1 1 1 1
          1 1 1 1 1 1
          1 1 1 1 1 1
          1 1 1 1 1 1
          1 1 1 1 1 1
          1 1 1 1 1 1
          1 1 1 1 1 1
          1 1 1 1 1 1
          1 1 1 1 1 1
          1 1 1 1 1 1
          1 1 1 1 1 1
          1 1 1
        </DataArray>
        <DataArray type="Float64" Name="dHdT" format="ascii" RangeMin="25.890544470574337" RangeMax="38.35667475736245">
          26.16700449624439 26.020363781789346 27.780839253812083 26.820827240601044 26.278765964865606 29.35434148902135
          30.317226502879443 27.630918442977126 26.661618940083237 26.118412253213933 28.09595080223712 26.875592239331837
          25.966937340890116 25.994851298776332 26.684644386259052 27.001550355442212 26.15368829402805 25.94491570209349
          26.239813050969182 25.965180795446145 25.890544470574337 25.89819375811301 27.18031983515788 28.689129877436518
          27.170090765594285 26.774511062991163 26.7932994551108 26.50325242901135 27.89241555969872 27.293465809745587
          27.23364617408711 26.475355621573637 26.254789617224958 26.28661990275449 26.128272095622215 26.839861734095564
          26.501726004815644 26.509432232791507 26.396291772314264 26.511545088398123 26.220199869018828 26.302244227122795
          26.30835568823688 26.393519355189774 26.218550200060818 26.771781749397245 26.488059288070538 26.09096443396415
          26.148291745225006 25.998814500606535 26.037198955730858 26.049029682638867 26.091204883180108 26.000385879175774
          26.278297064248072 26.124813773275157 26.185063243116815 30.110250847514003 28.53242875024078 31.774240631045153
          33.06886870496876 30.041784097671975 33.527963089929955 28.891955484621327 27.99482168576644 27.78031652385652
          27.214397236464208 30.112672808916848 28.818224541560443 28.366816937394205 27.3251544933457 26.828110526306396
          26.78547351785325 26.465642755898777 27.87839996500652 27.195060918354063 27.075428554679473 27.076426955409655
          26.706476246896205 27.380861370737954 26.92615983962253 26.431287414952287 26.22843765433155 26.292387256700238
          26.13635145715356 26.584164487590204 26.33089405241219 26.335089256051628 31.194532213874126 29.54811481338195
          28.84494047630398 27.965507050004646 31.62908793751168 29.851001160341028 29.032867199804862 28.351176146680736
          27.50275349952711 27.30582473785531 26.816228643886376 28.542285268896716 27.625148847748598 27.395022711393448
          27.613509242016598 27.09487398001822 27.701384559064085 27.158550783669476 26.700663820540388 26.407904975229272
          26.348989169261756 26.217885576645205 26.74459842379465 26.436853018602115 26.369358509890162 26.140285477603214
          26.148577365233354 26.07911960321576 26.08461519407488 26.070037150215683 26.075181668794862 26.02687599159654
          26.156869252863494 26.090110784933998 26.080326187374048 26.032793125659424 26.097993307061074 25.951856292964063
          25.991098168494364 25.97583092460402 26.01631909790995 25.95635633764191 26.257087960305416 26.088118227083385
          26.112674928782695 26.01464405082213 25.954632342711566 26.425391821146697 26.910189495780394 26.468937131413565
          26.219090960030197 26.23442011344859 26.074367140664883 26.70536409081736 26.365298253138572 26.36206579006353
          26.082258031392264 25.98185565911205 26.149427665075855 26.023962307332297 26.06947966987076 26.901475215598328
          26.485851061891488 26.462392780744427 26.215920285675224 26.97911408024096 26.53339112742412 26.50095162190947
          26.19967887132774 26.055579006146566 26.102374379657522 25.997180542162543 26.218637093131633 26.06747683166408
          26.114707851615243 26.24031063766937 26.02672988875068 26.001481877097593 26.122934206762817 26.71067699696404
          26.260482122670446 26.075032059490173 26.333556594123614 25.93311652044508 25.891028973516043 26.012545783927095
          25.93678126885274 26.2451840358853 25.940607298789075 26.046333599711957 26.48613385943247 25.964250700567234
          26.100760476313404 25.924993939415607 26.039520607614964 26.13225441379526 25.91112249109567 26.060857808610614
          25.900076090743244 25.987639278159666 27.504551915997215 27.028999287500543 27.23847911940214 28.41774466560091
          27.693570168010165 27.71323846620097 29.30494925753845 28.33687021855804 31.55472693036789 29.9871378120702
          29.814351361095923 28.534003637582842 26.63460881909665 26.961307930137725 26.794373369190957 27.183672936697334
          27.152689057794756 27.675352224077205 27.361231547823703 26.926543600585326 26.682172871700462 27.63898976233839
          26.59862045091438 26.422937057830175 27.112304505452663 26.539701739794936 28.80403911898181 27.933150090381545
          26.351377722133783 26.228877097901993 26.712026333170257 26.162621769793432 26.124647991856815 26.414381557002017
          26.159179436934338 27.28195602565811 26.798665925336454 26.631337927325347 26.52266510202395 26.69926841964454
          34.250281155606146 32.38705305598117 31.76961450977678 29.59391028228447 36.29231857622037 34.654215186635085
          33.69319453362482 30.747250737783745 27.569228759066966 28.244433449180693 27.98361605322758 28.80367901775435
          37.70230364792625 35.931212223172906 34.8617211122414 31.659005700717454 38.35667475736245 36.29904852946272
          35.216432634358796 32.00961035421353 28.300019922554633 29.230487106001597 28.420025060483795 29.397816569958408
          30.639865188011264 29.193530472461056 32.79211403488408 30.83841291900661 28.118457852189472 27.349493150171735
          29.195065526604928 28.02637019001984 26.630968321252006 26.96392637845866 26.453022889435605 26.793811066752284
          27.184364577762647 34.35717150061535 32.288308944127145 34.88282236102095 32.85127857359906 30.213677578808795
          28.641836018974637 30.646826813715034 28.899331835717106 26.915767322724562 27.346989800998394 26.592145239470426
          26.961193012483967 27.40737067200162 26.624528683801262 26.28900898078827 26.300211872555362 26.192835774090938
          26.31601831973188 26.07153371746161 26.201394946190696 25.956080388324686 26.05428706984889 26.44979272253089
          26.20742064617603 26.679510997535246 26.34916119824527 27.23387971657649 26.688133817009017 26.80330210161587
          27.95302461993103 27.11660686667706 27.227639588559867 28.63235156857443 27.50880812482633 27.6024854951168
          28.92210159547082 27.672541581335167 27.75631719276572
        </DataArray>
        <DataArray type="Float64" Name="dk/dtemperature" format="ascii" RangeMin="0.0074481358557855195" RangeMax="0.015804580349343192">
          0.015512219766594587 0.015752373102423795 0.013428757090995414 0.01453625620515302 0.015308171201526501 0.01199275348137008
          0.011350358682656422 0.013587142585619789 0.014758735405898758 0.015595751361665617 0.01307645676729637 0.01447725487759223
          0.015804580349343192 0.015762814551807676 0.014716906708065747 0.014343399650478102 0.015534297771014718 0.015804580349343192
          0.015349936999062017 0.015804580349343192 0.015804580349343192 0.015804580349343192 0.014120351801518546 0.012555958502563995
          0.01412519682144978 0.014598904901456293 0.01458041221399328 0.014968195093575512 0.01328496955646223 0.013954988616433052
          0.014016251809167227 0.014996437327149979 0.015349936999062017 0.015308171201526503 0.015595751361665616 0.014519775478697663
          0.014961463913231611 0.014958948749844006 0.015083239737690659 0.014936178842151449 0.015386922373988044 0.015266405403990987
          0.015178093386310472 0.015083239737690657 0.015386922373988044 0.014613686471367206 0.0149859958777661 0.015700165855504405
          0.015585309912281742 0.015804580349343192 0.015762814551807676 0.01576281455180768 0.015700165855504405 0.015804580349343192
          0.015308171201526503 0.015595751361665616 0.015470453969059075 0.011478735644303765 0.012689808638605369 0.010404086607168017
          0.009547949046042286 0.011512199451082297 0.00922860262372392 0.01236719640681101 0.013201188057225473 0.013417184284768782
          0.01405908776027225 0.01146615558480513 0.012444940326000539 0.012822528266316123 0.013947754233709204 0.014538268166160679
          0.014598904901456293 0.015014930014612994 0.013340196866173427 0.014086577735813179 0.014249928111378887 0.014238354456640128
          0.01470206223785734 0.01387013272106616 0.01442510883394608 0.01506097303237805 0.015389312585292789 0.015243132293918488
          0.015574868462897861 0.01486610706223185 0.015238666372796465 0.015198389215634956 0.010794507679078507 0.011883307812243964
          0.012391037316585203 0.013216534881301702 0.010550264749282121 0.011669637198683656 0.012239386396353236 0.012858004882614446
          0.013714393281497131 0.013962597006893358 0.014555377047078842 0.012680691489517356 0.013576010929987732 0.013851138528247452
          0.013596014073102718 0.014197533012079138 0.0134902166212312 0.01412286951044253 0.014694827855133492 0.015111985173645068
          0.015187654231529443 0.015442610104035394 0.014633499216565454 0.01505480880322371 0.015169161544066431 0.015553985564130107
          0.015553985564130107 0.015721048754272163 0.015721048754272163 0.015721048754272167 0.015721048754272167 0.015804580349343192
          0.015553985564130107 0.015721048754272163 0.015721048754272167 0.015762814551807676 0.01564795860858501 0.015804580349343192
          0.01578369745057543 0.015804580349343192 0.015762814551807676 0.015804580349343192 0.015349936999062017 0.01565840005796889
          0.015595751361665619 0.015762814551807676 0.015804580349343192 0.015105317742110786 0.014437374391957261 0.01499832433607478
          0.015411390589712918 0.015369624792177404 0.015668841507352767 0.014688539522408419 0.015161802209259721 0.015171048552991229
          0.015668841507352767 0.01579413889995931 0.015564427013513982 0.0157523731024238 0.015741931653039918 0.014445300677953535
          0.014988386089070844 0.015006878776533858 0.015400949140329037 0.0143433996504781 0.014921963374917979 0.014940456062380992
          0.01545196128159606 0.015700165855504405 0.015679282956736647 0.015804580349343192 0.015391702796597531 0.015679282956736647