<?xml version="1.0"?>
<VTKFile type="UnstructuredGrid" version="0.1" byte_order="LittleEndian" header_type="UInt32" compressor="vtkZLibDataCompressor">
  <UnstructuredGrid>
    <Piece NumberOfPoints="288" NumberOfCells="159">
      <PointData>
        <DataArray type="Int32" Name="libmesh_node_id" format="ascii" RangeMin="222" RangeMax="1540">
          222 325 344 442 443 449
          453 454 456 457 461 462
          463 757 758 759 762 765
          785 799 800 802 805 815
          819 821 822 823 824 825
          826 827 828 829 830 831
          832 833 834 835 836 837
          838 840 841 842 843 844
          845 846 847 848 869 870
          871 872 873 874 875 876
          877 878 879 880 881 882
          883 884 885 886 887 888
          889 893 1323 1339 1340 1342
          1345 1349 1363 1364 1366 1369
          1375 1377 1379 1381 1382 1383
          1384 1385 1386 1387 1388 1389
          1390 1391 1392 1393 1394 1395
          1396 1397 1398 1399 1400 1401
          1402 1403 1404 1405 1406 1407
          1408 1409 1410 1411 1412 1413
          1414 1415 1416 1417 1418 1419
          1420 1421 1422 1423 1424 1425
          1426 1427 1428 1429 1430 1431
          1432 1433 1434 1435 1436 1437
          1438 1439 1440 1441 1442 1443
          1444 1445 1446 1447 1448 1449
          1450 1451 1452 1453 1454 1455
          1456 1457 1458 1459 1460 1461
          1462 1463 1464 1465 1466 1467
          1468 1469 1470 1471 1472 1473
          1474 1475 1476 1477 1478 1479
          1480 1481 1482 1483 1484 1485
          1486 1487 1488 1489 1490 1491
          1492 1493 1494 1495 1496 1497
          1498 1499 1500 1501 1502 1503
          1504 1505 1506 1507 1508 1509
          1510 1511 1512 1513 1514 1515
          1516 1517 1518 1519 1520 1521
          1522 1523 1524 1525 1526 1527
          1528 1529 1530 1531 1532 1533
          1534 1535 1536 1537 1538 1539
          1540 638 665 666 639 451
          452 441 336 839 455 849
          779 850 780 851 852 856
          857 854 783 858 446 859
          860 861 862 866 867 890
          891 817 459 892 894 895
          332 464 896 897 900 901
        </DataArray>
        <DataArray type="Float64" Name="bounds" format="ascii" RangeMin="0" RangeMax="0">
          0 0 0 0 0 0
          0 0 0 0 0 0
          0 0 0 0 0 0
          0 0 0 0 0 0
          0 0 0 0 0 0
          0 0 0 0 0 0
          0 0 0 0 0 0
          0 0 0 0 0 0
          0 0 0 0 0 0
          0 0 0 0 0 0
          0 0 0 0 0 0
          0 0 0 0 0 0
          0 0 0 0 0 0
          0 0 0 0 0 0
          0 0 0 0 0 0
          0 0 0 0 0 0
          0 0 0 0 0 0
          0 0 0 0 0 0
          0 0 0 0 0 0
          0 0 0 0 0 0
          0 0 0 0 0 0
          0 0 0 0 0 0
          0 0 0 0 0 0
          0 0 0 0 0 0
          0 0 0 0 0 0
          0 0 0 0 0 0
          0 0 0 0 0 0
          0 0 0 0 0 0
          0 0 0 0 0 0
          0 0 0 0 0 0
          0 0 0 0 0 0
          0 0 0 0 0 0
          0 0 0 0 0 0
          0 0 0 0 0 0
          0 0 0 0 0 0
          0 0 0 0 0 0
          0 0 0 0 0 0
          0 0 0 0 0 0
          0 0 0 0 0 0
          0 0 0 0 0 0
          0 0 0 0 0 0
          0 0 0 0 0 0
          0 0 0 0 0 0
          0 0 0 0 0 0
          0 0 0 0 0 0
          0 0 0 0 0 0
          0 0 0 0 0 0
          0 0 0 0 0 0
        </DataArray>
        <DataArray type="Float64" Name="gradient_error" format="ascii" RangeMin="6.694531341593102e-9" RangeMax="1.6442915791303845e-7">
          6.694531341593102e-9 1.6442915791303845e-7 1.4353624824100174e-8 7.154245465148427e-8 1.1689709424833343e-7 7.774768002551457e-8
          9.04707163947914e-8 9.961137498670488e-8 8.808778007248914e-8 1.134460588168051e-7 1.1618825517370095e-8 1.0533102394271155e-7
          1.1255860020495405e-7 7.686217983273024e-8 1.026747070081521e-7 9.786326474735566e-8 8.397061713407787e-8 9.907680957421558e-8
          9.186425204243238e-8 1.2874357141749182e-8 4.6703332883499e-8 1.0449121562506653e-7 1.1098879768244017e-8 1.1195797778937856e-7
          1.1842643079575109e-7 8.146336391763347e-8 7.688782243260905e-8 1.1133545421431304e-7 1.0497997249948958e-7 7.28368947369069e-8
          1.152851546892473e-7 1.0757505102616899e-7 6.443786935931507e-8 8.733218362633798e-8 8.677085543677378e-8 8.213500967733189e-8
          9.410418235659459e-8 8.413812022602244e-8 1.1134262673656075e-7 6.920400276612306e-8 6.469606830835309e-8 1.1204297148306622e-7
          1.0332780152936373e-7 1.0055926677612434e-7 9.171848060994599e-8 5.2682633165845386e-8 8.089022856938171e-8 7.017378052289694e-8
          9.341862466414581e-8 8.548608179644433e-8 1.0321217182730343e-7 9.821943614068405e-8 1.6174028875488624e-8 3.592227352193597e-8
          2.095727817686291e-8 2.3839375517294326e-8 1.0270921352209851e-7 9.667162206628136e-8 9.635346123331565e-9 1.4360359972256524e-8
          1.943381751247521e-8 9.231144634649787e-8 2.6212903601556526e-8 2.8895807559056007e-8 3.042379890322161e-8 5.5315856035030865e-8
          1.0182296283712125e-7 1.2172702136118317e-7 1.249161638681453e-8 2.4260461094346168e-8 2.7519864043902393e-8 1.1354372480576565e-7
          1.2520101223683692e-7 1.3507732981807058e-7 1.839185930630526e-8 1.7441741687984573e-8 1.7658154791264345e-8 1.7874567894544114e-8
          1.3846892338275287e-8 1.741403511373052e-8 8.11647392421869e-9 9.208118221077075e-9 1.2726120583771633e-8 7.64690204182701e-9
          1.6757357453980444e-8 1.836223625835308e-8 1.610067979423037e-8 2.081980112060252e-8 2.0489851076241445e-8 2.27247111738121e-8
          2.015990103188037e-8 2.5468510107581063e-8 2.5061041549735158e-8 2.7449669625448292e-8 2.393467029734063e-8 2.108836760632632e-8
          2.1975565832659144e-8 2.3580123029054543e-8 2.0735364062526295e-8 3.0262839149296534e-8 2.9594802017305963e-8 3.1218820399471854e-8
          2.7702881655883176e-8 3.28834499382609e-8 3.224358467903842e-8 3.245571335379386e-8 2.994773976139785e-8 2.4783223531926546e-8
          2.5567395596891796e-8 2.3087448637402127e-8 2.5972057016915037e-8 2.6078287904782468e-8 2.3652353930850327e-8 1.892225037849249e-8
          1.9256765707856973e-8 2.078173593798697e-8 2.1127619857994728e-8 1.9591281037221453e-8 2.1999478611482892e-8 1.4189286380765732e-8
          1.5145102153692782e-8 1.701010942920798e-8 1.6714588179832763e-8 2.2980961994165118e-8 2.32700661354547e-8 2.5330776071448902e-8
          2.5577227040939628e-8 2.376170587309437e-8 2.584096096179116e-8 1.848728360134598e-8 1.9286116982334766e-8 2.1804298622665765e-8
          2.1481095099227722e-8 2.2133765771868414e-8 2.1216103265293134e-8 1.9079589105053097e-8 2.171073428919991e-8 2.0217249523847558e-8
          2.307854299638933e-8 2.4895172187996128e-8 2.2192844523334203e-8 2.3932100462840293e-8 2.3616684204922166e-8 2.5800173357213287e-8
          2.4356128574712428e-8 9.82624063598734e-9 1.0854133243527088e-8 1.1741203421003023e-8 1.2903336716557007e-8 1.3980203422350068e-8
          1.579484526761798e-8 8.298608146825673e-9 9.441742519141107e-9 1.1316983116875412e-8 1.2399855096232256e-8 1.3614779714862794e-8
          1.5094358329730204e-8 1.54288920076758e-8 1.7305649356687927e-8 1.8088119969154426e-8 2.069683988004767e-8 1.0748406107782795e-8
          1.3095573415965127e-8 1.4707485924475298e-8 1.680279118870152e-8 1.8248886434216445e-8 2.0077836614368796e-8 2.041939187479959e-8
          2.2631452705612622e-8 1.7418183763379794e-8 1.9179153763642975e-8 2.062153422575162e-8 2.2177552343832618e-8 2.4573305213704784e-8
          2.4752801693953996e-8 2.693533737301429e-8 2.1303256437940417e-8 2.3756485059920706e-8 2.4443671222625254e-8 2.772573847158635e-8
          2.7910887692104425e-8 3.002344295247923e-8 3.010893987502903e-8 2.7907562332997385e-8 2.977090925249635e-8 2.3570733142842542e-8
          2.445192061363093e-8 2.7070346527019656e-8 2.64058256262846e-8 3.192830788139539e-8 3.187678480531811e-8 3.305603517278534e-8
          3.2840202402480423e-8 3.11511131375512e-8 3.203554909404409e-8 2.8628885779655825e-8 2.9384645240787628e-8 3.1142342360119934e-8
          3.097121856504917e-8 2.6470727246137526e-8 2.7704829135927586e-8 2.5222366738902783e-8 2.606227656444131e-8 2.8010289801164155e-8
          3.005075973177231e-8 2.8542036434178438e-8 2.8407656262961827e-8 2.858008459126151e-8 2.633834798006208e-8 2.6302261164741794e-8
          3.1609125361863446e-8 3.2864360969114335e-8 3.1416218295547965e-8 1.7116421700277654e-8 1.941863707309103e-8 1.841292340662569e-8
          2.12362381360456e-8 2.333683485006788e-8 2.5761443274989895e-8 1.2280014908746384e-8 1.616040628582308e-8 1.7330842568638103e-8
          2.1974261457678155e-8 1.9553724435166666e-8 2.2855255874591072e-8 2.1050164008807153e-8 2.4484308793496132e-8 2.7856256481886662e-8
          2.9608097496482787e-8 1.282284313555154e-8 1.845120619920468e-8 1.9908624317919386e-8 2.6124562347379524e-8 2.7106665758093225e-8
          2.9557646077938485e-8 2.92605142619551e-8 3.1651958471362696e-8 2.6350982874206654e-8 2.8856035367295732e-8 2.8794240495956766e-8
          3.1722375893063935e-8 3.3228697179878284e-8 3.388902613637002e-8 3.51596529449761e-8 3.10697565714096e-8 3.270179354495534e-8
          3.396995771091796e-8 1.4974561121538578e-7 1.1369279662198397e-7 9.794587370261474e-8 1.310627181012791e-7 1.3635142221991707e-7
          1.1344917990920621e-7 1.4049498479284535e-7 7.433984565653447e-8 4.186103618834977e-8 6.000824993581724e-8 4.88255160620088e-8
          5.116473223295689e-8 6.430487284470558e-8 6.470185576740781e-8 4.43713912934518e-8 6.096725889913122e-8 9.755446214150282e-8
          9.911784235002198e-8 5.256986922140133e-8 5.4514299753219086e-8 6.789936963871386e-8 1.1081331132428014e-7 3.802890466798133e-8
          5.4500934724543035e-8 2.4233405547391035e-8 4.597797315103796e-8 9.45153000827937e-8 8.402073695661175e-8 1.3432593672053015e-7
          7.64675447079925e-8 7.590720952576505e-8 1.2608260083993096e-7 8.409399375838211e-8 1.4797931524582694e-7 8.311211700282951e-8
          8.168990147647151e-8 1.392894516651997e-7 1.342999939491837e-7 1.2356724456613527e-7 1.505423525138847e-7 1.4031749168158497e-7
        </DataArray>
        <DataArray type="Float64" Name="gradient_matprop_error" format="ascii" RangeMin="0" RangeMax="0">
          0 0 0 0 0 0
          0 0 0 0 0 0
          0 0 0 0 0 0
          0 0 0 0 0 0
          0 0 0 0 0 0
          0 0 0 0 0 0
          0 0 0 0 0 0
          0 0 0 0 0 0
          0 0 0 0 0 0
          0 0 0 0 0 0
          0 0 0 0 0 0
          0 0 0 0 0 0
          0 0 0 0 0 0
          0 0 0 0 0 0
          0 0 0 0 0 0
          0 0 0 0 0 0
          0 0 0 0 0 0
          0 0 0 0 0 0
          0 0 0 0 0 0
          0 0 0 0 0 0
          0 0 0 0 0 0
          0 0 0 0 0 0
          0 0 0 0 0 0
          0 0 0 0 0 0
          0 0 0 0 0 0
          0 0 0 0 0 0
          0 0 0 0 0 0
          0 0 0 0 0 0
          0 0 0 0 0 0
          0 0 0 0 0 0
          0 0 0 0 0 0
          0 0 0 0 0 0
          0 0 0 0 0 0
          0 0 0 0 0 0
          0 0 0 0 0 0
          0 0 0 0 0 0
          0 0 0 0 0 0
          0 0 0 0 0 0
          0 0 0 0 0 0
          0 0 0 0 0 0
          0 0 0 0 0 0
          0 0 0 0 0 0
          0 0 0 0 0 0
          0 0 0 0 0 0
          0 0 0 0 0 0
          0 0 0 0 0 0
          0 0 0 0 0 0
          0 0 0 0 0 0
        </DataArray>
        <DataArray type="Float64" Name="initial_marker" format="ascii" RangeMin="0" RangeMax="2">
          2 1 2 2 2 2
          2 2 2 2 2 2
          2 2 2 2 1.75 2
          2 2 2 2 2 2
          2 2 2 2 2 2
          2 2 2 2 2 2
          2 2 2 2 2 2
          2 2 2 2 2 2
          2 2 2 2 2 2
          2 2 2 2 2 2
          2 2 2 2 2 2
          2 2 2 2 2 2
          2 2 2 2 2 2
          2 2 2 2 2 2
          2 2 2 2 2 2
          2 2 2 2 2 2
          2 2 2 2 2 2
          2 2 2 2 2 2
          2 2 2 2 2 2
          2 2 2 2 2 2
          2 2 2 2 2 2
          2 2 2 2 2 2
          2 2 2 2 2 2
          2 2 2 2 2 2
          2 2 2 2 2 2
          2 2 2 2 2 2
          2 2 2 2 2 2
          2 2 2 2 2 2
          2 2 2 2 2 2
          2 2 2 2 2 2
          2 2 2 2 2 2
          2 2 2 2 2 2
          2 2 2 2 2 2
          2 2 2 2 2 2
          2 2 2 2 2 2
          2 2 2 2 2 2
          2 2 2 2 2 2
          2 2 2 2 2 2
          2 2 2 2 2 2
          2 2 2 2 2 2
          2 2 2 2 2 2
          2 0 0 0 0 1
          1 0.75 1 1.3333333333333333 1 1
          0.5 1.5 1.25 1 1.5 2
          2 1 1 1.3333333333333333 1 1
          1.5 0.6666666666666666 1.5 2 2 2
          1.5 1.25 1.25 1.6666666666666667 2 2
          1.5 2 2 2 2 2
        </DataArray>
        <DataArray type="Float64" Name="markers_norefine" format="ascii" RangeMin="0" RangeMax="2">
          2 0 2 0 0 0
          0 0 0 0 2 1
          1 0 0 0 0 0
          0 2 1.25 0 2 0
          0 0 0 0 0 0
          0 0 0 0 0 0
          0 0 0 0 0 0
          0 0 0 0 0 0
          0 0 0 0 2 1.75
          2 2 0 0.5 2 2
          2 1 2 2 2 1.75
          0.5 0 2 2 2 1
          0 0 0 1 0.75 0.5
          1.75 1 2 2 2 2
          1 0 1 0 0 0
          0 0 0 0 0 0
          0 0 0 0 0 0
          0 0 0 0 0 0
          0 0 0 0 0 1
          1 1 1 1 1 2
          2 2 2 1 1 1
          1 1 1 2 2 2
          2 0.5 0 1 1 0
          0.5 0.5 0 0 1.25 1.5
          0.5 2 2 2 2 2
          2 2 2 2 2 2
          2 2 2 2 2 2
          2 2 2 1.25 1.5 0.5
          1 1.5 2 1 1.75 2
          1.5 2 2 2 2 1
          1 1 1 1 1 2
          2 2 2 1 1 1
          1 1 1 2 2 2
          2 0.5 0.5 0 0 1.5
          1.5 1 0.5 0.5 0 0
          1.25 1 0.5 2 2 2
          2 2 2 2 2 2
          2 2 2 2 2 2
          2 2 2 2 2 2
          2 2 2 2 2 2
          1.75 1.5 1.5 1 2 2
          2 0 0 0 0 0
          0 0 0 0 0 0
          0 0 0 0 0 0
          0 0 0 0 0 0
          0 0 0 0 0 0
          0 0 0 0 0 0
          0 0 0 0 0 0
        </DataArray>
        <DataArray type="Float64" Name="markers_mustrefine" format="ascii" RangeMin="0" RangeMax="2">
          2 1 2 2 2 2
          2 2 2 2 2 2
          2 2 2 2 1.75 2
          2 2 2 2 2 2
          2 2 2 2 2 2
          2 2 2 2 2 2
          2 2 2 2 2 2
          2 2 2 2 2 2
          2 2 2 2 2 2
          2 2 2 2 2 2
          2 2 2 2 2 2
          2 2 2 2 2 2
          2 2 2 2 2 2
          2 2 2 2 2 2
          2 2 2 2 2 2
          2 2 2 2 2 2
          2 2 2 2 2 2
          2 2 2 2 2 2
          2 2 2 2 2 2
          2 2 2 2 2 2
          2 2 2 2 2 2
          2 2 2 2 2 2
          2 2 2 2 2 2
          2 2 2 2 2 2
          2 2 2 2 2 2
          2 2 2 2 2 2
          2 2 2 2 2 2
          2 2 2 2 2 2
          2 2 2 2 2 2
          2 2 2 2 2 2
          2 2 2 2 2 2
          2 2 2 2 2 2
          2 2 2 2 2 2
          2 2 2 2 2 2
          2 2 2 2 2 2
          2 2 2 2 2 2
          2 2 2 2 2 2
          2 2 2 2 2 2
          2 2 2 2 2 2
          2 2 2 2 2 2
          2 2 2 2 2 2
          2 0 0 0 0 1
          1 0.75 1 1.3333333333333333 1 1
          0.5 1.5 1.25 1 1.5 2
          2 1 1 1.3333333333333333 1 1
          1.5 0.6666666666666666 1.5 2 2 2
          1.5 1.25 1.25 1.6666666666666667 2 2
          1.5 2 2 2 2 2
        </DataArray>
        <DataArray type="Float64" Name="gradient_marker" format="ascii" RangeMin="0" RangeMax="1">
          0 1 0 0.5 1 0.5
          0.5 0.75 0.5 0.875 0 0.5
          0.5 1 1 1 0.75 0.75
          1 0 0.25 0.75 0 1
          1 1 1 1 1 1
          1 1 0.5 0.75 0.75 0.5
          0.625 0.5 0.875 1 0.75 1
          0.875 0.75 0.625 0.25 0.625 0.5
          0.5 0.5 0.625 0.75 0 0.125
          0 0 0.625 0.5 0 0
          0 0.5 0 0 0 0.125
          0.5 0.625 0 0 0 0.5
          1 1 0 0 0 0
          0 0 0 0 0 0
          0 0 0 0 0 0
          0 0 0 0 0 0
          0 0 0 0 0 0
          0 0 0 0 0 0
          0 0 0 0 0 0
          0 0 0 0 0 0
          0 0 0 0 0 0
          0 0 0 0 0 0
          0 0 0 0 0 0
          0 0 0 0 0 0
          0 0 0 0 0 0
          0 0 0 0 0 0
          0 0 0 0 0 0
          0 0 0 0 0 0
          0 0 0 0 0 0
          0 0 0 0 0 0
          0 0 0 0 0 0
          0 0 0 0 0 0
          0 0 0 0 0 0
          0 0 0 0 0 0
          0 0 0 0 0 0
          0 0 0 0 0 0
          0 0 0 0 0 0
          0 0 0 0 0 0
          0 0 0 0 0 0
          0 0 0 0 0 0
          0 0 0 0 0 0
          0 0.75 0.5 0.5 0.625 1
          0.75 0.75 0.5 0.16666666666666666 0.25 0
          0 0.5 0.5 0 0.375 1
          0.875 0.5 0.5 0.6666666666666666 0.75 0
          0.25 0 0.25 0.75 0.75 1
          0.625 0.75 0.75 0.6666666666666666 1 0.75
          1 0.75 1 1 1 1
        </DataArray>
        <DataArray type="Float64" Name="gradient_matprop_marker" format="ascii" RangeMin="0" RangeMax="0">
          0 0 0 0 0 0
          0 0 0 0 0 0
          0 0 0 0 0 0
          0 0 0 0 0 0
          0 0 0 0 0 0
          0 0 0 0 0 0
          0 0 0 0 0 0
          0 0 0 0 0 0
          0 0 0 0 0 0
          0 0 0 0 0 0
          0 0 0 0 0 0
          0 0 0 0 0 0
          0 0 0 0 0 0
          0 0 0 0 0 0
          0 0 0 0 0 0
          0 0 0 0 0 0
          0 0 0 0 0 0
          0 0 0 0 0 0
          0 0 0 0 0 0
          0 0 0 0 0 0
          0 0 0 0 0 0
          0 0 0 0 0 0
          0 0 0 0 0 0
          0 0 0 0 0 0
          0 0 0 0 0 0
          0 0 0 0 0 0
          0 0 0 0 0 0
          0 0 0 0 0 0
          0 0 0 0 0 0
          0 0 0 0 0 0
          0 0 0 0 0 0
          0 0 0 0 0 0
          0 0 0 0 0 0
          0 0 0 0 0 0
          0 0 0 0 0 0
          0 0 0 0 0 0
          0 0 0 0 0 0
          0 0 0 0 0 0
          0 0 0 0 0 0
          0 0 0 0 0 0
          0 0 0 0 0 0
          0 0 0 0 0 0
          0 0 0 0 0 0
          0 0 0 0 0 0
          0 0 0 0 0 0
          0 0 0 0 0 0
          0 0 0 0 0 0
          0 0 0 0 0 0
        </DataArray>
        <DataArray type="Float64" Name="combo" format="ascii" RangeMin="0" RangeMax="2">
          2 1 2 0.5 1 0.5
          0.5 0.75 0.5 0.875 2 1.5
          1.5 1 1 1 0.75 0.75
          1 2 1.5 0.75 2 1
          1 1 1 1 1 1
          1 1 0.5 0.75 0.75 0.5
          0.625 0.5 0.875 1 0.75 1
          0.875 0.75 0.625 0.25 0.625 0.5
          0.5 0.5 0.625 0.75 2 1.875
          2 2 0.625 1 2 2
          2 1.5 2 2 2 1.875
          1 0.625 2 2 2 1.5
          1 1 0 1 0.75 0.5
          1.75 1 2 2 2 2
          1 0 1 0 0 0
          0 0 0 0 0 0
          0 0 0 0 0 0
          0 0 0 0 0 0
          0 0 0 0 0 1
          1 1 1 1 1 2
          2 2 2 1 1 1
          1 1 1 2 2 2
          2 0.5 0 1 1 0
          0.5 0.5 0 0 1.25 1.5
          0.5 2 2 2 2 2
          2 2 2 2 2 2
          2 2 2 2 2 2
          2 2 2 1.25 1.5 0.5
          1 1.5 2 1 1.75 2
          1.5 2 2 2 2 1
          1 1 1 1 1 2
          2 2 2 1 1 1
          1 1 1 2 2 2
          2 0.5 0.5 0 0 1.5
          1.5 1 0.5 0.5 0 0
          1.25 1 0.5 2 2 2
          2 2 2 2 2 2
          2 2 2 2 2 2
          2 2 2 2 2 2
          2 2 2 2 2 2
          1.75 1.5 1.5 1 2 2
          2 0.75 0.5 0.5 0.625 1
          0.75 0.75 0.5 0.16666666666666666 0.25 0
          0 0.5 0.5 0 0.375 1
          0.875 0.5 0.5 0.6666666666666666 0.75 0
          0.25 0 0.25 0.75 0.75 1
          0.625 0.75 0.75 0.6666666666666666 1 0.75
          1 0.75 1 1 1 1
        </DataArray>
        <DataArray type="Float64" Name="dHdT" format="ascii" RangeMin="26.738465546074735" RangeMax="74.86407118825">
          47.564932846410045 31.342318700986638 46.26224563726414 38.95745595480403 38.03650321824398 46.53724009302104
          42.54548041385577 35.77796467302151 39.91022645452466 34.52967564906253 46.222059246688374 50.43943421831245
          45.52171849295526 33.62156931174705 35.578598155232015 35.19606968907143 34.013286153098356 38.70815001053322
          34.88858578564576 73.28485772874808 61.337879987419186 40.91415947755762 74.86407118825 37.069527923370984
          38.11655322329297 33.45620932451652 32.860208817200416 35.09946528393217 34.65265239558614 31.806647275280298
          34.363750674561985 33.886836632177214 31.333411999277306 33.38294597605022 32.58379510916807 42.53446730311356
          39.65737313040638 39.643825932856394 37.201156897147186 31.020424089186253 30.538595596063523 33.35253469181043
          32.904701107582454 32.23460977851782 31.795637689971883 29.438117057428947 31.608073429815967 30.47766769537817
          41.441020733334646 38.8314912683355 37.19580650891511 35.1403802777168 58.882478149281084 61.04728365410512
          54.64746677900979 57.89802247771947 43.716648958189246 43.64749338201089 45.968434867643765 58.080461545571175
          51.37341745122868 51.2441065709369 52.81997725761066 55.33248878871272 52.434296216466976 52.62860015709847
          42.48847465638324 40.17832508956077 46.26466305146991 50.04274907595084 51.9160660602168 48.34933434070808
          37.22669560197474 38.9118071557988 39.46325501160021 53.21383708101801 50.65974318788054 48.105649294743046
          71.0685117601587 53.817896897999674 64.31806375718757 70.78918617318828 73.39290428218507 61.297580190220046
          58.82413203645164 48.122764097722154 63.830367174903614 46.393473555887496 43.586945802637544 46.31656180933799
          40.78041804938759 48.152302905230655 47.22460028531527 47.62182997642904 42.384378157554536 37.31392396273511
          37.83986840949542 38.75475154701154 37.207878169281656 48.77524525576219 47.3533137649224 46.335197729489
          43.27713407342604 45.70331114011397 44.94543684135932 43.223849531454036 41.026353712076066 39.02865261174099
          38.38168849464102 37.4344193507125 37.61088094937903 37.37199989519067 37.356617017210596 57.13599804083104
          54.40139919847339 57.49715617515166 55.61320249877505 51.666800356115765 51.04192185202073 65.80187658805374
          67.16729633337026 61.73099574160568 67.7690639135824 56.56616973701442 55.340789572109486 56.03814885985707
          54.761532699488804 50.340043997629365 50.7206993808972 55.55361953087207 57.723501255761505 55.64184007439084
          59.67043488639982 42.59712190596629 39.526975900667296 57.215790226711846 55.19401064832917 48.18982087005003
          43.07262935472622 43.77735602042312 39.58058012139828 39.5982298181724 53.53948444424597 53.52963148620801
          47.631482096343255 54.725086060857365 59.197486325097664 48.53264608939095 52.26346408374226 66.96714332918087
          61.9008297370904 45.72494147138183 49.27623257776407 45.97477987248524 63.55728211941011 46.131544946375186
          49.01458863081869 46.10191225324651 47.764266411475624 57.6304068952959 54.524344760755945 46.13588739980439
          46.03915360901808 46.14608809671812 54.215653855496356 61.68058876314934 62.02829641331061 53.09677745727487
          56.249215430533965 66.14538729958682 65.20573677872622 58.00373404449971 59.853755389401414 57.88694309820509
          56.34432930347321 56.151817244603016 60.93393219026787 57.51458371782888 59.37897648777479 55.14606068092793
          53.789505219261216 53.37484900505111 52.386742741556844 50.22839879599099 48.892785514589654 53.78810938789154
          54.419757452213155 53.60456306098095 56.57236986476542 51.66739941690372 50.84406093708601 50.47068457039265
          49.232473645326166 47.13977167330743 46.44303953508312 51.89497313041814 53.301654743822276 53.74756235222507
          54.385844270093884 43.770238007641844 42.89925086968742 39.5166281808962 39.41156718825813 52.90973513521641
          51.46806299680697 47.72613605743675 41.70224010299944 41.13987924454761 39.14565931665231 38.93916532436522
          49.637588628176175 49.39548734460129 45.21182507339099 46.15659802884859 47.40530426432459 46.17615786441185
          47.49360507859694 53.1706545588185 52.65716577088328 46.253853388007784 46.1967902978229 46.216371788856684
          50.37623290666211 46.21301497482311 48.03777594594177 47.58707584977178 49.2211758068238 53.11391133287896
          53.80502587309739 46.267571382503434 46.2149274370517 46.188324668395765 50.709323760108965 56.57178778235545
          55.143711201489054 55.45627694687448 53.78414315399358 55.83592869782078 54.76810965409799 57.05911878995538
          54.07388574853806 53.422022169296454 51.78248574837859 50.08926835627396 54.6661934973436 55.20469261864324
          54.07602296606922 27.43449707460709 26.919070444799328 26.738465546074735 27.182747182718995 30.046401114507738
          28.89180246344174 30.075199526263653 28.403706019250567 28.527284398144605 27.700104791877315 29.605112490245745
          30.201321179036977 31.334953694906037 31.977995063439753 28.953856253159113 30.577220714082102 34.3031894738585
          33.52345049503185 30.109854944951742 30.742959043593643 31.99010006396699 31.589624729570446 28.289127986592455
          29.709101256912366 27.270427774409285 28.762622929975784 32.50555504844129 31.276535383854828 36.77173978480634
          32.83218312441272 33.52420869173997 30.13455244300645 32.858225729335125 38.69716375455407 33.385266451916124
          34.073009959369514 32.229149252694995 35.70961405941059 34.07936534418719 37.537192549170896 35.4915506645804
        </DataArray>
        <DataArray type="Float64" Name="dk/dtemperature" format="ascii" RangeMin="0.006231500000000025" RangeMax="0.07572082986113024">
          0.008909875000000005 0.010935715452902353 0.006338375000000021 0.00804960155271189 0.007545066547100403 0.009013943260523773
          0.0083701624678701 0.007914081458607393 0.008533477994967672 0.008705985719018813 0.006954250000000001 0.038024629790580265
          0.022269103773471695 0.009466239947653415 0.008145964852530366 0.008196220465349931 0.008786350519116519 0.007975661822852014
          0.008243793857330588 0.04790913277088335 0.03566255732028831 0.008446682594591796 0.049473170998419115 0.007653725572765196
          0.007854608412349053 0.009581723819220903 0.009913209461640414 0.008523868765239678 0.008569407393062306 0.010548756216772391
          0.00908355549940222 0.009083022265755292 0.010744250341381392 0.009203127352991721 0.009746306496602821 0.008154344834230916
          0.008110960384789399 0.008303754047050213 0.007701222647162255 0.010992204388729877 0.011244182980487832 0.009589951322790703
          0.009582916869095582 0.009908602023405454 0.010200938391870154 0.011984138686149896 0.010380215722593048 0.011266380619800103
          0.008522866210323183 0.008504900843476711 0.008520456411387312 0.008224391861186793 0.0161313224769881 0.03391140212849377
          0.050355187500000016 0.02576719803373386 0.008313216995594232 0.009254129280389212 0.00795374999999999 0.024154812500000015
          0.008072625000000003 0.023491141436953876 0.04279931389762394 0.02504315957391471 0.012126169600795331 0.021657919030706504
          0.009264413815822483 0.008226178962641028 0.0063232500000000155 0.007676874999999992 0.015064562499999993 0.029065004677854486
          0.007834189554239828 0.008101359081707053 0.008942028736168227 0.031228890946845597 0.02197216855601551 0.012715446165185424
          0.04921889614801092 0.02068656981052926 0.025595312500000002 0.04068555515889147 0.05401075396578234 0.0179356263976239
          0.03053749115902576 0.008829272204269795 0.040388412507522266 0.008886936698632449 0.008914420376447303 0.008884491487532528
          0.008941904054262158 0.008816147832665872 0.008860791242881437 0.008856645090248434 0.0089928563248554 0.009207089471115853
          0.009207994289564675 0.00897803264747442 0.009335710582515557 0.008829985898114399 0.008872178830228493 0.008920541258498471
          0.00902185823287839 0.008943305899189485 0.009014688717653069 0.0091245883573415 0.008996650270929153 0.008676715870450718
          0.008494321923167838 0.00822408703748724 0.007917693293754491 0.007453008295139398 0.006928157581767328 0.03046141400694062
          0.02709894017462103 0.016294222955589792 0.023704469734147655 0.023736466342301442 0.024040450247436146 0.030473445657624405
          0.03567847998639739 0.024860817740381395 0.046680809504189284 0.04259507391633292 0.031706830020806855 0.05087096012466277
          0.031486616774331365 0.01963328919281233 0.02384330792341496 0.04224881249999998 0.03145268439936613 0.031079450479207144
          0.02571063424046415 0.009519439489182692 0.009146961261468002 0.03355444132711961 0.02574237979023475 0.008833482772012144
          0.013797614668642884 0.02225162663270821 0.009147237076941895 0.008918910842586458 0.020076800308214918 0.025403752070051265
          0.009388888434233807 0.00868050000000001 0.017343218750000024 0.008235312499999993 0.0096796875 0.04332631068063629
          0.030193913380238618 0.008450000000000013 0.008612937500000015 0.0081621875 0.03589692142015902 0.007783812499999989
          0.008033312499999994 0.0073711875 0.007654343749999994 0.014777273210079529 0.010455312500000018 0.007443999999999989
          0.007714124999999994 0.007266374999999994 0.008407000000000005 0.03510050805926513 0.03629150946998017 0.00955433225725772
          0.023319254679483106 0.03664657479141067 0.038885344008232986 0.0102751817425033 0.03202082774963693 0.026686827441716545
          0.04276992157911481 0.04040052988343304 0.042275289930565126 0.03809137136127256 0.07572082986113024 0.0400004929490572
          0.02676586975543241 0.04356576847952138 0.027482949878458868 0.028719282487298266 0.02344811003853968 0.03934481249999998
          0.026221530340318155 0.026835616749209618 0.031725853370859106 0.03199545076737779 0.02486019908149046 0.012924031532559511
          0.016041705687171663 0.018031945393839354 0.015884829217353683 0.031186485317783025 0.024177823472663916 0.015404880258500906
          0.018314229877345836 0.026261385815429524 0.021961742437595792 0.00861545321807014 0.00842739607550858 0.0313358310951518
          0.02513483916250122 0.012318203629221723 0.013184350435276335 0.008540524208906792 0.008029757478477091 0.0077453204493201705
          0.014416508576926716 0.01961746594193685 0.00937371902670657 0.007042187499999981 0.007345968749999988 0.006824187499999982