<?xml version="1.0"?>
<VTKFile type="UnstructuredGrid" version="0.1" byte_order="LittleEndian" header_type="UInt32" compressor="vtkZLibDataCompressor">
  <UnstructuredGrid>
    <Piece NumberOfPoints="370" NumberOfCells="207">
      <PointData>
        <DataArray type="Int32" Name="libmesh_node_id" format="ascii" RangeMin="245" RangeMax="3319">
          362 370 614 663 665 668
          673 919 921 1396 1397 1398
          1399 1400 1401 1402 1406 1407
          1408 1410 1411 1412 1413 1414
          1415 1416 1420 1421 1422 1444
          1445 1446 1447 1450 1451 1452
          1454 1455 1456 1457 1460 1461
          1462 1600 1601 1602 1658 1659
          1660 1661 1662 1663 1664 1668
          1669 1670 1671 1672 1673 1674
          1675 1676 1677 2798 2799 2800
          2803 2806 2808 2809 2810 2811
          2812 2813 2814 2815 2816 2817
          2818 2819 2820 2821 2844 2845
          2847 2850 2852 2853 2854 2855
          2856 2857 2858 2859 2860 2861
          2876 2877 2878 2879 2880 2881
          2882 2883 2884 2885 2886 2887
          2888 2889 2892 2893 2896 2898
          2900 2901 2902 2903 2904 2905
          2906 2907 2908 2909 2910 2911
          2912 2913 2914 2915 2916 2917
          2918 2919 2920 2921 2922 2923
          2925 2929 2931 2932 2933 2934
          2938 2939 3010 3011 3013 3016
          3018 3019 3020 3021 3022 3023
          3024 3025 3026 3027 3033 3039
          3040 3044 3045 3047 3050 3052
          3053 3054 3055 3056 3057 3058
          3059 3060 3061 3063 3067 3069
          3070 3073 3074 3076 3077 3078
          3079 3080 3081 3082 3083 3084
          3085 3086 3087 3088 3089 3090
          3091 3092 3093 3094 3095 3097
          3100 3101 3103 3104 3107 3108
          3110 3111 3112 3113 3114 3115
          3116 3117 3118 3119 3120 3121
          3122 3123 3124 3125 3126 3127
          3128 3129 3130 3131 3134 3135
          3137 3138 3141 3142 3245 3246
          3247 3248 3249 3250 3251 3252
          3253 3254 245 920 613 922
          615 360 923 924 925 931
          932 677 678 667 1417 1419
          1418 1478 1479 1480 1481 1485
          1486 1489 1491 669 1665 1666
          1605 1667 664 1403 2832 2824
          2833 2825 2834 2835 2839 2830
          2840 2869 2863 2870 2873 2867
          2874 2890 2891 2894 2895 2897
          2899 2924 2927 2926 2928 1423
          2930 2935 2936 2937 2940 3035
          3029 3036 3037 3031 3041 1448
          3038 1449 3071 3065 3072 3075
          1453 674 3096 3099 3098 3102
          1458 3105 3106 3109 1459 3132
          3133 3136 1463 3139 3140 3143
          675 3255 3256 1488 3257 3258
          3259 3260 3263 3265 3266 3268
          3283 3284 3287 3288 3290 3292
          3293 3294 3297 3299 3300 3302
          3313 3315 3317 3319
        </DataArray>
        <DataArray type="Float64" Name="bounds" format="ascii" RangeMin="0" RangeMax="0">
          0 0 0 0 0 0
          0 0 0 0 0 0
          0 0 0 0 0 0
          0 0 0 0 0 0
          0 0 0 0 0 0
          0 0 0 0 0 0
          0 0 0 0 0 0
          0 0 0 0 0 0
          0 0 0 0 0 0
          0 0 0 0 0 0
          0 0 0 0 0 0
          0 0 0 0 0 0
          0 0 0 0 0 0
          0 0 0 0 0 0
          0 0 0 0 0 0
          0 0 0 0 0 0
          0 0 0 0 0 0
          0 0 0 0 0 0
          0 0 0 0 0 0
          0 0 0 0 0 0
          0 0 0 0 0 0
          0 0 0 0 0 0
          0 0 0 0 0 0
          0 0 0 0 0 0
          0 0 0 0 0 0
          0 0 0 0 0 0
          0 0 0 0 0 0
          0 0 0 0 0 0
          0 0 0 0 0 0
          0 0 0 0 0 0
          0 0 0 0 0 0
          0 0 0 0 0 0
          0 0 0 0 0 0
          0 0 0 0 0 0
          0 0 0 0 0 0
          0 0 0 0 0 0
          0 0 0 0 0 0
          0 0 0 0 0 0
          0 0 0 0 0 0
          0 0 0 0 0 0
          0 0 0 0 0 0
          0 0 0 0 0 0
          0 0 0 0 0 0
          0 0 0 0 0 0
          0 0 0 0 0 0
          0 0 0 0 0 0
          0 0 0 0 0 0
          0 0 0 0 0 0
          0 0 0 0 0 0
          0 0 0 0 0 0
          0 0 0 0 0 0
          0 0 0 0 0 0
          0 0 0 0 0 0
          0 0 0 0 0 0
          0 0 0 0 0 0
          0 0 0 0 0 0
          0 0 0 0 0 0
          0 0 0 0 0 0
          0 0 0 0 0 0
          0 0 0 0 0 0
          0 0 0 0 0 0
          0 0 0 0
        </DataArray>
        <DataArray type="Float64" Name="gradient_error" format="ascii" RangeMin="3.0042518156469296e-12" RangeMax="1.1020774984943145e-8">
          2.2295012370168972e-11 1.4334388600525433e-10 2.2793821157821478e-10 5.28618470985138e-11 9.214451660521371e-10 3.7394674961951466e-11
          3.54877305850486e-9 8.03088175136725e-11 5.0688031322547114e-11 1.6213282698183206e-10 1.4019439141154328e-10 5.447317918692354e-10
          4.203756778338299e-10 4.523436068415951e-11 1.551102437996562e-10 1.203824059732303e-10 3.2946318674618894e-9 2.441260673944971e-9
          6.793826394338775e-10 2.6780901123194374e-11 2.3163064414757883e-11 4.6775425456685907e-11 3.7411663306960774e-11 2.108949638203384e-11
          2.16610576605707e-11 2.1982145571014653e-11 2.0454115684874474e-10 1.5225461752426256e-10 3.131592098554554e-11 8.864892296310964e-9
          6.988128924933395e-9 2.657784429140207e-9 2.008005636849819e-9 1.1020774984943145e-8 9.480856006633882e-9 2.814762186861026e-9
          5.915799309866926e-10 4.404397645878363e-10 1.036078716885378e-10 7.759296516689343e-11 8.143427478943778e-10 6.218998742098396e-10
          1.0842879644124338e-10 1.0831440260508707e-10 3.716879422460262e-10 3.328966769731163e-10 5.107022618507392e-11 4.854267045920092e-11
          1.416089557769328e-10 1.263524100310546e-10 2.0503592956153414e-11 4.943926587663002e-11 4.387305015390719e-11 8.6897132774729e-12
          8.737001264712938e-12 1.5220735457919905e-11 1.420485296287095e-11 5.8024390311227565e-12 6.264647873543732e-12 7.013955678130519e-12
          8.784289251952979e-12 1.3188970467821993e-11 7.763263482717306e-12 8.75574925261156e-11 1.868531735148178e-10 1.7663524480153118e-10
          1.4993438547752272e-10 5.10362622854768e-10 5.12099326604834e-11 4.867817872839539e-11 1.0302560421291858e-10 9.74402893214677e-11
          2.6574097779854067e-11 5.465078952040157e-11 5.175419008804352e-11 4.2473658873831714e-11 8.286238030209995e-11 4.4087706479951996e-11
          2.973858451832272e-10 2.7876337550127235e-10 1.455467871745654e-10 2.2998299808712875e-10 1.4478079389653225e-9 1.3468941564530268e-9
          1.084167717108345e-9 3.061067862098093e-9 7.859663428462832e-10 7.311471762699359e-10 4.0480553190419667e-10 3.7681485259582435e-10
          5.888152306171633e-10 3.041996106973683e-10 1.7974351864284198e-9 1.6674384347946978e-9 8.543982501396508e-10 1.325873191818368e-9
          1.52498370177227e-11 1.4545109765910587e-11 2.7673721070525386e-11 2.625478630057589e-11 1.0660082532716991e-11 1.8215849919806486e-11
          1.7329682951720613e-11 1.2655967535690065e-11 2.244502929674601e-11 1.4807413224468375e-11 7.739023669080811e-11 7.272185805436851e-11
          4.2235686185132927e-11 6.040973204161825e-11 7.610115500698088e-12 1.1756564108685991e-11 1.0341817752069983e-11 2.6153850771606688e-11
          1.98707356339615e-10 1.8520260807297889e-10 9.287001041133094e-11 8.671562723826973e-11 1.5013318362720863e-10 7.066974408623172e-11
          4.4584135391891265e-10 4.1360193613313206e-10 1.9001466133269392e-10 3.2975201452957774e-10 2.4185289581089696e-11 2.2847387041361914e-11
          4.1144516790808204e-11 3.8492862315068874e-11 1.002243709225135e-11 1.758380051132911e-11 1.634392560149643e-11 1.9169443422090287e-11
          3.152366663298193e-11 1.5557452434353895e-11 8.93683407216521e-11 8.324719827551266e-11 3.4694280265936946e-11 6.718338776400471e-11
          5.065434019637857e-11 1.0570351815579952e-10 1.4363634775378889e-11 2.2869696597167727e-11 9.134058937902499e-12 1.3954335030796171e-11
          4.722898460253352e-11 2.4007744553013546e-11 6.067861130224218e-9 5.676301018573794e-9 4.573060962216588e-9 8.424884958287297e-9
          3.3699351008894244e-9 3.1395093192213396e-9 1.7405878315930288e-9 1.6174182480927178e-9 2.5066037951394333e-9 1.285251388470399e-9
          5.058086329570428e-9 4.768450464059491e-9 2.491197448219676e-9 3.887917275754479e-9 4.811382574857422e-9 2.6357830247508465e-9
          1.3507788653194125e-9 1.055818018970674e-8 1.024613173007915e-8 8.82114353183677e-9 1.0811735920808572e-8 6.200368094891017e-9
          5.936856674425962e-9 3.3226384190143986e-9 3.1510751562717193e-9 4.977712352078932e-9 2.5932261770480497e-9 6.561565630654655e-9
          6.331924191038093e-9 3.385265825248972e-9 5.381966926081472e-9 6.212923074524436e-9 6.751275850721522e-9 3.4279671894202095e-9
          1.7618548145265465e-9 3.736066557544299e-9 1.9230094969235406e-9 8.41525974851218e-10 7.810517426067939e-10 3.831718168031588e-10
          3.5566468998455436e-10 6.200136454465284e-10 2.829785845460624e-10 1.2964827710114237e-9 1.2106196868033621e-9 5.51235814061714e-10
          9.69478233060886e-10 1.6523561200855684e-10 1.5362403017888507e-10 6.788687261698994e-11 6.32303980643641e-11 1.229460244651942e-10
          5.089480233144205e-11 2.5427051791372624e-10 2.367550461602409e-10 9.653690333410929e-11 1.8940387623324105e-10 1.9236648615259655e-10
          6.513902276216142e-10 2.9720735691095147e-10 8.458494835590059e-11 3.5469270611522226e-11 1.2893969315751597e-10 5.350908615642441e-11
          1.6417400158276241e-9 1.5464123994404423e-9 7.545866074040406e-10 7.075794021061315e-10 1.2571260019900112e-9 5.71266213491739e-10
          1.7646155759179532e-9 1.6694110010939464e-9 7.66064600276758e-10 1.367499793921135e-9 3.2523941363823405e-10 3.0418685672096815e-10
          1.3242593080857033e-10 1.2373088701551349e-10 2.450020734980906e-10 9.980010219140274e-11 3.517760780233519e-10 3.297556225169753e-10
          1.3412561707040421e-10 2.6659955777595147e-10 8.491526433574087e-10 3.861411900752512e-10 9.270274824856037e-10 4.212230129158775e-10
          1.6662290006709958e-10 6.862434613622066e-11 1.8145409974485792e-10 7.454474991496155e-11 4.489199843885197e-12 4.514709951522652e-12
          7.285749414915185e-12 6.891161076853221e-12 3.0042518156469296e-12 4.2023561168033765e-12 4.3191224747548824e-12 4.540220059160107e-12
          6.496572738791258e-12 4.435888832706388e-12 4.28680084149316e-10 7.139210038771568e-11 3.248392830196262e-10 5.207241321789824e-11
          2.09551483267758e-10 3.638763991046842e-11 1.5155230132039948e-11 1.3298847067821405e-11 2.053844381354736e-11 6.1458537201292134e-12
          6.5602339088383906e-12 7.661057130451466e-12 7.342355190408907e-12 2.2053428327259445e-11 2.8891264205387495e-11 1.661935680191992e-11
          2.8418047297745992e-11 8.190802904419483e-12 7.087676691395856e-12 7.034320371314152e-12 1.03469601144756e-11 4.914749111551471e-12
          1.019439278560271e-11 1.186542320614565e-11 1.1789482309692832e-11 1.77411332371091e-11 4.1099377815735665e-11 8.940767118358176e-11
          2.400255319750158e-10 3.6513878782708896e-11 7.375855738606091e-11 1.2081737668759253e-10 3.6509872277844865e-11 6.296754633696516e-11
          6.345120323027817e-11 1.1432434613035012e-10 2.0234004331007917e-11 3.417157624748519e-11 1.6717229659534289e-10 3.063274854931689e-10
          8.781792027670656e-11 4.1327467964295067e-10 7.597592001096753e-10 2.1438851237047552e-10 9.020521339288355e-10 1.6627753862931417e-9
          4.6370283715244583e-10 1.0695075968570609e-11 1.7422101100185612e-11 9.918599379859563e-12 1.478999513750559e-11 4.433757430956095e-11
          3.4462597689396585e-11 1.0655240472892319e-10 3.240655562629251e-11 6.72193740367532e-11 2.2663572966534238e-10 6.468357228986458e-11
          1.367367741893266e-10 9.626757734948315e-12 1.486019427511418e-11 9.153161902717017e-12 2.9370873612448355e-11 1.6866025978926587e-9
          3.1006005244085146e-9 8.635064702313319e-10 9.659074346213093e-10 1.779124656055093e-9 1.4879206886730471e-9 2.7375327340679855e-9
          4.969918190467248e-10 7.631722859385799e-10 1.9303227133333942e-9 3.543807877214074e-9 9.89296519802064e-10 2.105033528082626e-9
          3.8605353431349855e-9 1.0788087105772326e-9 4.180976616370871e-10 1.1353705679490034e-10 2.431664537635295e-10 3.7089178445749e-10
          1.71482167183804e-10 5.081792682065686e-11 2.1703459763007033e-11 7.572946015105769e-11 3.207003185139366e-11 4.792459109649036e-10
          2.204412353454952e-10 5.221431591502202e-10 2.3979435453559756e-10 9.673027727028479e-11 4.064909727290902e-11 1.0498937147015125e-10
          4.399929453723232e-11 1.5092494610774718e-11 1.3964571117799216e-11 7.457559109536296e-12 6.635419795612032e-12 1.2789764433024414e-11
          2.6756093715549732e-11 2.4950077196937585e-11 2.015316819522129e-11 4.0239495432333425e-11 3.761664687545506e-11 3.0493477380022664e-11
          1.0606134231362906e-11 1.4210826036165826e-11 6.720020949052568e-12 8.869119195567917e-12 2.1385451919798925e-11 1.3112810516358898e-11
          5.1287805797893505e-11 4.794981436611109e-11 3.8852622890256154e-11 5.550611792661536e-11 5.190495934177258e-11 4.206644347058415e-11
          2.717572234205167e-11 1.6499818300906722e-11 2.9396058685474236e-11 1.7792233011178914e-11
        </DataArray>
        <DataArray type="Float64" Name="gradient_matprop_error" format="ascii" RangeMin="0" RangeMax="0">
          0 0 0 0 0 0
          0 0 0 0 0 0
          0 0 0 0 0 0
          0 0 0 0 0 0
          0 0 0 0 0 0
          0 0 0 0 0 0
          0 0 0 0 0 0
          0 0 0 0 0 0
          0 0 0 0 0 0
          0 0 0 0 0 0
          0 0 0 0 0 0
          0 0 0 0 0 0
          0 0 0 0 0 0
          0 0 0 0 0 0
          0 0 0 0 0 0
          0 0 0 0 0 0
          0 0 0 0 0 0
          0 0 0 0 0 0
          0 0 0 0 0 0
          0 0 0 0 0 0
          0 0 0 0 0 0
          0 0 0 0 0 0
          0 0 0 0 0 0
          0 0 0 0 0 0
          0 0 0 0 0 0
          0 0 0 0 0 0
          0 0 0 0 0 0
          0 0 0 0 0 0
          0 0 0 0 0 0
          0 0 0 0 0 0
          0 0 0 0 0 0
          0 0 0 0 0 0
          0 0 0 0 0 0
          0 0 0 0 0 0
          0 0 0 0 0 0
          0 0 0 0 0 0
          0 0 0 0 0 0
          0 0 0 0 0 0
          0 0 0 0 0 0
          0 0 0 0 0 0
          0 0 0 0 0 0
          0 0 0 0 0 0
          0 0 0 0 0 0
          0 0 0 0 0 0
          0 0 0 0 0 0
          0 0 0 0 0 0
          0 0 0 0 0 0
          0 0 0 0 0 0
          0 0 0 0 0 0
          0 0 0 0 0 0
          0 0 0 0 0 0
          0 0 0 0 0 0
          0 0 0 0 0 0
          0 0 0 0 0 0
          0 0 0 0 0 0
          0 0 0 0 0 0
          0 0 0 0 0 0
          0 0 0 0 0 0
          0 0 0 0 0 0
          0 0 0 0 0 0
          0 0 0 0 0 0
          0 0 0 0
        </DataArray>
        <DataArray type="Float64" Name="initial_marker" format="ascii" RangeMin="0" RangeMax="2">
          0 2 0 0 2 2
          2 0 0 0.5 0.25 2
          2 0 2 2 2 2
          2 0 0 1 1 0
          0 0 2 2 1.75 2
          2 2 2 2 2 2
          2 2 2 2 2 2
          2 0 0 0 0 0
          0 0 0 0 0 0
          0 0 0 0 0 0
          0 0 0 1 1.5 1.5
          1.25 2 0 0 1 1
          0 1 1 0 1 1
          2 2 2 2 2 2
          2 2 2 2 2 2
          2 2 2 2 2 2
          0 0 0.5 0.5 0 0
          0 0 0.5 0 1.5 1.5
          1.3333333333333333 1.5 0 0 0 1
          2 2 2 2 2 2
          2 2 2 2 1 1
          1.5 1.5 0 1 1 1
          1.5 1 2 2 2 2
          1.75 2 0.5 1.25 0 1
          2 2 2 2 2 2
          2 2 2 2 2 2
          2 2 2 2 2 2
          2 2 2 2 2 2
          2 2 2 2 2 2
          2 2 2 2 2 2
          2 2 2 2 2 2
          2 2 2 2 2 2
          2 2 2 2 2 2
          2 2 2 2 2 2
          2 2 2 2 2 2
          2 2 2 2 2 2
          2 2 2 2 2 2
          2 2 2 2 2 2
          2 2 2 2 2 2
          2 2 2 2 0 0
          0.5 0.5 0 0 0 0
          0.5 0 0 0 0 0
          0 0 0 0 0 0
          0 0 0 0 0 0
          0.25 0 0 0 0 0
          0 0.25 0 1 0 0
          0 0 0 0 0 0
          1 1 0 0.75 2 2
          1.75 2 2 2 2 2
          2 0 0.25 0 0 1.25
          1 2 1.25 1.75 2 2
          2 0 0.75 0.5 1.75 2
          2 2 2 2 2 2
          2 2 2 2 2 2
          2 2 2 2 2 2
          2 2 1.75 2 2 2
          2 2 2 2 2 2
          2 1.5 1.5 0.5 0.6666666666666666 1.3333333333333333
          2 2 1.75 2 2 2
          1 1.25 0.5 0.75 1.75 1.25
          2 2 2 2 2 2
          2 1.5 2 1.5
        </DataArray>
        <DataArray type="Float64" Name="markers_norefine" format="ascii" RangeMin="0" RangeMax="0">
          0 0 0 0 0 0
          0 0 0 0 0 0
          0 0 0 0 0 0
          0 0 0 0 0 0
          0 0 0 0 0 0
          0 0 0 0 0 0
          0 0 0 0 0 0
          0 0 0 0 0 0
          0 0 0 0 0 0
          0 0 0 0 0 0
          0 0 0 0 0 0
          0 0 0 0 0 0
          0 0 0 0 0 0
          0 0 0 0 0 0
          0 0 0 0 0 0
          0 0 0 0 0 0
          0 0 0 0 0 0
          0 0 0 0 0 0
          0 0 0 0 0 0
          0 0 0 0 0 0
          0 0 0 0 0 0
          0 0 0 0 0 0
          0 0 0 0 0 0
          0 0 0 0 0 0
          0 0 0 0 0 0
          0 0 0 0 0 0
          0 0 0 0 0 0
          0 0 0 0 0 0
          0 0 0 0 0 0
          0 0 0 0 0 0
          0 0 0 0 0 0
          0 0 0 0 0 0
          0 0 0 0 0 0
          0 0 0 0 0 0
          0 0 0 0 0 0
          0 0 0 0 0 0
          0 0 0 0 0 0
          0 0 0 0 0 0
          0 0 0 0 0 0
          0 0 0 0 0 0
          0 0 0 0 0 0
          0 0 0 0 0 0
          0 0 0 0 0 0
          0 0 0 0 0 0
          0 0 0 0 0 0
          0 0 0 0 0 0
          0 0 0 0 0 0
          0 0 0 0 0 0
          0 0 0 0 0 0
          0 0 0 0 0 0
          0 0 0 0 0 0
          0 0 0 0 0 0
          0 0 0 0 0 0
          0 0 0 0 0 0
          0 0 0 0 0 0
          0 0 0 0 0 0
          0 0 0 0 0 0
          0 0 0 0 0 0
          0 0 0 0 0 0
          0 0 0 0 0 0
          0 0 0 0 0 0
          0 0 0 0
        </DataArray>
        <DataArray type="Float64" Name="markers_mustrefine" format="ascii" RangeMin="0" RangeMax="2">
          0 2 0 0 2 2
          2 0 0 0.5 0.25 2
          2 0 2 2 2 2
          2 0 0 1 1 0
          0 0 2 2 1.75 2
          2 2 2 2 2 2
          2 2 2 2 2 2
          2 0 0 0 0 0
          0 0 0 0 0 0
          0 0 0 0 0 0
          0 0 0 1 1.5 1.5
          1.25 2 0 0 1 1
          0 1 1 0 1 1
          2 2 2 2 2 2
          2 2 2 2 2 2
          2 2 2 2 2 2
          0 0 0.5 0.5 0 0
          0 0 0.5 0 1.5 1.5
          1.3333333333333333 1.5 0 0 0 1
          2 2 2 2 2 2
          2 2 2 2 1 1
          1.5 1.5 0 1 1 1
          1.5 1 2 2 2 2
          1.75 2 0.5 1.25 0 1
          2 2 2 2 2 2
          2 2 2 2 2 2
          2 2 2 2 2 2
          2 2 2 2 2 2
          2 2 2 2 2 2
          2 2 2 2 2 2
          2 2 2 2 2 2
          2 2 2 2 2 2
          2 2 2 2 2 2
          2 2 2 2 2 2
          2 2 2 2 2 2
          2 2 2 2 2 2
          2 2 2 2 2 2
          2 2 2 2 2 2
          2 2 2 2 2 2
          2 2 2 2 0 0
          0.5 0.5 0 0 0 0
          0.5 0 0 0 0 0
          0 0 0 0 0 0
          0 0 0 0 0 0
          0.25 0 0 0 0 0
          0 0.25 0 1 0 0
          0 0 0 0 0 0
          1 1 0 0.75 2 2
          1.75 2 2 2 2 2
          2 0 0.25 0 0 1.25
          1 2 1.25 1.75 2 2
          2 0 0.75 0.5 1.75 2
          2 2 2 2 2 2
          2 2 2 2 2 2
          2 2 2 2 2 2
          2 2 1.75 2 2 2
          2 2 2 2 2 2
          2 1.5 1.5 0.5 0.6666666666666666 1.3333333333333333
          2 2 1.75 2 2 2
          1 1.25 0.5 0.75 1.75 1.25
          2 2 2 2 2 2
          2 1.5 2 1.5
        </DataArray>
        <DataArray type="Float64" Name="gradient_marker" format="ascii" RangeMin="1" RangeMax="1">
          1 1 1 1 1 1
          1 1 1 1 1 1
          1 1 1 1 1 1
          1 1 1 1 1 1
          1 1 1 1 1 1
          1 1 1 1 1 1
          1 1 1 1 1 1
          1 1 1 1 1 1
          1 1 1 1 1 1
          1 1 1 1 1 1
          1 1 1 1 1 1
          1 1 1 1 1 1
          1 1 1 1 1 1
          1 1 1 1 1 1
          1 1 1 1 1 1
          1 1 1 1 1 1
          1 1 1 1 1 1
          1 1 1 1 1 1
          1 1 1 1 1 1
          1 1 1 1 1 1
          1 1 1 1 1 1
          1 1 1 1 1 1
          1 1 1 1 1 1
          1 1 1 1 1 1
          1 1 1 1 1 1
          1 1 1 1 1 1
          1 1 1 1 1 1
          1 1 1 1 1 1
          1 1 1 1 1 1
          1 1 1 1 1 1
          1 1 1 1 1 1
          1 1 1 1 1 1
          1 1 1 1 1 1
          1 1 1 1 1 1
          1 1 1 1 1 1
          1 1 1 1 1 1
          1 1 1 1 1 1
          1 1 1 1 1 1
          1 1 1 1 1 1
          1 1 1 1 1 1
          1 1 1 1 1 1
          1 1 1 1 1 1
          1 1 1 1 1 1
          1 1 1 1 1 1
          1 1 1 1 1 1
          1 1 1 1 1 1
          1 1 1 1 1 1
          1 1 1 1 1 1
          1 1 1 1 1 1
          1 1 1 1 1 1
          1 1 1 1 1 1
          1 1 1 1 1 1
          1 1 1 1 1 1
          1 1 1 1 1 1
          1 1 1 1 1 1
          1 1 1 1 1 1
          1 1 1 1 1 1
          1 1 1 1 1 1
          1 1 1 1 1 1
          1 1 1 1 1 1
          1 1 1 1 1 1
          1 1 1 1
        </DataArray>
        <DataArray type="Float64" Name="gradient_matprop_marker" format="ascii" RangeMin="0" RangeMax="0">
          0 0 0 0 0 0
          0 0 0 0 0 0
          0 0 0 0 0 0
          0 0 0 0 0 0
          0 0 0 0 0 0
          0 0 0 0 0 0
          0 0 0 0 0 0
          0 0 0 0 0 0
          0 0 0 0 0 0
          0 0 0 0 0 0
          0 0 0 0 0 0
          0 0 0 0 0 0
          0 0 0 0 0 0
          0 0 0 0 0 0
          0 0 0 0 0 0
          0 0 0 0 0 0
          0 0 0 0 0 0
          0 0 0 0 0 0
          0 0 0 0 0 0
          0 0 0 0 0 0
          0 0 0 0 0 0
          0 0 0 0 0 0
          0 0 0 0 0 0
          0 0 0 0 0 0
          0 0 0 0 0 0
          0 0 0 0 0 0
          0 0 0 0 0 0
          0 0 0 0 0 0
          0 0 0 0 0 0
          0 0 0 0 0 0
          0 0 0 0 0 0
          0 0 0 0 0 0
          0 0 0 0 0 0
          0 0 0 0 0 0
          0 0 0 0 0 0
          0 0 0 0 0 0
          0 0 0 0 0 0
          0 0 0 0 0 0
          0 0 0 0 0 0
          0 0 0 0 0 0
          0 0 0 0 0 0
          0 0 0 0 0 0
          0 0 0 0 0 0
          0 0 0 0 0 0
          0 0 0 0 0 0
          0 0 0 0 0 0
          0 0 0 0 0 0
          0 0 0 0 0 0
          0 0 0 0 0 0
          0 0 0 0 0 0
          0 0 0 0 0 0
          0 0 0 0 0 0
          0 0 0 0 0 0
          0 0 0 0 0 0
          0 0 0 0 0 0
          0 0 0 0 0 0
          0 0 0 0 0 0
          0 0 0 0 0 0
          0 0 0 0 0 0
          0 0 0 0 0 0
          0 0 0 0 0 0
          0 0 0 0
        </DataArray>
        <DataArray type="Float64" Name="combo" format="ascii" RangeMin="1" RangeMax="1">
          1 1 1 1 1 1
          1 1 1 1 1 1
          1 1 1 1 1 1
          1 1 1 1 1 1
          1 1 1 1 1 1
          1 1 1 1 1 1
          1 1 1 1 1 1
          1 1 1 1 1 1
          1 1 1 1 1 1
          1 1 1 1 1 1
          1 1 1 1 1 1
          1 1 1 1 1 1
          1 1 1 1 1 1
          1 1 1 1 1 1
          1 1 1 1 1 1
          1 1 1 1 1 1
          1 1 1 1 1 1
          1 1 1 1 1 1
          1 1 1 1 1 1
          1 1 1 1 1 1
          1 1 1 1 1 1
          1 1 1 1 1 1
          1 1 1 1 1 1
          1 1 1 1 1 1
          1 1 1 1 1 1
          1 1 1 1 1 1
          1 1 1 1 1 1
          1 1 1 1 1 1
          1 1 1 1 1 1
          1 1 1 1 1 1
          1 1 1 1 1 1
          1 1 1 1 1 1
          1 1 1 1 1 1
          1 1 1 1 1 1
          1 1 1 1 1 1
          1 1 1 1 1 1
          1 1 1 1 1 1
          1 1 1 1 1 1
          1 1 1 1 1 1
          1 1 1 1 1 1
          1 1 1 1 1 1
          1 1 1 1 1 1
          1 1 1 1 1 1
          1 1 1 1 1 1
          1 1 1 1 1 1
          1 1 1 1 1 1
          1 1 1 1 1 1
          1 1 1 1 1 1
          1 1 1 1 1 1
          1 1 1 1 1 1
          1 1 1 1 1 1
          1 1 1 1 1 1
          1 1 1 1 1 1
          1 1 1 1 1 1
          1 1 1 1 1 1
          1 1 1 1 1 1
          1 1 1 1 1 1
          1 1 1 1 1 1
          1 1 1 1 1 1
          1 1 1 1 1 1
          1 1 1 1 1 1
          1 1 1 1
        </DataArray>
        <DataArray type="Float64" Name="dHdT" format="ascii" RangeMin="25.81146864074226" RangeMax="29.34875847725263">
          25.812049353834155 25.841995268067976 25.814628250444 25.8154996271461 25.97907440954035 25.818079180386274
          26.72373480164575 25.81173027874783 25.81205086795641 25.82415265071929 25.822224018388653 25.905541685281392
          25.883297987622015 25.814948732392956 25.837817881012704 25.831856161696614 26.431400627018917 26.246224270977315
          25.929410209198693 25.812746864950554 25.812615141268395 25.817536090247078 25.816267070028616 25.81214200111705
          25.81294851122667 25.812705170405184 25.84772751014949 25.83753483483899 25.816259116989595 28.032735837123774
          27.27303221650847 26.40187260065361 26.205888932643543 29.34875847725263 28.06701470835963 26.411839890458623
          25.93405249726237 25.894428075447518 25.83184249472863 25.82572263573858 26.000310383575055 25.93671131259425
          25.83240401125402 25.815990515430975 25.823427946347355 25.822241652452128 25.81358214818747 25.813465817684197
          25.81617555030748 25.815682401443908 25.812329143230812 25.81318282769358 25.81302820104479 25.81183234125369
          25.811827419586105 25.812047921692695 25.81203170532744 25.811683919179607 25.811758803609184 25.811771706690426
          25.81182249791852 25.812015488962185 25.811784609771667 25.828735637599102 25.844967569646336 25.843165911182922
          25.838424410896273 25.899282639555366 25.82159660654557 25.82116699455596 25.829916596682637 25.828951088453884
          25.816778118670133 25.821291915466166 25.820793468562872 25.819978803149628 25.826405306855598 25.819495272113702
          25.86231231784238 25.85899249441968 25.83614179335412 25.850504718999026 26.06759151631533 26.04766058727592
          25.99782546491568 26.377973744893445 25.948630981770457 25.937991856358483 25.881155622693118 25.875891988482266
          25.911490818250094 25.862710905149193 26.144144839451407 26.115285102210677 25.964718945168123 26.04452364292948
          25.814441641370834 25.814317551837053 25.81654510205802 25.816291520340986 25.813479031565016 25.814902821065886
          25.814729927084446 25.814018853786596 25.815658106217363 25.814317686968835 25.824565079484355 25.823756205570184
          25.818622590639574 25.821697799297873 25.81312169430892 25.81389123567829 25.813704130521927 25.816043664669465
          25.845305315520356 25.84282495221681 25.82724409863431 25.826127711954154 25.83659316823175 25.823315311271923
          25.891314587048488 25.884636712559992 25.844794802774683 25.86818601307642 25.815758532451298 25.815502938985993
          25.81862149427748 25.818135102964778 25.81340458526188 25.814640685968552 25.814455365515585 25.814858484834524
          25.81690767831559 25.814319292584162 25.82724386609234 25.826008917090277 25.817592959364266 25.822939933311957
          25.819960686089317 25.82919219971713 25.814047070293256 25.81542771502741 25.81319160458022 25.813967871168654
          25.81939251867176 25.81555903688624 27.093910416008605 26.97328027101809 26.681825642978033 27.80691030910483
          26.49759276395373 26.433795134592977 26.157473907655564 26.125371197022368 26.278754847419897 26.047364125116786
          26.984039842449498 26.868825920975397 26.3444148899709 26.592349889476754 26.708125990304858 26.293466013120995
          26.05533626821739 28.95235606058568 28.615963128870582 27.831260836284475 28.963070771988647 27.4420272948994
          27.27650844837772 26.629213374249698 26.54759417362682 26.88185529506559 26.35159004935206 27.63374466858032
          27.44711902579867 26.631972279732235 27.002277229222212 27.022574098407084 27.152090146321193 26.461406219863036
          26.14041964925209 26.53023365434794 26.175272675549042 25.974786827523165 25.959822942112115 25.884161672767306
          25.877692031933538 25.923457247307283 25.861926302885664 26.089679312438935 26.062831486182674 25.922436323180936
          25.997952192212992 25.842306961927807 25.839661878321223 25.824003275856654 25.82297457527874 25.833182011498938
          25.820440837185107 25.8626191408647 25.85794841630951 25.83006480790949 25.846620498176627 25.84436540364935
          25.927507188442483 25.863903178883948 25.825887786637324 25.817556409824725 25.834123128887597 25.820862738948883
          26.196886895559558 26.158638857493376 25.98078510054119 25.96416157697656 26.06663500986646 25.924327736296615
          26.241488682007805 26.19839018386383 25.981556915159835 26.094996200284534 25.881466822757737 25.874829806955685
          25.83902564814326 25.836526575443717 25.85883638974965 25.830460207587425 25.889306011560677 25.8818359706978
          25.839192912666686 25.86387281131668 25.967557050228294 25.88146681109912 25.98399493553743 25.88865993599305
          25.841423445034426 25.82375463196745 25.844399527986354 25.824930119235773 25.812406452627194 25.812389345795502
          25.812837645633035 25.81279585877648 25.812066703439726 25.81228728931206 25.81228282917454 25.81237223896381
          25.812754071919922 25.812278369037017 25.81217624245141 25.81176539203441 25.8129167090345 25.812002824512774
          25.81418165159377 25.81146864074226 25.811527183914457 25.81156550028217 25.811608876441937 25.811498737480036
          25.81150512207597 25.81154289352164 25.811541619955058 25.81190537289628 25.812656084172023 25.812267648446387
          25.81417232629979 25.811756595053495 25.81173010873963 25.811834368242344 25.811860490386245 25.81168147268859
          25.81181178539306 25.8123210472532 25.812001061773422 25.813626490817214 25.813205295075427 25.814622045737956
          25.81955515970641 25.812884224144952 25.81426831742979 25.81852478697238 25.818529857378856 25.82370509825874
          25.823275691756905 25.832362174266237 25.815471054848203 25.817960560996273 25.840131769053357 25.863651627840262