<?xml version="1.0"?>
<VTKFile type="UnstructuredGrid" version="0.1" byte_order="LittleEndian" header_type="UInt32" compressor="vtkZLibDataCompressor">
  <UnstructuredGrid>
    <Piece NumberOfPoints="383" NumberOfCells="222">
      <PointData>
        <DataArray type="Int32" Name="libmesh_node_id" format="ascii" RangeMin="381" RangeMax="3460">
          381 451 454 457 654 657
          660 674 675 678 680 685
          689 690 693 695 710 711
          714 715 717 719 1217 1230
          1231 1233 1234 1235 1236 1237
          1252 1253 1265 1266 1267 1268
          1269 1270 1271 1286 1287 1288
          1289 1290 1291 1292 1293 1294
          1295 1309 1324 1325 1328 1329
          1330 1331 1332 1333 1339 1343
          1348 1349 1353 1364 1365 1366
          1367 1368 1369 1370 1460 1461
          1462 1463 1464 1465 1466 1467
          1468 1469 1470 1635 1636 1637
          1639 1640 1641 1642 1643 1644
          1645 1646 1647 1649 2146 2152
          2153 2156 2181 2184 2186 2189
          2191 2193 2195 2196 2197 2198
          2199 2200 2201 2205 2208 2210
          2213 2214 2215 2217 2218 2219
          2220 2221 2313 2319 2320 2323
          2353 2354 2357 2371 2373 2375
          2377 2378 2379 2380 2381 2382
          2383 2385 2387 2389 2391 2392
          2393 2394 2395 2396 2397 2401
          2405 2406 2407 2408 2409 2410
          2411 2413 2415 2417 2419 2420
          2421 2422 2423 2424 2425 2435
          2436 2439 2441 2443 2444 2445
          2446 2447 2448 2449 2450 2451
          2452 2454 2456 2458 2460 2461
          2462 2463 2464 2465 2466 2537
          2538 2541 2544 2545 2548 2623
          2632 2634 2636 2637 2638 2639
          2640 2651 2652 2653 2654 2655
          2656 2657 2658 2659 2660 2661
          2662 2663 2664 2665 2666 2667
          2668 2669 2670 2671 2672 2673
          2674 2675 2676 2677 2678 2679
          2680 2681 2682 2683 2684 2709
          2711 2719 2720 2721 2722 2723
          2724 2725 2726 2727 2728 2761
          2762 2765 2768 2769 2772 2795
          2796 2799 2802 2803 2806 2829
          2833 2863 2867 2875 2876 2877
          2878 2879 2880 2881 2882 2883
          2884 2885 2886 2887 2888 2889
          2890 2891 2892 2893 2894 2895
          2896 2897 2898 2899 2900 2901
          2902 2903 2904 2905 2906 2907
          2908 2909 2910 2911 2912 2913
          2914 2915 2916 2917 2918 2919
          2920 2921 2922 2923 2924 2925
          2926 2927 2928 2929 2930 2931
          2933 2935 2937 2945 2947 2949
          2951 2959 2961 2963 2965 2973
          2975 2977 2979 3410 3411 3412
          3413 3414 3415 3416 3417 3418
          3419 3420 3421 3422 3423 3424
          3425 3426 3427 3428 3429 3430
          3431 3432 3433 3434 3435 3436
          3437 3438 3439 3440 3441 3442
          3443 3444 3445 3448 3449 3451
          3453 3454 3456 3458 3460
        </DataArray>
        <DataArray type="Float64" Name="bounds" format="ascii" RangeMin="0" RangeMax="0">
          0 0 0 0 0 0
          0 0 0 0 0 0
          0 0 0 0 0 0
          0 0 0 0 0 0
          0 0 0 0 0 0
          0 0 0 0 0 0
          0 0 0 0 0 0
          0 0 0 0 0 0
          0 0 0 0 0 0
          0 0 0 0 0 0
          0 0 0 0 0 0
          0 0 0 0 0 0
          0 0 0 0 0 0
          0 0 0 0 0 0
          0 0 0 0 0 0
          0 0 0 0 0 0
          0 0 0 0 0 0
          0 0 0 0 0 0
          0 0 0 0 0 0
          0 0 0 0 0 0
          0 0 0 0 0 0
          0 0 0 0 0 0
          0 0 0 0 0 0
          0 0 0 0 0 0
          0 0 0 0 0 0
          0 0 0 0 0 0
          0 0 0 0 0 0
          0 0 0 0 0 0
          0 0 0 0 0 0
          0 0 0 0 0 0
          0 0 0 0 0 0
          0 0 0 0 0 0
          0 0 0 0 0 0
          0 0 0 0 0 0
          0 0 0 0 0 0
          0 0 0 0 0 0
          0 0 0 0 0 0
          0 0 0 0 0 0
          0 0 0 0 0 0
          0 0 0 0 0 0
          0 0 0 0 0 0
          0 0 0 0 0 0
          0 0 0 0 0 0
          0 0 0 0 0 0
          0 0 0 0 0 0
          0 0 0 0 0 0
          0 0 0 0 0 0
          0 0 0 0 0 0
          0 0 0 0 0 0
          0 0 0 0 0 0
          0 0 0 0 0 0
          0 0 0 0 0 0
          0 0 0 0 0 0
          0 0 0 0 0 0
          0 0 0 0 0 0
          0 0 0 0 0 0
          0 0 0 0 0 0
          0 0 0 0 0 0
          0 0 0 0 0 0
          0 0 0 0 0 0
          0 0 0 0 0 0
          0 0 0 0 0 0
          0 0 0 0 0 0
          0 0 0 0 0
        </DataArray>
        <DataArray type="Float64" Name="gradient_error" format="ascii" RangeMin="1.2010876470517462e-10" RangeMax="2.0545290669565578e-8">
          7.662893883798413e-9 3.536056897808398e-9 4.491222307808085e-9 2.4495470078975147e-9 6.9016924667111824e-9 2.0629345302239812e-9
          1.811379271834014e-8 3.468434406708171e-9 3.9281314044804695e-9 5.787335573454191e-9 5.135923285638683e-9 2.5783610542284593e-9
          1.0416702556151922e-9 5.972921843124421e-10 8.067932431487522e-9 7.826497215632053e-10 1.1185081641985824e-9 1.2590407696729542e-9
          1.1369355797568025e-9 1.9551484166844126e-9 1.6133390811831009e-9 2.362867420317651e-9 9.518650151751998e-9 2.358140095896022e-9
          2.122941874081464e-9 5.0725287883962794e-9 2.890281813514406e-9 4.7965360643872095e-9 3.185035727646923e-9 3.4131037565515323e-9
          1.861460200819676e-8 1.4404363570234003e-8 8.491792548386697e-9 6.078890160999242e-9 3.190183209605714e-9 2.027848406443585e-9
          1.0390107246083413e-8 7.60746387017728e-9 3.778666893156178e-9 4.247180074859509e-9 3.2173162100992187e-9 2.2686824695614728e-9
          1.7901305446483884e-9 4.330060825896532e-9 5.108492616966477e-9 2.808144124380648e-9 3.4493118544811353e-9 2.008861447360541e-9
          5.3543088597832995e-9 4.500113673275686e-9 1.2754869719846258e-9 1.1863263790314257e-9 1.447596664739233e-9 1.5734833649900342e-9
          8.152730912868099e-10 1.9387489105513747e-9 1.0536770357092062e-9 1.1505317343413975e-9 3.9178441571401614e-10 3.517538240955679e-10
          9.995191090390677e-9 6.162749305196623e-9 1.2760104407877845e-8 3.929063927350612e-9 2.234339152335625e-9 1.1933743365597197e-9
          6.340547806980972e-10 5.035472133008348e-9 2.919951307706774e-9 1.4605702131582798e-9 1.2155411370632001e-9 9.63599666506281e-10
          6.283275870239211e-10 4.957021882527554e-10 1.0833365722882104e-9 1.4970997328105355e-9 7.731482860473657e-10 1.0919736047599924e-9
          5.604207874925168e-10 1.6767361755882112e-9 3.7194778396816746e-10 4.323694876095368e-9 1.5744395632724854e-9 2.276064021615153e-9
          3.0288540355147613e-9 1.3614043223342651e-9 8.289085168844813e-10 1.2159376831069996e-9 4.372473302348941e-10 6.336268362815411e-10
          5.602730088634505e-10 7.047414317035057e-10 3.7138417571839706e-10 3.057614140050499e-10 6.089349536412234e-9 5.091719943324695e-9
          4.171877371478824e-9 8.197220561386484e-9 9.814804055297027e-10 8.26953424234277e-10 1.7511192512907775e-9 4.558602992895166e-9
          3.209270941055727e-9 6.9421235149569515e-9 3.736450455391289e-9 3.0123093021760844e-9 2.5702558736683907e-9 2.0357487812153435e-9
          5.85840571814759e-9 4.844849475482229e-9 3.9373819328920315e-9 2.1259429272663937e-9 1.6658048853256314e-9 3.1252809431069936e-9
          1.6667368637569148e-9 1.0049905354861918e-9 1.2986737002273475e-9 1.2930334074134986e-9 9.9920481684905e-10 2.497699675261854e-9
          1.979955099565864e-9 1.6771977153984875e-9 1.4003561470939428e-8 1.229968913773167e-8 1.053771979089148e-8 1.660440376355978e-8
          1.9588078818564605e-8 1.7184886807666904e-8 2.0545290669565578e-8 9.889914683543922e-9 6.654975667468838e-9 1.2967524785289258e-8
          8.537248042371738e-9 7.210929109875242e-9 5.589074082103485e-9 4.611925448680033e-9 1.1339148403867785e-8 9.695447664076119e-9
          7.255580240159916e-9 4.253480306270615e-9 2.5633909351769223e-9 5.3211727902759855e-9 3.465217884199832e-9 2.787632839516826e-9
          2.0357829668464483e-9 1.5997599238382009e-9 4.406022853485096e-9 3.588003234358807e-9 2.5612403631119884e-9 9.874385302290746e-9
          1.3482245355431571e-8 1.1585437928228001e-8 8.508495684444974e-9 7.1929921981514295e-9 1.4273154432361138e-8 1.228156684816606e-8
          8.973225169286955e-9 6.109690470239324e-9 3.62210035543105e-9 6.400068283280368e-9 5.10735466706885e-9 4.1939768451343825e-9
          2.9317126203824446e-9 2.3359788316735373e-9 5.366967985770557e-9 4.419659566421577e-9 3.0674283206464706e-9 1.3287515582522386e-9
          1.5150795743337612e-9 1.1474012741110604e-9 1.8504310966627869e-9 1.0309844942865687e-9 1.1740171184938334e-9 7.873277234099108e-10
          9.01069525798416e-10 8.215883771575041e-10 8.790873753645454e-10 6.648745076883661e-10 1.4343400603357134e-9 1.1087821593213027e-9
          1.0128213577373304e-9 2.083722615990154e-9 1.4869362223355965e-9 2.1679906290700176e-9 1.6204820689167026e-9 1.2575543222925963e-9
          1.1354958397319856e-9 8.676362393727805e-10 1.6893337598630764e-9 1.312355654129508e-9 1.181935337560897e-9 3.3329167928307263e-9
          2.588754684412554e-9 5.657551052757538e-9 1.9513852326621748e-9 1.4262585686030086e-9 3.464927249060993e-9 1.8527447798497759e-9
          7.419747740264315e-10 5.516120952322704e-10 6.217374430760722e-10 4.6162627838899494e-10 1.3496009693100017e-9 1.0169993887006356e-9
          1.0463388243815888e-9 2.372921470190909e-9 1.820444034400785e-9 1.579515215038946e-9 1.1966246779763697e-9 3.904171420715471e-9
          3.0563035772780444e-9 2.518553048087757e-9 1.3579809046487825e-9 9.844093132354716e-10 8.83270804988114e-10 6.35214267636613e-10
          2.3196062001892734e-9 1.7048672809897084e-9 1.4504429467052363e-9 7.603255401236265e-10 9.921134820854799e-10 5.665361011421912e-10
          7.432433324716034e-10 5.990072963333922e-10 7.556888664809342e-10 5.625364690995288e-10 1.5358299128527702e-9 1.1628787384730025e-9
          1.0004168629956003e-9 4.1018484480076476e-10 5.425638261516059e-10 2.9149395987015286e-10 3.87340025982496e-10 3.1955676597509575e-10
          4.0746066752098886e-10 2.8963596879576956e-10 8.584566946724762e-10 6.175827381936576e-10 5.469433889363081e-10 1.2130642216857727e-9
          7.431448308646616e-10 2.021003545461761e-10 2.6957798320321506e-10 1.3798838157259323e-10 1.8357501915174846e-10 1.564290996064702e-10
          2.008644022350011e-10 1.3685842994594718e-10 4.3270821010925736e-10 2.9464368329382967e-10 2.712670073155775e-10 8.804181593890512e-9
          7.152574166858512e-9 1.2159962516108271e-8 5.625338830409616e-9 4.267889644612476e-9 7.98356437271028e-9 1.4602565488132874e-8
          1.2054587787088222e-8 1.5438101398929223e-8 9.700803516980766e-9 7.57650687312627e-9 1.028795276701671e-8 3.1175031291175155e-9
          4.574896767545444e-9 5.695117378972203e-9 6.0942437587249065e-9 5.931552918918406e-9 4.733868241371649e-9 3.7109503536079703e-9
          2.9013921507122512e-9 8.086115975786545e-9 6.552583178910105e-9 4.960828431552389e-9 3.6559448199771633e-9 2.7275014653582215e-9
          2.1996297311432993e-9 1.6153348489514832e-9 5.137252466105423e-9 3.885055797207746e-9 3.013248613908651e-9 2.192516317187377e-9
          1.679888325917709e-9 1.2311460080505153e-9 9.268393843841138e-10 2.85388740490199e-9 2.208611045572809e-9 1.5744105758862201e-9
          1.252196133001014e-9 9.076959758818722e-10 6.8098147700391e-10 4.879825746405962e-10 1.6598120586998333e-9 1.210728599203859e-9
          8.816811001998497e-10 9.720327159116877e-9 7.946676974148663e-9 5.923578640655763e-9 4.732046547995372e-9 1.0318314925344579e-8
          8.457959940563634e-9 6.284339362198373e-9 6.294077617649485e-9 4.806223733262617e-9 3.6572871505708136e-9 2.730057321240958e-9
          6.723195867713064e-9 5.152262372944396e-9 3.902407128335533e-9 3.360332059043736e-9 2.617314730333086e-9 1.8231776647782932e-9
          1.388131138308732e-9 3.550163541000039e-9 2.771377108210983e-9 1.9153861177060144e-9 1.9775613210265833e-9 1.4482486763392263e-9
          1.029157973598379e-9 7.422340701911154e-10 2.0979202088130227e-9 1.5384527217420028e-9 1.0841839019338578e-9 1.963825385791454e-9
          1.1483253695487001e-9 2.829484975586376e-9 1.6004423582702488e-9 6.408917457839969e-10 3.3966956423802216e-10 8.588340987789911e-10
          4.433627268727078e-10 3.5298669537458016e-9 1.966342746374321e-9 3.79581033090704e-9 2.107378140967637e-9 1.0283789859630951e-9
          5.204335262443684e-10 1.092512457577941e-9 5.492300686777653e-10 5.895583099200664e-10 6.799005875311352e-10 4.373293513640937e-10
          5.050419102716385e-10 4.590718845730266e-10 4.967468353662719e-10 3.6657245598254383e-10 8.438837363610748e-10 6.29235678314105e-10
          5.813652452971777e-10 3.155334798673304e-10 3.6551883194101173e-10 2.237613839413293e-10 2.592265719799111e-10 2.418991462910283e-10
          2.622213875770172e-10 1.8530172509264868e-10 4.572729472972509e-10 3.2488996083943646e-10 3.085447950830214e-10 9.606629774395353e-10
          7.188465656819439e-10 6.553986927603822e-10 4.865164409658216e-10 1.0038013472991248e-9 7.519762439148614e-10 6.824886810859261e-10
          5.23662920073094e-10 3.7269883260203225e-10 3.4968967768828127e-10 2.468756985303017e-10 5.482841295663792e-10 3.9030950354368446e-10
          3.6483339407352597e-10 1.540061623045505e-10 1.7855039918561012e-10 1.2010876470517462e-10 1.3188794393091625e-10 2.2488757124973576e-10
          1.5592809309127207e-10 2.5935307470857547e-10 1.734368122439313e-10 2.7202564298434927e-10 1.7868456146197638e-10
        </DataArray>
        <DataArray type="Float64" Name="gradient_matprop_error" format="ascii" RangeMin="0" RangeMax="0">
          0 0 0 0 0 0
          0 0 0 0 0 0
          0 0 0 0 0 0
          0 0 0 0 0 0
          0 0 0 0 0 0
          0 0 0 0 0 0
          0 0 0 0 0 0
          0 0 0 0 0 0
          0 0 0 0 0 0
          0 0 0 0 0 0
          0 0 0 0 0 0
          0 0 0 0 0 0
          0 0 0 0 0 0
          0 0 0 0 0 0
          0 0 0 0 0 0
          0 0 0 0 0 0
          0 0 0 0 0 0
          0 0 0 0 0 0
          0 0 0 0 0 0
          0 0 0 0 0 0
          0 0 0 0 0 0
          0 0 0 0 0 0
          0 0 0 0 0 0
          0 0 0 0 0 0
          0 0 0 0 0 0
          0 0 0 0 0 0
          0 0 0 0 0 0
          0 0 0 0 0 0
          0 0 0 0 0 0
          0 0 0 0 0 0
          0 0 0 0 0 0
          0 0 0 0 0 0
          0 0 0 0 0 0
          0 0 0 0 0 0
          0 0 0 0 0 0
          0 0 0 0 0 0
          0 0 0 0 0 0
          0 0 0 0 0 0
          0 0 0 0 0 0
          0 0 0 0 0 0
          0 0 0 0 0 0
          0 0 0 0 0 0
          0 0 0 0 0 0
          0 0 0 0 0 0
          0 0 0 0 0 0
          0 0 0 0 0 0
          0 0 0 0 0 0
          0 0 0 0 0 0
          0 0 0 0 0 0
          0 0 0 0 0 0
          0 0 0 0 0 0
          0 0 0 0 0 0
          0 0 0 0 0 0
          0 0 0 0 0 0
          0 0 0 0 0 0
          0 0 0 0 0 0
          0 0 0 0 0 0
          0 0 0 0 0 0
          0 0 0 0 0 0
          0 0 0 0 0 0
          0 0 0 0 0 0
          0 0 0 0 0 0
          0 0 0 0 0 0
          0 0 0 0 0
        </DataArray>
        <DataArray type="Float64" Name="initial_marker" format="ascii" RangeMin="0" RangeMax="2">
          0 0 0 2 2 1.5
          2 0 0 0 0 2
          0 1 2 2 0 0
          0 0 0 0 2 0
          1.5 0 0 2 2 1.5
          2 2 2 2 2 2
          2 2 2 0 0 0
          0 0 0 0 1 0
          0 2 0 1.5 0 0
          0 2 2 1.5 0 0.75
          2 2 2 2 2 2
          2 2 2 2 0 0
          0 0 0 0 0 0
          0 0 0 0 0 0
          0 0 0 0 0 0
          0 0 0 0 2 2
          2 2 1 1 2 2
          2 2 2 2 2 2
          2 2 2 1.5 1 2
          1.5 1 1.5 1 1 2
          2 2 2 2 2 2
          2 2 2 2 2 2
          2 2 2 2 2 2
          2 2 2 2 2 2
          2 2 2 2 2 2
          2 2 2 2 2 2
          2 2 2 2 2 2
          2 2 2 2 2 1
          1 0 1 1 1 1
          1 0 0 0 1 1
          0 1.5 1 2 1.25 1
          0.5 0 1.5 1 1 2
          2 2 2 2 2 2
          1 1 1 1 2 2
          2 2 2 2 2 2
          2 2 2 2 2 2
          2 2 2 1 1.5 1
          1.5 0 1 1 2 2
          2 1 1.5 1 1.5 0
          1 1 2 2 1.6666666666666667 2
          2 1 1.5 0.5 1 0
          1 0.5 2 1.75 1.3333333333333333 2
          2 2 2 2 2 2
          2 2 2 2 2 2
          2 2 2 2 2 2
          2 2 2 2 2 2
          2 2 2 2 2 2
          2 2 2 2 2 2
          2 2 1.75 1.5 2 2
          2 2 2 2 2 2
          2 2 2 2 2 2
          2 2 2 2 2 2
          2 2 2 2 2 2
          2 2 2 2 2 2
          2 2 2 2 1.5 2
          2 2 2 2 2 2
          2 2 2 1 1 1
          1 0 0 0 1 1
          0 0.5 0.75 0 0.5 0
          0 0 1 1 0 1
          1 0 0 1 1 0
          1 1 0 0 1 1
          0 0 0.5 0 0 1
          0 1 0 1 0
        </DataArray>
        <DataArray type="Float64" Name="markers_norefine" format="ascii" RangeMin="0" RangeMax="0">
          0 0 0 0 0 0
          0 0 0 0 0 0
          0 0 0 0 0 0
          0 0 0 0 0 0
          0 0 0 0 0 0
          0 0 0 0 0 0
          0 0 0 0 0 0
          0 0 0 0 0 0
          0 0 0 0 0 0
          0 0 0 0 0 0
          0 0 0 0 0 0
          0 0 0 0 0 0
          0 0 0 0 0 0
          0 0 0 0 0 0
          0 0 0 0 0 0
          0 0 0 0 0 0
          0 0 0 0 0 0
          0 0 0 0 0 0
          0 0 0 0 0 0
          0 0 0 0 0 0
          0 0 0 0 0 0
          0 0 0 0 0 0
          0 0 0 0 0 0
          0 0 0 0 0 0
          0 0 0 0 0 0
          0 0 0 0 0 0
          0 0 0 0 0 0
          0 0 0 0 0 0
          0 0 0 0 0 0
          0 0 0 0 0 0
          0 0 0 0 0 0
          0 0 0 0 0 0
          0 0 0 0 0 0
          0 0 0 0 0 0
          0 0 0 0 0 0
          0 0 0 0 0 0
          0 0 0 0 0 0
          0 0 0 0 0 0
          0 0 0 0 0 0
          0 0 0 0 0 0
          0 0 0 0 0 0
          0 0 0 0 0 0
          0 0 0 0 0 0
          0 0 0 0 0 0
          0 0 0 0 0 0
          0 0 0 0 0 0
          0 0 0 0 0 0
          0 0 0 0 0 0
          0 0 0 0 0 0
          0 0 0 0 0 0
          0 0 0 0 0 0
          0 0 0 0 0 0
          0 0 0 0 0 0
          0 0 0 0 0 0
          0 0 0 0 0 0
          0 0 0 0 0 0
          0 0 0 0 0 0
          0 0 0 0 0 0
          0 0 0 0 0 0
          0 0 0 0 0 0
          0 0 0 0 0 0
          0 0 0 0 0 0
          0 0 0 0 0 0
          0 0 0 0 0
        </DataArray>
        <DataArray type="Float64" Name="markers_mustrefine" format="ascii" RangeMin="0" RangeMax="2">
          0 0 0 2 2 1.5
          2 0 0 0 0 2
          0 1 2 2 0 0
          0 0 0 0 2 0
          1.5 0 0 2 2 1.5
          2 2 2 2 2 2
          2 2 2 0 0 0
          0 0 0 0 1 0
          0 2 0 1.5 0 0
          0 2 2 1.5 0 0.75
          2 2 2 2 2 2
          2 2 2 2 0 0
          0 0 0 0 0 0
          0 0 0 0 0 0
          0 0 0 0 0 0
          0 0 0 0 2 2
          2 2 1 1 2 2
          2 2 2 2 2 2
          2 2 2 1.5 1 2
          1.5 1 1.5 1 1 2
          2 2 2 2 2 2
          2 2 2 2 2 2
          2 2 2 2 2 2
          2 2 2 2 2 2
          2 2 2 2 2 2
          2 2 2 2 2 2
          2 2 2 2 2 2
          2 2 2 2 2 1
          1 0 1 1 1 1
          1 0 0 0 1 1
          0 1.5 1 2 1.25 1
          0.5 0 1.5 1 1 2
          2 2 2 2 2 2
          1 1 1 1 2 2
          2 2 2 2 2 2
          2 2 2 2 2 2
          2 2 2 1 1.5 1
          1.5 0 1 1 2 2
          2 1 1.5 1 1.5 0
          1 1 2 2 1.6666666666666667 2
          2 1 1.5 0.5 1 0
          1 0.5 2 1.75 1.3333333333333333 2
          2 2 2 2 2 2
          2 2 2 2 2 2
          2 2 2 2 2 2
          2 2 2 2 2 2
          2 2 2 2 2 2
          2 2 2 2 2 2
          2 2 1.75 1.5 2 2
          2 2 2 2 2 2
          2 2 2 2 2 2
          2 2 2 2 2 2
          2 2 2 2 2 2
          2 2 2 2 2 2
          2 2 2 2 1.5 2
          2 2 2 2 2 2
          2 2 2 1 1 1
          1 0 0 0 1 1
          0 0.5 0.75 0 0.5 0
          0 0 1 1 0 1
          1 0 0 1 1 0
          1 1 0 0 1 1
          0 0 0.5 0 0 1
          0 1 0 1 0
        </DataArray>
        <DataArray type="Float64" Name="gradient_marker" format="ascii" RangeMin="1" RangeMax="1">
          1 1 1 1 1 1
          1 1 1 1 1 1
          1 1 1 1 1 1
          1 1 1 1 1 1
          1 1 1 1 1 1
          1 1 1 1 1 1
          1 1 1 1 1 1
          1 1 1 1 1 1
          1 1 1 1 1 1
          1 1 1 1 1 1
          1 1 1 1 1 1
          1 1 1 1 1 1
          1 1 1 1 1 1
          1 1 1 1 1 1
          1 1 1 1 1 1
          1 1 1 1 1 1
          1 1 1 1 1 1
          1 1 1 1 1 1
          1 1 1 1 1 1
          1 1 1 1 1 1
          1 1 1 1 1 1
          1 1 1 1 1 1
          1 1 1 1 1 1
          1 1 1 1 1 1
          1 1 1 1 1 1
          1 1 1 1 1 1
          1 1 1 1 1 1
          1 1 1 1 1 1
          1 1 1 1 1 1
          1 1 1 1 1 1
          1 1 1 1 1 1
          1 1 1 1 1 1
          1 1 1 1 1 1
          1 1 1 1 1 1
          1 1 1 1 1 1
          1 1 1 1 1 1
          1 1 1 1 1 1
          1 1 1 1 1 1
          1 1 1 1 1 1
          1 1 1 1 1 1
          1 1 1 1 1 1
          1 1 1 1 1 1
          1 1 1 1 1 1
          1 1 1 1 1 1
          1 1 1 1 1 1
          1 1 1 1 1 1
          1 1 1 1 1 1
          1 1 1 1 1 1
          1 1 1 1 1 1
          1 1 1 1 1 1
          1 1 1 1 1 1
          1 1 1 1 1 1
          1 1 1 1 1 1
          1 1 1 1 1 1
          1 1 1 1 1 1
          1 1 1 1 1 1
          1 1 1 1 1 1
          1 1 1 1 1 1
          1 1 1 1 1 1
          1 1 1 1 1 1
          1 1 1 1 1 1
          1 1 1 1 1 1
          1 1 1 1 1 1
          1 1 1 1 1
        </DataArray>
        <DataArray type="Float64" Name="gradient_matprop_marker" format="ascii" RangeMin="0" RangeMax="0">
          0 0 0 0 0 0
          0 0 0 0 0 0
          0 0 0 0 0 0
          0 0 0 0 0 0
          0 0 0 0 0 0
          0 0 0 0 0 0
          0 0 0 0 0 0
          0 0 0 0 0 0
          0 0 0 0 0 0
          0 0 0 0 0 0
          0 0 0 0 0 0
          0 0 0 0 0 0
          0 0 0 0 0 0
          0 0 0 0 0 0
          0 0 0 0 0 0
          0 0 0 0 0 0
          0 0 0 0 0 0
          0 0 0 0 0 0
          0 0 0 0 0 0
          0 0 0 0 0 0
          0 0 0 0 0 0
          0 0 0 0 0 0
          0 0 0 0 0 0
          0 0 0 0 0 0
          0 0 0 0 0 0
          0 0 0 0 0 0
          0 0 0 0 0 0
          0 0 0 0 0 0
          0 0 0 0 0 0
          0 0 0 0 0 0
          0 0 0 0 0 0
          0 0 0 0 0 0
          0 0 0 0 0 0
          0 0 0 0 0 0
          0 0 0 0 0 0
          0 0 0 0 0 0
          0 0 0 0 0 0
          0 0 0 0 0 0
          0 0 0 0 0 0
          0 0 0 0 0 0
          0 0 0 0 0 0
          0 0 0 0 0 0
          0 0 0 0 0 0
          0 0 0 0 0 0
          0 0 0 0 0 0
          0 0 0 0 0 0
          0 0 0 0 0 0
          0 0 0 0 0 0
          0 0 0 0 0 0
          0 0 0 0 0 0
          0 0 0 0 0 0
          0 0 0 0 0 0
          0 0 0 0 0 0
          0 0 0 0 0 0
          0 0 0 0 0 0
          0 0 0 0 0 0
          0 0 0 0 0 0
          0 0 0 0 0 0
          0 0 0 0 0 0
          0 0 0 0 0 0
          0 0 0 0 0 0
          0 0 0 0 0 0
          0 0 0 0 0 0
          0 0 0 0 0
        </DataArray>
        <DataArray type="Float64" Name="combo" format="ascii" RangeMin="1" RangeMax="1">
          1 1 1 1 1 1
          1 1 1 1 1 1
          1 1 1 1 1 1
          1 1 1 1 1 1
          1 1 1 1 1 1
          1 1 1 1 1 1
          1 1 1 1 1 1
          1 1 1 1 1 1
          1 1 1 1 1 1
          1 1 1 1 1 1
          1 1 1 1 1 1
          1 1 1 1 1 1
          1 1 1 1 1 1
          1 1 1 1 1 1
          1 1 1 1 1 1
          1 1 1 1 1 1
          1 1 1 1 1 1
          1 1 1 1 1 1
          1 1 1 1 1 1
          1 1 1 1 1 1
          1 1 1 1 1 1
          1 1 1 1 1 1
          1 1 1 1 1 1
          1 1 1 1 1 1
          1 1 1 1 1 1
          1 1 1 1 1 1
          1 1 1 1 1 1
          1 1 1 1 1 1
          1 1 1 1 1 1
          1 1 1 1 1 1
          1 1 1 1 1 1
          1 1 1 1 1 1
          1 1 1 1 1 1
          1 1 1 1 1 1
          1 1 1 1 1 1
          1 1 1 1 1 1
          1 1 1 1 1 1
          1 1 1 1 1 1
          1 1 1 1 1 1
          1 1 1 1 1 1
          1 1 1 1 1 1
          1 1 1 1 1 1
          1 1 1 1 1 1
          1 1 1 1 1 1
          1 1 1 1 1 1
          1 1 1 1 1 1
          1 1 1 1 1 1
          1 1 1 1 1 1
          1 1 1 1 1 1
          1 1 1 1 1 1
          1 1 1 1 1 1
          1 1 1 1 1 1
          1 1 1 1 1 1
          1 1 1 1 1 1
          1 1 1 1 1 1
          1 1 1 1 1 1
          1 1 1 1 1 1
          1 1 1 1 1 1
          1 1 1 1 1 1
          1 1 1 1 1 1
          1 1 1 1 1 1
          1 1 1 1 1 1
          1 1 1 1 1 1
          1 1 1 1 1
        </DataArray>
        <DataArray type="Float64" Name="dHdT" format="ascii" RangeMin="25.828022702404176" RangeMax="38.09011466055679">
          25.861967206933706 25.97465135870797 25.838572548082784 26.896365178311843 29.11191817963118 26.341097820005803
          36.175835401324726 25.87247947798388 25.92455328910345 25.880012158671047 25.96672908437079 26.824043770230688
          25.857342980302292 25.957824340488056 29.877375849547597 26.129980508927638 25.832247715835646 25.847247967431432
          25.828022702404176 25.837445326278296 25.859557096586784 25.84239330157689 31.232906865185875 26.045894071832926
          26.36283258009486 26.322118489741936 26.0944216448123 28.126174231201965 27.213441415098174 26.732418869204785
          36.67688045611398 34.06075542202285 30.479334012438656 28.6390817374948 27.32184142478564 26.71309764802797
          32.0374693003609 29.577657908171275 27.607370989583906 26.2226289106094 26.323049526596424 26.036543727170343
          26.104364901934126 26.09773931295804 26.168536141860862 26.01678755417435 26.38225098386431 26.143342828881185
          26.199811093430412 27.708197905728 25.93580884930628 26.113395832540537 25.915544444856653 25.962800694321103
          25.888734418221883 26.614475354184066 26.230964293659277 26.101092103030393 25.848648204195563 25.87851009512494
          31.012144577887028 28.49289807848143 33.47188686714823 27.454271306922756 26.690346317649027 26.31809383223273
          26.07086387099013 27.98590941360851 26.97796806198035 26.4277077685935 25.932730730342907 25.969766038958532
          25.87393816037077 25.892450133557666 25.898224088591917 25.924278392354942 25.870455261129358 25.991641266485356
          25.903777442013443 25.936119567592105 25.843106650588215 26.11952257621591 25.93667359711614 25.978393214115425
          26.016861223604508 25.92266308220209 25.879410007768683 25.901653981926906 25.847476041513595 25.858580513839456
          25.861614701120747 25.8728128305934 25.844350441473182 25.83515305594683 28.88366581439024 28.213416681044187
          27.677906893334228 30.08225481936067 26.286140694110586 26.225759839920762 26.605720271884795 28.01067586544751
          27.33986680737692 29.39880236875088 27.52685738448784 27.139421634865716 26.993650979392008 26.71868884071059
          28.612791718962363 27.99036405047865 27.61864035214329 26.853778951892025 26.65339793968683 27.29531099354506
          26.60878609364194 26.298081075985145 26.416065560420797 26.451182327783652 26.292556747107863 26.96039931450998
          26.692748627088424 26.61832698407461 34.169666715043704 32.842166462150274 31.48566751536795 35.339096539259465
          37.1911872845696 35.680018348853935 38.09011466055679 31.485105045050016 29.19541484910998 33.642051539607245
          30.300775835412907 29.289488416069528 28.458969995162334 27.87472611350512 32.3113891625606 30.98234871679555
          29.45125260248663 27.839537199306204 27.04613109134982 28.4115267446329 27.394562853169973 27.03747450780044
          26.763012651038498 26.53769141082453 27.850397490447175 27.39949134413862 26.983298915410828 31.596348950107867
          33.798594379351634 32.44501945380649 30.339595366300856 29.304955076409893 34.297050765059794 32.99500987418905
          30.70975156841874 28.86820985459425 27.529699679865033 29.046044987851673 28.212446076693 27.68544103764392
          27.150644155341517 26.846364568245882 28.35234149504909 27.795401193291074 27.21327404903641 26.507651998756195
          26.57467658629347 26.397780929296417 26.703906724812953 26.33484678223258 26.389309186383034 26.202634063986146
          26.245759831888165 26.215320272372836 26.250425604989147 26.138558139202402 26.494205764532445 26.32867693810173
          26.31803210104495 26.80304534493584 26.54077980303689 26.839978414076526 26.574405407707566 26.39209508549244
          26.36972197409282 26.23291400842431 26.60417087688373 26.415721894571618 26.3889106837012 27.241225975671444
          26.886350014842314 28.330260616028987 26.601615653969656 26.377705426458423 27.213440001961224 26.52341747803885
          26.163083856223285 26.067534429363604 26.117242945980443 26.033473265104774 26.409128368214464 26.25262912781752
          26.28933141101214 26.824343571429587 26.568973900329407 26.497438757126325 26.320140402828823 27.48487242542703
          27.073642543679682 26.883145789574257 26.36487600516834 26.205467920223743 26.180089652395502 26.072043786786832
          26.742757408754688 26.481270400943664 26.399485388257602 26.17254715612399 26.26335100494818 26.074782001863245
          26.14319347354178 26.10408408248977 26.168231521629426 26.071669404964105 26.477532002342343 26.30533690777181
          26.268107610787876 26.000055173450814 26.049952192714557 25.944194889172856 25.97927913903822 25.96337307891784
          25.997788157486696 25.9425829763507 26.16933146636019 26.064297596888423 26.052362368986053 26.27973596178969
          26.102480012066998 25.903028998134275 25.927081385093594 25.873458351145562 25.889583014365364 25.88566168388472
          25.90190440096975 25.872788177764537 25.985597252856422 25.928750493321196 25.927602010938415 30.196373717026862
          29.07902963515501 32.574382233471646 28.198814244379943 27.530330417101247 29.596952976110977 34.399511911916065
          32.78186188018168 35.021520851595504 31.007665617461534 29.453225250509583 31.621812432518237 27.022843223490973
          27.68617889353463 28.32376791265878 28.5980662779585 28.466437514401925 27.812195252908275 27.397655317159245