<?xml version="1.0"?>
<VTKFile type="UnstructuredGrid" version="0.1" byte_order="LittleEndian" header_type="UInt32" compressor="vtkZLibDataCompressor">
  <UnstructuredGrid>
    <Piece NumberOfPoints="435" NumberOfCells="225">
      <PointData>
        <DataArray type="Int32" Name="libmesh_node_id" format="ascii" RangeMin="373" RangeMax="3470">
          373 466 467 470 472 527
          528 533 535 536 537 542
          691 704 709 712 713 716
          718 821 830 831 946 947
          950 951 953 955 1371 1372
          1373 1374 1375 1376 1377 1406
          1407 1408 1409 1410 1411 1412
          1413 1414 1415 1420 1421 1425
          1446 1447 1448 1449 1450 1451
          1452 1455 1459 1471 1472 1473
          1474 1475 1476 1477 1478 1479
          1584 1588 1589 1591 1592 1593
          1594 1595 1596 1597 1598 1599
          1600 1601 1602 1648 1650 1651
          1652 1653 1654 1744 1745 1746
          1747 1748 1749 1750 1751 1752
          1753 1754 1755 1756 1757 1758
          1759 1760 1761 1762 1763 1764
          1765 1766 1767 1768 1769 1770
          2733 2734 2735 2738 2944 2946
          2948 2950 2952 2953 2954 2955
          2956 2957 2958 2960 2962 2964
          2966 2967 2968 2969 2970 2971
          2972 2974 2976 2978 2980 2981
          2982 2983 2984 2985 2986 3120
          3123 3124 3125 3126 3128 3130
          3132 3133 3134 3135 3136 3137
          3138 3139 3140 3141 3142 3143
          3144 3145 3146 3148 3150 3152
          3153 3154 3156 3293 3294 3295
          3296 3297 3298 3299 3300 3301
          3302 3303 3304 3305 3306 3307
          3308 3309 3310 3311 3312 3313
          3314 3315 3316 3317 3318 3319
          3320 3321 3322 3323 3324 3325
          3326 3327 3328 3329 3330 3331
          3332 3333 3334 3335 3336 3337
          3338 3339 3340 3341 3342 3343
          3344 3345 3346 3347 3348 3349
          3350 3351 3352 3354 3356 3358
          3369 3370 3371 3372 3373 3374
          3375 3376 3377 3378 3379 3381
          3383 3385 3393 3394 3395 3396
          3397 3398 3399 3400 3401 3402
          3403 3404 3405 3406 3407 3408
          3409 3446 3447 3450 3452 3455
          3457 3459 3461 3462 3463 3464
          3465 3466 3467 3468 3469 3470
          454 376 468 538 381 382
          543 710 714 711 715 717
          719 818 825 449 460 828
          463 703 465 948 705 949
          952 954 1336 462 1337 1340
          1416 1417 1418 1419 1422 1423
          1424 1453 1454 1456 1343 1470
          1462 1463 1466 1468 933 925
          934 1590 1585 935 689 674
          943 944 945 1338 1643 1330
          1339 1649 1644 1647 471 2721
          2729 2722 2730 2725 2731 2732
          2727 2736 2737 2931 2932 2934
          2933 2935 2936 2937 2938 2940
          2942 2939 2941 2943 2711 1341
          2726 2945 2728 2947 2949 2951
          2718 1342 2833 1358 2863 2864
          2959 2961 2867 1363 2963 2965
          2840 2870 1359 2871 2874 694
          2973 2975 2977 2979 2713 3118
          3122 2715 2717 3121 3155 3353
          3355 3357 3380 3382 3384 1457
          3368 3388 3389 3392 1458 3444
          3445 3448 3449 3451 3453 3454
          3456 3458 3460
        </DataArray>
        <DataArray type="Float64" Name="bounds" format="ascii" RangeMin="0" RangeMax="0">
          0 0 0 0 0 0
          0 0 0 0 0 0
          0 0 0 0 0 0
          0 0 0 0 0 0
          0 0 0 0 0 0
          0 0 0 0 0 0
          0 0 0 0 0 0
          0 0 0 0 0 0
          0 0 0 0 0 0
          0 0 0 0 0 0
          0 0 0 0 0 0
          0 0 0 0 0 0
          0 0 0 0 0 0
          0 0 0 0 0 0
          0 0 0 0 0 0
          0 0 0 0 0 0
          0 0 0 0 0 0
          0 0 0 0 0 0
          0 0 0 0 0 0
          0 0 0 0 0 0
          0 0 0 0 0 0
          0 0 0 0 0 0
          0 0 0 0 0 0
          0 0 0 0 0 0
          0 0 0 0 0 0
          0 0 0 0 0 0
          0 0 0 0 0 0
          0 0 0 0 0 0
          0 0 0 0 0 0
          0 0 0 0 0 0
          0 0 0 0 0 0
          0 0 0 0 0 0
          0 0 0 0 0 0
          0 0 0 0 0 0
          0 0 0 0 0 0
          0 0 0 0 0 0
          0 0 0 0 0 0
          0 0 0 0 0 0
          0 0 0 0 0 0
          0 0 0 0 0 0
          0 0 0 0 0 0
          0 0 0 0 0 0
          0 0 0 0 0 0
          0 0 0 0 0 0
          0 0 0 0 0 0
          0 0 0 0 0 0
          0 0 0 0 0 0
          0 0 0 0 0 0
          0 0 0 0 0 0
          0 0 0 0 0 0
          0 0 0 0 0 0
          0 0 0 0 0 0
          0 0 0 0 0 0
          0 0 0 0 0 0
          0 0 0 0 0 0
          0 0 0 0 0 0
          0 0 0 0 0 0
          0 0 0 0 0 0
          0 0 0 0 0 0
          0 0 0 0 0 0
          0 0 0 0 0 0
          0 0 0 0 0 0
          0 0 0 0 0 0
          0 0 0 0 0 0
          0 0 0 0 0 0
          0 0 0 0 0 0
          0 0 0 0 0 0
          0 0 0 0 0 0
          0 0 0 0 0 0
          0 0 0 0 0 0
          0 0 0 0 0 0
          0 0 0 0 0 0
          0 0 0
        </DataArray>
        <DataArray type="Float64" Name="gradient_error" format="ascii" RangeMin="3.737319043088523e-12" RangeMax="7.662893883798413e-9">
          2.570496429071504e-9 6.266154800220235e-10 9.91881897185243e-10 2.344844573150217e-10 1.408316197985002e-9 1.8843464725969553e-9
          3.1510641446384623e-9 4.417781816679971e-9 6.903230745756338e-10 9.806781245772092e-10 1.8224717968697887e-10 1.2710331745787848e-9
          2.269588087423244e-10 7.004839987866698e-11 6.871326762076539e-11 3.157494306350493e-10 3.3562848798114557e-10 5.488719572301547e-10
          4.1290154777381396e-10 9.494171125238318e-10 4.218270770734929e-10 1.2807689683910574e-10 1.0341465060072599e-10 1.0844081684955628e-10
          1.1242980684875883e-10 1.642694899447048e-10 1.1636874312778268e-10 1.9135463228353759e-10 1.107588533409042e-9 4.796553489440617e-10
          3.6260326146419924e-10 2.632026773708534e-10 1.4668549769349375e-9 6.388830265054744e-10 3.7499576310006586e-10 1.562918564038485e-10
          1.1323707438317125e-10 6.203431429481707e-11 6.121407805175261e-11 8.066489613960957e-11 9.121498570145445e-11 6.544283101915869e-11
          9.840583632182659e-11 5.060738010997245e-11 1.1322959359812937e-10 1.905071493788638e-11 2.7789087814721442e-11 2.8266046607623773e-11
          1.8297412679298606e-10 6.216403562208382e-11 1.4972462395344336e-10 5.8155752901046225e-11 2.433877223054575e-10 8.208524450769603e-11
          1.7478925516489162e-10 2.4138311885586353e-11 2.3829740944274622e-11 3.0815582236956453e-10 2.4367689089043225e-10 2.516203026661244e-10
          2.653101970661853e-10 3.6249184569285393e-10 1.5706192382646684e-10 2.6609125511513994e-10 1.991863563676557e-10 4.093618857022671e-10
          1.3625192684248852e-9 1.598672710586684e-9 4.4866533694576937e-10 1.5813835920822816e-10 2.645906173970114e-10 3.5255262359276084e-10
          5.394971850275957e-10 1.9366100306812737e-10 6.194077792364148e-11 8.377781010867486e-11 4.464955418803314e-11 4.975361692491523e-11
          6.2036366629753e-11 7.485581636069931e-11 5.358525752877027e-11 2.1343299496643757e-10 1.0352034676992723e-10 1.4365672048088242e-10
          1.4607425881898197e-10 1.805364236339559e-10 8.98086711336328e-11 4.5398764229975174e-11 6.433087575738601e-11 3.107337729627321e-11
          3.991252335504004e-11 3.523604075313951e-11 4.4280001627604234e-11 3.264459629937954e-11 1.0955038770262967e-10 5.3911642092818566e-11
          6.197014585077684e-11 1.5446976637566215e-10 6.59271475520511e-11 7.372234954043057e-11 3.827265549471683e-11 1.7310174463086188e-10
          7.536266667177778e-11 7.682836988137642e-11 2.146991781576916e-11 2.481577724152958e-11 1.3371862868433212e-11 1.4048540439410238e-11
          1.5067478185900652e-11 1.6362480803500906e-11 1.0520752776185e-11 2.8161636667290006e-11 1.4725218010387265e-11 1.7657483421101162e-11
          7.008434260659433e-11 8.94773750097572e-11 5.814851596485949e-11 1.385886014641712e-10 7.410350563994146e-10 4.384322340794536e-10
          2.66122723235253e-10 5.90022209345743e-10 2.894224306754669e-10 1.8604571008300433e-10 2.0204454188924554e-10 1.2892140051197373e-10
          3.9154879686355977e-10 2.5203489516203553e-10 2.2309346469558611e-10 2.4914606683311593e-9 1.3665088061460248e-9 2.686307181587562e-9
          1.690099073726495e-9 1.1032097639063697e-9 9.167021089617273e-10 5.941563395977151e-10 1.8260311950200655e-9 1.1936565098987127e-9
          9.850761365505582e-10 7.076941055245363e-10 3.5302249757807406e-10 7.520825506597382e-10 4.728387488752582e-10 3.0562450392619077e-10
          2.327547087358207e-10 1.7519948691824e-10 5.039448746135713e-10 3.264135061236133e-10 2.4876036455979655e-10 7.796878502748026e-11
          5.644323657025869e-11 2.2739540346737026e-10 1.3847603253107204e-10 1.377188954234258e-10 4.601683852313559e-11 2.6821187317883814e-11
          3.5968291326653374e-11 2.1129398323066307e-11 8.160127076094395e-11 4.701788747467781e-11 5.5994541450623295e-11 3.7786078817971944e-11
          4.94137115668757e-11 3.029804064278595e-11 3.838634824501658e-11 2.995592282013338e-11 3.747782174814049e-11 3.044022024389976e-11
          7.872770068844282e-11 5.467271011328192e-11 5.6602663596269057e-11 1.5251390968082658e-11 1.1261812972510111e-11 1.2197128677577965e-11
          9.457011056096648e-12 2.652467076195579e-11 1.837924094743398e-11 3.7312553821963933e-10 2.2708342010448314e-10 2.1440508379980972e-10
          1.3052439303954014e-10 5.470355916408827e-10 3.322357713112179e-10 3.0077117049784437e-10 1.338211981754469e-10 7.667465476633441e-11
          7.70264936842317e-11 4.445046317215034e-11 1.9542201932556657e-10 1.1149870972936178e-10 1.0817020366557255e-10 1.167207809354999e-10
          7.130550146728907e-11 8.07289794355808e-11 5.004793174277093e-11 1.5714195530127304e-10 9.562828699728197e-11 1.0585453588621475e-10
          3.5144440002842346e-11 4.258232632980827e-11 2.0874254212415488e-11 2.5008344516103203e-11 2.6622195005988298e-11 3.046590883945471e-11
          1.820558782501801e-11 5.687459371135814e-11 3.3116660476988746e-11 3.8355527514250296e-11 6.940410179326895e-10 4.215685564997799e-10
          3.7264046886572765e-10 2.2639398534082416e-10 7.515662664239749e-10 4.5663541220362747e-10 4.007504482659864e-10 2.476303397779238e-10
          1.4089148734123294e-10 1.3350217749208273e-10 7.650961313722073e-11 2.6816795451381716e-10 1.5245705253889727e-10 1.434112461783673e-10
          1.9001855979897257e-10 1.149324822747313e-10 1.2645620130256126e-10 7.573001589584316e-11 2.0278071380529268e-10 1.2244765624317747e-10
          1.3445568318746409e-10 6.810536760296052e-11 3.9571760505441754e-11 4.501260912819766e-11 2.6590701055037512e-11 7.248176043997894e-11
          4.205263487669693e-11 4.762378590081584e-11 4.292638659632007e-11 2.5025801211971293e-11 6.186179455648677e-11 3.484760798980249e-11
          1.1438941704225201e-11 1.3910024349353594e-11 8.385927899190838e-12 1.0010645576132877e-11 8.548658879911257e-12 1.0063633692089881e-11
          7.39581827146533e-12 1.868554055665034e-11 1.1538749317386813e-11 1.301781462401072e-11 7.777472501628844e-11 4.267716529962682e-11
          8.40066159954049e-11 4.568967112973942e-11 2.2332946614649298e-11 1.2306800986299922e-11 1.5172437555852966e-11 8.714756262890463e-12
          2.3675919110479902e-11 1.3123159623057077e-11 1.5887854367953e-11 6.289508659743681e-12 6.6647186154997825e-12 4.803839509422195e-12
          4.846829806796625e-12 4.8609639893658054e-12 4.899009894300353e-12 3.737319043088523e-12 7.039928571255884e-12 4.889820104171055e-12
          4.937055799234901e-12 1.277020589811012e-10 1.4553596352444895e-10 1.1287859727894654e-10 1.6511923866684797e-10 1.7576302334409296e-10
          1.2223618452022227e-10 1.855321227218123e-10 1.0978511138489123e-10 1.1554270992118375e-10 8.854361858579843e-11 9.132958035812998e-11
          8.618102575676174e-11 8.488782572736776e-11 7.016286994992278e-11 1.2130030845747628e-10 9.411554213046151e-11 8.359462569797377e-11
          4.491222307808085e-9 3.6179918759753683e-10 2.017603260465671e-10 2.4361284613854386e-10 7.662893883798413e-9 2.5648967835476706e-10
          3.049785125901089e-10 1.1185081641985824e-9 1.1369355797568025e-9 1.2590407696729542e-9 1.9551484166844126e-9 1.6133390811831009e-9
          2.362867420317651e-9 1.399623223320304e-9 4.5830924065556263e-10 2.2777744319968245e-9 4.85893580638938e-10 1.282235970930912e-10
          1.1782827639634965e-10 1.126821575007066e-10 4.697158030375821e-11 5.556836796729037e-11 2.9968740269801084e-11 5.0402433915321215e-11
          6.006531945704168e-11 4.4935473005550633e-11 2.0556314602703095e-10 2.8276097276524364e-10 1.5893065786281085e-10 1.7573405066557182e-10
          2.3592613942118973e-11 2.651342267521899e-11 9.521432675193196e-12 1.4122911070909621e-11 1.072161875766371e-11 2.43415006941721e-11
          1.593276728675936e-11 2.20339155241867e-11 1.1252643862135279e-11 1.6204638777306257e-11 3.517538240955679e-10 3.7194778396816746e-10
          6.283275870239211e-10 4.957021882527554e-10 7.731482860473657e-10 5.604207874925168e-10 7.241842283878587e-10 2.84987408130041e-9
          8.940132225007628e-10 8.811364953686777e-10 2.773677291408777e-9 2.838654635621493e-10 1.0416702556151922e-9 3.468434406708171e-9
          6.57217272161894e-11 1.1737644928470365e-10 4.1451134831470344e-11 3.640774578627253e-10 4.372473302348941e-10 8.152730912868099e-10
          3.9178441571401614e-10 3.057614140050499e-10 6.336268362815411e-10 3.7138417571839706e-10 1.608021675557991e-11 1.3798838157259323e-10
          9.097142367224799e-11 1.8357501915174846e-10 1.2107037307536153e-10 1.3685842994594718e-10 5.946954993827422e-11 7.845142429891104e-11
          2.9464368329382967e-10 1.943246066196172e-10 1.2514521511512685e-10 1.963825385791454e-9 1.3644569392658922e-9 7.904246371942959e-10
          1.1483253695487001e-9 2.829484975586376e-9 1.9833458940806783e-9 1.6004423582702488e-9 9.154717080675234e-10 5.271764170283323e-10
          1.3385849868622436e-9 5.938689071531649e-10 3.4096631781554655e-10 8.709285399044527e-10 7.431448308646616e-10 5.087889603460586e-10
          4.3270821010925736e-10 6.408917457839969e-10 2.712670073155775e-10 3.3966956423802216e-10 8.588340987789911e-10 4.433627268727078e-10
          3.3841988877360727e-10 2.1877302886234827e-10 4.574896767545444e-9 3.2585282196292157e-9 5.695117378972203e-9 4.10064477101589e-9
          3.5298669537458016e-9 1.966342746374321e-9 6.0942437587249065e-9 4.4070508367981435e-9 3.79581033090704e-9 2.107378140967637e-9
          2.2262225249075644e-9 2.8268292814191524e-9 1.4601405647518585e-9 1.866688461207677e-9 3.0493242220196137e-9 2.0195938976245933e-9
          1.0283789859630951e-9 5.204335262443684e-10 1.092512457577941e-9 5.492300686777653e-10 2.044730735342499e-10 1.2817000416383613e-10
          8.153620886910244e-11 1.3018234642257373e-10 3.612789042620206e-10 5.94329429607528e-11 1.674447088637799e-11 2.3118000286239242e-11
          1.586489648339945e-11 3.321925738434359e-11 4.1649272175580575e-11 2.3019411785664102e-11 4.495126613845536e-11 2.478289998520411e-11
          1.1020754775582652e-11 1.2145539032513975e-11 7.34332534967575e-12 1.3133240103264921e-11 9.183011942313597e-12 1.540061623045505e-10
          1.7855039918561012e-10 1.2010876470517462e-10 1.3188794393091625e-10 2.2488757124973576e-10 1.5592809309127207e-10 2.5935307470857547e-10
          1.734368122439313e-10 2.7202564298434927e-10 1.7868456146197638e-10
        </DataArray>
        <DataArray type="Float64" Name="gradient_matprop_error" format="ascii" RangeMin="0" RangeMax="0">
          0 0 0 0 0 0
          0 0 0 0 0 0
          0 0 0 0 0 0
          0 0 0 0 0 0
          0 0 0 0 0 0
          0 0 0 0 0 0
          0 0 0 0 0 0
          0 0 0 0 0 0
          0 0 0 0 0 0
          0 0 0 0 0 0
          0 0 0 0 0 0
          0 0 0 0 0 0
          0 0 0 0 0 0
          0 0 0 0 0 0
          0 0 0 0 0 0
          0 0 0 0 0 0
          0 0 0 0 0 0
          0 0 0 0 0 0
          0 0 0 0 0 0
          0 0 0 0 0 0
          0 0 0 0 0 0
          0 0 0 0 0 0
          0 0 0 0 0 0
          0 0 0 0 0 0
          0 0 0 0 0 0
          0 0 0 0 0 0
          0 0 0 0 0 0
          0 0 0 0 0 0
          0 0 0 0 0 0
          0 0 0 0 0 0
          0 0 0 0 0 0
          0 0 0 0 0 0
          0 0 0 0 0 0
          0 0 0 0 0 0
          0 0 0 0 0 0
          0 0 0 0 0 0
          0 0 0 0 0 0
          0 0 0 0 0 0
          0 0 0 0 0 0
          0 0 0 0 0 0
          0 0 0 0 0 0
          0 0 0 0 0 0
          0 0 0 0 0 0
          0 0 0 0 0 0
          0 0 0 0 0 0
          0 0 0 0 0 0
          0 0 0 0 0 0
          0 0 0 0 0 0
          0 0 0 0 0 0
          0 0 0 0 0 0
          0 0 0 0 0 0
          0 0 0 0 0 0
          0 0 0 0 0 0
          0 0 0 0 0 0
          0 0 0 0 0 0
          0 0 0 0 0 0
          0 0 0 0 0 0
          0 0 0 0 0 0
          0 0 0 0 0 0
          0 0 0 0 0 0
          0 0 0 0 0 0
          0 0 0 0 0 0
          0 0 0 0 0 0
          0 0 0 0 0 0
          0 0 0 0 0 0
          0 0 0 0 0 0
          0 0 0 0 0 0
          0 0 0 0 0 0
          0 0 0 0 0 0
          0 0 0 0 0 0
          0 0 0 0 0 0
          0 0 0 0 0 0
          0 0 0
        </DataArray>
        <DataArray type="Float64" Name="initial_marker" format="ascii" RangeMin="0" RangeMax="2">
          0 0 0 1.5 0 0
          0 0 0 0 0 0
          0.5 0 0.5 0 0 0
          0 0 0 0 0 0
          0 0 0 0 2 2
          1.75 1.25 2 2 2 0
          0.25 0 0 0 0 0
          1.75 1 0 0 0 0
          2 2 1 0.25 2 2
          1 0 0 0 0 0
          0 0 0 0 0 0
          0 0 0 0 0 0
          0 0 0 0 0 0
          0 0 0 0 0 0
          0 0 0 0 0 0
          0 0 0 0 0 0
          0 0 0 0 0 0
          0 0 0 0 0 0
          0 0 0 0 0 0
          0 0 0 1 2 2
          1.6666666666666667 2 2 2 2 2
          2 2 2 2 2 2
          2 2 2 2 2 2
          2 2 2 2 2 2
          2 2 2 2 2 1.75
          1.3333333333333333 2 2 2 1.5 1
          1 0.5 2 1.75 2 0
          0.5 0 0.5 0 0 0
          1.25 1 0.5 0.5 0.5 0
          0 1.5 0.6666666666666666 2 2 2
          2 2 2 2 2 2
          2 1.75 2 2 2 1.75
          1.5 1.5 1 2 2 2
          1 1.25 0.5 0.75 0 0.5
          0 1.75 1.25 1.5 2 2
          2 2 2 2 2 2
          2 2 2 2 2 2
          2 2 2 2 2 2
          2 2 1.5 2 1 2
          1.5 2 2 1.5 2 2
          0 0.5 0 0.5 0 0
          0 1 0.6666666666666666 0 2 2
          2 2 1 0.75 0 0
          1 1 0 0 0.25 0
          0 0 0 0 0.5 0
          0 0 0.5 0 1 1
          0 1 1 1 1 1
          0 0 0 1 1 0
          0 0 0 0 0 0
          0 0 0 0 0 0
          0 0 0 0 0 0
          0 0 0 0 0 0
          0 0 0 0 0.5 0
          0 0 0 0 0 0.25
          0 1.5 0.5 0 0.75 0
          0 0 0 0 0 0
          0 0 0 0 0 0
          0 0 0 0 0 0
          0 0 0 0 0 0.5
          0 1 0.5 0.5 0 0.5
          1.75 1.5 1.5 2 2 2
          2 2 2 2 2 2
          2 2 2 2 2 2
          2 2 1.3333333333333333 1.5 2 2
          2 2 2 2 2 2
          2 2 2 2 2 2
          2 2 2 2 2 2
          2 2 2 2 2 2
          1.5 1.5 2 1 1.3333333333333333 1.75
          1.3333333333333333 2 2 1.75 2 2
          1.3333333333333333 1.25 1 1.5 1 0
          0.5 0 0 1 0 1
          0 1 0
        </DataArray>
        <DataArray type="Float64" Name="markers_norefine" format="ascii" RangeMin="0" RangeMax="0">
          0 0 0 0 0 0
          0 0 0 0 0 0
          0 0 0 0 0 0
          0 0 0 0 0 0
          0 0 0 0 0 0
          0 0 0 0 0 0
          0 0 0 0 0 0
          0 0 0 0 0 0
          0 0 0 0 0 0
          0 0 0 0 0 0
          0 0 0 0 0 0
          0 0 0 0 0 0
          0 0 0 0 0 0
          0 0 0 0 0 0
          0 0 0 0 0 0
          0 0 0 0 0 0
          0 0 0 0 0 0
          0 0 0 0 0 0
          0 0 0 0 0 0
          0 0 0 0 0 0
          0 0 0 0 0 0
          0 0 0 0 0 0
          0 0 0 0 0 0
          0 0 0 0 0 0
          0 0 0 0 0 0
          0 0 0 0 0 0
          0 0 0 0 0 0
          0 0 0 0 0 0
          0 0 0 0 0 0
          0 0 0 0 0 0
          0 0 0 0 0 0
          0 0 0 0 0 0
          0 0 0 0 0 0
          0 0 0 0 0 0
          0 0 0 0 0 0
          0 0 0 0 0 0
          0 0 0 0 0 0
          0 0 0 0 0 0
          0 0 0 0 0 0
          0 0 0 0 0 0
          0 0 0 0 0 0
          0 0 0 0 0 0
          0 0 0 0 0 0
          0 0 0 0 0 0
          0 0 0 0 0 0
          0 0 0 0 0 0
          0 0 0 0 0 0
          0 0 0 0 0 0
          0 0 0 0 0 0
          0 0 0 0 0 0
          0 0 0 0 0 0
          0 0 0 0 0 0
          0 0 0 0 0 0
          0 0 0 0 0 0
          0 0 0 0 0 0
          0 0 0 0 0 0
          0 0 0 0 0 0
          0 0 0 0 0 0
          0 0 0 0 0 0
          0 0 0 0 0 0
          0 0 0 0 0 0
          0 0 0 0 0 0
          0 0 0 0 0 0
          0 0 0 0 0 0
          0 0 0 0 0 0
          0 0 0 0 0 0
          0 0 0 0 0 0
          0 0 0 0 0 0
          0 0 0 0 0 0
          0 0 0 0 0 0
          0 0 0 0 0 0
          0 0 0 0 0 0
          0 0 0
        </DataArray>
        <DataArray type="Float64" Name="markers_mustrefine" format="ascii" RangeMin="0" RangeMax="2">
          0 0 0 1.5 0 0
          0 0 0 0 0 0
          0.5 0 0.5 0 0 0
          0 0 0 0 0 0
          0 0 0 0 2 2
          1.75 1.25 2 2 2 0
          0.25 0 0 0 0 0
          1.75 1 0 0 0 0
          2 2 1 0.25 2 2
          1 0 0 0 0 0
          0 0 0 0 0 0
          0 0 0 0 0 0
          0 0 0 0 0 0
          0 0 0 0 0 0
          0 0 0 0 0 0
          0 0 0 0 0 0
          0 0 0 0 0 0
          0 0 0 0 0 0
          0 0 0 0 0 0
          0 0 0 1 2 2
          1.6666666666666667 2 2 2 2 2
          2 2 2 2 2 2
          2 2 2 2 2 2
          2 2 2 2 2 2
          2 2 2 2 2 1.75
          1.3333333333333333 2 2 2 1.5 1
          1 0.5 2 1.75 2 0
          0.5 0 0.5 0 0 0
          1.25 1 0.5 0.5 0.5 0
          0 1.5 0.6666666666666666 2 2 2
          2 2 2 2 2 2
          2 1.75 2 2 2 1.75
          1.5 1.5 1 2 2 2
          1 1.25 0.5 0.75 0 0.5
          0 1.75 1.25 1.5 2 2
          2 2 2 2 2 2
          2 2 2 2 2 2
          2 2 2 2 2 2
          2 2 1.5 2 1 2
          1.5 2 2 1.5 2 2
          0 0.5 0 0.5 0 0
          0 1 0.6666666666666666 0 2 2
          2 2 1 0.75 0 0
          1 1 0 0 0.25 0
          0 0 0 0 0.5 0
          0 0 0.5 0 1 1
          0 1 1 1 1 1
          0 0 0 1 1 0
          0 0 0 0 0 0
          0 0 0 0 0 0
          0 0 0 0 0 0
          0 0 0 0 0 0
          0 0 0 0 0.5 0
          0 0 0 0 0 0.25
          0 1.5 0.5 0 0.75 0
          0 0 0 0 0 0
          0 0 0 0 0 0
          0 0 0 0 0 0
          0 0 0 0 0 0.5
          0 1 0.5 0.5 0 0.5
          1.75 1.5 1.5 2 2 2
          2 2 2 2 2 2
          2 2 2 2 2 2
          2 2 1.3333333333333333 1.5 2 2
          2 2 2 2 2 2
          2 2 2 2 2 2
          2 2 2 2 2 2
          2 2 2 2 2 2
          1.5 1.5 2 1 1.3333333333333333 1.75
          1.3333333333333333 2 2 1.75 2 2
          1.3333333333333333 1.25 1 1.5 1 0
          0.5 0 0 1 0 1
          0 1 0
        </DataArray>
        <DataArray type="Float64" Name="gradient_marker" format="ascii" RangeMin="1" RangeMax="1">
          1 1 1 1 1 1
          1 1 1 1 1 1
          1 1 1 1 1 1
          1 1 1 1 1 1
          1 1 1 1 1 1
          1 1 1 1 1 1
          1 1 1 1 1 1
          1 1 1 1 1 1
          1 1 1 1 1 1
          1 1 1 1 1 1
          1 1 1 1 1 1
          1 1 1 1 1 1
          1 1 1 1 1 1
          1 1 1 1 1 1
          1 1 1 1 1 1
          1 1 1 1 1 1
          1 1 1 1 1 1
          1 1 1 1 1 1
          1 1 1 1 1 1
          1 1 1 1 1 1
          1 1 1 1 1 1
          1 1 1 1 1 1
          1 1 1 1 1 1
          1 1 1 1 1 1
          1 1 1 1 1 1
          1 1 1 1 1 1
          1 1 1 1 1 1
          1 1 1 1 1 1
          1 1 1 1 1 1
          1 1 1 1 1 1
          1 1 1 1 1 1
          1 1 1 1 1 1
          1 1 1 1 1 1
          1 1 1 1 1 1
          1 1 1 1 1 1
          1 1 1 1 1 1
          1 1 1 1 1 1
          1 1 1 1 1 1
          1 1 1 1 1 1
          1 1 1 1 1 1
          1 1 1 1 1 1
          1 1 1 1 1 1
          1 1 1 1 1 1
          1 1 1 1 1 1
          1 1 1 1 1 1
          1 1 1 1 1 1
          1 1 1 1 1 1
          1 1 1 1 1 1
          1 1 1 1 1 1
          1 1 1 1 1 1
          1 1 1 1 1 1
          1 1 1 1 1 1
          1 1 1 1 1 1
          1 1 1 1 1 1
          1 1 1 1 1 1
          1 1 1 1 1 1
          1 1 1 1 1 1
          1 1 1 1 1 1
          1 1 1 1 1 1
          1 1 1 1 1 1
          1 1 1 1 1 1
          1 1 1 1 1 1
          1 1 1 1 1 1
          1 1 1 1 1 1
          1 1 1 1 1 1
          1 1 1 1 1 1
          1 1 1 1 1 1
          1 1 1 1 1 1
          1 1 1 1 1 1
          1 1 1 1 1 1
          1 1 1 1 1 1
          1 1 1 1 1 1
          1 1 1
        </DataArray>
        <DataArray type="Float64" Name="gradient_matprop_marker" format="ascii" RangeMin="0" RangeMax="0">
          0 0 0 0 0 0
          0 0 0 0 0 0
          0 0 0 0 0 0
          0 0 0 0 0 0
          0 0 0 0 0 0
          0 0 0 0 0 0
          0 0 0 0 0 0
          0 0 0 0 0 0
          0 0 0 0 0 0
          0 0 0 0 0 0
          0 0 0 0 0 0
          0 0 0 0 0 0
          0 0 0 0 0 0
          0 0 0 0 0 0
          0 0 0 0 0 0
          0 0 0 0 0 0
          0 0 0 0 0 0
          0 0 0 0 0 0
          0 0 0 0 0 0
          0 0 0 0 0 0
          0 0 0 0 0 0
          0 0 0 0 0 0
          0 0 0 0 0 0
          0 0 0 0 0 0
          0 0 0 0 0 0
          0 0 0 0 0 0
          0 0 0 0 0 0
          0 0 0 0 0 0
          0 0 0 0 0 0
          0 0 0 0 0 0
          0 0 0 0 0 0
          0 0 0 0 0 0
          0 0 0 0 0 0
          0 0 0 0 0 0
          0 0 0 0 0 0
          0 0 0 0 0 0
          0 0 0 0 0 0
          0 0 0 0 0 0
          0 0 0 0 0 0
          0 0 0 0 0 0
          0 0 0 0 0 0
          0 0 0 0 0 0
          0 0 0 0 0 0
          0 0 0 0 0 0
          0 0 0 0 0 0
          0 0 0 0 0 0
          0 0 0 0 0 0
          0 0 0 0 0 0
          0 0 0 0 0 0
          0 0 0 0 0 0
          0 0 0 0 0 0
          0 0 0 0 0 0
          0 0 0 0 0 0
          0 0 0 0 0 0
          0 0 0 0 0 0
          0 0 0 0 0 0
          0 0 0 0 0 0
          0 0 0 0 0 0
          0 0 0 0 0 0
          0 0 0 0 0 0
          0 0 0 0 0 0
          0 0 0 0 0 0
          0 0 0 0 0 0
          0 0 0 0 0 0
          0 0 0 0 0 0
          0 0 0 0 0 0
          0 0 0 0 0 0
          0 0 0 0 0 0
          0 0 0 0 0 0
          0 0 0 0 0 0
          0 0 0 0 0 0
          0 0 0 0 0 0
          0 0 0
        </DataArray>
        <DataArray type="Float64" Name="combo" format="ascii" RangeMin="1" RangeMax="1">
          1 1 1 1 1 1
          1 1 1 1 1 1
          1 1 1 1 1 1
          1 1 1 1 1 1
          1 1 1 1 1 1
          1 1 1 1 1 1
          1 1 1 1 1 1
          1 1 1 1 1 1
          1 1 1 1 1 1
          1 1 1 1 1 1
          1 1 1 1 1 1
          1 1 1 1 1 1
          1 1 1 1 1 1
          1 1 1 1 1 1
          1 1 1 1 1 1
          1 1 1 1 1 1
          1 1 1 1 1 1
          1 1 1 1 1 1
          1 1 1 1 1 1
          1 1 1 1 1 1
          1 1 1 1 1 1
          1 1 1 1 1 1
          1 1 1 1 1 1
          1 1 1 1 1 1
          1 1 1 1 1 1
          1 1 1 1 1 1
          1 1 1 1 1 1
          1 1 1 1 1 1
          1 1 1 1 1 1
          1 1 1 1 1 1
          1 1 1 1 1 1
          1 1 1 1 1 1
          1 1 1 1 1 1
          1 1 1 1 1 1
          1 1 1 1 1 1
          1 1 1 1 1 1
          1 1 1 1 1 1
          1 1 1 1 1 1
          1 1 1 1 1 1
          1 1 1 1 1 1
          1 1 1 1 1 1
          1 1 1 1 1 1
          1 1 1 1 1 1
          1 1 1 1 1 1
          1 1 1 1 1 1
          1 1 1 1 1 1
          1 1 1 1 1 1
          1 1 1 1 1 1
          1 1 1 1 1 1
          1 1 1 1 1 1
          1 1 1 1 1 1
          1 1 1 1 1 1
          1 1 1 1 1 1
          1 1 1 1 1 1
          1 1 1 1 1 1
          1 1 1 1 1 1
          1 1 1 1 1 1
          1 1 1 1 1 1
          1 1 1 1 1 1
          1 1 1 1 1 1
          1 1 1 1 1 1
          1 1 1 1 1 1
          1 1 1 1 1 1
          1 1 1 1 1 1
          1 1 1 1 1 1
          1 1 1 1 1 1
          1 1 1 1 1 1
          1 1 1 1 1 1
          1 1 1 1 1 1
          1 1 1 1 1 1
          1 1 1 1 1 1
          1 1 1 1 1 1
          1 1 1
        </DataArray>
        <DataArray type="Float64" Name="dHdT" format="ascii" RangeMin="25.811871458670193" RangeMax="28.5980662779585">
          25.817836147529157 25.81413232981937 25.81658232077387 25.870992331062773 25.819375301324133 25.816178005503133
          25.818618469771472 25.82105893403982 25.813295874641167 25.813913328839863 25.81209348140128 25.81453078303856
          25.84220103771948 25.817057985186313 25.82103905167567 25.818191972763334 25.821869739302006 25.820497933610163
          25.82457312692819 25.813573684186476 25.812546094620846 25.811879743116435 25.8136900608192 25.814505112707614
          25.813751258253742 25.814591605440295 25.81518035786714 25.81506620714533 26.23219873526047 25.989157518892146
          25.928473300460173 25.860815242615054 26.3737302242499 26.050037872411572 25.959456658782504 25.821749248568135
          25.82442179883718 25.81612416310414 25.81729912723413 25.81803727105327 25.819404373591993 25.81633066869145
          25.84250698126936 25.822800461998703 25.824425023627644 25.813334318513682 25.81378367606672 25.814158626271453
          25.87834380252609 25.83420578517417 25.832222452463515 25.819596497191515 25.900632431406233 25.841384529199004
          25.83614690457012 25.814492247973718 25.814904276862613 25.85083148027474 25.82894405352979 25.83236199518559
          25.834518388539184 25.840730899131017 25.82588205819311 25.855486787002157 25.8326339232278 25.843743284062953
          25.827821731195563 25.832305259996037 25.819001815531497 25.814830471578436 25.816062077855698 25.817915527090506
          25.820731790459575 25.81550797889029 25.81296570148507 25.813223364414757 25.812403122347327 25.812487272454423
          25.81301423728334 25.81319987502778 25.81252822264042 25.829910288357993 25.82082701779715 25.823197357662295