<?xml version="1.0"?>
<VTKFile type="UnstructuredGrid" version="0.1" byte_order="LittleEndian" header_type="UInt32" compressor="vtkZLibDataCompressor">
  <UnstructuredGrid>
    <Piece NumberOfPoints="444" NumberOfCells="246">
      <PointData>
        <DataArray type="Int32" Name="libmesh_node_id" format="ascii" RangeMin="372" RangeMax="3883">
          372 481 489 937 938 944
          948 956 957 1770 1771 1772
          1773 1774 1775 1776 1777 1778
          1779 1780 1781 1782 1783 1794
          1796 1797 1798 1800 1814 1815
          1816 1817 1818 1819 1820 1821
          1822 1823 1838 1839 1840 1841
          1842 1843 1844 1845 1846 1847
          1848 1849 1850 1851 1852 1853
          1854 1855 1856 1857 1858 1859
          1860 1861 1862 1863 1864 1865
          1866 1867 1868 1869 1870 1871
          1974 1975 1976 1977 1978 1979
          1980 1981 1982 1983 1984 1985
          1986 1987 1998 1999 2000 2001
          2002 2003 2004 2005 2006 2007
          3440 3441 3442 3443 3444 3445
          3446 3447 3448 3449 3450 3451
          3452 3453 3454 3455 3456 3457
          3458 3459 3460 3461 3462 3463
          3464 3465 3466 3467 3468 3469
          3470 3471 3472 3473 3474 3475
          3476 3477 3478 3479 3480 3481
          3482 3483 3484 3485 3486 3487
          3488 3489 3490 3491 3492 3493
          3494 3495 3496 3497 3498 3499
          3500 3501 3502 3503 3504 3559
          3560 3561 3562 3563 3564 3565
          3637 3638 3639 3640 3641 3642
          3643 3644 3645 3646 3647 3648
          3649 3650 3651 3652 3653 3654
          3655 3656 3657 3658 3659 3660
          3661 3662 3664 3665 3666 3667
          3668 3669 3670 3671 3672 3673
          3674 3675 3676 3677 3678 3679
          3680 3681 3682 3683 3684 3685
          3686 3687 3688 3689 3690 3691
          3692 3694 3695 3696 3698 3699
          3700 3701 3702 3703 3704 3768
          3769 3770 3771 3772 3773 3774
          3775 3776 3777 3795 3796 3797
          3798 3799 3800 3801 3809 3810
          3811 3812 3813 3814 3815 3816
          3817 3818 3819 3820 3821 3822
          3823 3824 3825 3826 3827 3828
          3829 3830 3831 3832 3833 3834
          3835 3836 3837 3838 3839 3840
          3841 3842 3843 3844 3845 3846
          3847 3848 3849 3850 3851 3852
          3853 3854 3855 3856 3857 3858
          3859 3860 3861 3862 3863 3864
          3865 3866 3867 3868 3869 3870
          3871 3872 3873 3874 3875 3876
          3877 3878 3879 3880 3881 3882
          3883 946 484 950 947 951
          952 949 936 953 482 954
          941 955 958 491 959 1200
          479 1204 1201 1202 1205 1206
          1203 1209 1208 933 939 1212
          1213 1786 1765 1795 1787 1799
          1790 1802 1801 1803 1832 1834
          1836 490 1928 1929 1936 1937
          1992 1993 1994 1997 932 1760
          3376 3377 3378 3381 1761 3384
          1762 3398 3399 3402 3404 3418
          3419 3421 934 3424 1768 3434
          3436 3438 935 3523 3533 3535
          3566 3537 3567 3568 1792 3581
          3582 3584 1806 3587 1807 3597
          3599 3601 3663 1809 3615 3616
          3618 942 3621 1812 3631 3693
          3633 3635 3697 943 3761 3713
          3762 3765 3717 3766 3764 1831
          3789 3788 3793 3792 3791 1835
        </DataArray>
        <DataArray type="Float64" Name="bounds" format="ascii" RangeMin="0" RangeMax="0">
          0 0 0 0 0 0
          0 0 0 0 0 0
          0 0 0 0 0 0
          0 0 0 0 0 0
          0 0 0 0 0 0
          0 0 0 0 0 0
          0 0 0 0 0 0
          0 0 0 0 0 0
          0 0 0 0 0 0
          0 0 0 0 0 0
          0 0 0 0 0 0
          0 0 0 0 0 0
          0 0 0 0 0 0
          0 0 0 0 0 0
          0 0 0 0 0 0
          0 0 0 0 0 0
          0 0 0 0 0 0
          0 0 0 0 0 0
          0 0 0 0 0 0
          0 0 0 0 0 0
          0 0 0 0 0 0
          0 0 0 0 0 0
          0 0 0 0 0 0
          0 0 0 0 0 0
          0 0 0 0 0 0
          0 0 0 0 0 0
          0 0 0 0 0 0
          0 0 0 0 0 0
          0 0 0 0 0 0
          0 0 0 0 0 0
          0 0 0 0 0 0
          0 0 0 0 0 0
          0 0 0 0 0 0
          0 0 0 0 0 0
          0 0 0 0 0 0
          0 0 0 0 0 0
          0 0 0 0 0 0
          0 0 0 0 0 0
          0 0 0 0 0 0
          0 0 0 0 0 0
          0 0 0 0 0 0
          0 0 0 0 0 0
          0 0 0 0 0 0
          0 0 0 0 0 0
          0 0 0 0 0 0
          0 0 0 0 0 0
          0 0 0 0 0 0
          0 0 0 0 0 0
          0 0 0 0 0 0
          0 0 0 0 0 0
          0 0 0 0 0 0
          0 0 0 0 0 0
          0 0 0 0 0 0
          0 0 0 0 0 0
          0 0 0 0 0 0
          0 0 0 0 0 0
          0 0 0 0 0 0
          0 0 0 0 0 0
          0 0 0 0 0 0
          0 0 0 0 0 0
          0 0 0 0 0 0
          0 0 0 0 0 0
          0 0 0 0 0 0
          0 0 0 0 0 0
          0 0 0 0 0 0
          0 0 0 0 0 0
          0 0 0 0 0 0
          0 0 0 0 0 0
          0 0 0 0 0 0
          0 0 0 0 0 0
          0 0 0 0 0 0
          0 0 0 0 0 0
          0 0 0 0 0 0
          0 0 0 0 0 0
        </DataArray>
        <DataArray type="Float64" Name="gradient_error" format="ascii" RangeMin="4.866330086743657e-13" RangeMax="2.9696585203591117e-9">
          7.912571298653374e-13 1.0108150262642274e-11 9.26711596324198e-11 2.3013383723390013e-11 1.8723734873727104e-11 2.796246018642446e-11
          6.063124761440542e-12 2.2532177506339405e-12 7.066842565188196e-12 1.2187900975820652e-11 1.0191454127070473e-11 2.7936134932018424e-11
          2.1742204084872443e-11 9.961966837969041e-12 1.1178694586751196e-11 1.1205887354129678e-11 1.2456780481948976e-11 1.883687216474077e-11
          1.5572688878446506e-11 1.4631726113205378e-10 1.077289957068015e-10 1.8555673671207257e-11 4.6307058612643224e-11 1.4515773096480981e-11
          6.55759148129841e-12 1.629434604975309e-11 7.979069586495606e-12 7.974125287636425e-12 4.36214863692571e-10 3.262883037821137e-10
          6.658389317221377e-11 4.9800269322246223e-11 1.239386083493035e-10 2.1583862774035542e-11 6.038605921526356e-10 4.6473855402633383e-10
          7.0530984552248e-11 1.7696321206414485e-10 3.849727029715258e-12 3.6044881279809257e-12 3.1396432278861794e-12 5.142771623833153e-12
          1.7687442624651942e-12 2.5258788909896503e-12 2.736723034108955e-12 3.3592492262465933e-12 7.0755257541670954e-12 2.9475671772282595e-12
          6.531052551258121e-12 7.441356213364028e-12 5.553784814185702e-12 9.776663054291337e-12 1.0685557759451536e-11 9.745571057007206e-12
          5.082575062738249e-12 5.960347338264477e-12 8.56945586414665e-12 6.090753830660988e-12 1.1417317967588027e-11 1.1465639129996288e-11
          5.501568559422275e-12 7.720782362554086e-12 8.907576241496803e-12 7.025321476056666e-12 3.386593525393056e-12 3.5077680882257668e-12
          4.797804350373281e-12 5.785826705654509e-12 2.4837955097260763e-12 5.093301998795304e-12 3.628942651058478e-12 6.7738490609357366e-12
          1.4009584824175322e-12 1.283211411375289e-12 1.5534747363167304e-12 1.4450812588905966e-12 7.054728500903025e-13 7.086448309740413e-13
          7.454480493608863e-13 1.1654643403330458e-12 1.3366877814644629e-12 7.822512677477313e-13 1.7059909902159286e-12 1.6069511064059043e-12
          7.8542324863147e-13 1.50791122259588e-12 2.352107510199445e-12 2.3009631127211457e-12 5.147195048329979e-12 4.5967275659808606e-12
          1.7101272526750334e-12 1.8268099801886975e-12 1.8971182178775263e-12 2.2498187152428464e-12 4.0462600836317406e-12 1.967426455566355e-12
          8.011262943815281e-12 7.566990730062515e-12 1.6072453264049503e-11 1.5119800120952514e-11 5.456235585290095e-12 1.0081532688119838e-11
          9.50324197380504e-12 6.441396675145051e-12 1.2656375938142817e-11 7.981063392694571e-12 5.158190950588457e-11 4.812913644797906e-11
          2.6358977572481802e-11 3.917534606742986e-11 5.251407865078054e-12 9.429254177322329e-12 3.710160962390487e-12 6.0906581280542945e-12
          4.742740896175756e-12 7.712903456214549e-12 5.1441407302096905e-12 2.784582145099014e-11 1.5508494029960782e-11 2.1022603011499984e-11
          1.4496299272874483e-10 1.3450523723436952e-10 6.319674313768247e-11 5.87114972242452e-11 1.0737938323982028e-10 4.709027460755041e-11
          3.4078265905716573e-10 3.156636745267287e-10 1.3563734737255572e-10 2.498273347965892e-10 1.4411687646524556e-11 1.3539373537115363e-11
          2.598221589990684e-11 2.4172332495088154e-11 5.483129467469272e-12 1.0209726210345175e-11 9.46353859614052e-12 1.1162838823339929e-11
          1.9476801143302833e-11 8.949912992162892e-12 5.948611580233797e-11 5.5228926027132913e-11 2.1271586028472842e-11 4.4119035087426894e-11
          7.405000529713089e-11 3.26055008910379e-11 4.4353637378546367e-11 2.325912967798687e-11 1.6854860732434792e-10 7.320931719571773e-11
          9.759413961565417e-11 8.17860039611675e-12 1.3558623571704717e-11 4.954686882255416e-12 7.907353848745643e-12 6.698582573259809e-12
          1.0526093947073238e-11 6.399670684874336e-12 3.016126982165034e-11 1.4365451050435186e-11 2.078944473127293e-11 1.4781303465745177e-11
          2.3691365519256216e-11 9.723508931726368e-12 1.4886461339650966e-11 1.0529426211378638e-11 1.6064182136035162e-11 1.0508941400907163e-11
          6.554497238246669e-10 6.089091915620228e-10 2.8013704486418356e-10 2.6010840701083897e-10 4.832414781182358e-10 2.0658081790858353e-10
          1.0171146278299195e-9 9.519602164007058e-10 4.0722313072377337e-10 7.654301946633565e-10 1.1280573377340191e-10 1.0481801484388851e-10
          4.3045046591180884e-11 4.001969129204417e-11 8.355864961699392e-11 3.2007532050458655e-11 1.7542643310172485e-10 1.635541083909027e-10
          6.206587974390881e-11 1.309709335654376e-10 3.230598325647864e-10 1.3904387461136818e-10 1.827786406822966e-10 7.956618636777983e-11
          5.132733082574789e-10 2.1935958568807408e-10 5.6851037713727596e-11 2.197052856791001e-11 3.287782107508054e-11 1.5541528947512032e-11
          8.876805025430755e-11 3.4018773372099145e-11 5.090117251215928e-11 1.29335373949863e-9 1.2214989975300549e-9 5.586900375614245e-10
          5.25169311702547e-10 9.985409074795458e-10 4.2603158482325824e-10 1.3927081629024272e-9 1.3209934074139099e-9 5.694941335050412e-10
          1.0883291418215934e-9 2.2538761283035404e-10 2.1125106924985203e-10 8.552306537808232e-11 8.006210631229705e-11 1.7076697363957155e-10
          6.471693051275888e-11 2.441143395526754e-10 2.2937739080447088e-10 8.693261138873088e-11 1.862620726706677e-10 6.756121669703239e-10
          2.8799974278128497e-10 1.6188793104163936e-10 7.397156360884149e-10 3.1513326740171637e-10 1.1592793043680143e-10 4.4250271468601175e-11
          6.606625799738589e-11 2.55199311098246e-11 1.2663794289643497e-10 4.828588716078922e-11 7.207844868414822e-11 1.2406488417004027e-11
          1.6639490993978668e-11 7.506051617648644e-12 9.659932075367523e-12 8.557054080938794e-12 1.0938411945638693e-11 6.535935363819264e-12
          2.5235479169578174e-11 1.1633639719696172e-11 1.5944630372658158e-11 3.2399989939102414e-11 1.2698003427931802e-11 2.0103903147242868e-11
          8.023973794410742e-12 3.5201515110001794e-11 1.3852453542862543e-11 2.163831535950801e-11 2.2096967833642903e-12 2.2797791852113796e-12
          3.845410387400957e-12 3.663129586955207e-12 1.4141584013673348e-12 2.042103058347412e-12 2.1561118533671114e-12 2.349861587058469e-12
          3.4808487865094566e-12 2.2701206483868104e-12 8.519209678326652e-12 7.862400591438657e-12 4.3027217837428426e-12 7.169215155042377e-12
          1.5672657448072576e-11 1.4549539931641271e-11 8.176480591441009e-12 7.612127236590827e-12 1.1621586985256655e-11 6.098976045428851e-12
          2.4020135669131457e-11 2.2412492147164208e-11 9.009162336336254e-12 1.8049431281341787e-11 5.796426718518068e-12 7.941845924416796e-12
          3.1740085443040118e-12 4.2406453161286146e-12 4.496390981010323e-12 6.066940293530247e-12 3.3311124231401738e-12 1.2344903805916942e-11
          6.493807705466495e-12 8.220673815530941e-12 3.073080633172145e-11 2.8816793440165623e-11 1.0438355997973365e-11 9.681411780391632e-12
          2.3365304327152956e-11 9.368608282648882e-12 3.320936085610946e-11 3.1229361255107094e-11 1.060751816181031e-11 2.5427015322552293e-11
          3.11011969262932e-12 2.836469655187597e-12 3.461683738730897e-12 3.178836846384337e-12 1.870315982601697e-12 1.8577081509334635e-12
          1.8910714692250474e-12 2.5628196177458748e-12 2.8959899540377768e-12 1.9244347875166317e-12 3.813247784832474e-12 3.5212040375810765e-12
          1.911826955848398e-12 3.229160290329679e-12 1.609365424725091e-11 8.426794126313482e-12 9.445216278225981e-12 5.152972978921528e-12
          1.7584766012983466e-11 9.173254929647194e-12 1.0378166636180636e-11 4.56781112439111e-12 4.90967657712284e-12 2.9261432076400656e-12
          2.8736296841952244e-12 3.2651881508839248e-12 3.288400986599428e-12 2.0380119408475103e-12 5.251542029854568e-12 2.8211161607503836e-12
          3.311613822314931e-12 3.145317717802864e-12 2.246350324049671e-12 1.994745468386585e-12 5.851057241792865e-12 1.8235580762281254e-12
          2.2272796959428108e-12 7.2479398406379664e-12 1.0540092421381824e-11 6.966937080138172e-12 1.6394138938976158e-11 7.741195537793734e-12
          1.7989844507458376e-11 2.4462875137941356e-12 2.169942017915113e-12 3.1333004209451193e-12 6.230734226558142e-12 3.188948022165529e-11
          2.3599781664294976e-11 6.742268301429526e-12 2.5968346870812642e-11 1.7974351848834354e-11 5.657212706004393e-12 6.867935438879679e-12
          1.693612529653573e-11 8.57253844970097e-12 2.4762775489192155e-11 1.7987051020926465e-11 3.0243552004404497e-11 2.2192792605707008e-12
          2.160095828859126e-12 2.1211473959458655e-11 3.9943125472748164e-11 2.0596927710773985e-11 2.5448987178563624e-11 1.855134676155529e-11
          2.9025834913532476e-11 1.9435401924293856e-11 2.4285062448280126e-11 2.1541916417383322e-11 1.8197852448589714e-11 1.9346092962523096e-11
          2.0085755758649918e-11 2.152641432106942e-11 4.906490583311518e-13 4.866330086743657e-13 5.487447795419162e-13 5.492118109514135e-13
          4.184196706133996e-12 1.8321785760634847e-11 1.6103270302290016e-11 1.3422953092174625e-11 2.3877602511733707e-11 2.0116167994296472e-11
          1.4319956419879948e-11 3.387481771976545e-11 3.1816896032513424e-11 2.6479475282625097e-11 1.1059201234753059e-10 1.0307086603073393e-10
          8.351130949778243e-11 9.775648034789875e-12 1.9545857677915867e-11 1.4968851692383806e-11 5.908756515857051e-11 3.149538881479912e-10
          2.9198301224788826e-10 2.323543809208712e-10 7.483107488956027e-10 6.931604624242432e-10 5.478906947622705e-10 1.5914724478415724e-10
          9.49034480976339e-11 3.671992408564675e-10 2.1052983559534322e-10 2.530595076406823e-11 5.046672365847692e-11 2.9095493925604482e-11
          4.9803577504530907e-11 1.0648555390668319e-10 2.6443916162445037e-11 2.7368440166266776e-11 5.286188245933783e-11 1.4370517259835732e-9
          1.3372678984086613e-9 1.0637506385655407e-9 2.208568527689651e-9 2.0757138449225417e-9 1.6815500310762964e-9 7.093797916714292e-10
          3.9762297327120543e-10 1.1307021243534809e-9 2.8678995814599514e-10 6.280971554306075e-10 2.7740055457501154e-9 2.638095376939079e-9
          2.1842886634240587e-9 2.9696585203591117e-9 2.8401160640813668e-9 2.3756322536233467e-9 1.4882431133498931e-9 3.762946431721955e-10
          8.261733038244144e-10 1.628878506194963e-9 4.11893275433655e-10 9.049839552117544e-10 9.033964197277705e-11 1.9335873471932313e-10
          3.9977409522367204e-11 1.3829711380212713e-10 2.977324751347303e-10 6.097669932551809e-11 2.197539746277738e-11 3.46788557491486e-11
          7.857619993881537e-11 1.790396539484956e-10 8.551265290144922e-11 1.9515863680199652e-10 4.112865399027753e-11 4.639814408595585e-11
        </DataArray>
        <DataArray type="Float64" Name="gradient_matprop_error" format="ascii" RangeMin="0" RangeMax="0">
          0 0 0 0 0 0
          0 0 0 0 0 0
          0 0 0 0 0 0
          0 0 0 0 0 0
          0 0 0 0 0 0
          0 0 0 0 0 0
          0 0 0 0 0 0
          0 0 0 0 0 0
          0 0 0 0 0 0
          0 0 0 0 0 0
          0 0 0 0 0 0
          0 0 0 0 0 0
          0 0 0 0 0 0
          0 0 0 0 0 0
          0 0 0 0 0 0
          0 0 0 0 0 0
          0 0 0 0 0 0
          0 0 0 0 0 0
          0 0 0 0 0 0
          0 0 0 0 0 0
          0 0 0 0 0 0
          0 0 0 0 0 0
          0 0 0 0 0 0
          0 0 0 0 0 0
          0 0 0 0 0 0
          0 0 0 0 0 0
          0 0 0 0 0 0
          0 0 0 0 0 0
          0 0 0 0 0 0
          0 0 0 0 0 0
          0 0 0 0 0 0
          0 0 0 0 0 0
          0 0 0 0 0 0
          0 0 0 0 0 0
          0 0 0 0 0 0
          0 0 0 0 0 0
          0 0 0 0 0 0
          0 0 0 0 0 0
          0 0 0 0 0 0
          0 0 0 0 0 0
          0 0 0 0 0 0
          0 0 0 0 0 0
          0 0 0 0 0 0
          0 0 0 0 0 0
          0 0 0 0 0 0
          0 0 0 0 0 0
          0 0 0 0 0 0
          0 0 0 0 0 0
          0 0 0 0 0 0
          0 0 0 0 0 0
          0 0 0 0 0 0
          0 0 0 0 0 0
          0 0 0 0 0 0
          0 0 0 0 0 0
          0 0 0 0 0 0
          0 0 0 0 0 0
          0 0 0 0 0 0
          0 0 0 0 0 0
          0 0 0 0 0 0
          0 0 0 0 0 0
          0 0 0 0 0 0
          0 0 0 0 0 0
          0 0 0 0 0 0
          0 0 0 0 0 0
          0 0 0 0 0 0
          0 0 0 0 0 0
          0 0 0 0 0 0
          0 0 0 0 0 0
          0 0 0 0 0 0
          0 0 0 0 0 0
          0 0 0 0 0 0
          0 0 0 0 0 0
          0 0 0 0 0 0
          0 0 0 0 0 0
        </DataArray>
        <DataArray type="Float64" Name="initial_marker" format="ascii" RangeMin="0" RangeMax="2">
          0 0 2 2 0.25 2
          0 0 0 0 0 1.5
          1.25 0 0 0 0 0.25
          0 2 2 1.75 1.75 0
          0 0 0 0 2 2
          2 2 2 1.75 2 2
          2 2 0 0 0 0
          0 0 0 0 0 0
          0.5 0 0 0 1.5 1
          0 0 0 0 2 1.5
          0 0.5 0 0 0 0
          0 0 0 0 0 0
          0 0 0 0 0 0
          0 0 0 0 0 0
          0 0 0 0 0 0
          0 0 0 0 0 0
          0 0 1 1 0 1
          1 0 0.75 0.5 2 2
          2 1.75 0 0.25 0 0
          0 0 0 1.25 1 1
          2 2 2 2 2 2
          2 2 2 2 1 1
          1.5 1.5 0 1 1 1
          1.5 1 2 2 2 2
          2 1.75 1.75 1.3333333333333333 2 2
          2 0.5 1 0 0.5 0
          0.5 0 1.75 1.3333333333333333 1.3333333333333333 0.5
          1 0 0.5 0 0.5 0
          2 2 2 2 2 2
          2 2 2 2 2 2
          2 2 2 2 2 2
          2 2 2 2 2 2
          2 2 2 1.75 1.75 1.3333333333333333
          2 2 2 2 2 2
          2 2 2 2 2 2
          2 2 2 2 2 2
          2 2 2 2 2 2
          2 2 2 2 2 2
          2 2 2 2 2 0.5
          1 0 0.5 0 0.5 0
          1.5 1 1 1.5 1 1
          0 1.5 1 1 0 0
          0.5 0.5 0 0 0 0
          0.5 0 1.5 1.25 0.5 1
          2 1.75 2 1.5 1.5 1
          2 2 1.6666666666666667 2 0.5 1
          0 0.5 0 0.5 0 1.5
          1 1 2 2 2 1.75
          2 1.6666666666666667 2 2 2 2
          1 0.5 1 0.75 0 0
          0 0 0.5 0 1 1
          0 1 1.75 1.5 1.25 0.5
          2 2 1.5 0.5 0.5 0
          0 0 0 0 0.5 0
          0 0 0 0 0 0
          0 0 0 0 0 0
          0 0 0 0 0 0
          0 0 0 0 0 0
          0 0 0 0 0 0
          0 0 1.25 0 0 0
          0 0 0.25 0 0 0
          0 0 0 0 0 0
          0 0 0 0 0 0
          0 1 1 1 2 2
          2 0 0.75 0.3333333333333333 1.75 2
          2 2 2 2 2 2
          2 2 2 0.6666666666666666 1.5 0.6666666666666666
          1.75 2 1.3333333333333333 1 1.25 2
          2 2 2 2 2 2
          2 2 2 2 2 2
          2 2 2 2 2 2
          2 2 2 2 2 2
          1.75 2 2 2 1 1.25
          2 2 2 2 2 1.5
        </DataArray>
        <DataArray type="Float64" Name="markers_norefine" format="ascii" RangeMin="0" RangeMax="0">
          0 0 0 0 0 0
          0 0 0 0 0 0
          0 0 0 0 0 0
          0 0 0 0 0 0
          0 0 0 0 0 0
          0 0 0 0 0 0
          0 0 0 0 0 0
          0 0 0 0 0 0
          0 0 0 0 0 0
          0 0 0 0 0 0
          0 0 0 0 0 0
          0 0 0 0 0 0
          0 0 0 0 0 0
          0 0 0 0 0 0
          0 0 0 0 0 0
          0 0 0 0 0 0
          0 0 0 0 0 0
          0 0 0 0 0 0
          0 0 0 0 0 0
          0 0 0 0 0 0
          0 0 0 0 0 0
          0 0 0 0 0 0
          0 0 0 0 0 0
          0 0 0 0 0 0
          0 0 0 0 0 0
          0 0 0 0 0 0
          0 0 0 0 0 0
          0 0 0 0 0 0
          0 0 0 0 0 0
          0 0 0 0 0 0
          0 0 0 0 0 0
          0 0 0 0 0 0
          0 0 0 0 0 0
          0 0 0 0 0 0
          0 0 0 0 0 0
          0 0 0 0 0 0
          0 0 0 0 0 0
          0 0 0 0 0 0
          0 0 0 0 0 0
          0 0 0 0 0 0
          0 0 0 0 0 0
          0 0 0 0 0 0
          0 0 0 0 0 0
          0 0 0 0 0 0
          0 0 0 0 0 0
          0 0 0 0 0 0
          0 0 0 0 0 0
          0 0 0 0 0 0
          0 0 0 0 0 0
          0 0 0 0 0 0
          0 0 0 0 0 0
          0 0 0 0 0 0
          0 0 0 0 0 0
          0 0 0 0 0 0
          0 0 0 0 0 0
          0 0 0 0 0 0
          0 0 0 0 0 0
          0 0 0 0 0 0
          0 0 0 0 0 0
          0 0 0 0 0 0
          0 0 0 0 0 0
          0 0 0 0 0 0
          0 0 0 0 0 0
          0 0 0 0 0 0
          0 0 0 0 0 0
          0 0 0 0 0 0
          0 0 0 0 0 0
          0 0 0 0 0 0
          0 0 0 0 0 0
          0 0 0 0 0 0
          0 0 0 0 0 0
          0 0 0 0 0 0
          0 0 0 0 0 0
          0 0 0 0 0 0
        </DataArray>
        <DataArray type="Float64" Name="markers_mustrefine" format="ascii" RangeMin="0" RangeMax="2">
          0 0 2 2 0.25 2
          0 0 0 0 0 1.5
          1.25 0 0 0 0 0.25
          0 2 2 1.75 1.75 0
          0 0 0 0 2 2
          2 2 2 1.75 2 2
          2 2 0 0 0 0
          0 0 0 0 0 0
          0.5 0 0 0 1.5 1
          0 0 0 0 2 1.5
          0 0.5 0 0 0 0
          0 0 0 0 0 0
          0 0 0 0 0 0
          0 0 0 0 0 0
          0 0 0 0 0 0
          0 0 0 0 0 0
          0 0 1 1 0 1
          1 0 0.75 0.5 2 2
          2 1.75 0 0.25 0 0
          0 0 0 1.25 1 1
          2 2 2 2 2 2
          2 2 2 2 1 1
          1.5 1.5 0 1 1 1
          1.5 1 2 2 2 2
          2 1.75 1.75 1.3333333333333333 2 2
          2 0.5 1 0 0.5 0
          0.5 0 1.75 1.3333333333333333 1.3333333333333333 0.5
          1 0 0.5 0 0.5 0
          2 2 2 2 2 2
          2 2 2 2 2 2
          2 2 2 2 2 2
          2 2 2 2 2 2
          2 2 2 1.75 1.75 1.3333333333333333
          2 2 2 2 2 2
          2 2 2 2 2 2
          2 2 2 2 2 2
          2 2 2 2 2 2
          2 2 2 2 2 2
          2 2 2 2 2 0.5
          1 0 0.5 0 0.5 0
          1.5 1 1 1.5 1 1
          0 1.5 1 1 0 0
          0.5 0.5 0 0 0 0
          0.5 0 1.5 1.25 0.5 1
          2 1.75 2 1.5 1.5 1
          2 2 1.6666666666666667 2 0.5 1
          0 0.5 0 0.5 0 1.5
          1 1 2 2 2 1.75
          2 1.6666666666666667 2 2 2 2
          1 0.5 1 0.75 0 0
          0 0 0.5 0 1 1
          0 1 1.75 1.5 1.25 0.5
          2 2 1.5 0.5 0.5 0
          0 0 0 0 0.5 0
          0 0 0 0 0 0
          0 0 0 0 0 0
          0 0 0 0 0 0
          0 0 0 0 0 0
          0 0 0 0 0 0
          0 0 1.25 0 0 0
          0 0 0.25 0 0 0
          0 0 0 0 0 0
          0 0 0 0 0 0
          0 1 1 1 2 2
          2 0 0.75 0.3333333333333333 1.75 2
          2 2 2 2 2 2
          2 2 2 0.6666666666666666 1.5 0.6666666666666666
          1.75 2 1.3333333333333333 1 1.25 2
          2 2 2 2 2 2
          2 2 2 2 2 2
          2 2 2 2 2 2
          2 2 2 2 2 2
          1.75 2 2 2 1 1.25
          2 2 2 2 2 1.5
        </DataArray>
        <DataArray type="Float64" Name="gradient_marker" format="ascii" RangeMin="1" RangeMax="1">
          1 1 1 1 1 1
          1 1 1 1 1 1
          1 1 1 1 1 1
          1 1 1 1 1 1
          1 1 1 1 1 1
          1 1 1 1 1 1
          1 1 1 1 1 1
          1 1 1 1 1 1
          1 1 1 1 1 1
          1 1 1 1 1 1
          1 1 1 1 1 1
          1 1 1 1 1 1
          1 1 1 1 1 1
          1 1 1 1 1 1
          1 1 1 1 1 1
          1 1 1 1 1 1
          1 1 1 1 1 1
          1 1 1 1 1 1
          1 1 1 1 1 1
          1 1 1 1 1 1
          1 1 1 1 1 1
          1 1 1 1 1 1
          1 1 1 1 1 1
          1 1 1 1 1 1
          1 1 1 1 1 1
          1 1 1 1 1 1
          1 1 1 1 1 1
          1 1 1 1 1 1
          1 1 1 1 1 1
          1 1 1 1 1 1
          1 1 1 1 1 1
          1 1 1 1 1 1
          1 1 1 1 1 1
          1 1 1 1 1 1
          1 1 1 1 1 1
          1 1 1 1 1 1
          1 1 1 1 1 1
          1 1 1 1 1 1
          1 1 1 1 1 1
          1 1 1 1 1 1
          1 1 1 1 1 1
          1 1 1 1 1 1
          1 1 1 1 1 1
          1 1 1 1 1 1
          1 1 1 1 1 1
          1 1 1 1 1 1
          1 1 1 1 1 1
          1 1 1 1 1 1
          1 1 1 1 1 1
          1 1 1 1 1 1
          1 1 1 1 1 1
          1 1 1 1 1 1
          1 1 1 1 1 1
          1 1 1 1 1 1
          1 1 1 1 1 1
          1 1 1 1 1 1
          1 1 1 1 1 1
          1 1 1 1 1 1
          1 1 1 1 1 1
          1 1 1 1 1 1
          1 1 1 1 1 1
          1 1 1 1 1 1
          1 1 1 1 1 1
          1 1 1 1 1 1
          1 1 1 1 1 1
          1 1 1 1 1 1
          1 1 1 1 1 1
          1 1 1 1 1 1
          1 1 1 1 1 1
          1 1 1 1 1 1
          1 1 1 1 1 1
          1 1 1 1 1 1
          1 1 1 1 1 1
          1 1 1 1 1 1
        </DataArray>
        <DataArray type="Float64" Name="gradient_matprop_marker" format="ascii" RangeMin="0" RangeMax="0">
          0 0 0 0 0 0
          0 0 0 0 0 0
          0 0 0 0 0 0
          0 0 0 0 0 0
          0 0 0 0 0 0
          0 0 0 0 0 0
          0 0 0 0 0 0
          0 0 0 0 0 0
          0 0 0 0 0 0
          0 0 0 0 0 0
          0 0 0 0 0 0
          0 0 0 0 0 0
          0 0 0 0 0 0
          0 0 0 0 0 0
          0 0 0 0 0 0
          0 0 0 0 0 0
          0 0 0 0 0 0
          0 0 0 0 0 0
          0 0 0 0 0 0
          0 0 0 0 0 0
          0 0 0 0 0 0
          0 0 0 0 0 0
          0 0 0 0 0 0
          0 0 0 0 0 0
          0 0 0 0 0 0
          0 0 0 0 0 0
          0 0 0 0 0 0
          0 0 0 0 0 0
          0 0 0 0 0 0
          0 0 0 0 0 0
          0 0 0 0 0 0
          0 0 0 0 0 0
          0 0 0 0 0 0
          0 0 0 0 0 0
          0 0 0 0 0 0
          0 0 0 0 0 0
          0 0 0 0 0 0
          0 0 0 0 0 0
          0 0 0 0 0 0
          0 0 0 0 0 0
          0 0 0 0 0 0
          0 0 0 0 0 0
          0 0 0 0 0 0
          0 0 0 0 0 0
          0 0 0 0 0 0
          0 0 0 0 0 0
          0 0 0 0 0 0
          0 0 0 0 0 0
          0 0 0 0 0 0
          0 0 0 0 0 0
          0 0 0 0 0 0
          0 0 0 0 0 0
          0 0 0 0 0 0
          0 0 0 0 0 0
          0 0 0 0 0 0
          0 0 0 0 0 0
          0 0 0 0 0 0
          0 0 0 0 0 0
          0 0 0 0 0 0
          0 0 0 0 0 0
          0 0 0 0 0 0
          0 0 0 0 0 0
          0 0 0 0 0 0
          0 0 0 0 0 0
          0 0 0 0 0 0
          0 0 0 0 0 0
          0 0 0 0 0 0
          0 0 0 0 0 0
          0 0 0 0 0 0
          0 0 0 0 0 0
          0 0 0 0 0 0
          0 0 0 0 0 0
          0 0 0 0 0 0
          0 0 0 0 0 0
        </DataArray>
        <DataArray type="Float64" Name="combo" format="ascii" RangeMin="1" RangeMax="1">
          1 1 1 1 1 1
          1 1 1 1 1 1
          1 1 1 1 1 1
          1 1 1 1 1 1
          1 1 1 1 1 1
          1 1 1 1 1 1
          1 1 1 1 1 1
          1 1 1 1 1 1
          1 1 1 1 1 1
          1 1 1 1 1 1
          1 1 1 1 1 1
          1 1 1 1 1 1
          1 1 1 1 1 1
          1 1 1 1 1 1
          1 1 1 1 1 1
          1 1 1 1 1 1
          1 1 1 1 1 1
          1 1 1 1 1 1
          1 1 1 1 1 1
          1 1 1 1 1 1
          1 1 1 1 1 1
          1 1 1 1 1 1
          1 1 1 1 1 1
          1 1 1 1 1 1
          1 1 1 1 1 1
          1 1 1 1 1 1
          1 1 1 1 1 1
          1 1 1 1 1 1
          1 1 1 1 1 1
          1 1 1 1 1 1
          1 1 1 1 1 1
          1 1 1 1 1 1
          1 1 1 1 1 1
          1 1 1 1 1 1
          1 1 1 1 1 1
          1 1 1 1 1 1
          1 1 1 1 1 1
          1 1 1 1 1 1
          1 1 1 1 1 1
          1 1 1 1 1 1
          1 1 1 1 1 1
          1 1 1 1 1 1
          1 1 1 1 1 1
          1 1 1 1 1 1
          1 1 1 1 1 1
          1 1 1 1 1 1
          1 1 1 1 1 1
          1 1 1 1 1 1
          1 1 1 1 1 1
          1 1 1 1 1 1
          1 1 1 1 1 1
          1 1 1 1 1 1
          1 1 1 1 1 1
          1 1 1 1 1 1
          1 1 1 1 1 1
          1 1 1 1 1 1
          1 1 1 1 1 1
          1 1 1 1 1 1
          1 1 1 1 1 1
          1 1 1 1 1 1
          1 1 1 1 1 1
          1 1 1 1 1 1
          1 1 1 1 1 1
          1 1 1 1 1 1
          1 1 1 1 1 1
          1 1 1 1 1 1
          1 1 1 1 1 1
          1 1 1 1 1 1
          1 1 1 1 1 1
          1 1 1 1 1 1
          1 1 1 1 1 1
          1 1 1 1 1 1
          1 1 1 1 1 1
          1 1 1 1 1 1
        </DataArray>
        <DataArray type="Float64" Name="dHdT" format="ascii" RangeMin="25.81143462460695" RangeMax="26.566035437953886">
          25.81147986617158 25.81170705098048 25.830924169500953 25.81534128572604 25.812615867108736 25.816030047832722
          25.81162767722609 25.811702955497054 25.811652697254978 25.811984541859346 25.81190426167532 25.814934295341324
          25.81410212718422 25.811739304199147 25.812192077372345 25.812067667977374 25.811887594842915 25.812769086856818
          25.811986291291436 25.836387525198397 25.828902428342506 25.814225419710287 25.817871622253357 25.811899243148286
          25.81170561691167 25.811930858200395 25.811778380273353 25.811771458854903 25.900376978832668 25.870931255970838
          25.824269386899825 25.82029436304431 25.831025248559385 25.814611430298434 25.949399328352502 25.902418907236047
          25.824655113483594 25.84009860005733 25.81158410572216 25.81157854456586 25.81162753551034 25.811654476903346
          25.811524432877277 25.811561914537748 25.81156446409466 25.811572983409555 25.811680580188895 25.81156701365157