<?xml version="1.0"?>
<VTKFile type="UnstructuredGrid" version="0.1" byte_order="LittleEndian" header_type="UInt32" compressor="vtkZLibDataCompressor">
  <UnstructuredGrid>
    <Piece NumberOfPoints="462" NumberOfCells="246">
      <PointData>
        <DataArray type="Int32" Name="libmesh_node_id" format="ascii" RangeMin="243" RangeMax="2556">
          339 346 442 443 449 451
          452 453 454 458 459 461
          462 464 583 584 585 586
          590 591 603 604 607 608
          610 612 747 748 749 753
          757 777 786 787 791 794
          796 797 798 799 800 801
          802 803 804 805 806 807
          808 809 810 811 817 824
          825 826 827 828 829 830
          831 832 833 844 845 846
          847 848 849 850 851 852
          853 858 859 863 1262 1318
          1319 1321 1338 1339 1342 1380
          1381 1382 1383 1384 1385 1386
          1387 1391 1396 1397 1398 1399
          1400 1401 1402 1403 1404 1405
          1406 1407 1408 1409 1410 1411
          1412 1413 1414 1415 1416 1417
          1418 1419 1420 1421 1422 1423
          1424 1425 1426 1427 1428 1429
          1430 1431 1432 1433 1434 1435
          1436 1437 1438 1439 1440 1441
          1442 1443 1444 1445 1446 1447
          1448 1449 1450 1451 1452 1453
          1454 1455 1456 1457 1458 1459
          1460 1461 1462 1463 1464 1465
          1466 1467 1468 1469 1490 1494
          2204 2206 2207 2208 2209 2211
          2213 2214 2215 2216 2217 2218
          2219 2220 2221 2222 2223 2224
          2225 2226 2227 2228 2229 2232
          2233 2235 2238 2240 2241 2242
          2243 2244 2245 2246 2247 2248
          2249 2251 2253 2255 2257 2258
          2259 2260 2261 2262 2263 2266
          2267 2269 2272 2274 2275 2276
          2277 2278 2279 2280 2281 2282
          2283 2285 2287 2289 2291 2292
          2293 2294 2295 2296 2297 2298
          2299 2300 2301 2302 2303 2304
          2305 2306 2307 2308 2309 2310
          2311 2312 2313 2314 2315 2316
          2317 2318 2319 2320 2321 2322
          2323 2324 2325 2326 2327 2328
          2329 2330 2331 2332 2333 2334
          2335 2336 2337 2338 2339 2340
          2341 2342 2343 2344 2345 2346
          2347 2348 2349 2350 2351 2352
          2353 2354 2355 2356 2357 2358
          2359 2360 2361 2362 2363 2364
          2365 2366 2367 2368 2369 2370
          2371 2372 2373 2374 2375 2376
          2377 2378 2379 2380 2381 2383
          2388 2390 2408 2409 2412 2414
          2415 2417 2428 2430 2432 2434
          2442 2443 2446 2448 2449 2451
          2462 2464 2466 2468 2544 2546
          2550 2552 2554 2556 338 349
          355 244 340 351 356 343
          441 446 455 457 460 501
          509 510 502 243 348 546
          536 289 361 552 543 562
          563 564 587 588 589 568
          592 350 573 574 605 606
          578 609 581 359 611 812
          813 814 815 816 818 819
          820 821 823 854 838 855
          856 857 860 843 861 862
          1388 1389 1470 1471 1474 1390
          1473 1475 1476 1477 1479 1491
          1492 1493 1495 1496 1497 1499
          1514 1530 1532 1534 1536 2382
          2410 2411 2413 1510 2416 1511
          2389 2429 2431 2433 2444 2445
          2447 1516 2450 1517 2463 2465
          2467 1519 2545 2551 2553 2555
        </DataArray>
        <DataArray type="Float64" Name="bounds" format="ascii" RangeMin="0" RangeMax="0">
          0 0 0 0 0 0
          0 0 0 0 0 0
          0 0 0 0 0 0
          0 0 0 0 0 0
          0 0 0 0 0 0
          0 0 0 0 0 0
          0 0 0 0 0 0
          0 0 0 0 0 0
          0 0 0 0 0 0
          0 0 0 0 0 0
          0 0 0 0 0 0
          0 0 0 0 0 0
          0 0 0 0 0 0
          0 0 0 0 0 0
          0 0 0 0 0 0
          0 0 0 0 0 0
          0 0 0 0 0 0
          0 0 0 0 0 0
          0 0 0 0 0 0
          0 0 0 0 0 0
          0 0 0 0 0 0
          0 0 0 0 0 0
          0 0 0 0 0 0
          0 0 0 0 0 0
          0 0 0 0 0 0
          0 0 0 0 0 0
          0 0 0 0 0 0
          0 0 0 0 0 0
          0 0 0 0 0 0
          0 0 0 0 0 0
          0 0 0 0 0 0
          0 0 0 0 0 0
          0 0 0 0 0 0
          0 0 0 0 0 0
          0 0 0 0 0 0
          0 0 0 0 0 0
          0 0 0 0 0 0
          0 0 0 0 0 0
          0 0 0 0 0 0
          0 0 0 0 0 0
          0 0 0 0 0 0
          0 0 0 0 0 0
          0 0 0 0 0 0
          0 0 0 0 0 0
          0 0 0 0 0 0
          0 0 0 0 0 0
          0 0 0 0 0 0
          0 0 0 0 0 0
          0 0 0 0 0 0
          0 0 0 0 0 0
          0 0 0 0 0 0
          0 0 0 0 0 0
          0 0 0 0 0 0
          0 0 0 0 0 0
          0 0 0 0 0 0
          0 0 0 0 0 0
          0 0 0 0 0 0
          0 0 0 0 0 0
          0 0 0 0 0 0
          0 0 0 0 0 0
          0 0 0 0 0 0
          0 0 0 0 0 0
          0 0 0 0 0 0
          0 0 0 0 0 0
          0 0 0 0 0 0
          0 0 0 0 0 0
          0 0 0 0 0 0
          0 0 0 0 0 0
          0 0 0 0 0 0
          0 0 0 0 0 0
          0 0 0 0 0 0
          0 0 0 0 0 0
          0 0 0 0 0 0
          0 0 0 0 0 0
          0 0 0 0 0 0
          0 0 0 0 0 0
          0 0 0 0 0 0
        </DataArray>
        <DataArray type="Float64" Name="gradient_error" format="ascii" RangeMin="4.250680764270136e-10" RangeMax="4.200840977773659e-7">
          2.9540159027020963e-8 1.078648333068675e-7 2.4317080477965585e-7 2.594145186009008e-7 4.1739638441337434e-7 1.5251407311388432e-8
          6.481089321634968e-8 2.045104222287412e-7 1.783279145381015e-7 7.159904058678212e-8 6.550094617274496e-8 6.138323588137633e-9
          4.080454998336988e-7 4.7301835984501504e-8 4.633775830149507e-9 4.389778688571043e-9 1.4245407380835001e-8 1.3962440061943626e-8
          4.145781546992578e-9 1.3679472743052253e-8 1.1819228703363339e-9 6.6596173911895324e-9 1.1296140090455364e-9 1.4541719944904845e-9
          1.2137311912042729e-8 1.7787299799354326e-9 3.126456280797067e-8 1.8910059436896073e-7 1.6275570776232012e-7 1.3641082115567958e-7
          2.0036410520224684e-7 3.2673796776868304e-7 2.4014027531025115e-7 3.2666782564409994e-7 1.2478408510739124e-7 4.131953759779488e-7
          9.566854043361435e-9 2.0585554027239484e-8 1.641813664326545e-7 1.3959463562079704e-7 1.423470979820768e-8 1.3546949371162308e-7
          1.1302109575412806e-7 3.160425401111753e-8 1.1500790480893955e-7 9.057269779663304e-8 2.2830473991866106e-7 1.8436758646588504e-7
          1.6089529575915804e-7 2.0633054957246783e-7 7.373861533263507e-9 1.0769933824860922e-8 1.416600611645834e-8 1.0289854291298275e-7
          1.3661964282909897e-7 1.2087347802230686e-7 1.5686627384842135e-7 3.188639203810616e-7 2.9778533452440475e-7 3.794935258121036e-9
          1.0320497661691937e-7 2.204779748738463e-8 4.200840977773659e-7 2.1035465843065123e-7 2.977907535998851e-7 1.7372156174900058e-7
          2.575458327391198e-7 7.199049780792834e-8 9.16891503489738e-8 6.001585557522415e-8 3.85226848769119e-7 3.41370103729239e-7
          1.1138780289001925e-7 2.846197380136995e-8 3.381691931757407e-8 3.9171864833778196e-8 1.220027630441854e-7 1.4395141706456712e-7
          1.402109876390322e-7 1.2750588231105818e-7 8.6509006363789e-8 1.0496647122754245e-7 9.13917360464658e-8 1.3301290976046527e-7
          1.2642057099855035e-7 1.3036228913638565e-7 1.0862699450195194e-7 1.418974804026563e-7 1.3349025052991881e-7 1.3531625353573578e-7
          1.1071789445183354e-7 1.0752703752100931e-7 1.5253319955161714e-7 1.4804267508662821e-7 1.6175240524178512e-7 1.563913448510118e-7
          1.3304786220419946e-7 1.386790239045035e-7 9.565791395963798e-8 9.509039864265658e-8 1.0223478964729661e-7 1.2781351203412178e-7
          1.71791006524431e-7 1.652880307550746e-7 1.8254379887964115e-7 1.746055533723797e-7 1.4422777419198636e-7 1.4944904242404915e-7
          1.112031893629217e-7 1.1040289742478424e-7 1.1970464345420408e-7 1.4624911520659475e-7 8.590602391788461e-8 1.0695497858139103e-7
          8.460660411735109e-8 1.0851273660950192e-7 7.438629106850078e-8 9.136638337602242e-8 9.069770987023526e-8 1.4542369001147256e-7
          1.529459979135499e-7 1.2949495427315304e-7 8.244581639208507e-8 1.0944042870951431e-7 7.909116758642108e-8 1.0938912164248795e-7
          6.853886453768438e-8 8.92103640207741e-8 8.654746630199591e-8 1.6060819388653493e-7 1.6819903123596098e-7 1.3768121282489648e-7
          7.2067999908796476e-9 1.192499785107402e-8 7.802699301423587e-9 1.20798906563678e-8 9.736010036156018e-8 1.0516215419089236e-7
          2.9079137220775966e-9 5.913399506822458e-9 7.07372370510383e-9 9.585672533122607e-8 9.222978066659816e-9 1.2982005943176052e-8
          1.1454556398937278e-8 1.4799233439300166e-8 9.014499282790905e-8 7.42470391756816e-8 4.8302487359179e-9 8.778185021299898e-9
          1.1025827958325625e-8 6.428107391388925e-8 1.6779373501817118e-7 1.796388204715834e-7 1.6036171054948528e-7 1.6961956152298207e-7
          1.7274402325829474e-7 1.858045142177197e-7 1.7007998823620854e-7 1.6883714401817016e-7 1.5716742709283622e-7 1.792141538026542e-7
          1.8873717296182735e-7 1.5302789027655817e-7 1.1773988468001214e-7 1.9294774545937928e-7 7.429180922978536e-8 5.838854911163715e-8
          1.9526116309411305e-8 1.9702084874457433e-8 2.0065229614253938e-8 2.0571777681189004e-8 2.1282667368329007e-8 2.1257634904579145e-8
          2.218364855586091e-8 2.3138317137536072e-8 2.2230336729114257e-8 2.0451844022549757e-8 2.105695686925291e-8 2.1501454061342246e-8
          2.2868427192278187e-8 2.096331639783269e-8 2.1928679850608403e-8 2.2478408841135377e-8 2.4587967935287938e-8 2.417187295080804e-8
          2.5298963655703235e-8 2.4268961233015774e-8 2.6517685730747773e-8 2.7843994042247154e-8 2.6753478894303793e-8 1.455200740083696e-8
          1.545412929942387e-8 1.7848644978103198e-8 8.362182252352981e-9 1.4679581887915699e-8 1.5613581055028328e-8 1.4880156075691064e-8
          1.5842315294785857e-8 1.81797875968529e-8 1.8569328912805384e-8 7.428291826392103e-9 8.516753596446864e-9 8.844901136366842e-9
          1.1913315504006296e-8 2.023769623848362e-8 2.113435371877162e-8 1.6913436212292497e-8 2.093144219522359e-8 2.1666699890289912e-8
          2.205088941888234e-8 2.2999216468849706e-8 1.7153445398405726e-8 1.746945365151275e-8 2.008547515530048e-8 3.739918739334943e-9
          4.501071678365665e-9 7.291061681685586e-9 3.659921141461801e-9 4.269517873564761e-9 5.054003913908181e-9 4.872949033677938e-9
          5.701857949484094e-9 7.574165508327171e-9 8.07201296059197e-9 3.3395309957192765e-9 4.2364331307253515e-9 4.82676653461721e-9
          6.398607834018543e-9 1.3234623134815974e-8 1.7149347523657164e-8 1.1860131417435049e-8 1.3255882247844522e-8 1.3419931155992547e-8
          1.72019234332863e-8 1.72266032560914e-8 1.1884109533463859e-8 1.2096037652003346e-8 1.6104338664622058e-8 1.52095602209507e-8
          1.6177700882832356e-8 1.5717331622253912e-8 1.6661095985378372e-8 1.9053974265856115e-8 1.9638771924527457e-8 8.395178078384109e-9
          9.363295788948957e-9 1.010233778166464e-8 1.242862120487193e-8 1.6400709335034167e-8 1.7312227473222183e-8 1.7297121895998378e-8
          1.817637933057977e-8 2.033292788593919e-8 2.1197357540637598e-8 1.025519546325109e-8 1.1070417609973475e-8 1.2247530383890329e-8
          1.3763473547995629e-8 2.247869634434177e-8 2.3370610144284267e-8 2.399528570168533e-8 2.506853678801646e-8 1.7912597190984238e-8
          1.845954166487686e-8 2.1299365471738418e-8 2.43580213263625e-8 2.5471230038699745e-8 2.6273932492256826e-8 2.7603381761285458e-8
          1.9119832557680065e-8 2.000408516715467e-8 2.4132377242854112e-8 5.5551053452718005e-9 6.439111789211842e-9 6.2816938521837e-9
          7.256409110300217e-9 8.746219819341218e-9 9.59231846396758e-9 4.287130953127022e-9 5.450076896937569e-9 6.128880566685659e-9
          7.87471856837262e-9 7.057389376566021e-9 8.163145210182982e-9 7.920091802419757e-9 9.178267174674503e-9 1.063236527233521e-8
          1.1872006727517638e-8 5.442490098865514e-9 6.881230296254974e-9 7.7358234015925e-9 9.815671285269612e-9 1.3770741169136732e-8
          1.425010577587119e-8 1.737216093274291e-8 2.0521900120234604e-8 1.250180769418049e-8 1.3023384854853963e-8 1.586720109236386e-8
          1.4853704218985456e-8 1.5767669429765168e-8 2.234436408349656e-8 2.3174934388811158e-8 1.3666100244588015e-8 1.4625634560373334e-8
          2.1387355347816877e-8 2.66662037340877e-8 2.757711750265363e-8 2.923535379380383e-8 2.7953818828874412e-8 2.6811119559455034e-8
          2.7149936742654177e-8 2.695603538482237e-8 2.755788966892639e-8 2.9013641292371473e-8 2.8138630107960096e-8 2.9905181758544934e-8
          2.753866183519915e-8 2.879192879093912e-8 2.832344138704578e-8 2.2210442129492452e-8 2.3313267362581023e-8 2.6570279497242534e-8
          2.9306029915681587e-8 2.988759343254769e-8 1.846183433061124e-8 1.930451591479209e-8 2.2292831943620523e-8 1.2794207229458936e-8
          1.360760133063582e-8 1.6112273560928018e-8 2.6730075302513118e-8 2.9021684216758125e-8 2.1138165861084274e-8 2.6363688303200314e-8
          8.906035780639152e-9 1.0322195252542831e-8 1.3317385620275217e-8 6.936883634090459e-9 8.724952310817178e-9 1.2425608508692915e-8
          1.7069720326894006e-8 2.4304030160034064e-8 1.6017229620964123e-8 2.3140415365751944e-8 3.075997471706692e-8 3.137444458878332e-8
          3.0444373369856335e-8 3.152371055732862e-8 3.012877202264575e-8 3.167297652587393e-8 4.093572331294525e-9 1.8599802720216813e-9
          1.7619713690894116e-9 2.3445690313373864e-9 9.947476683868723e-8 2.2076329260793743e-8 1.3477142781983615e-9 2.5282358551647977e-9
          1.1764512418206102e-7 1.2898078502270913e-7 2.5496651941845657e-8 8.685863606364083e-8 2.4349982350000063e-8 1.574331225295449e-9
          7.227940201330032e-10 7.300733748310711e-10 1.4082259618503927e-9 4.9192469598663715e-9 1.5663436107261353e-9 4.683266095016785e-10
          1.073240980108849e-9 4.150331326247277e-9 5.861549265360239e-10 5.044203834428845e-10 1.4840364856685761e-9 7.177825967822387e-9
          2.3443627880390046e-8 2.321691996439089e-8 1.7723052867716724e-9 5.979888359998799e-9 5.690808648321364e-9 2.2990212048391738e-8
          5.401728936643929e-9 8.21682975682841e-9 2.9754668602034223e-9 1.905040223592482e-8 8.918003432594129e-10 2.2107714484722858e-9
          3.8086385050285295e-9 4.250680764270136e-10 3.512533761164622e-8 1.2047648823986711e-8 3.529742553685158e-9 1.0267957770727769e-7
          8.378939487738358e-8 7.3367187041472845e-9 6.781131382786662e-8 5.4349054196034324e-8 6.489921204748948e-8 4.0886794564202023e-8
          1.7077925236572364e-7 1.2980938896381886e-7 1.3412910084267074e-7 1.3177334442230763e-7 2.5871971751972206e-7 2.0554877358799715e-7
          8.885536660300133e-8 1.4572478754285167e-7 1.614739849678526e-8 3.7311084566823597e-7 2.7932420275368667e-7 2.0259420848270203e-7
          1.4566338047406774e-7 1.3526119308407638e-7 1.9372275162373737e-7 1.8406403554340334e-7 1.5393562893181923e-7 1.3237046202383677e-7
          1.9311088410440472e-7 1.5702843859156328e-7 1.3261012139699146e-7 1.3034312203021238e-7 1.6859552011029355e-7 1.0793077321674461e-7
          6.80611501520956e-8 1.0473433057813044e-7 8.239560803292005e-8 7.66767908812516e-8 1.754860497326043e-7 1.416422884738778e-7
          8.124159484741363e-8 1.6735221497255848e-7 1.9716167636637798e-7 1.2551110588360068e-7 2.174414427392033e-7 2.4483848321384438e-8
          1.989696124235826e-8 2.0721178683548393e-8 2.3638657964712072e-8 1.4291839166417891e-8 1.5178048159287144e-8 1.7709515843324775e-8
          3.0939990359827525e-8 2.8175005327563973e-8 3.061809085044233e-8 2.253001612984599e-8 1.004927706385255e-8 1.1639291826762639e-8
          1.499943084664558e-8 7.870678259009869e-9 9.880996380663336e-9 1.4037779878371306e-8 1.873534638174875e-8 2.5638148705839022e-8
          1.782068079910594e-8 2.448719321879203e-8 3.239787101891052e-8 3.197344528990427e-8 3.3371730828009556e-8 3.154901956089802e-8
        </DataArray>
        <DataArray type="Float64" Name="gradient_matprop_error" format="ascii" RangeMin="0" RangeMax="0">
          0 0 0 0 0 0
          0 0 0 0 0 0
          0 0 0 0 0 0
          0 0 0 0 0 0
          0 0 0 0 0 0
          0 0 0 0 0 0
          0 0 0 0 0 0
          0 0 0 0 0 0
          0 0 0 0 0 0
          0 0 0 0 0 0
          0 0 0 0 0 0
          0 0 0 0 0 0
          0 0 0 0 0 0
          0 0 0 0 0 0
          0 0 0 0 0 0
          0 0 0 0 0 0
          0 0 0 0 0 0
          0 0 0 0 0 0
          0 0 0 0 0 0
          0 0 0 0 0 0
          0 0 0 0 0 0
          0 0 0 0 0 0
          0 0 0 0 0 0
          0 0 0 0 0 0
          0 0 0 0 0 0
          0 0 0 0 0 0
          0 0 0 0 0 0
          0 0 0 0 0 0
          0 0 0 0 0 0
          0 0 0 0 0 0
          0 0 0 0 0 0
          0 0 0 0 0 0
          0 0 0 0 0 0
          0 0 0 0 0 0
          0 0 0 0 0 0
          0 0 0 0 0 0
          0 0 0 0 0 0
          0 0 0 0 0 0
          0 0 0 0 0 0
          0 0 0 0 0 0
          0 0 0 0 0 0
          0 0 0 0 0 0
          0 0 0 0 0 0
          0 0 0 0 0 0
          0 0 0 0 0 0
          0 0 0 0 0 0
          0 0 0 0 0 0
          0 0 0 0 0 0
          0 0 0 0 0 0
          0 0 0 0 0 0
          0 0 0 0 0 0
          0 0 0 0 0 0
          0 0 0 0 0 0
          0 0 0 0 0 0
          0 0 0 0 0 0
          0 0 0 0 0 0
          0 0 0 0 0 0
          0 0 0 0 0 0
          0 0 0 0 0 0
          0 0 0 0 0 0
          0 0 0 0 0 0
          0 0 0 0 0 0
          0 0 0 0 0 0
          0 0 0 0 0 0
          0 0 0 0 0 0
          0 0 0 0 0 0
          0 0 0 0 0 0
          0 0 0 0 0 0
          0 0 0 0 0 0
          0 0 0 0 0 0
          0 0 0 0 0 0
          0 0 0 0 0 0
          0 0 0 0 0 0
          0 0 0 0 0 0
          0 0 0 0 0 0
          0 0 0 0 0 0
          0 0 0 0 0 0
        </DataArray>
        <DataArray type="Float64" Name="initial_marker" format="ascii" RangeMin="0" RangeMax="2">
          0 0 2 0 2 0
          0 2 0 0 0 2
          2 0 0 0 0 0
          0 0 0 0 0 0
          0 0 0 1 0.5 0
          1.5 1.5 0 0.5 0 1
          0 0 1 0.5 0 1
          0.5 0 0 0 2 1.5
          1.5 0 0 0 0 2
          2 2 2 1.5 1.5 2
          2 2 2 0 0.5 0
          0.5 0 0 0 1 1
          0 0 0 0 2 2
          2 2 1 1.5 1 2
          2 2 2 2 2 2
          2 2 2 2 2 2
          2 2 2 2 2 2
          2 2 2 2 2 2
          2 2 2 2 1 1.5
          1 1.5 0 1 1 2
          2 2 1 1.5 1 1.5
          0 1 1 2 2 2
          2 2 2 2 2 2
          2 2 2 2 2 2
          2 2 2 2 2 2
          2 2 2 2 2 2
          2 2 2 2 2 2
          2 2 2 2 1 0
          2 2 2 2 2 2
          2 2 2 2 2 2
          2 2 2 2 2 2
          2 2 2 2 2 2
          2 2 2 2 2 2
          2 2 2 2 2 2
          2 2 2 2 2 2
          2 2 2 2 2 2
          2 2 2 2 2 2
          2 2 2 2 2 2
          2 2 2 2 2 2
          2 2 2 2 2 2
          2 2 2 2 2 2
          2 2 2 2 2 2
          2 2 2 2 2 2
          2 2 2 2 2 2
          2 2 2 2 2 2
          2 2 2 2 2 2
          2 2 2 2 2 2
          2 2 2 2 2 2
          2 2 2 2 2 2
          2 2 2 2 2 2
          2 2 2 2 2 2
          2 2 2 2 2 2
          2 2 2 2 2 2
          2 2 2 2 2 2
          2 2 2 2 2 2
          2 2 2 2 2 2
          2 2 2 2 2 2
          2 2 2 2 2 2
          2 2 2 2 0 0
          0 0 0 0 0 0
          0 0 0 0 0 0
          0 0 0 0 0 0
          0 0 0 0 0 0
          0 0 0 0 0 0
          0 0 0 0 0 0
          0 0 0 0 0 1
          0.5 0 1 0.5 0 0
          2 1.5 0 0 1.5 0.5
          0 0.5 0 2 1 1
          2 2 2 2 2 2
          2 2 2 2 2 1.5
          1 1.5 1 1 2 2
          2 2 2 2 2 2
          2 2 2 2 2 2
          2 2 2 2 2 2
          2 2 2 2 2 2
          2 2 2 2 2 2
        </DataArray>
        <DataArray type="Float64" Name="markers_norefine" format="ascii" RangeMin="0" RangeMax="2">
          0 0 0 0 0 0
          0 0 0 0 0 2
          0 0 0 0 0 0
          0 0 0 0 0 0
          0 0 0 0 0 0
          0 0 0 0 0 0
          0 0 0 0 0 0
          0 0 0 0 0 0
          0 0 0 0 0 1
          0 1 0 0 0 2
          1 2 0 0 0 0
          0 0 0 0 0 0
          0 0 0 0 0 0
          0 0 0 0 0 0
          0 0 0 0 0 0
          0 0 0 0 0 0
          0 0 0 0 0 0
          0 0 0 0 0 0
          1 0.5 0.75 0 0 0
          0 0 0 0 0 0
          0 0 0 0 0 0
          0 0 0 0 0 0
          2 2 2 2 0.5 0.5
          2 2 2 1 2 2
          2 2 0.75 1 2 2
          2 1 0 0 0 0
          0 0 0 0 0 0
          0 0 0 0 0 0
          0 1 0.5 1 0 0
          0 0 0 2 1.5 2
          0.5 2 2 2 1 0
          0 0 0 0.5 0 1
          1 1 2 1.5 1.25 2
          1.5 1 1 2 2 2
          2 0.5 0 1.5 0.5 0.5
          0 0 1.5 1.5 1 2
          2 2 2 2 2 2
          2 2 2 2 2 2
          2 2 2 2 2 2
          2 2 2 2 2 2
          1.75 2 2 1.25 1.5 2
          2 2 2 2 2 2
          2 1.5 1.75 2 2 2
          2 0.5 0.75 0 0.5 1.5
          1.75 1 1 1.25 1 1
          2 2 1.3333333333333333 2 2 2
          2 2 2 2 2 2
          2 2 2 2 2 2
          2 2 2 2 2 2
          2 2 1.3333333333333333 2 2 2
          2 2 1.25 1.5 2 2
          1.5 0 0 0 0 0
          0 0 0.25 0.5 0 0
          0.5 1 0 2 2 2
          1 0 2 2 2 2
          2 2 1.5 1 2 1.6666666666666667
          2 2 2 2 2 2
          2 1.75 2 2 0.5 0
          0.75 0 1 0 0 0
          0 0 0 0 0 0
          0 0 0 0 0 0
          0 0 0 0 0 0
          0 0 0 0 0 0
          0 0 0 0 0 0
          0 0 0 0 0 0
          0 0 0 0 0 0
          0 0 0 0 0 0
          0 0 0 0 0 0
          0 0 0 0 0 0
          0 0 0 0 0 0
          0 0 1 1 0 0
          0 0 0 0 0 0
          1.5 0 0 0 0 2
          2 2 2 2 2 2
          1 1.5 1 2 2 2
          2 2 2 2 2 2
          2 2 1 1 0 1
        </DataArray>
        <DataArray type="Float64" Name="markers_mustrefine" format="ascii" RangeMin="0" RangeMax="2">
          0 0 2 0 2 0
          0 2 0 0 0 2
          2 0 0 0 0 0
          0 0 0 0 0 0
          0 0 0 1 0.5 0
          1.5 1.5 0 0.5 0 1
          0 0 1 0.5 0 1
          0.5 0 0 0 2 1.5
          1.5 0 0 0 0 2
          2 2 2 1.5 1.5 2
          2 2 2 0 0.5 0
          0.5 0 0 0 1 1
          0 0 0 0 2 2
          2 2 1 1.5 1 2
          2 2 2 2 2 2
          2 2 2 2 2 2
          2 2 2 2 2 2
          2 2 2 2 2 2
          2 2 2 2 1 1.5
          1 1.5 0 1 1 2
          2 2 1 1.5 1 1.5
          0 1 1 2 2 2
          2 2 2 2 2 2
          2 2 2 2 2 2
          2 2 2 2 2 2
          2 2 2 2 2 2
          2 2 2 2 2 2
          2 2 2 2 1 0
          2 2 2 2 2 2
          2 2 2 2 2 2
          2 2 2 2 2 2
          2 2 2 2 2 2
          2 2 2 2 2 2
          2 2 2 2 2 2
          2 2 2 2 2 2
          2 2 2 2 2 2
          2 2 2 2 2 2
          2 2 2 2 2 2
          2 2 2 2 2 2
          2 2 2 2 2 2
          2 2 2 2 2 2
          2 2 2 2 2 2
          2 2 2 2 2 2
          2 2 2 2 2 2
          2 2 2 2 2 2
          2 2 2 2 2 2
          2 2 2 2 2 2
          2 2 2 2 2 2
          2 2 2 2 2 2
          2 2 2 2 2 2
          2 2 2 2 2 2
          2 2 2 2 2 2
          2 2 2 2 2 2
          2 2 2 2 2 2
          2 2 2 2 2 2
          2 2 2 2 2 2
          2 2 2 2 2 2
          2 2 2 2 2 2
          2 2 2 2 0 0
          0 0 0 0 0 0
          0 0 0 0 0 0
          0 0 0 0 0 0
          0 0 0 0 0 0
          0 0 0 0 0 0
          0 0 0 0 0 0
          0 0 0 0 0 1
          0.5 0 1 0.5 0 0
          2 1.5 0 0 1.5 0.5
          0 0.5 0 2 1 1
          2 2 2 2 2 2
          2 2 2 2 2 1.5
          1 1.5 1 1 2 2
          2 2 2 2 2 2
          2 2 2 2 2 2
          2 2 2 2 2 2
          2 2 2 2 2 2
          2 2 2 2 2 2
        </DataArray>
        <DataArray type="Float64" Name="gradient_marker" format="ascii" RangeMin="0" RangeMax="1">
          0.5 1 1 0.75 1 0.5
          0.75 1 0.75 1 0.75 0
          1 0.5 1 1 1 1
          1 1 1 1 1 1
          1 1 0 0.5 0.5 0.5
          0.5 0.75 0.5 0.75 0.5 1
          0 0 0.5 0.5 0 0.5
          0.5 0 0.5 0.5 1 0.625
          0.75 0.6666666666666666 0 0 0 0.5
          0.75 0.5 0.75 0.75 0.75 0
          0.5 0 1 0.5 0.625 0.5
          0.5 0 0.25 0 0.75 0.5
          0.5 0 0 0 0.5 1
          0.75 0.5 0 0.25 0 1
          0.5 0.75 0 1 1 1
          0.5 0.5 1 0.75 1 0.875
          0.5 0.625 0.5 0.5 0.5 0.75
          1 1 1 1 0.75 0.75
          0.5 0.5 0.5 0.75 0 0.25
          0 0.25 0 0 0 0.75
          0.75 0.5 0 0.25 0 0.25
          0 0 0 0.75 0.75 0.5
          0 0 0 0 0.5 0.5
          0 0 0 0.5 0 0
          0 0 0.375 0.25 0 0
          0 0.25 1 1 1 1
          1 1 1 0.875 0.75 1
          1 0.75 0.5 1 0 0
          0 0 0 0 0 0
          0 0 0 0 0 0
          0 0 0 0 0 0
          0 0 0 0 0 0
          0 0 0 0 0 0
          0 0 0 0 0 0
          0 0 0 0 0 0
          0 0 0 0 0 0
          0 0 0 0 0 0
          0 0 0 0 0 0
          0 0 0 0 0 0
          0 0 0 0 0 0
          0 0 0 0 0 0
          0 0 0 0 0 0
          0 0 0 0 0 0
          0 0 0 0 0 0
          0 0 0 0 0 0
          0 0 0 0 0 0
          0 0 0 0 0 0
          0 0 0 0 0 0
          0 0 0 0 0 0
          0 0 0 0 0 0
          0 0 0 0 0 0
          0 0 0 0 0 0
          0 0 0 0 0 0
          0 0 0 0 0 0
          0 0 0 0 0 0
          0 0 0 0 0 0
          0 0 0 0 0 0
          0 0 0 0 0 0
          0 0 0 0 1 1
          1 1 1 1 1 1
          0.75 0.75 0.75 0.5 0.75 1
          1 1 1 1 1 1
          1 1 1 1 1 1
          1 1 1 1 1 1
          1 0.5 1 1 1 1
          1 1 1 0.5 1 0.5
          0.375 0 0.25 0.125 0.25 0
          1 0.5 0.5 0.5 0.75 0.5
          0.5 0.5 0 1 0.5 0.5
          1 1 1 1 0.75 0.75
          0.875 0.625 0.5 0.5 0.75 0.25
          0 0.25 0 0 0.75 0.5
          0.25 0.75 1 0.5 1 0
          0 0 0 0 0 0
          0 0 0 0 0 0
          0 0 0 0 0 0
          0 0 0 0 0 0
        </DataArray>
        <DataArray type="Float64" Name="gradient_matprop_marker" format="ascii" RangeMin="0" RangeMax="0">
          0 0 0 0 0 0
          0 0 0 0 0 0
          0 0 0 0 0 0
          0 0 0 0 0 0
          0 0 0 0 0 0
          0 0 0 0 0 0
          0 0 0 0 0 0
          0 0 0 0 0 0
          0 0 0 0 0 0
          0 0 0 0 0 0
          0 0 0 0 0 0
          0 0 0 0 0 0
          0 0 0 0 0 0
          0 0 0 0 0 0
          0 0 0 0 0 0
          0 0 0 0 0 0
          0 0 0 0 0 0
          0 0 0 0 0 0
          0 0 0 0 0 0
          0 0 0 0 0 0
          0 0 0 0 0 0
          0 0 0 0 0 0
          0 0 0 0 0 0
          0 0 0 0 0 0
          0 0 0 0 0 0
          0 0 0 0 0 0
          0 0 0 0 0 0
          0 0 0 0 0 0
          0 0 0 0 0 0
          0 0 0 0 0 0
          0 0 0 0 0 0
          0 0 0 0 0 0
          0 0 0 0 0 0
          0 0 0 0 0 0
          0 0 0 0 0 0
          0 0 0 0 0 0
          0 0 0 0 0 0
          0 0 0 0 0 0
          0 0 0 0 0 0
          0 0 0 0 0 0
          0 0 0 0 0 0
          0 0 0 0 0 0
          0 0 0 0 0 0
          0 0 0 0 0 0
          0 0 0 0 0 0
          0 0 0 0 0 0
          0 0 0 0 0 0
          0 0 0 0 0 0
          0 0 0 0 0 0
          0 0 0 0 0 0
          0 0 0 0 0 0
          0 0 0 0 0 0
          0 0 0 0 0 0
          0 0 0 0 0 0
          0 0 0 0 0 0
          0 0 0 0 0 0
          0 0 0 0 0 0
          0 0 0 0 0 0
          0 0 0 0 0 0
          0 0 0 0 0 0
          0 0 0 0 0 0
          0 0 0 0 0 0
          0 0 0 0 0 0
          0 0 0 0 0 0
          0 0 0 0 0 0
          0 0 0 0 0 0
          0 0 0 0 0 0
          0 0 0 0 0 0
          0 0 0 0 0 0
          0 0 0 0 0 0
          0 0 0 0 0 0
          0 0 0 0 0 0
          0 0 0 0 0 0
          0 0 0 0 0 0
          0 0 0 0 0 0
          0 0 0 0 0 0
          0 0 0 0 0 0
        </DataArray>
        <DataArray type="Float64" Name="combo" format="ascii" RangeMin="0" RangeMax="2">
          0.5 1 1 0.75 1 0.5
          0.75 1 0.75 1 0.75 2
          1 0.5 1 1 1 1
          1 1 1 1 1 1
          1 1 0 0.5 0.5 0.5
          0.5 0.75 0.5 0.75 0.5 1
          0 0 0.5 0.5 0 0.5
          0.5 0 0.5 0.5 1 0.625
          0.75 0.6666666666666666 0 0 0 1.5
          0.75 1.5 0.75 0.75 0.75 2
          1.5 2 1 0.5 0.625 0.5
          0.5 0 0.25 0 0.75 0.5
          0.5 0 0 0 0.5 1
          0.75 0.5 0 0.25 0 1
          0.5 0.75 0 1 1 1
          0.5 0.5 1 0.75 1 0.875
          0.5 0.625 0.5 0.5 0.5 0.75
          1 1 1 1 0.75 0.75
          1.5 1 1.25 0.75 0 0.25
          0 0.25 0 0 0 0.75
          0.75 0.5 0 0.25 0 0.25
          0 0 0 0.75 0.75 0.5
          2 2 2 2 1 1
          2 2 2 1.5 2 2
          2 2 1.125 1.25 2 2
          2 1.25 1 1 1 1
          1 1 1 0.875 0.75 1
          1 0.75 0.5 1 0 0
          0 1 0.5 1 0 0
          0 0 0 2 1.5 2
          0.5 2 2 2 1 0
          0 0 0 0.5 0 1
          1 1 2 1.5 1.25 2
          1.5 1 1 2 2 2
          2 0.5 0 1.5 0.5 0.5
          0 0 1.5 1.5 1 2
          2 2 2 2 2 2
          2 2 2 2 2 2
          2 2 2 2 2 2
          2 2 2 2 2 2
          1.75 2 2 1.25 1.5 2
          2 2 2 2 2 2
          2 1.5 1.75 2 2 2
          2 0.5 0.75 0 0.5 1.5
          1.75 1 1 1.25 1 1
          2 2 1.3333333333333333 2 2 2
          2 2 2 2 2 2
          2 2 2 2 2 2
          2 2 2 2 2 2
          2 2 1.3333333333333333 2 2 2
          2 2 1.25 1.5 2 2
          1.5 0 0 0 0 0
          0 0 0.25 0.5 0 0
          0.5 1 0 2 2 2
          1 0 2 2 2 2
          2 2 1.5 1 2 1.6666666666666667
          2 2 2 2 2 2
          2 1.75 2 2 0.5 0
          0.75 0 1 0 1 1
          1 1 1 1 1 1
          0.75 0.75 0.75 0.5 0.75 1
          1 1 1 1 1 1
          1 1 1 1 1 1
          1 1 1 1 1 1
          1 0.5 1 1 1 1
          1 1 1 0.5 1 0.5
          0.375 0 0.25 0.125 0.25 0
          1 0.5 0.5 0.5 0.75 0.5
          0.5 0.5 0 1 0.5 0.5
          1 1 1 1 0.75 0.75
          0.875 0.625 1.5 1.5 0.75 0.25
          0 0.25 0 0 0.75 0.5
          1.75 0.75 1 0.5 1 2
          2 2 2 2 2 2
          1 1.5 1 2 2 2
          2 2 2 2 2 2
          2 2 1 1 0 1
        </DataArray>
        <DataArray type="Float64" Name="dHdT" format="ascii" RangeMin="25.773063441731523" RangeMax="89.18993245246861">
          25.846175679877454 26.262913011284986 31.596006297143813 27.76665932641493 33.951565183495134 25.793836473232567