<?xml version="1.0"?>
<VTKFile type="UnstructuredGrid" version="0.1" byte_order="LittleEndian" header_type="UInt32" compressor="vtkZLibDataCompressor">
  <UnstructuredGrid>
    <Piece NumberOfPoints="307" NumberOfCells="166">
      <PointData>
        <DataArray type="Int32" Name="libmesh_node_id" format="ascii" RangeMin="240" RangeMax="2499">
          240 310 313 316 321 326
          331 373 378 473 475 478
          481 495 496 499 501 504
          506 510 511 512 514 516
          600 606 697 700 704 709
          711 712 713 714 715 716
          717 718 719 720 989 1006
          1007 1010 1012 1029 1042 1044
          1046 1064 1065 1068 1070 1079
          1080 1081 1085 1093 1094 1099
          1100 1101 1102 1103 1104 1105
          1106 1107 1108 1109 1110 1111
          1114 1115 1117 1119 1124 1125
          1129 1134 1139 1140 1141 1142
          1143 1144 1145 1146 1147 1149
          1151 1153 1214 1229 1271 1272
          1275 1341 1342 1343 1344 1345
          1346 1347 1348 1349 1350 1351
          1352 1353 1354 1355 1356 1357
          1358 1359 1360 1361 1362 1363
          1364 1365 1366 1367 1758 1802
          1803 1806 1808 1822 1823 1826
          1828 1926 1960 2012 2014 2016
          2026 2028 2030 2040 2042 2044
          2054 2056 2058 2153 2154 2155
          2158 2163 2164 2165 2168 2201
          2202 2203 2206 2217 2218 2219
          2220 2221 2222 2223 2224 2225
          2226 2227 2228 2229 2230 2231
          2232 2233 2234 2235 2236 2237
          2238 2239 2240 2241 2242 2243
          2244 2245 2246 2247 2248 2249
          2250 2251 2252 2253 2254 2255
          2256 2279 2280 2283 2286 2287
          2290 2313 2314 2317 2320 2321
          2324 2347 2348 2351 2381 2382
          2385 2393 2394 2395 2396 2397
          2398 2399 2400 2401 2402 2403
          2404 2405 2406 2407 2408 2409
          2410 2411 2412 2413 2414 2415
          2416 2417 2418 2419 2420 2421
          2422 2423 2424 2425 2426 2427
          2428 2429 2430 2431 2432 2433
          2434 2435 2436 2437 2438 2439
          2440 2441 2442 2443 2444 2445
          2446 2447 2448 2449 2450 2451
          2452 2453 2454 2455 2456 2457
          2458 2469 2470 2471 2472 2473
          2474 2475 2476 2477 2478 2479
          2480 2481 2482 2483 2484 2485
          2493 2494 2495 2496 2497 2498
          2499
        </DataArray>
        <DataArray type="Float64" Name="bounds" format="ascii" RangeMin="0" RangeMax="0">
          0 0 0 0 0 0
          0 0 0 0 0 0
          0 0 0 0 0 0
          0 0 0 0 0 0
          0 0 0 0 0 0
          0 0 0 0 0 0
          0 0 0 0 0 0
          0 0 0 0 0 0
          0 0 0 0 0 0
          0 0 0 0 0 0
          0 0 0 0 0 0
          0 0 0 0 0 0
          0 0 0 0 0 0
          0 0 0 0 0 0
          0 0 0 0 0 0
          0 0 0 0 0 0
          0 0 0 0 0 0
          0 0 0 0 0 0
          0 0 0 0 0 0
          0 0 0 0 0 0
          0 0 0 0 0 0
          0 0 0 0 0 0
          0 0 0 0 0 0
          0 0 0 0 0 0
          0 0 0 0 0 0
          0 0 0 0 0 0
          0 0 0 0 0 0
          0 0 0 0 0 0
          0 0 0 0 0 0
          0 0 0 0 0 0
          0 0 0 0 0 0
          0 0 0 0 0 0
          0 0 0 0 0 0
          0 0 0 0 0 0
          0 0 0 0 0 0
          0 0 0 0 0 0
          0 0 0 0 0 0
          0 0 0 0 0 0
          0 0 0 0 0 0
          0 0 0 0 0 0
          0 0 0 0 0 0
          0 0 0 0 0 0
          0 0 0 0 0 0
          0 0 0 0 0 0
          0 0 0 0 0 0
          0 0 0 0 0 0
          0 0 0 0 0 0
          0 0 0 0 0 0
          0 0 0 0 0 0
          0 0 0 0 0 0
          0 0 0 0 0 0
          0
        </DataArray>
        <DataArray type="Float64" Name="gradient_error" format="ascii" RangeMin="4.1130223042369694e-11" RangeMax="1.0467774381065253e-8">
          8.809744777001992e-9 2.712029114715453e-9 5.457287305476918e-9 1.5233399217186628e-9 2.6034423828162225e-10 1.0880083838296525e-9
          1.4917994719748282e-9 5.020907055967103e-9 6.916337299485617e-9 2.4923181027063407e-9 2.750033978040659e-9 1.4262927297014645e-9
          1.0467774381065253e-8 2.0684891837177937e-9 2.650019317628746e-9 4.3934158809878445e-9 3.4765384794260263e-9 6.540722782835909e-10
          3.5763072725466083e-10 6.873485358887149e-10 4.1434573698044833e-10 1.7059756910122038e-10 1.4142527552115305e-9 4.4720124798855147e-10
          1.2358846603178997e-9 1.6826431493635681e-9 2.103192944025228e-9 2.7666292309741008e-9 5.865729085081695e-10 7.181428783917495e-10
          6.444850625277676e-10 7.184254877462572e-10 3.1568813827005655e-10 2.926143358905599e-10 6.643048983767736e-10 1.0977519950237191e-9
          3.425329464955863e-10 8.157758256979763e-10 2.6095630524411824e-10 1.3284734097051287e-9 1.3929038035566529e-9 1.8931733335779327e-9
          1.1790810384322271e-9 1.0147724757389818e-9 1.1638305051576569e-9 7.456572323042247e-9 2.6394318424783677e-9 1.6954872867328523e-9
          3.5416466599756107e-9 1.6194918053471495e-9 1.7527629241963692e-9 1.2154163024939125e-9 1.4454550346839237e-9 9.48158932521508e-10
          7.967436759175387e-10 3.0598940536313946e-10 1.0851294585319333e-9 1.710139511395177e-10 1.228454398588361e-10 1.1521516473770105e-10
          7.889310581446998e-10 5.814667382562717e-10 3.163344009879678e-10 3.197612368969986e-10 4.5935470109954794e-10 5.281851635146838e-10
          3.660255797336925e-10 5.349345291041262e-10 2.7083438934307497e-10 6.996642506933708e-10 1.1920254043509442e-10 1.3277856899935684e-10
          9.809325984343148e-11 1.4463595591017914e-10 1.222053533957476e-10 1.5710015212746415e-10 3.0366869692052318e-9 9.814698740305957e-10
          4.3656554722169754e-9 2.5983463443567504e-10 3.6889601179038787e-10 1.0385641037913613e-9 3.4325321255803987e-10 9.833399906980368e-10
          3.7465813942348976e-10 1.3992033617704454e-9 4.584833205425353e-10 1.1628580680948409e-9 1.1329612973263629e-10 1.4494317898856053e-10
          1.278855873729836e-10 1.4800041097743076e-10 1.6257000584907431e-9 4.876355134216313e-10 6.378259395833572e-10 9.086617648389468e-10
          6.217518658776567e-10 2.860718276377626e-10 4.079440043588507e-10 2.0124456608517914e-10 2.546773802062365e-10 2.3380623025779746e-10
          2.983060534316465e-10 2.11038372814076e-10 7.244045795624839e-10 3.519596465134316e-10 4.4221137648926506e-10 1.0637807784256577e-9
          4.433157639954339e-10 5.580894181045647e-10 2.744773478191746e-10 1.2085685788062865e-9 5.127471553843673e-10 5.945619598360951e-10
          1.3660544850295842e-10 1.6040041643337876e-10 8.270929106845233e-11 8.815598386356173e-11 1.0010849996531889e-10 1.1213655613638607e-10
          6.989717265654014e-11 1.841953843637991e-10 9.360267665867114e-11 1.2416461230745325e-10 1.414474778250459e-9 6.719101748621921e-10
          9.927391764418252e-10 6.638958559072708e-10 1.8373674148725447e-9 3.1803883220030584e-10 4.2746866020913204e-10 3.31341230280589e-10
          7.037439977267271e-10 4.862468824820144e-9 9.630289362087252e-9 3.088645040482769e-9 1.8549611374196232e-9 4.581336335297186e-9
          1.0714127456886542e-9 7.735044879514508e-10 1.4727146922085238e-9 5.84368381763275e-9 3.2877230559401966e-9 6.340818393913031e-9
          1.7999078915644522e-9 1.0986171483225141e-9 1.9266223828536684e-9 5.869937282662048e-10 8.998665010506034e-10 5.510475553971745e-10
          1.769252123303713e-9 2.1187167848715612e-10 3.2464576203332497e-10 1.8527737515739047e-10 6.362585743337848e-10 6.948040802869809e-11
          1.0228897923152689e-10 6.164466053249692e-11 1.937987347553778e-10 4.2789265689566087e-10 6.337414569731281e-10 2.662692498049509e-10
          3.8860537009803074e-10 2.9993729871731953e-10 4.2372501719151026e-10 2.94876407593839e-10 1.1794667745615153e-9 7.222715051402525e-10
          7.442238632190779e-10 1.5804232012727283e-10 2.2821940733486677e-10 9.235655252625638e-11 1.3126949186160787e-10 1.3382888244261388e-10
          1.8375053665062226e-10 1.0651984125830899e-10 4.2230761883796655e-10 2.3877430520446694e-10 3.014680499185281e-10 2.0667528310775302e-10
          2.731681228754318e-10 1.6796972719454036e-10 2.1387594788532744e-10 1.7093097489500638e-10 2.1471626095830076e-10 1.7407494134776477e-10
          4.4787205998360223e-10 3.1349406342835734e-10 3.332579480618458e-10 5.2982901631283346e-11 7.341980378224419e-11 4.1130223042369694e-11
          5.391080025769638e-11 4.580745649722937e-11 6.036508884861984e-11 4.6563538588768554e-11 1.3093869302555756e-10 8.011925543217869e-11
          9.457659945641871e-11 3.1605887483344526e-9 1.9448690969143895e-9 4.905039682454284e-9 1.136017446706855e-9 6.322991368577461e-10
          1.773701854186737e-9 6.40076228392922e-9 3.988230078426292e-9 6.98685772684635e-9 2.3350643235690927e-9 1.2901321674386906e-9
          2.5596625290903455e-9 3.3691735624152594e-10 1.7151078224105424e-10 5.16572508019185e-10 6.759968280325468e-10 3.3758941389846193e-10
          7.401834334333752e-10 1.9920903126052684e-9 1.223260476103126e-9 1.1894358701178372e-9 7.285495767447894e-10 2.97187129200461e-9
          1.8271580478237746e-9 1.6943034932431929e-9 7.156592966604042e-10 4.0122002413236084e-10 4.2702384455325666e-10 2.4175144468271626e-10
          1.0677661980490238e-9 5.952238036274704e-10 6.095919028039028e-10 6.814595811130545e-10 4.178156730965682e-10 4.891450927858603e-10
          3.0314145265880814e-10 9.328290219153201e-10 5.695971932807763e-10 6.541610776591113e-10 2.02163195115233e-10 2.477654671905249e-10
          1.1790397803542965e-10 1.429763719983665e-10 1.572114590082455e-10 1.8277973327865932e-10 1.0726982559419234e-10 3.362371396694384e-10
          1.9240557747710484e-10 2.3535708601321994e-10 3.812483126384186e-9 2.349847351395107e-9 2.1167317410642893e-9 1.2973068058297021e-9
          4.146061001897253e-9 2.5582980394595236e-9 2.2827932451054126e-9 1.3720821326060624e-9 7.619858386530791e-10 7.595403471328889e-10
          4.261102736101297e-10 1.4937317193014135e-9 8.285979391039646e-10 8.185785983160087e-10 1.1385279792506946e-9 6.911654194107848e-10
          7.903625477613789e-10 4.737568210373789e-10 1.2182339195727632e-9 7.38417787598675e-10 8.426787766741595e-10 4.0642300037690997e-10
          2.319304960403441e-10 2.7939443586505035e-10 1.6234439398771256e-10 4.3373946068075994e-10 2.4709860308778186e-10 2.96422707252734e-10
          2.1707194386766275e-10 1.1168864207539625e-10 1.3209807061722392e-10 8.032464520660212e-11 3.1807396116427215e-10 1.6242638802935885e-10
          1.8646242504117236e-10 6.258516805410693e-11 7.729988114890538e-11 4.49184246071094e-11 5.457754218174284e-11 4.778289652034443e-11
          5.746608800938166e-11 4.14310220864328e-11 1.0569467869697562e-10 6.347830318785405e-11 7.633376764779646e-11 4.0422086056307077e-10
          2.0531156471746527e-10 2.298512424072914e-10 1.1863334846921296e-10 4.384170064150126e-10 2.223144431152488e-10 2.4657023738206295e-10
          1.272105752856433e-10 6.761038644688354e-11 9.007714497652801e-11 4.987969711711188e-11 1.3504638742103917e-10 7.212164799017412e-11
          9.463603415588203e-11
        </DataArray>
        <DataArray type="Float64" Name="gradient_matprop_error" format="ascii" RangeMin="0" RangeMax="0">
          0 0 0 0 0 0
          0 0 0 0 0 0
          0 0 0 0 0 0
          0 0 0 0 0 0
          0 0 0 0 0 0
          0 0 0 0 0 0
          0 0 0 0 0 0
          0 0 0 0 0 0
          0 0 0 0 0 0
          0 0 0 0 0 0
          0 0 0 0 0 0
          0 0 0 0 0 0
          0 0 0 0 0 0
          0 0 0 0 0 0
          0 0 0 0 0 0
          0 0 0 0 0 0
          0 0 0 0 0 0
          0 0 0 0 0 0
          0 0 0 0 0 0
          0 0 0 0 0 0
          0 0 0 0 0 0
          0 0 0 0 0 0
          0 0 0 0 0 0
          0 0 0 0 0 0
          0 0 0 0 0 0
          0 0 0 0 0 0
          0 0 0 0 0 0
          0 0 0 0 0 0
          0 0 0 0 0 0
          0 0 0 0 0 0
          0 0 0 0 0 0
          0 0 0 0 0 0
          0 0 0 0 0 0
          0 0 0 0 0 0
          0 0 0 0 0 0
          0 0 0 0 0 0
          0 0 0 0 0 0
          0 0 0 0 0 0
          0 0 0 0 0 0
          0 0 0 0 0 0
          0 0 0 0 0 0
          0 0 0 0 0 0
          0 0 0 0 0 0
          0 0 0 0 0 0
          0 0 0 0 0 0
          0 0 0 0 0 0
          0 0 0 0 0 0
          0 0 0 0 0 0
          0 0 0 0 0 0
          0 0 0 0 0 0
          0 0 0 0 0 0
          0
        </DataArray>
        <DataArray type="Float64" Name="initial_marker" format="ascii" RangeMin="0" RangeMax="2">
          0 0 0 1.5 0 0
          0 0 0 0 2 0.25
          2 0 0 0 0 0
          2 0 0 0 2 0.5
          0 0 0 0 0 0
          0 0 0 0 0 0
          0 0 0 0 1 0
          0 0 2 2 2 1.25
          2 0 0 0 0 0
          0.75 0.25 2 0 0 1.5
          0 0 0 0 0 0
          0 1.5 1 0 0 0
          0 0 0.25 0 2 2
          2 2 2 2 2 1
          0.25 2 2 1 1.5 0
          2 0 0 0 0 0
          0 0 0 0 0 0
          0 0 0 0 0 0
          0 0 0 0 0 0
          0 0 0 0 0 0
          0 0 0 0 2 1
          1.5 1 2 0 0.5 0
          1.25 2 2 2 2 2
          1.75 1.5 2 2 2 2
          2 2 2 2 2 1.75
          2 1 1.5 1.25 2 0
          0.75 0.6666666666666666 1.75 1 1.5 0.5
          1.25 0 0.75 0.6666666666666666 2 2
          1.75 0 1 0 0.75 0
          1 0.5 2 1.75 2 0
          0.25 0 0 0 0 0
          0.75 0.6666666666666666 0 0 0.25 0
          0 0 0 0 1.25 1
          0.6666666666666666 2 2 2 2 2
          2 2 2 2 2 2
          2 2 2 2 2 2
          2 2 2 2 2 2
          2 2 2 2 2 1.75
          2 2 2 1.5 1.5 1
          1 2 2 2 1 1.25
          0.5 0.75 0 0.5 0 1.75
          1.25 1.5 2 2 2 2
          2 2 2 2 2 2
          2 2 2 2 2 2
          2 2 2 2 2 2
          1.5 2 1 2 1.5 2
          2 1.75 1.5 1.3333333333333333 2 2
          2 0 0.5 0 0.5 0
          0 0 1 0.6666666666666666 0 2
          2 2 1.75 2 2 2
          1 0.75 0 0 1 1
          0
        </DataArray>
        <DataArray type="Float64" Name="markers_norefine" format="ascii" RangeMin="0" RangeMax="0">
          0 0 0 0 0 0
          0 0 0 0 0 0
          0 0 0 0 0 0
          0 0 0 0 0 0
          0 0 0 0 0 0
          0 0 0 0 0 0
          0 0 0 0 0 0
          0 0 0 0 0 0
          0 0 0 0 0 0
          0 0 0 0 0 0
          0 0 0 0 0 0
          0 0 0 0 0 0
          0 0 0 0 0 0
          0 0 0 0 0 0
          0 0 0 0 0 0
          0 0 0 0 0 0
          0 0 0 0 0 0
          0 0 0 0 0 0
          0 0 0 0 0 0
          0 0 0 0 0 0
          0 0 0 0 0 0
          0 0 0 0 0 0
          0 0 0 0 0 0
          0 0 0 0 0 0
          0 0 0 0 0 0
          0 0 0 0 0 0
          0 0 0 0 0 0
          0 0 0 0 0 0
          0 0 0 0 0 0
          0 0 0 0 0 0
          0 0 0 0 0 0
          0 0 0 0 0 0
          0 0 0 0 0 0
          0 0 0 0 0 0
          0 0 0 0 0 0
          0 0 0 0 0 0
          0 0 0 0 0 0
          0 0 0 0 0 0
          0 0 0 0 0 0
          0 0 0 0 0 0
          0 0 0 0 0 0
          0 0 0 0 0 0
          0 0 0 0 0 0
          0 0 0 0 0 0
          0 0 0 0 0 0
          0 0 0 0 0 0
          0 0 0 0 0 0
          0 0 0 0 0 0
          0 0 0 0 0 0
          0 0 0 0 0 0
          0 0 0 0 0 0
          0
        </DataArray>
        <DataArray type="Float64" Name="markers_mustrefine" format="ascii" RangeMin="0" RangeMax="2">
          0 0 0 1.5 0 0
          0 0 0 0 2 0.25
          2 0 0 0 0 0
          2 0 0 0 2 0.5
          0 0 0 0 0 0
          0 0 0 0 0 0
          0 0 0 0 1 0
          0 0 2 2 2 1.25
          2 0 0 0 0 0
          0.75 0.25 2 0 0 1.5
          0 0 0 0 0 0
          0 1.5 1 0 0 0
          0 0 0.25 0 2 2
          2 2 2 2 2 1
          0.25 2 2 1 1.5 0
          2 0 0 0 0 0
          0 0 0 0 0 0
          0 0 0 0 0 0
          0 0 0 0 0 0
          0 0 0 0 0 0
          0 0 0 0 2 1
          1.5 1 2 0 0.5 0
          1.25 2 2 2 2 2
          1.75 1.5 2 2 2 2
          2 2 2 2 2 1.75
          2 1 1.5 1.25 2 0
          0.75 0.6666666666666666 1.75 1 1.5 0.5
          1.25 0 0.75 0.6666666666666666 2 2
          1.75 0 1 0 0.75 0
          1 0.5 2 1.75 2 0
          0.25 0 0 0 0 0
          0.75 0.6666666666666666 0 0 0.25 0
          0 0 0 0 1.25 1
          0.6666666666666666 2 2 2 2 2
          2 2 2 2 2 2
          2 2 2 2 2 2
          2 2 2 2 2 2
          2 2 2 2 2 1.75
          2 2 2 1.5 1.5 1
          1 2 2 2 1 1.25
          0.5 0.75 0 0.5 0 1.75
          1.25 1.5 2 2 2 2
          2 2 2 2 2 2
          2 2 2 2 2 2
          2 2 2 2 2 2
          1.5 2 1 2 1.5 2
          2 1.75 1.5 1.3333333333333333 2 2
          2 0 0.5 0 0.5 0
          0 0 1 0.6666666666666666 0 2
          2 2 1.75 2 2 2
          1 0.75 0 0 1 1
          0
        </DataArray>
        <DataArray type="Float64" Name="gradient_marker" format="ascii" RangeMin="1" RangeMax="1">
          1 1 1 1 1 1
          1 1 1 1 1 1
          1 1 1 1 1 1
          1 1 1 1 1 1
          1 1 1 1 1 1
          1 1 1 1 1 1
          1 1 1 1 1 1
          1 1 1 1 1 1
          1 1 1 1 1 1
          1 1 1 1 1 1
          1 1 1 1 1 1
          1 1 1 1 1 1
          1 1 1 1 1 1
          1 1 1 1 1 1
          1 1 1 1 1 1
          1 1 1 1 1 1
          1 1 1 1 1 1
          1 1 1 1 1 1
          1 1 1 1 1 1
          1 1 1 1 1 1
          1 1 1 1 1 1
          1 1 1 1 1 1
          1 1 1 1 1 1
          1 1 1 1 1 1
          1 1 1 1 1 1
          1 1 1 1 1 1
          1 1 1 1 1 1
          1 1 1 1 1 1
          1 1 1 1 1 1
          1 1 1 1 1 1
          1 1 1 1 1 1
          1 1 1 1 1 1
          1 1 1 1 1 1
          1 1 1 1 1 1
          1 1 1 1 1 1
          1 1 1 1 1 1
          1 1 1 1 1 1
          1 1 1 1 1 1
          1 1 1 1 1 1
          1 1 1 1 1 1
          1 1 1 1 1 1
          1 1 1 1 1 1
          1 1 1 1 1 1
          1 1 1 1 1 1
          1 1 1 1 1 1
          1 1 1 1 1 1
          1 1 1 1 1 1
          1 1 1 1 1 1
          1 1 1 1 1 1
          1 1 1 1 1 1
          1 1 1 1 1 1
          1
        </DataArray>
        <DataArray type="Float64" Name="gradient_matprop_marker" format="ascii" RangeMin="0" RangeMax="0">
          0 0 0 0 0 0
          0 0 0 0 0 0
          0 0 0 0 0 0
          0 0 0 0 0 0
          0 0 0 0 0 0
          0 0 0 0 0 0
          0 0 0 0 0 0
          0 0 0 0 0 0
          0 0 0 0 0 0
          0 0 0 0 0 0
          0 0 0 0 0 0
          0 0 0 0 0 0
          0 0 0 0 0 0
          0 0 0 0 0 0
          0 0 0 0 0 0
          0 0 0 0 0 0
          0 0 0 0 0 0
          0 0 0 0 0 0
          0 0 0 0 0 0
          0 0 0 0 0 0
          0 0 0 0 0 0
          0 0 0 0 0 0
          0 0 0 0 0 0
          0 0 0 0 0 0
          0 0 0 0 0 0
          0 0 0 0 0 0
          0 0 0 0 0 0
          0 0 0 0 0 0
          0 0 0 0 0 0
          0 0 0 0 0 0
          0 0 0 0 0 0
          0 0 0 0 0 0
          0 0 0 0 0 0
          0 0 0 0 0 0
          0 0 0 0 0 0
          0 0 0 0 0 0
          0 0 0 0 0 0
          0 0 0 0 0 0
          0 0 0 0 0 0
          0 0 0 0 0 0
          0 0 0 0 0 0
          0 0 0 0 0 0
          0 0 0 0 0 0
          0 0 0 0 0 0
          0 0 0 0 0 0
          0 0 0 0 0 0
          0 0 0 0 0 0
          0 0 0 0 0 0
          0 0 0 0 0 0
          0 0 0 0 0 0
          0 0 0 0 0 0
          0
        </DataArray>
        <DataArray type="Float64" Name="combo" format="ascii" RangeMin="1" RangeMax="1">
          1 1 1 1 1 1
          1 1 1 1 1 1
          1 1 1 1 1 1
          1 1 1 1 1 1
          1 1 1 1 1 1
          1 1 1 1 1 1
          1 1 1 1 1 1
          1 1 1 1 1 1
          1 1 1 1 1 1
          1 1 1 1 1 1
          1 1 1 1 1 1
          1 1 1 1 1 1
          1 1 1 1 1 1
          1 1 1 1 1 1
          1 1 1 1 1 1
          1 1 1 1 1 1
          1 1 1 1 1 1
          1 1 1 1 1 1
          1 1 1 1 1 1
          1 1 1 1 1 1
          1 1 1 1 1 1
          1 1 1 1 1 1
          1 1 1 1 1 1
          1 1 1 1 1 1
          1 1 1 1 1 1
          1 1 1 1 1 1
          1 1 1 1 1 1
          1 1 1 1 1 1
          1 1 1 1 1 1
          1 1 1 1 1 1
          1 1 1 1 1 1
          1 1 1 1 1 1
          1 1 1 1 1 1
          1 1 1 1 1 1
          1 1 1 1 1 1
          1 1 1 1 1 1
          1 1 1 1 1 1
          1 1 1 1 1 1
          1 1 1 1 1 1
          1 1 1 1 1 1
          1 1 1 1 1 1
          1 1 1 1 1 1
          1 1 1 1 1 1
          1 1 1 1 1 1
          1 1 1 1 1 1
          1 1 1 1 1 1
          1 1 1 1 1 1
          1 1 1 1 1 1
          1 1 1 1 1 1
          1 1 1 1 1 1
          1 1 1 1 1 1
          1
        </DataArray>
        <DataArray type="Float64" Name="dHdT" format="ascii" RangeMin="25.81456108277089" RangeMax="28.554956154728565">
          25.844376376691088 25.85693991951873 25.82957408372844 26.059269359936657 25.815424415242823 25.815454232163617
          25.816992813088454 25.819696439114836 25.822436262126907 25.882526651169904 26.463862282739285 25.93445298530405
          28.554956154728565 25.837753117376458 25.85786507719159 25.850196176314764 25.87380107052371 25.82812280323288
          25.894830211829728 25.82287868145221 25.833595181119613 25.816612797900607 26.135027392598936 25.85119355842348
          25.81456108277089 25.815228974167837 25.833307112168747 25.8335523376243 25.818457926177413 25.818884232176245
          25.820404568348053 25.82461068363229 25.816029163212907 25.8163186503087 25.820302708253315 25.824581693930504
          25.81662139253291 25.828284379278674 25.81660615046385 25.82694571418363 25.98825286077785 25.895800513570254
          25.921470327617328 25.8793270941407 26.10196225531857 27.622843526604036 26.442847705066804 26.01474383150434
          26.65624993091599 25.887227647310937 25.906504944126326 25.8812132921272 25.91082193866786 25.85364933539861
          25.885169659070865 25.840305343928925 26.063841643374108 25.821011846516463 25.82240765464264 25.835685540705878
          25.849111979831576 25.857650694920924 25.828513858169064 25.832436254868075 25.838007570294096 25.842834471514397
          25.83023808136919 25.921732471754687 25.851317311824914 25.86334059270951 25.819462799149264 25.820605535531925
          25.818818125910965 25.820380726081176 25.824873764242778 25.822099355581887 26.50468933897195 26.031790783495914
          26.83796798349865 25.87026288307125 25.89505538053253 26.056348644376488 25.892679593169166 25.89774905478883
          25.84489820873292 26.139207857397302 25.918673714585964 25.915241855991738 25.83521037191676 25.82378451641889
          25.842433903030003 25.825599245055102 25.826613009443918 25.817591481683543 25.85017149435727 25.860433879396247
          25.850291756757073 25.830995292009064 25.835302864576345 25.82484551007196 25.827097259007942 25.828337350442798
          25.831383886176763 25.825132411889705 25.84699828577653 25.830326845375765 25.8383929319076 25.86057333149384
          25.833478695174126 25.845364643484416 25.828170245484674 25.86676052857824 25.83614162625657 25.848373845064366
          25.820506771065343 25.821225429266157 25.81754069525677 25.817711345954493 25.819317197461565 25.819756861446933
          25.817315480709972 25.821944087466974 25.81788199665221 25.8201965254323 26.160298729364172 25.994147073578898
          26.065294203306173 25.990083779561946 26.255079366355655 25.91160114187589 25.93660506346987 25.915262396824637
          25.999588567514778 26.95618557191066 28.27289295330317 26.540688919243806 26.260898842396486 26.89275603940824
          26.084587761554758 26.018019565593093 26.176270836098865 27.207722718843723 26.59552237471714 27.33759379768071
          26.249028675964137 26.09338001163925 26.27712305287435 25.964142960136563 26.033162445186868 25.948081039284837
          26.225860262067798 25.87026487037337 25.893278510137737 25.859296210510447 25.95903300075061 25.832416932662127
          25.83881886518818 25.828883177797593 25.857180264383977 25.928535073515977 25.972677425781075 25.885334336197225
          25.911445193564653 25.898775065188904 25.9252355859671 25.89120713737093 26.092389880840578 25.982896211625462
          25.99510348273949 25.857645378729927 25.872524401723588 25.840087401608013 25.84811601270281 25.851833087448924
          25.86327828935954 25.843269997321638 25.913034896512002 25.87002443504989 25.8879408990873 25.87659740297871
          25.892187262357986 25.862559399555465 25.874296356151792 25.867437485186755 25.87913786956205 25.8646036037777
          25.93160367682161 25.896042517698792 25.907536691430472 25.828839450672632 25.832964143289068 25.824582704247405
          25.827285247779795 25.827304932562875 25.830474144414428 25.825634547568093 25.844287919334707 25.832223293910896
          25.837358430464135 26.5387434946908 26.253846559700186 26.95448187597012 26.068023716703166 25.953737924172316
          26.21234758728442 27.348275546737824 26.739231995170726 27.515535737018574 26.34670518264798 26.1045509829099
          26.402988772534343 25.88749354006223 25.851054304799472 25.92720928259906 25.964025490074917 25.887768611623912
          25.979479764022443 26.27492952768169 26.093475173735946 26.09634970181137 25.985373439237488 26.499172945679458
          26.230028950651665 26.213034786000648 25.97599462160291 25.90402819325264 25.914437582054884 25.870780464092846
          26.054414951441178 25.946405032902714 25.954905183595404 25.98566577698152 25.919557714328704 25.944718470702295
          25.89554073147135 26.04437844251003 25.95552847349279 25.983125316689662 25.866518896608074 25.877074638434944
          25.844766574137505 25.850479048191744 25.855829303900812 25.863366360335654 25.843001368028077 25.897841084094033
          25.86184978372256 25.877743287113923 26.697718801202235 26.35053742189806 26.31050333844305 26.11565507729166
          26.77899078277394 26.39973091764584 26.349125649773853 26.12378925606374 25.983992421772186 25.989037906452605
          25.911279127485987 26.152071484144187 25.99932691794205 26.002591006828297 26.09080515882224 25.984119460931964
          26.01231711508258 25.93819373842465 26.108754754681513 25.995250283361624 26.023585409266815 25.914537201226953
          25.8711298356282 25.88887405747546 25.857287636318325 25.92102261452765 25.87475162605727 25.893164957493568
          25.861939253572736 25.838536351260085 25.84473779056565 25.83245130752776 25.883782645680295 25.849281577688814
          25.856127294309275 25.83156932659606 25.834402660750694 25.82682669571585 25.8285333513672 25.82869775790019
          25.83067034361237 25.82627018065534 25.84020001337565 25.829626124827502 25.83461213743517 25.903003396535603
          25.858615996841728 25.865884339812816 25.84053330484893 25.910833006092172 25.862400495615752 25.869773704575167
          25.845150265885106 25.83031492602698 25.837969515040555 25.826761378715275 25.847136499924243 25.83131066832198
          25.839357684535322
        </DataArray>
        <DataArray type="Float64" Name="dk/dtemperature" format="ascii" RangeMin="0.012711009432909107" RangeMax="0.015804580349343195">
          0.015804580349343192 0.015804580349343192 0.015804580349343195 0.015679282956736647 0.01580458034934319 0.015804580349343192
          0.015804580349343192 0.015804580349343192 0.015804580349343192 0.015804580349343192 0.015062293090113282 0.015804580349343192
          0.012711009432909107 0.015804580349343192 0.015804580349343192 0.015804580349343195 0.015804580349343192 0.015804580349343192
          0.015804580349343192 0.01580458034934319 0.015804580349343192 0.01580458034934319 0.015553985564130105 0.01580458034934319
          0.015804580349343192 0.01580458034934319 0.015804580349343192 0.015804580349343192 0.01580458034934319 0.015804580349343192
          0.015804580349343192 0.015804580349343192 0.01580458034934319 0.015804580349343192 0.015804580349343192 0.015804580349343192
          0.015804580349343192 0.015804580349343192 0.015804580349343192 0.015804580349343192 0.01576281455180768 0.015804580349343192
          0.015804580349343192 0.015804580349343192 0.015616634260433374 0.013656399207208353 0.0150856299489954 0.015762814551807676
          0.014783453525789348 0.015804580349343192 0.015804580349343192 0.015804580349343192 0.015804580349343192 0.015804580349343192
          0.015804580349343192 0.015804580349343192 0.015679282956736647 0.01580458034934319 0.015804580349343192 0.015804580349343192
          0.01580458034934319 0.015804580349343192 0.015804580349343192 0.015804580349343192 0.01580458034934319 0.01580458034934319
          0.015804580349343192 0.015804580349343192 0.015804580349343192 0.015804580349343192 0.015804580349343192 0.015804580349343192
          0.015804580349343192 0.015804580349343192 0.015804580349343192 0.01580458034934319 0.014985428926576536 0.01572104875427216
          0.014516880367988722 0.015804580349343192 0.015804580349343192 0.015689724406120528 0.015804580349343192 0.015804580349343192
          0.015804580349343192 0.015553985564130103 0.015804580349343192 0.015804580349343192 0.015804580349343192 0.01580458034934319
          0.015804580349343192 0.01580458034934319 0.015804580349343192 0.015804580349343192 0.015804580349343192 0.015804580349343192
          0.015804580349343192 0.01580458034934319 0.015804580349343192 0.01580458034934319 0.015804580349343192 0.01580458034934319
          0.015804580349343192 0.015804580349343192 0.015804580349343192 0.015804580349343192 0.015804580349343192 0.015804580349343192
          0.01580458034934319 0.015804580349343192 0.015804580349343192 0.01580458034934319 0.015804580349343192 0.015804580349343192
          0.015804580349343192 0.01580458034934319 0.01580458034934319 0.01580458034934319 0.015804580349343192 0.015804580349343192
          0.01580458034934319 0.01580458034934319 0.01580458034934319 0.01580458034934319 0.01553429777101472 0.015783697450575434
          0.015679282956736647 0.015773256001191553 0.015381261347213654 0.015804580349343192 0.015804580349343192 0.015804580349343192
          0.015762814551807676 0.014436808289279821 0.012963615330617732 0.014973792371540284 0.015360378448445892 0.014503420552837291