<?xml version="1.0"?>
<VTKFile type="UnstructuredGrid" version="0.1" byte_order="LittleEndian" header_type="UInt32" compressor="vtkZLibDataCompressor">
  <UnstructuredGrid>
    <Piece NumberOfPoints="327" NumberOfCells="166">
      <PointData>
        <DataArray type="Int32" Name="libmesh_node_id" format="ascii" RangeMin="232" RangeMax="2110">
          311 312 315 317 370 371
          377 464 477 482 485 486
          489 491 493 494 497 498
          500 502 587 960 962 964
          1000 1003 1008 1009 1013 1034
          1036 1037 1038 1040 1043 1047
          1048 1049 1050 1051 1052 1053
          1054 1055 1056 1057 1058 1059
          1060 1061 1062 1063 1066 1067
          1069 1071 1208 1209 1210 1211
          1212 1215 1216 1259 1260 1261
          1262 1263 1264 1265 1266 1267
          1268 1269 1270 1273 1274 1776
          1777 1778 1779 1780 1781 1782
          1783 1784 1785 1786 1789 1804
          1805 1809 1810 1811 1812 1813
          1814 1815 1816 1819 1820 1821
          1824 1825 1827 1829 1965 1974
          1975 1976 1979 1980 1983 1985
          1994 1995 1996 1999 2000 2003
          2013 2015 2017 2020 2021 2024
          2025 2027 2029 2031 2039 2041
          2043 2045 2048 2049 2052 2053
          2055 2057 2059 2060 2061 2062
          2063 2064 2065 2066 2067 2068
          2069 2070 2071 2072 2073 2074
          2075 2076 2077 2078 2079 2080
          2081 2082 2083 2084 2085 2086
          2087 2088 2089 2090 2091 2092
          2093 2094 2095 2096 2097 2098
          2099 2100 2101 2102 2103 2104
          2105 2106 2107 2108 2109 2110
          232 372 313 373 240 378
          495 496 499 501 582 585
          588 305 308 994 996 476
          998 995 997 999 925 928
          930 1001 1004 1005 1006 310
          1007 1010 478 1064 1044 1065
          1068 1070 698 690 699 1213
          700 1214 1217 307 1271 1272
          1275 1770 1764 1771 1772 1775
          1787 1002 1788 1792 1800 1793
          1801 1796 1802 1803 1806 1798
          1807 1011 1808 1012 1794 1795
          1799 1817 1818 1822 1823 1826
          1828 1969 1977 1978 1973 1981
          1982 1989 1997 1998 1993 2001
          2002 2005 2011 2007 2012 2014
          1919 1925 1028 1929 2009 1926
          1029 2016 1041 1042 2018 2019
          2022 2023 2026 2028 2030 1953
          1959 2033 1960 2040 2035 2042
          1033 1963 2037 481 2044 1045
          1046 2046 2047 2050 2051 2054
          2056 2058 316
        </DataArray>
        <DataArray type="Float64" Name="bounds" format="ascii" RangeMin="0" RangeMax="0">
          0 0 0 0 0 0
          0 0 0 0 0 0
          0 0 0 0 0 0
          0 0 0 0 0 0
          0 0 0 0 0 0
          0 0 0 0 0 0
          0 0 0 0 0 0
          0 0 0 0 0 0
          0 0 0 0 0 0
          0 0 0 0 0 0
          0 0 0 0 0 0
          0 0 0 0 0 0
          0 0 0 0 0 0
          0 0 0 0 0 0
          0 0 0 0 0 0
          0 0 0 0 0 0
          0 0 0 0 0 0
          0 0 0 0 0 0
          0 0 0 0 0 0
          0 0 0 0 0 0
          0 0 0 0 0 0
          0 0 0 0 0 0
          0 0 0 0 0 0
          0 0 0 0 0 0
          0 0 0 0 0 0
          0 0 0 0 0 0
          0 0 0 0 0 0
          0 0 0 0 0 0
          0 0 0 0 0 0
          0 0 0 0 0 0
          0 0 0 0 0 0
          0 0 0 0 0 0
          0 0 0 0 0 0
          0 0 0 0 0 0
          0 0 0 0 0 0
          0 0 0 0 0 0
          0 0 0 0 0 0
          0 0 0 0 0 0
          0 0 0 0 0 0
          0 0 0 0 0 0
          0 0 0 0 0 0
          0 0 0 0 0 0
          0 0 0 0 0 0
          0 0 0 0 0 0
          0 0 0 0 0 0
          0 0 0 0 0 0
          0 0 0 0 0 0
          0 0 0 0 0 0
          0 0 0 0 0 0
          0 0 0 0 0 0
          0 0 0 0 0 0
          0 0 0 0 0 0
          0 0 0 0 0 0
          0 0 0 0 0 0
          0 0 0
        </DataArray>
        <DataArray type="Float64" Name="gradient_error" format="ascii" RangeMin="3.1803883220030584e-10" RangeMax="1.717287904475537e-7">
          3.118073505495307e-8 3.885374448782933e-8 1.354432277267161e-7 3.879570047229184e-8 8.470947962988882e-9 1.543283119570118e-8
          2.2394714428413483e-8 8.959960751038226e-8 3.679752183642406e-9 4.398885365634136e-9 3.5135566187160584e-8 7.285084594132234e-8
          2.974372235256565e-8 9.803958986068386e-8 6.273061439775849e-9 9.021995285011391e-9 7.336758009988372e-9 1.3554325128119952e-8
          1.204548054932063e-8 1.680787676369063e-8 3.116224241265e-9 1.4573182423641848e-7 7.160294121792167e-8 1.717287904475537e-7
          4.782910982929467e-9 2.1596809290219054e-8 2.37005429456464e-9 2.234813684138217e-9 2.1526732250086626e-9 7.435447912733867e-8
          3.148303087508936e-8 3.6124004248057707e-9 8.892398258703298e-8 3.634421579675397e-8 2.207100372684139e-9 2.256182441200123e-9
          1.836311167017233e-8 2.6420944008958516e-8 2.0938874170393455e-8 3.049869473006235e-8 1.2380815183337895e-8 1.6220050106460453e-8
          4.529907504094431e-9 3.988066253954217e-9 1.024107100835427e-8 1.4976639871694735e-8 6.438155692274031e-9 1.8691721435533777e-8
          4.549310220814587e-9 1.730016735072553e-8 2.5047361398912427e-9 2.2335830943244787e-9 1.982000294938496e-9 2.785569168176429e-9
          2.010031580273932e-9 3.1603571999036537e-9 4.893886579792219e-9 7.0932355448479395e-9 5.0516017654710385e-9 3.177517267087093e-9
          4.802302743380688e-9 2.2733336890080787e-9 3.3230381082177755e-9 7.81903045132201e-9 1.1101030251905995e-8 8.323145399186899e-9
          5.706728148318915e-9 8.400977102511252e-9 2.662873864657112e-9 4.171021789487311e-9 4.127498892134338e-9 5.978264258089468e-9
          2.6616998307068915e-9 1.3180373369873857e-9 1.9486162635122706e-9 9.947270887000553e-10 1.273973271063922e-9 2.825957844309889e-9
          3.5012077085253695e-9 2.937739172817868e-9 5.187970182905059e-9 2.3384424072995095e-9 2.958357272308614e-9 1.5431430832898852e-9
          2.037243414402864e-9 1.95622665465735e-9 2.4406031427799633e-9 1.624085732451782e-9 3.2684525851630882e-9 7.084377609832317e-10
          1.008264938924583e-9 1.754598975441814e-9 1.0584500761209267e-9 1.4142982431763132e-9 7.260561381001771e-10 9.741835792547858e-10
          8.694259798110526e-10 1.1154141525983528e-9 7.635698835036326e-10 1.5598067675345548e-9 4.806340728143937e-10 6.506138437117716e-10
          3.914324847294502e-10 5.041703469822036e-10 1.0731704075573949e-9 8.003789683725869e-10 1.1101704879063492e-8 7.252820389755622e-9
          4.784286883005889e-9 8.992790550796507e-9 4.0445176308683515e-9 2.8189261211554973e-9 5.0749363696208535e-9 1.677050833779924e-8
          1.0290883825245534e-8 6.773123542061913e-9 1.090234453534003e-8 5.804466044323626e-9 4.186768859640989e-9 6.107905548848902e-9
          2.7747916707043136e-9 6.686138981377546e-9 3.9194436690940915e-9 1.983661205546861e-9 1.5668628150009845e-9 2.58646068385745e-9
          1.6285023578131227e-9 1.1913160381617029e-9 2.223645130999699e-9 1.3583449083627038e-9 8.455012403215312e-9 4.853708330459436e-9
          9.144449050030544e-9 5.2170068301216225e-9 3.0288482952186163e-9 2.122174366544946e-9 3.19308864520705e-9 2.696455573134303e-9
          1.4408860900090423e-9 2.8768783993898137e-9 1.543645991880624e-9 2.506354270935598e-9 2.92407774354482e-9 2.4815364515934714e-9
          3.5796432089207492e-9 2.1455060400755767e-9 2.480081153157556e-9 1.4712096000225432e-9 1.7000867602835092e-9 1.790989323136568e-9
          2.0124567632405098e-9 1.284683990956844e-9 3.04750699046756e-9 2.124005822781478e-9 2.425698649711631e-9 4.000976566622295e-9
          3.40232828343419e-9 4.184467931557135e-9 3.436033819699055e-9 2.4294858806698487e-9 2.7372584877246e-9 1.7450926470894685e-9
          3.5917099247025233e-9 2.539924036321216e-9 2.857043879370389e-9 9.880130147580005e-10 1.1522956378690546e-9 8.182646386864699e-10
          9.405023179413824e-10 7.957634526066436e-10 8.891832087448558e-10 7.523755104635709e-10 1.461762935552432e-9 1.084748430109161e-9
          1.0768210196098154e-9 1.6894630561009604e-9 1.1620293108652156e-9 1.2123279284003344e-9 8.4822982252758e-10 1.771978502077165e-9
          1.228305975164837e-9 1.2536167824641063e-9 7.324238813175725e-10 7.743484739728662e-10 5.923724674202203e-10 6.156837498533383e-10
          5.888466956451143e-10 5.870658738015377e-10 4.843313571846575e-10 8.162730666281598e-10 6.389950322864565e-10 5.85285051957961e-10
          3.036070011584082e-9 3.1254768124485893e-9 5.457287305476918e-9 5.020907055967103e-9 8.809744777001992e-9 6.916337299485617e-9
          2.0684891837177937e-9 2.650019317628746e-9 4.3934158809878445e-9 3.4765384794260263e-9 3.796921871373297e-9 9.227303353788253e-10
          8.699518133403721e-10 2.439118540022854e-8 1.3458576733735944e-9 1.529915294126555e-8 8.781784490385145e-9 9.215641204359453e-9
          9.51748827056401e-9 2.1350615010706725e-8 5.493262527167574e-9 1.3082358342184517e-8 3.983866690136508e-8 2.3955454545553454e-8
          8.83696783668591e-8 4.3845030489637026e-8 4.231490158750677e-9 2.647239084664714e-9 1.8931733335779327e-9 2.712029114715453e-9
          1.1790810384322271e-9 1.0147724757389818e-9 1.4262927297014645e-9 1.6194918053471495e-9 1.6954872867328523e-9 1.7527629241963692e-9
          1.2154163024939125e-9 1.4454550346839237e-9 4.005010078800269e-9 2.0731083173244994e-8 8.747495613800651e-9 9.618445652096386e-10
          2.7666292309741008e-9 1.6257000584907431e-9 1.0499435491736123e-9 5.368644694138177e-8 6.378259395833572e-10 9.086617648389468e-10
          6.217518658776567e-10 3.3319829754784525e-9 5.022280363583779e-9 4.275286313470095e-9 3.012609235830454e-9 6.675209201445262e-9
          4.4694552150116586e-9 4.924976761332865e-9 3.2100657294526596e-9 1.5240517379333424e-9 1.025295457182982e-9 2.1949451917576724e-9
          1.5016760718503675e-9 1.4898637850948647e-9 6.719101748621921e-10 9.927391764418252e-10 6.638958559072708e-10 3.929710826227799e-9
          2.7450068047523053e-9 2.549194514267065e-9 1.8373674148725447e-9 1.1638305051576569e-9 1.5346984418991345e-9 2.1342330872603963e-9
          3.5851631841972746e-9 2.2803141164672697e-9 1.590089019231919e-9 3.1803883220030584e-10 4.2746866020913204e-10 3.31341230280589e-10
          7.037439977267271e-10 9.717737250334935e-9 6.3004163770661815e-9 4.630385614012593e-9 1.2611726854543212e-8 7.958429967384797e-9
          6.046822086703618e-9 1.4962291151881797e-8 9.209188715772459e-9 7.128404125814983e-9 1.6004774343918247e-8 9.741711958202092e-9
          7.53514759285844e-9 6.40925815856612e-9 4.5593295646709346e-9 3.976789389844992e-9 3.088645040482769e-9 1.8549611374196232e-9
          9.755229699452482e-9 7.076435279573456e-9 1.4429267233451017e-8 1.0668909753554059e-8 9.249198647150697e-9 4.862468824820144e-9
          7.456572323042247e-9 4.581336335297186e-9 5.548783303914451e-9 2.6394318424783677e-9 3.3719924939951014e-9 2.3911467875620253e-9
          4.481387508038133e-9 3.2229926304683647e-9 1.0714127456886542e-9 7.735044879514508e-10 1.4727146922085238e-9 1.8195405639028832e-8
          1.3601313872917749e-8 1.156559171979015e-8 9.630289362087252e-9 5.84368381763275e-9 6.813612306715054e-9 3.2877230559401966e-9
          1.961818119799261e-8 1.4711916415593798e-8 1.2457719455537548e-8 1.0467774381065253e-8 6.340818393913031e-9 7.301587316368039e-9
          3.5416466599756107e-9 5.323978241771192e-9 3.859883157359761e-9 5.6386846327534816e-9 4.098207610852402e-9 1.7999078915644522e-9
          1.0986171483225141e-9 1.9266223828536684e-9 1.5233399217186628e-9
        </DataArray>
        <DataArray type="Float64" Name="gradient_matprop_error" format="ascii" RangeMin="0" RangeMax="0">
          0 0 0 0 0 0
          0 0 0 0 0 0
          0 0 0 0 0 0
          0 0 0 0 0 0
          0 0 0 0 0 0
          0 0 0 0 0 0
          0 0 0 0 0 0
          0 0 0 0 0 0
          0 0 0 0 0 0
          0 0 0 0 0 0
          0 0 0 0 0 0
          0 0 0 0 0 0
          0 0 0 0 0 0
          0 0 0 0 0 0
          0 0 0 0 0 0
          0 0 0 0 0 0
          0 0 0 0 0 0
          0 0 0 0 0 0
          0 0 0 0 0 0
          0 0 0 0 0 0
          0 0 0 0 0 0
          0 0 0 0 0 0
          0 0 0 0 0 0
          0 0 0 0 0 0
          0 0 0 0 0 0
          0 0 0 0 0 0
          0 0 0 0 0 0
          0 0 0 0 0 0
          0 0 0 0 0 0
          0 0 0 0 0 0
          0 0 0 0 0 0
          0 0 0 0 0 0
          0 0 0 0 0 0
          0 0 0 0 0 0
          0 0 0 0 0 0
          0 0 0 0 0 0
          0 0 0 0 0 0
          0 0 0 0 0 0
          0 0 0 0 0 0
          0 0 0 0 0 0
          0 0 0 0 0 0
          0 0 0 0 0 0
          0 0 0 0 0 0
          0 0 0 0 0 0
          0 0 0 0 0 0
          0 0 0 0 0 0
          0 0 0 0 0 0
          0 0 0 0 0 0
          0 0 0 0 0 0
          0 0 0 0 0 0
          0 0 0 0 0 0
          0 0 0 0 0 0
          0 0 0 0 0 0
          0 0 0 0 0 0
          0 0 0
        </DataArray>
        <DataArray type="Float64" Name="initial_marker" format="ascii" RangeMin="0" RangeMax="2">
          0 0 2 0 0 0
          0 1.5 0.5 2 0 0.25
          0 0.5 0 0 0 0
          0 0 0 2 2 2
          0 1 0 0 0.5 2
          2 2 2 2 1.5 2
          0.5 1 0 1 0.25 0.5
          0 0 0 0 0 0.5
          0 0 0 0 0 0
          0 0 0 0 0 0
          0 0 0 0 0 0
          0 0 0 0 0 0
          0 0 0 0 0 0
          0.5 0 1.5 0 0.5 0
          0.5 0 0 0 0.6666666666666666 0.5
          1.25 2 0 0.5 0 0.5
          0 0 0 0.6666666666666666 0 0.5
          0 0 1.5 1 2 2
          1.5 2 1.5 1.5 2 2
          2 2 2 2 2 2
          2 2 2 1.25 1.3333333333333333 1.75
          2 2 2 2 2 2
          2 2 2 2 2 2
          2 2 2 0 0.5 0
          1 0 0.5 0 0.5 0
          0 0 1 1 0 1
          0 1 1 1 0 0
          1 1 0 0 0.25 0
          0 0 0 0 0.75 0.6666666666666666
          0 1 1 0 0 1
          1 0 1 1 1 1
          0 0 0 1 1 0
          0 0 0 0 0 0
          0 0 0 0 0 0
          0 0 0 0 0 0
          0 0.75 0.5 0.25 1 0.6666666666666666
          2 2 0 0.5 0 0
          0 0 0.25 0 1.25 0
          0 0 0 0 0 0
          0 0 0 0 0 0
          0 1 1.5 1.5 1.5 2
          1.5 2 1.5 2 1.5 2
          1.75 1.5 1 1.5 1 2
          2 2 2 2 1 1.5
          2 1.5 1.5 0 0.5 0
          1.25 2 2 2 2 2
          2 2 2 2 2 2
          2 2 2 2 2 2
          2 2 2 2 2 2
          2 2 2 2 2 2
          2 2 1.75 1.5 2 2
          2 2 2 2 2 2
          2 2 2 2 2 2
          2 2 2 2 2 2
          2 2 1.5
        </DataArray>
        <DataArray type="Float64" Name="markers_norefine" format="ascii" RangeMin="0" RangeMax="0">
          0 0 0 0 0 0
          0 0 0 0 0 0
          0 0 0 0 0 0
          0 0 0 0 0 0
          0 0 0 0 0 0
          0 0 0 0 0 0
          0 0 0 0 0 0
          0 0 0 0 0 0
          0 0 0 0 0 0
          0 0 0 0 0 0
          0 0 0 0 0 0
          0 0 0 0 0 0
          0 0 0 0 0 0
          0 0 0 0 0 0
          0 0 0 0 0 0
          0 0 0 0 0 0
          0 0 0 0 0 0
          0 0 0 0 0 0
          0 0 0 0 0 0
          0 0 0 0 0 0
          0 0 0 0 0 0
          0 0 0 0 0 0
          0 0 0 0 0 0
          0 0 0 0 0 0
          0 0 0 0 0 0
          0 0 0 0 0 0
          0 0 0 0 0 0
          0 0 0 0 0 0
          0 0 0 0 0 0
          0 0 0 0 0 0
          0 0 0 0 0 0
          0 0 0 0 0 0
          0 0 0 0 0 0
          0 0 0 0 0 0
          0 0 0 0 0 0
          0 0 0 0 0 0
          0 0 0 0 0 0
          0 0 0 0 0 0
          0 0 0 0 0 0
          0 0 0 0 0 0
          0 0 0 0 0 0
          0 0 0 0 0 0
          0 0 0 0 0 0
          0 0 0 0 0 0
          0 0 0 0 0 0
          0 0 0 0 0 0
          0 0 0 0 0 0
          0 0 0 0 0 0
          0 0 0 0 0 0
          0 0 0 0 0 0
          0 0 0 0 0 0
          0 0 0 0 0 0
          0 0 0 0 0 0
          0 0 0 0 0 0
          0 0 0
        </DataArray>
        <DataArray type="Float64" Name="markers_mustrefine" format="ascii" RangeMin="0" RangeMax="2">
          0 0 2 0 0 0
          0 1.5 0.5 2 0 0.25
          0 0.5 0 0 0 0
          0 0 0 2 2 2
          0 1 0 0 0.5 2
          2 2 2 2 1.5 2
          0.5 1 0 1 0.25 0.5
          0 0 0 0 0 0.5
          0 0 0 0 0 0
          0 0 0 0 0 0
          0 0 0 0 0 0
          0 0 0 0 0 0
          0 0 0 0 0 0
          0.5 0 1.5 0 0.5 0
          0.5 0 0 0 0.6666666666666666 0.5
          1.25 2 0 0.5 0 0.5
          0 0 0 0.6666666666666666 0 0.5
          0 0 1.5 1 2 2
          1.5 2 1.5 1.5 2 2
          2 2 2 2 2 2
          2 2 2 1.25 1.3333333333333333 1.75
          2 2 2 2 2 2
          2 2 2 2 2 2
          2 2 2 0 0.5 0
          1 0 0.5 0 0.5 0
          0 0 1 1 0 1
          0 1 1 1 0 0
          1 1 0 0 0.25 0
          0 0 0 0 0.75 0.6666666666666666
          0 1 1 0 0 1
          1 0 1 1 1 1
          0 0 0 1 1 0
          0 0 0 0 0 0
          0 0 0 0 0 0
          0 0 0 0 0 0
          0 0.75 0.5 0.25 1 0.6666666666666666
          2 2 0 0.5 0 0
          0 0 0.25 0 1.25 0
          0 0 0 0 0 0
          0 0 0 0 0 0
          0 1 1.5 1.5 1.5 2
          1.5 2 1.5 2 1.5 2
          1.75 1.5 1 1.5 1 2
          2 2 2 2 1 1.5
          2 1.5 1.5 0 0.5 0
          1.25 2 2 2 2 2
          2 2 2 2 2 2
          2 2 2 2 2 2
          2 2 2 2 2 2
          2 2 2 2 2 2
          2 2 1.75 1.5 2 2
          2 2 2 2 2 2
          2 2 2 2 2 2
          2 2 2 2 2 2
          2 2 1.5
        </DataArray>
        <DataArray type="Float64" Name="gradient_marker" format="ascii" RangeMin="0" RangeMax="1">
          1 0.875 0.75 0.75 1 1
          1 0.375 1 1 0.6666666666666666 0.5
          0.5 0.5 1 1 1 1
          1 1 1 0.875 0.5 1
          1 0.5 1 1 1 0.875
          0.625 1 1 0.75 1 1
          0 0 0 0 0.5 0.5
          1 1 0.5 0.5 1 0.5
          1 0.5 1 1 1 1
          1 1 1 1 1 1
          1 1 1 0 0 0
          0.5 0.5 1 1 0.5 0.5
          1 1 1 1 1 1
          1 1 1 1 1 1
          1 1 1 1 1 1
          1 1 1 1 1 1
          1 1 1 1 1 1
          1 1 1 1 1 1
          1 1 1 1 1 1
          1 1 1 1 1 1
          1 1 1 1 1 1
          1 1 1 1 1 1
          1 1 1 1 1 1
          1 1 1 1 1 1
          1 1 1 1 1 1
          1 1 1 1 1 1
          1 1 1 1 1 1
          1 1 1 1 1 1
          1 1 1 1 1 1
          1 1 1 1 1 1
          1 1 1 1 1 1
          1 1 1 1 1 1
          1 1 1 1 1 1
          1 1 1 1 1 1
          1 0.875 1 0.5 1 1
          0.5 0.5 1 0.5 0.125 0
          0.5 0.625 1 1 1 1
          1 1 1 1 1 1
          1 1 1 0.6666666666666666 1 1
          1 1 1 0.5 1 1
          1 1 1 1 1 1
          1 1 1 1 1 1
          1 1 1 1 1 1
          1 1 1 1 1 1
          1 1 1 1 1 1
          1 1 1 1 1 1
          1 1 1 1 1 1
          1 1 1 1 1 1
          1 1 1 1 1 1
          1 1 1 1 1 1
          1 1 1 1 1 1
          1 1 1 1 1 1
          1 1 1 1 1 1
          1 1 1 1 1 1
          1 1 1
        </DataArray>
        <DataArray type="Float64" Name="gradient_matprop_marker" format="ascii" RangeMin="0" RangeMax="0">
          0 0 0 0 0 0
          0 0 0 0 0 0
          0 0 0 0 0 0
          0 0 0 0 0 0
          0 0 0 0 0 0
          0 0 0 0 0 0
          0 0 0 0 0 0
          0 0 0 0 0 0
          0 0 0 0 0 0
          0 0 0 0 0 0
          0 0 0 0 0 0
          0 0 0 0 0 0
          0 0 0 0 0 0
          0 0 0 0 0 0
          0 0 0 0 0 0
          0 0 0 0 0 0
          0 0 0 0 0 0
          0 0 0 0 0 0
          0 0 0 0 0 0
          0 0 0 0 0 0
          0 0 0 0 0 0
          0 0 0 0 0 0
          0 0 0 0 0 0
          0 0 0 0 0 0
          0 0 0 0 0 0
          0 0 0 0 0 0
          0 0 0 0 0 0
          0 0 0 0 0 0
          0 0 0 0 0 0
          0 0 0 0 0 0
          0 0 0 0 0 0
          0 0 0 0 0 0
          0 0 0 0 0 0
          0 0 0 0 0 0
          0 0 0 0 0 0
          0 0 0 0 0 0
          0 0 0 0 0 0
          0 0 0 0 0 0
          0 0 0 0 0 0
          0 0 0 0 0 0
          0 0 0 0 0 0
          0 0 0 0 0 0
          0 0 0 0 0 0
          0 0 0 0 0 0
          0 0 0 0 0 0
          0 0 0 0 0 0
          0 0 0 0 0 0
          0 0 0 0 0 0
          0 0 0 0 0 0
          0 0 0 0 0 0
          0 0 0 0 0 0
          0 0 0 0 0 0
          0 0 0 0 0 0
          0 0 0 0 0 0
          0 0 0
        </DataArray>
        <DataArray type="Float64" Name="combo" format="ascii" RangeMin="0" RangeMax="1">
          1 0.875 0.75 0.75 1 1
          1 0.375 1 1 0.6666666666666666 0.5
          0.5 0.5 1 1 1 1
          1 1 1 0.875 0.5 1
          1 0.5 1 1 1 0.875
          0.625 1 1 0.75 1 1
          0 0 0 0 0.5 0.5
          1 1 0.5 0.5 1 0.5
          1 0.5 1 1 1 1
          1 1 1 1 1 1
          1 1 1 0 0 0
          0.5 0.5 1 1 0.5 0.5
          1 1 1 1 1 1
          1 1 1 1 1 1
          1 1 1 1 1 1
          1 1 1 1 1 1
          1 1 1 1 1 1
          1 1 1 1 1 1
          1 1 1 1 1 1
          1 1 1 1 1 1
          1 1 1 1 1 1
          1 1 1 1 1 1
          1 1 1 1 1 1
          1 1 1 1 1 1
          1 1 1 1 1 1
          1 1 1 1 1 1
          1 1 1 1 1 1
          1 1 1 1 1 1
          1 1 1 1 1 1
          1 1 1 1 1 1
          1 1 1 1 1 1
          1 1 1 1 1 1
          1 1 1 1 1 1
          1 1 1 1 1 1
          1 0.875 1 0.5 1 1
          0.5 0.5 1 0.5 0.125 0
          0.5 0.625 1 1 1 1
          1 1 1 1 1 1
          1 1 1 0.6666666666666666 1 1
          1 1 1 0.5 1 1
          1 1 1 1 1 1
          1 1 1 1 1 1
          1 1 1 1 1 1
          1 1 1 1 1 1
          1 1 1 1 1 1
          1 1 1 1 1 1
          1 1 1 1 1 1
          1 1 1 1 1 1
          1 1 1 1 1 1
          1 1 1 1 1 1
          1 1 1 1 1 1
          1 1 1 1 1 1
          1 1 1 1 1 1
          1 1 1 1 1 1
          1 1 1
        </DataArray>
        <DataArray type="Float64" Name="dHdT" format="ascii" RangeMin="25.813199276624502" RangeMax="34.638868680380455">
          25.848771753975484 25.900992781359562 29.718633667885435 25.976245151437652 25.824070274495188 25.83314547446833
          25.842220674441474 27.877063995409372 26.383415026933413 27.030146308887534 26.085352108160595 26.42532327811618
          26.03572397692151 26.67120584210332 25.88787314887919 25.96982591873131 25.871689620362744 25.91520652194954
          26.037107904584595 25.939306106367994 25.813209714921626 33.10323287867469 29.567830379143185 34.638868680380455
          26.106756453356525 27.14800683625291 25.928104078092456 25.95576614809774 26.074917473578026 31.314147006815574
          28.067194732342443 26.81205392463287 32.711151307350484 28.527375446890574 26.2783014831811 26.40363989351739
          26.633170231861804 26.98560770216462 26.539992199344496 27.15904534698034 26.42694677496276 26.703265293223563
          26.09119183219834 26.195126497255877 26.22126858184462 26.367120275503318 26.09988241022639 26.835458953270418
          26.252902147582432 26.436410216611804 25.95056313816625 25.995497796914794 25.919472935155127 25.955678007430823
          26.022539211762613 25.97309456438937 25.84042912593742 25.869103369937008 25.851998152877922 25.83170693067125
          25.851188091812137 25.827911398183176 25.84009185068879 26.144379223877408 26.299274815126054 26.157120220032745
          26.068231358580082 26.184276886445684 25.950839620529916 26.006082253076308 26.006968814698823 26.07583782199661
          25.951541332727086 25.88639683127272 25.910122418517513 25.870790974706047 25.885737697272013 26.618734252113907
          26.830001214584712 26.660223462176535 27.312537259437754 26.49580047498264 26.67353094767637 26.287354695220962
          26.40925395018384 26.391386765747516 26.528230605537612 26.3053383140761 26.759418452072925 26.017155941393497
          26.084056079626684 26.25480102302583 26.140424864362185 26.224932107613917 26.035093936019145 26.093504057459544
          26.088475958168125 26.151131503049303 26.042410637962355 26.260366133178128 25.96187385662715 26.000861538833227
          25.938673729182064 25.966924903691243 26.09746815488969 26.03514033289266 29.162506845817692 27.914910994471278
          27.168653242071496 28.532403953985614 26.95940361806444 26.606410594950717 27.24385490259735 31.58583938983368
          29.02264441935078 27.748072378647223 29.226496577852892 27.45929446644817 26.970252245140752 27.543095908384977
          26.493831190579563 27.449398645664754 26.76679367237806 26.359977977192308 26.23312301488944 26.50823291916371
          26.22592405260467 26.123337344563467 26.364948498479773 26.170245692662757 27.935589401197134 26.996409513717403
          28.138735462593605 27.08824823564601 26.62430215931459 26.372556909747335 26.668438758884417 26.476302540351597
          26.18917671714239 26.51946910021292 26.20876994606166 26.59484447072515 26.69423060147966 26.514502196530383
          26.87584904319667 26.47405232892921 26.55630524373872 26.26717602041171 26.322959336536847 26.344126715473315
          26.403210487263905 26.21593988585513 26.709936153549673 26.430642465261098 26.513289732665985 27.009459971844166
          26.74569164215037 27.060838589529176 26.825352476580075 26.514162884585247 26.59627936955622 26.34850921456027
          26.869390804609026 26.54578349131029 26.62827353283496 26.12210849473709 26.161336024345374 26.063125135784034
          26.095133261614826 26.060904888927542 26.087971953752316 26.0359829137918 26.237499937240457 26.1281405793583
          26.1398921032402 26.297152426156714 26.14336157950919 26.180658401752083 26.062180150743995 26.319868531786177
          26.158082983703743 26.196571615600853 26.02705435348268 26.035023665998686 25.985163384613276 25.990548237437906
          25.97636183913684 25.981205702011945 25.9492165738816 26.04299297851469 25.99593309026254 25.986049564887054
          25.81657891560978 25.816956616102765 25.82957408372844 25.819696439114836 25.844376376691088 25.822436262126907
          25.837753117376458 25.85786507719159 25.850196176314764 25.87380107052371 25.81363891731047 25.813199276624502
          25.813226646565948 25.850357121578405 25.817575358650032 26.454016723300676 26.17288172193574 25.977071493902486
          26.221527688931644 26.959422301315826 26.315780620057076 26.455415937022064 27.66479016464619 26.912608350041186
          30.04303421588215 28.75462542066796 25.992368089687126 26.05546365833182 25.895800513570254 25.85693991951873
          25.921470327617328 25.8793270941407 25.93445298530405 25.887227647310937 26.01474383150434 25.906504944126326
          25.8812132921272 25.91082193866786 25.835697841098177 25.961672193778867 25.876260981149926 25.820085960741824
          25.8335523376243 25.826613009443918 25.823500809617986 26.284665858615455 25.85017149435727 25.860433879396247
          25.850291756757073 26.73793499383258 27.232584817860342 27.018791450661745 26.657199254499115 27.707277763323503
          27.085681015311405 27.150040459116916 26.700601906642902 26.226612631290777 26.089771965878846 26.385087213238137
          26.198635535155763 26.217243226504227 25.994147073578898 26.065294203306173 25.990083779561946 26.800875510447153
          26.485613014545905 26.466711551102915 26.255079366355655 26.10196225531857 26.26189033062795 26.402308324933987
          26.755111256078827 26.429838712401658 26.23605471787806 25.91160114187589 25.93660506346987 25.915262396824637
          25.999588567514778 28.661795969727272 27.601989681974743 27.07181698165885 29.775086133873778 28.138185739915684
          27.465744200236863 30.735012916386513 28.56518751684263 27.77969164819409 31.12853788532393 28.737882307550684
          27.90147825109307 27.42554408482036 26.915040438093992 26.812850582612413 26.540688919243806 26.260898842396486
          28.37435618047732 27.548444551193434 30.004792629318207 28.6053165202554 28.21938140860351 26.95618557191066
          27.622843526604036 26.89275603940824 27.20863677862529 26.442847705066804 26.696174286837632 26.423067418930916
          26.982153238539215 26.625990947184132 26.084587761554758 26.018019565593093 26.176270836098865 31.584840593283932
          29.684066774474136 28.96473676498178 28.27289295330317 27.207722718843723 27.543763079284517 26.59552237471714
          32.2304795948828 30.164414783160883 29.28360965668845 28.554956154728565 27.33759379768071 27.678457890369387
          26.65624993091599 27.21050643243393 26.789369746989692 27.29881688752704 26.85269718061678 26.249028675964137
          26.09338001163925 26.27712305287435 26.059269359936657
        </DataArray>
        <DataArray type="Float64" Name="dk/dtemperature" format="ascii" RangeMin="0.009219068029116689" RangeMax="0.015804580349343195">
          0.015790658416831353 0.015783697450575437 0.012061754259208054 0.015721048754272163 0.015804580349343195 0.015804580349343195
          0.015804580349343195 0.013512234270890204 0.015171048552991225 0.014290689201178762 0.01559658890094936 0.015173688668461686
          0.015700165855504405 0.014884221499397767 0.015804580349343192 0.015762814551807676 0.015804580349343192 0.015804580349343192
          0.015679282956736647 0.015804580349343192 0.015804580349343192 0.009818129670396438 0.01212918450947032 0.009219068029116689
          0.015606192811049495 0.014241692414967894 0.015804580349343192 0.01579413889995931 0.015658400057968893 0.010741745531645315
          0.01325106799313762 0.01456330333307512 0.00998255184008973 0.012892284696236144 0.01531861265091038 0.015111293270372646
          0.014821572803094507 0.014367553364715503 0.014880197577382463 0.014171426843083052 0.015136767042345282 0.014741813528848817
          0.01562707570981725 0.015439129620907438 0.015412585695365287 0.015154442874453009 0.015616634260433374 0.014567578007768272
          0.015329054100294257 0.015037699922305546 0.01579413889995931 0.015794138899959315 0.015804580349343192 0.015804580349343192
          0.01576281455180768 0.015804580349343192 0.01580458034934319 0.01580458034934319 0.01580458034934319 0.01580458034934319
          0.01580458034934319 0.01580458034934319 0.015804580349343192 0.015553985564130103 0.01531672564198558 0.0155539855641301
          0.01565840005796889 0.015498004299361113 0.015783697450575434 0.015731490203656037 0.015762814551807676 0.01565840005796889