<?xml version="1.0"?>
<VTKFile type="UnstructuredGrid" version="0.1" byte_order="LittleEndian" header_type="UInt32" compressor="vtkZLibDataCompressor">
  <UnstructuredGrid>
    <Piece NumberOfPoints="595" NumberOfCells="347">
      <PointData>
        <DataArray type="Int32" Name="libmesh_node_id" format="ascii" RangeMin="577" RangeMax="3818">
          585 678 679 680 683 1086
          1087 1088 1092 1095 1097 1098
          1099 1100 1101 1102 1103 1104
          1107 1108 1113 1114 1119 1121
          1122 1123 1127 1128 1746 1748
          1749 1750 1751 1752 1753 1754
          1755 1756 1757 1758 1759 1760
          1761 1762 1763 1764 1766 1767
          1768 1785 1786 1788 1791 1805
          1806 1809 1811 1826 1828 1831
          1841 1843 1845 1847 1848 1849
          1850 1851 1852 1853 1854 1855
          1856 1857 1858 1859 1860 1863
          1864 1865 1867 1868 1869 1870
          1871 1872 1874 1875 1876 1887
          1888 1889 1890 1891 1892 1893
          1894 1895 1896 1897 1898 1899
          1900 1903 1904 1905 1907 1908
          1909 1911 1912 1913 1945 1946
          1947 1948 1952 1955 1956 1959
          1960 1965 1966 2003 2004 2009
          2010 2412 2429 2433 2967 2968
          2969 2970 2971 2998 3083 3096
          3098 3100 3117 3130 3132 3134
          3160 3170 3172 3174 3176 3177
          3178 3179 3180 3181 3182 3183
          3184 3185 3186 3187 3188 3189
          3190 3191 3192 3193 3194 3195
          3197 3198 3199 3200 3201 3202
          3203 3204 3205 3206 3207 3208
          3209 3210 3211 3212 3214 3215
          3216 3231 3232 3233 3234 3235
          3236 3237 3238 3239 3240 3241
          3242 3243 3244 3245 3246 3247
          3248 3249 3250 3251 3252 3253
          3254 3255 3256 3257 3258 3259
          3260 3261 3262 3263 3264 3265
          3266 3267 3268 3269 3270 3271
          3272 3273 3274 3275 3276 3277
          3278 3279 3280 3281 3282 3283
          3284 3285 3286 3287 3288 3289
          3290 3291 3292 3293 3294 3295
          3296 3297 3298 3299 3300 3301
          3302 3303 3304 3305 3306 3307
          3308 3309 3310 3311 3312 3313
          3314 3315 3316 3317 3318 3319
          3320 3321 3322 3323 3324 3325
          3326 3327 3328 3330 3331 3333
          3334 3335 3336 3337 3338 3339
          3340 3341 3342 3343 3344 3345
          3346 3347 3348 3349 3350 3351
          3352 3353 3354 3355 3357 3358
          3359 3360 3361 3364 3365 3367
          3368 3369 3370 3371 3372 3373
          3374 3375 3376 3377 3378 3379
          3380 3381 3382 3383 3384 3385
          3386 3387 3389 3398 3400 3402
          3404 3432 3433 3434 3435 3436
          3437 3438 3439 3440 3441 3442
          3443 3444 3445 3446 3447 3448
          3449 3450 3451 3452 3453 3454
          3455 3456 3457 3459 3460 3461
          3462 3463 3464 3465 3466 3467
          3468 3469 3470 3471 3474 3476
          3477 3479 3480 3481 3482 3483
          3487 3488 3490 3491 3497 3500
          3501 3502 3503 3504 3505 3506
          3507 3508 3509 3510 3511 3514
          3516 3517 3519 3520 3521 3524
          3525 3527 3531 3752 3753 3754
          3755 3756 3757 3758 3759 3760
          3761 3762 3763 3766 3768 3769
          3771 3772 3776 3786 3787 3788
          3789 3790 3791 3792 3793 3794
          3795 3796 3797 3800 3802 3803
          3805 3806 3810 830 834 835
          831 577 682 1105 1106 1110
          681 1109 684 1151 1152 1153
          1154 1158 1159 1765 1769 1861
          1862 1866 1124 1873 1116 1125
          1877 1878 1881 1882 1884 1886
          1910 689 1130 1901 1914 1916
          1918 1920 1949 1950 1951 1953
          1954 1958 1957 1162 2430 2413
          2431 2432 2434 2414 2435 3329
          3332 1902 3356 1906 3362 3363
          3366 1129 3388 3399 3401 3403
          1161 3458 3472 3473 3475 1961
          3478 1962 3484 3485 3196 3486
          3489 1963 3492 3493 3494 3495
          3496 3498 3499 1964 3512 3513
          3515 1165 3518 1967 3522 3213
          3523 3526 1968 3528 3529 3530
          3532 3533 1166 3764 3765 3767
          2005 3770 2006 3773 3774 3775
          3777 3778 2007 3779 3780 3781
          3782 3783 3784 3798 3799 3801
          1171 3804 2011 3807 3808 3809
          3811 3812 2012 3813 3814 3817
          3818
        </DataArray>
        <DataArray type="Float64" Name="bounds" format="ascii" RangeMin="0" RangeMax="0">
          0 0 0 0 0 0
          0 0 0 0 0 0
          0 0 0 0 0 0
          0 0 0 0 0 0
          0 0 0 0 0 0
          0 0 0 0 0 0
          0 0 0 0 0 0
          0 0 0 0 0 0
          0 0 0 0 0 0
          0 0 0 0 0 0
          0 0 0 0 0 0
          0 0 0 0 0 0
          0 0 0 0 0 0
          0 0 0 0 0 0
          0 0 0 0 0 0
          0 0 0 0 0 0
          0 0 0 0 0 0
          0 0 0 0 0 0
          0 0 0 0 0 0
          0 0 0 0 0 0
          0 0 0 0 0 0
          0 0 0 0 0 0
          0 0 0 0 0 0
          0 0 0 0 0 0
          0 0 0 0 0 0
          0 0 0 0 0 0
          0 0 0 0 0 0
          0 0 0 0 0 0
          0 0 0 0 0 0
          0 0 0 0 0 0
          0 0 0 0 0 0
          0 0 0 0 0 0
          0 0 0 0 0 0
          0 0 0 0 0 0
          0 0 0 0 0 0
          0 0 0 0 0 0
          0 0 0 0 0 0
          0 0 0 0 0 0
          0 0 0 0 0 0
          0 0 0 0 0 0
          0 0 0 0 0 0
          0 0 0 0 0 0
          0 0 0 0 0 0
          0 0 0 0 0 0
          0 0 0 0 0 0
          0 0 0 0 0 0
          0 0 0 0 0 0
          0 0 0 0 0 0
          0 0 0 0 0 0
          0 0 0 0 0 0
          0 0 0 0 0 0
          0 0 0 0 0 0
          0 0 0 0 0 0
          0 0 0 0 0 0
          0 0 0 0 0 0
          0 0 0 0 0 0
          0 0 0 0 0 0
          0 0 0 0 0 0
          0 0 0 0 0 0
          0 0 0 0 0 0
          0 0 0 0 0 0
          0 0 0 0 0 0
          0 0 0 0 0 0
          0 0 0 0 0 0
          0 0 0 0 0 0
          0 0 0 0 0 0
          0 0 0 0 0 0
          0 0 0 0 0 0
          0 0 0 0 0 0
          0 0 0 0 0 0
          0 0 0 0 0 0
          0 0 0 0 0 0
          0 0 0 0 0 0
          0 0 0 0 0 0
          0 0 0 0 0 0
          0 0 0 0 0 0
          0 0 0 0 0 0
          0 0 0 0 0 0
          0 0 0 0 0 0
          0 0 0 0 0 0
          0 0 0 0 0 0
          0 0 0 0 0 0
          0 0 0 0 0 0
          0 0 0 0 0 0
          0 0 0 0 0 0
          0 0 0 0 0 0
          0 0 0 0 0 0
          0 0 0 0 0 0
          0 0 0 0 0 0
          0 0 0 0 0 0
          0 0 0 0 0 0
          0 0 0 0 0 0
          0 0 0 0 0 0
          0 0 0 0 0 0
          0 0 0 0 0 0
          0 0 0 0 0 0
          0 0 0 0 0 0
          0 0 0 0 0 0
          0 0 0 0 0 0
          0
        </DataArray>
        <DataArray type="Float64" Name="gradient_error" format="ascii" RangeMin="1.517163678382088e-10" RangeMax="1.199319097511336e-7">
          1.2453469351614167e-8 3.1857919054626575e-9 1.3178607122425856e-8 5.772124542042451e-8 7.119498639843201e-9 3.529425584615583e-9
          3.594833603003699e-8 2.919536449613664e-8 1.6737390377087013e-8 4.3310481846422666e-8 8.57082385633248e-10 1.573884122440656e-9
          1.5051444746257225e-8 1.3820108455621253e-8 7.122684091027483e-10 8.568714647233636e-10 2.7741144246757e-9 2.4012504335297453e-9
          3.082271542907645e-8 2.3929558514225237e-8 6.66305147049458e-8 7.223223779573864e-8 1.6477781919982608e-8 6.193683285700155e-8
          6.279482600441858e-8 3.250706445099346e-8 8.39535794788579e-9 1.931200540353421e-8 4.154852393004632e-8 3.6204256456054234e-9
          5.059183640085321e-9 4.505903111210248e-9 3.952622582335175e-9 3.846691295306212e-8 3.5166717654235185e-8 2.0835352404923363e-8
          2.6655271649492304e-8 2.685360036800159e-9 2.589854446872984e-9 4.0827458042460315e-9 3.6917125673511443e-9 1.1502339944611816e-9
          1.814618997285141e-9 1.9740550385606238e-9 2.494348856945809e-9 3.300679330456258e-9 1.4989121174931393e-8 1.3534953078746757e-8
          6.650034082789744e-9 7.980423298855395e-8 7.307963669514188e-8 5.524794138892973e-8 6.169399908706527e-8 2.0773224013211354e-8
          3.397959200963305e-8 2.381834164313642e-8 6.720676174193458e-8 1.773068115564977e-8 4.13893886738032e-8 1.3631506018359235e-8
          6.842972542904554e-8 7.163783533226802e-8 4.9872966563649785e-8 7.458241989738212e-8 6.760881666789259e-8 6.635732905953054e-8
          5.959338556663376e-8 4.97578753918962e-8 4.284808226615163e-8 6.578390573269912e-8 6.022806574956537e-8 5.59570868078294e-8
          6.901395123943134e-8 5.578391985667528e-8 4.97935610074859e-8 2.761630748474655e-8 2.4535168360733308e-8 5.5009100269670235e-8
          4.8806870718317715e-8 2.8441689941257045e-8 1.7048383683641894e-8 2.9501613802747508e-8 1.3402702163258658e-8 2.468967221751084e-8
          1.2652746423707426e-8 2.012269026010565e-8 6.286562451478316e-8 5.644599777035139e-8 4.1463348109063735e-8 2.0483041029739633e-8
          2.0033341685316697e-8 2.2444606024789405e-8 2.181043323745035e-8 4.221897386639164e-8 4.144013713248373e-8 7.730640304823867e-9
          1.5289480272029905e-8 1.682595049964707e-8 1.816134820178396e-8 2.3522118898266246e-8 2.2842711698518272e-8 2.3608775679498986e-8
          2.2684182067841726e-8 1.0628388009464585e-8 1.7983113277972754e-8 1.7842226163666056e-8 6.552620452897843e-8 5.996185580643035e-8
          6.6399564692217e-8 4.762929518514882e-8 4.3582668484190755e-8 7.746506726281041e-8 4.884828439458485e-10 5.334089516978358e-10
          3.419982037491082e-10 8.105584919903921e-10 5.829678011644739e-10 7.24073702561983e-10 1.0226822872002495e-9 3.494577071178268e-9
          3.0281993907114145e-9 1.2861975989418734e-8 1.0900089328723012e-8 2.2004540137885115e-8 2.0956415181251908e-8 1.2833936807370852e-8
          1.618828983465031e-8 7.155873099344623e-10 4.834475302641955e-10 3.7929451764926645e-10 3.999064278231811e-10 4.921276433509886e-10
          4.702474345021225e-10 4.483672256532564e-10 1.182876295018151e-9 1.8263982605451238e-8 1.8389577653620318e-8 1.7992482381048275e-8
          1.785542474674425e-8 1.7468225307537146e-8 1.5545480868155635e-8 1.6481196341909935e-8 1.6737274153252074e-8 1.5746924225390886e-8
          1.6946743362180906e-8 1.7001604196157784e-8 1.7029470921873173e-8 1.7056465030134663e-8 1.9993106016114034e-8 1.9899163657741317e-8
          2.0792619632346267e-8 1.964743654270715e-8 2.169073034587654e-8 2.1618075016810043e-8 2.2288967155708162e-8 2.100562027324898e-8
          1.8794094031757276e-8 1.9105587794743664e-8 1.8098536277468856e-8 1.9158858814679522e-8 1.8879190402861867e-8 1.7851896770604628e-8
          2.2765621371503697e-9 2.2079659096048814e-9 2.040033365142766e-9 4.952315326579922e-9 1.463015521279587e-9 1.774829566110913e-9
          3.760544755308314e-9 2.3028595745348724e-8 2.263780442245087e-8 2.2325105275573322e-8 2.107677090655529e-8 8.899245492690357e-9
          8.522718615841206e-9 7.676448677054646e-9 2.1982284009299134e-8 2.1254183436488596e-8 1.639423864616575e-8 1.9048449626715072e-8
          1.819765915156656e-8 1.715097512647203e-8 1.6488789589575554e-8 6.465405973673056e-9 1.5833346911312244e-8 1.2078802418411825e-8
          1.4095877432872399e-8 2.0142238275367078e-8 1.9923924103086308e-8 2.1194978192869655e-8 2.092751628958418e-8 1.938591669861719e-8
          2.0287997012759206e-8 1.9214670648773998e-8 1.9189582750077745e-8 2.039181571934067e-8 1.8922113861692588e-8 2.209117471496035e-8
          2.1791754699064846e-8 2.2770589154560567e-8 2.245232101706933e-8 2.1048890291889364e-8 2.1586003293032858e-8 2.158231804236366e-8
          2.1441716924285816e-8 2.2294868917249712e-8 2.100765502232729e-8 1.8733491919453653e-8 1.9333811896296657e-8 1.840076037247845e-8
          1.875168415337361e-8 1.8515826014866215e-8 1.9495001463115552e-8 1.813521648970164e-8 1.9760344373459106e-8 1.9953133131290318e-8
          1.891524284630883e-8 1.886831255609301e-8 2.036521462822412e-8 2.1059022207403558e-8 1.9573030994068145e-8 1.2884999894421665e-8
          1.42509215847579e-8 1.3588325301129964e-8 1.508200266954366e-8 1.6597150780755856e-8 1.7592692717362806e-8 7.632029025915462e-9
          1.0071362217791604e-8 1.0442786847228075e-8 1.4474470692653767e-8 1.4265277437658673e-8 1.588540103655623e-8 1.509708133765298e-8
          1.673566169105447e-8 1.849892495762496e-8 1.9279775594925418e-8 7.857537874634189e-9 1.0852802605860463e-8 1.1497260426040017e-8
          1.6074700181125092e-8 1.7566512789773088e-8 1.856806536336638e-8 1.7613767669377038e-8 1.8398143515976687e-8 1.6774263356963778e-8
          1.77081637983513e-8 1.737620283794564e-8 1.94237607571958e-8 2.007068754259886e-8 1.908795427710019e-8 1.9642652604822676e-8
          1.847892219018207e-8 1.9050406530109375e-8 1.8805656524104686e-8 2.3206463374879995e-8 2.2865320540153227e-8 2.3323478426823704e-8
          2.29449737779522e-8 2.184281277741251e-8 2.1741057742514995e-8 2.3072833019478843e-8 2.294419145282029e-8 2.3400883838159987e-8
          2.2437993353494404e-8 2.305014485973647e-8 2.26181032776087e-8 2.2351760380017845e-8 2.189369119783036e-8 2.1244905196304196e-8
          2.0392638565901375e-8 2.3759533277401082e-8 2.359256707966545e-8 2.3387844200565716e-8 2.2943602920817612e-8 1.9850276100489068e-8
          1.9387823716561472e-8 1.8539104351579578e-8 1.786000107717365e-8 2.1536318750763957e-8 2.173104754301022e-8 2.039665835821187e-8
          1.8560585269126872e-8 1.746266017790702e-8 1.681742184112628e-8 2.1585026303805168e-8 2.1080483393750564e-8 1.6106106177094856e-8
          1.7605587927178837e-8 1.6987070278255224e-8 1.8302036207281825e-8 1.9886383925382568e-8 2.0244688040653578e-8 9.450877319643288e-9
          1.2415629606572669e-8 1.3367147018574755e-8 1.7505635792046047e-8 1.753864660125182e-8 1.8674080398104868e-8 1.7720850070837784e-8
          1.8659464771093652e-8 2.0280185387026178e-8 1.9963984039918314e-8 1.1676232357875292e-8 1.4145049755607636e-8 1.4605052691906514e-8
          1.811452569831045e-8 2.0485215103776965e-8 2.0686207658577047e-8 1.9986665906555188e-8 1.94006857554376e-8 1.9534992537784567e-8
          1.9673053832584386e-8 2.0686478173915453e-8 2.0400888628768276e-8 1.9490727367162063e-8 1.9196110222067598e-8 1.736525113723036e-8
          1.76481340401809e-8 1.7028691120813276e-8 1.7783439372251792e-8 1.7709909992137214e-8 1.6880255798302412e-8 1.7493750345407334e-8
          1.785504678728547e-8 1.731553264518919e-8 1.7440231872582072e-8 1.762224955358431e-8 1.8061959534390046e-8 1.7602374169565105e-8
          1.8078856185383943e-8 1.812041334832565e-8 1.7337000051162962e-8 1.691158742680879e-8 1.837427299851609e-8 1.8530916704514084e-8
          1.779374430402351e-8 1.7352007688073617e-8 1.5538441662913308e-8 1.7907942491219104e-8 1.6145285203379438e-8 1.8463877294364595e-8
          1.6752128743845572e-8 3.1339279759727984e-10 3.235579345248268e-10 4.312723413012476e-10 4.1594763092882347e-10 2.1590767854288132e-10
          3.171083029158999e-10 3.0996351336521103e-10 3.3372307145237384e-10 4.006229205563993e-10 3.028187238145223e-10 1.029247165175698e-9
          9.877554920354575e-10 6.913642949111337e-10 1.0580985037818063e-9 1.56639436005467e-10 1.6816114184874945e-10 2.2621343629687365e-10
          2.2282084651322315e-10 1.517163678382088e-10 1.8862730601345418e-10 1.873624936515486e-10 1.7968284769203185e-10 2.1942825672957262e-10
          1.8609768128964304e-10 5.394631802533108e-10 5.15586001858616e-10 5.35812820087487e-10 2.064758541872535e-9 2.0008870782975435e-9
          1.6456002128282996e-9 1.5907188451298845e-9 1.8335229260965536e-9 1.4369773823081683e-9 4.5161832952542285e-9 4.3457467491507965e-9
          3.3713790090676276e-9 3.9145532194211086e-9 1.281088973110581e-9 1.2347949153475363e-9 1.1069023844435425e-9 2.815446039920407e-9
          2.713068082484119e-9 2.42731742451139e-9 1.168079983091956e-9 1.5761971087097779e-9 7.549992120129601e-10 1.210349706905558e-9
          3.2911909613070072e-9 2.532331371935725e-9 5.612898212677755e-10 9.236303799935556e-10 2.015962398338318e-9 8.159962475100462e-9
          7.835487518820422e-9 6.868428400874654e-9 6.612889471209131e-9 7.034703179763131e-9 5.904989629666433e-9 1.4310852183699049e-8
          1.3733928541140477e-8 1.2335794369433992e-8 1.2181704689938802e-8 5.810994864515328e-9 5.589794117326589e-9 4.977179650070477e-9
          1.118700969154026e-8 1.0730792386171542e-8 9.478427983902436e-9 5.894223697804894e-9 4.901349336908023e-9 1.003437875085295e-8
          8.911194958231315e-9 4.104588818337516e-9 7.71902068750289e-9 2.1336172493209063e-8 2.0844059855790275e-8 2.000072086763418e-8
          1.942991811727882e-8 1.9187916522150197e-8 1.7616755938576218e-8 2.299684426589247e-8 2.2769611601842052e-8 2.178462470102566e-8
          2.202662926595627e-8 1.8238950241420162e-8 1.7618224053551433e-8 1.5770558590661218e-8 2.067065767801355e-8 2.0441440628471006e-8
          1.9509060866772725e-8 1.614308868500425e-8 2.0196543718591834e-8 1.7448910032085546e-8 1.8221506040291667e-8 1.6768034302252675e-8
          1.7425945953596712e-8 1.9324978903055474e-8 1.846569567337888e-8 1.2862505149497532e-8 1.4638133545395061e-8 1.4156639373739808e-8
          1.7163082340655862e-8 1.5859066320742146e-8 1.640179529629264e-8 1.7444709634269767e-8 1.2250835056709657e-8 1.3164923118243529e-8
          1.5094955571269238e-8 1.9790631808922083e-8 1.8595975756286455e-8 2.6355248314879087e-9 6.31516285964821e-10 6.074421673134837e-10
          2.468139256687225e-9 8.829854106087189e-10 8.82589392546369e-10 8.310744119555427e-9 3.1212293131799213e-9 1.7616373822299466e-8
          4.218245277661845e-8 6.782715388913707e-9 4.024355229950114e-9 4.414836510953745e-10 3.5041771182329213e-10 3.4023296971182456e-10
          2.8430605194999315e-10 2.3460463508316005e-10 4.5040838350339307e-10 1.8261602076826778e-9 1.2408340611156002e-8 3.5207669692480997e-8
          1.7131327401179664e-8 5.419982306601038e-8 2.8750314436315112e-8 1.3172225550497113e-8 8.071432070269892e-8 4.509540420562256e-8
          1.00198264678477e-8 1.9858151524082538e-8 5.280723313761953e-9 9.2491318957321e-9 4.8481561879721946e-8 2.0022810617242424e-8
          4.470496393588427e-8 1.199319097511336e-7 7.332922790453421e-8 3.863316990534871e-8 5.2289878726935674e-8 3.277860789077102e-8
          3.784829678246233e-8 3.872913502475944e-8 2.353972591292907e-10 3.9466265237639775e-10 5.39363809076631e-10 1.0897835405394731e-9
          5.798561106904937e-10 1.0954939904760731e-9 6.852008951810642e-10 6.360006612459757e-10 7.333548218595413e-10 9.679102239627003e-10
          1.7909671465825398e-10 3.726046753786513e-10 5.458672278812992e-10 7.281436883190681e-10 2.663585154881193e-10 1.40159324551077e-8
          1.9748630602612026e-8 2.6613840490274437e-8 2.0038319989653208e-8 1.9815834590317825e-8 1.9757169652639713e-8 1.9177753964541986e-8
          1.966087652605146e-8 1.9184369114414428e-8 1.6669601529055387e-8 1.7359897796002165e-8 1.514319698485327e-8 1.805019406294894e-8
          5.975299727345315e-10 4.591902944804263e-10 9.941506764997996e-10 9.568287871289414e-10 8.543900695546347e-10 2.2608167645762242e-9
          2.175771108706664e-9 1.9390893720089186e-9 9.327754116017186e-10 1.2622573107455682e-9 1.4372894214918548e-9 9.506948935522802e-10
          2.573278582573072e-9 1.9715830156659526e-9 4.254356907803378e-10 7.097019481002637e-10 4.3713475551292674e-10 7.190702965733088e-10
          5.497014861565253e-10 1.6004705136182067e-9 1.555305638179082e-9 1.2243824366029748e-9 4.8499607545209725e-9 4.66145257801682e-9
          4.138234188310709e-9 9.585641713199977e-9 9.189614389305667e-9 8.097763351508068e-9 4.577424500499773e-9 5.0168121862023445e-9
          3.787424642235236e-9 7.753284166655537e-9 6.768173539386939e-9 3.389849167894121e-9 3.1323418672662978e-9 2.5579518908759973e-9
          6.56479338255012e-9 5.8078439906455324e-9 4.900407623323834e-9 1.6187013940137497e-8 1.558129238433239e-8 1.3826520053334241e-8
          1.909277182324621e-8 1.8845699284536342e-8 1.7810080834011527e-8 1.45973530885839e-8 1.2297329898421668e-8 1.0998090667454065e-8
          1.889884044404494e-8 1.6467680080330857e-8 1.5166214262763312e-8 1.2917867959417055e-8 1.1217773748301631e-8 9.645890092846587e-9
          8.310196168081073e-9 1.7262718085640682e-8 1.5447680501350613e-8 1.4698700534222474e-8 1.5244024503875778e-8 1.6342875561141963e-8
          1.0979792377177481e-8 1.188774580962231e-8 1.4117088275348568e-8 1.8900442251886018e-8 1.833141513522107e-8 1.7136114956605624e-8
          1.777925600813008e-8 1.8415592619055515e-8 1.7338319983024324e-8 1.773697097444081e-8 1.637727425788015e-8 1.6809424100146315e-8
          1.573787375853412e-8
        </DataArray>
        <DataArray type="Float64" Name="gradient_matprop_error" format="ascii" RangeMin="0" RangeMax="0">
          0 0 0 0 0 0
          0 0 0 0 0 0
          0 0 0 0 0 0
          0 0 0 0 0 0
          0 0 0 0 0 0
          0 0 0 0 0 0
          0 0 0 0 0 0
          0 0 0 0 0 0
          0 0 0 0 0 0
          0 0 0 0 0 0
          0 0 0 0 0 0
          0 0 0 0 0 0
          0 0 0 0 0 0
          0 0 0 0 0 0
          0 0 0 0 0 0
          0 0 0 0 0 0
          0 0 0 0 0 0
          0 0 0 0 0 0
          0 0 0 0 0 0
          0 0 0 0 0 0
          0 0 0 0 0 0
          0 0 0 0 0 0
          0 0 0 0 0 0
          0 0 0 0 0 0
          0 0 0 0 0 0
          0 0 0 0 0 0
          0 0 0 0 0 0
          0 0 0 0 0 0
          0 0 0 0 0 0
          0 0 0 0 0 0
          0 0 0 0 0 0
          0 0 0 0 0 0
          0 0 0 0 0 0
          0 0 0 0 0 0
          0 0 0 0 0 0
          0 0 0 0 0 0
          0 0 0 0 0 0
          0 0 0 0 0 0
          0 0 0 0 0 0
          0 0 0 0 0 0
          0 0 0 0 0 0
          0 0 0 0 0 0
          0 0 0 0 0 0
          0 0 0 0 0 0
          0 0 0 0 0 0
          0 0 0 0 0 0
          0 0 0 0 0 0
          0 0 0 0 0 0
          0 0 0 0 0 0
          0 0 0 0 0 0
          0 0 0 0 0 0
          0 0 0 0 0 0
          0 0 0 0 0 0
          0 0 0 0 0 0
          0 0 0 0 0 0
          0 0 0 0 0 0
          0 0 0 0 0 0
          0 0 0 0 0 0
          0 0 0 0 0 0
          0 0 0 0 0 0
          0 0 0 0 0 0
          0 0 0 0 0 0
          0 0 0 0 0 0
          0 0 0 0 0 0
          0 0 0 0 0 0
          0 0 0 0 0 0
          0 0 0 0 0 0
          0 0 0 0 0 0
          0 0 0 0 0 0
          0 0 0 0 0 0
          0 0 0 0 0 0
          0 0 0 0 0 0
          0 0 0 0 0 0
          0 0 0 0 0 0
          0 0 0 0 0 0
          0 0 0 0 0 0
          0 0 0 0 0 0
          0 0 0 0 0 0
          0 0 0 0 0 0
          0 0 0 0 0 0
          0 0 0 0 0 0
          0 0 0 0 0 0
          0 0 0 0 0 0
          0 0 0 0 0 0
          0 0 0 0 0 0
          0 0 0 0 0 0
          0 0 0 0 0 0
          0 0 0 0 0 0
          0 0 0 0 0 0
          0 0 0 0 0 0
          0 0 0 0 0 0
          0 0 0 0 0 0
          0 0 0 0 0 0
          0 0 0 0 0 0
          0 0 0 0 0 0
          0 0 0 0 0 0
          0 0 0 0 0 0
          0 0 0 0 0 0
          0 0 0 0 0 0
          0
        </DataArray>
        <DataArray type="Float64" Name="initial_marker" format="ascii" RangeMin="0" RangeMax="2">
          2 0 0 2 2 0
          1 0.5 0 1.5 0 0
          0.5 0.25 0 0 0 0
          2 1.25 2 2 2 2
          2 2 2 2 2 0
          1 0.5 0 2 2 1.6666666666666667
          2 0 0 1 0.5 0
          0.5 0.25 0 0 2 1.5
          1.5 2 2 2 2 2
          2 2 2 2 2 2
          2 2 2 2 2 2
          2 2 2 2 2 2
          2 2 2 2 2 2
          2 2 2 2 2 2
          2 2 2 2 2 2
          2 2 2 2 2 2
          2 2 2 2 2 2
          2 2 2 2 2 2
          2 2 2 2 0 0
          0 0 0 2 1.5 2
          2 2 2 2 2 2
          2 0 0 0 0 1
          1 1 2 2 2 2
          2 2 2 2 2 2
          2 2 2 2 2 2
          2 2 2 2 2 2
          2 2 2 2 2 2
          2 2 2 2 2 2
          2 2 2 2 2 2
          2 2 2 2 2 2
          2 2 2 2 2 2
          2 2 2 2 2 2
          2 2 2 2 2 2
          2 2 2 2 2 2
          2 2 2 2 2 2
          2 2 2 2 2 2
          2 2 2 2 2 2
          2 2 2 2 2 2
          2 2 2 2 2 2
          2 2 2 2 2 2
          2 2 2 2 2 2
          2 2 2 2 2 2
          2 2 2 2 2 2
          2 2 2 2 2 2
          2 2 2 2 2 2
          2 2 2 2 2 2
          2 2 2 2 2 2
          2 2 2 2 2 2
          2 2 2 2 2 2
          2 2 2 2 2 2
          2 2 2 2 2 2
          2 2 2 2 2 2
          2 2 2 2 2 2
          2 2 2 2 2 2
          2 2 2 2 2 2
          2 2 2 2 2 2
          2 2 2 2 2 2
          2 0 0 1 1 0
          1 1 0 1 1 2
          2 2 2 0 0 1
          0.75 0 1 0.5 0 0.5
          0 2 1.75 1.6666666666666667 2 2
          2 2 2 2 2 2
          2 2 2 2 2 2
          2 2 2 2 2 2
          2 2 2 2 2 2
          2 2 2 2 2 2
          2 2 2 2 2 2
          2 2 2 2 2 2
          2 2 2 2 2 2
          2 2 2 2 2 2
          2 2 2 2 2 2
          2 2 2 2 2 2
          2 2 2 2 2 2
          2 2 2 2 2 2
          2 2 2 0 0 0
          0 0 0 0 0 0.75
          1 1 0.25 0 0 0
          0 0 0 0 1.3333333333333333 2
          2 2 2 1.6666666666666667 2 2
          2 2 1 1.5 2 2
          2 2 2 2 2 2
          2 2 0 0 0 0
          0 1 1 1 0 0
          0 0 0 0 0 2
          2 2 2 2 2 2
          2 2 2 2 2 2
          1.5 1.6666666666666667 2 2 2 2
          2 2 2 2 2 2
          2 2 2 2 2 2
          2 2 2 2 2 2
          2 2 2 2 2 2
          2 2 2 2 2 2
          2 2 2 2 2 2
          2 2 2 2 2 2
          2 2 2 2 2 2
          2 2 2 2 2 2
          2 2 2 2 2 2
          2 2 2 2 2 2
          2
        </DataArray>
        <DataArray type="Float64" Name="markers_norefine" format="ascii" RangeMin="0" RangeMax="2">
          2 0 0 0 0 0
          0 0 0 0 0 0
          0 0 0 0 0 0
          0 0 1 0 2 1
          0 0 2 2 0 0
          0 0 0 0 0 0
          0 0 0 0 0 0
          0 0 0 0 0 0
          0 0 0 0 1 0
          0 0 0 2 1.5 2
          0 0 0 0 0 0
          0 0 0 1 0.75 0.5
          0 0 0 0 0 0.5
          0 0 0 0 0 0
          0 0 0 0 0 2
          2 2 2 1.5 1.5 2
          2 2 2 2 2 2
          1.75 2 2 2 0 0
          0 0 0 0 0 0
          0 0 0 0 0 0
          0 0 0 2 1.25 2
          2 0 0 0 0 0
          0 0 0 1 2 1.5
          1 2 2 2 2 2
          1 1 0 1 2 2
          2 2 2 2 2 1
          1 0.5 0 0 0 0
          0 0 0 0 0 0
          0 2 1.5 0.5 0.5 0
          0 0 0 0 0 0
          0 0 0 0 0 0
          0 2 2 2 2 2
          1.75 2 2 2 2 2
          2 2 2 1.5 1.5 2
          2 2 2 1.5 1.25 1
          1 2 2 2 1 1
          1 1 2 2 2 2
          2 2 2 2 2 2
          2 2 2 2 2 2
          2 2 2 2 2 2
          2 2 2 2 2 2
          2 2 2 2 2 2
          2 2 2 2 1.75 1.5
          1.25 1.25 1 2 2 2
          2 1 1 1 1 1
          0.75 2 2 2 2 1
          0.75 1 0.5 2 1.75 1.6666666666666667
          0.5 0.25 0 1.5 1.25 2
          2 2 2 2 2 2
          2 2 2 2 2 2
          2 2 2 2 2 2
          2 2 2 1.75 2 2
          2 2 2 2 2 1
          1 0 1 1 0 1
          1 0 0 1 1 0
          1 1 0 0 1 1
          0 0.5 0 0.75 0 1
          0 0 0 0 0 0
          0 0 0 0 0 0
          0 0 0 0 0 0
          0 0 0 0 0 0
          0 0 0 0 0 0
          0 0 0 0 0 0
          0 0 0 0 0 0
          0 0 0 0 0 0
          0 0 0 0 0 0
          0 0 0 0 0 0
          0 0 0 0 0 0
          0 0 0 0 0 0
          0 0 0 1 1 1
          0.75 0.5 0.25 2 2 1.75
          1.5 0.5 0.25 0 1.5 1.25
          0.75 0 0.75 2 2 2
          2 2 2 2 2 2
          2 2 2 1.75 2 2
          2 1.75 2 0 0 0
          0 0 0 0 0 0
          0 0 0 0 0 0
          0 0 0 0 0 0
          0 0 0 0 0 0
          0 0 0 0 0 0
          0 0 0 0.75 0 0
          0 0 0 0 0 0
          0 0 0 0 0 0
          0 0 0 0 0 0
          0.6666666666666666 0.5 1.5 2 1.25 1
          1.5 1 0 0.5 0 1
          0 0 0 0 0 0
          0 0 0 0 0 0
          0 0 0 0 0 0
          0 0 0 0 0 0
          0 0 0 0 0 0
          0 0 0 0 0 0
          0 0 0 0 0 0
          1 1 0.5 0 0 0
          0.5 0.25 0 0 0 0
          0 0.25 0 2 2 1.5
          2 2 2 1.25 0.75 0.25
          1.5 1 0.5 0.75 0.5 1
          1
        </DataArray>
        <DataArray type="Float64" Name="markers_mustrefine" format="ascii" RangeMin="0" RangeMax="2">
          2 0 0 2 2 0
          1 0.5 0 1.5 0 0
          0.5 0.25 0 0 0 0
          2 1.25 2 2 2 2
          2 2 2 2 2 0
          1 0.5 0 2 2 1.6666666666666667
          2 0 0 1 0.5 0
          0.5 0.25 0 0 2 1.5
          1.5 2 2 2 2 2
          2 2 2 2 2 2
          2 2 2 2 2 2
          2 2 2 2 2 2
          2 2 2 2 2 2
          2 2 2 2 2 2
          2 2 2 2 2 2
          2 2 2 2 2 2
          2 2 2 2 2 2
          2 2 2 2 2 2
          2 2 2 2 0 0
          0 0 0 2 1.5 2
          2 2 2 2 2 2
          2 0 0 0 0 1
          1 1 2 2 2 2
          2 2 2 2 2 2
          2 2 2 2 2 2
          2 2 2 2 2 2
          2 2 2 2 2 2
          2 2 2 2 2 2
          2 2 2 2 2 2
          2 2 2 2 2 2
          2 2 2 2 2 2
          2 2 2 2 2 2
          2 2 2 2 2 2
          2 2 2 2 2 2
          2 2 2 2 2 2
          2 2 2 2 2 2
          2 2 2 2 2 2
          2 2 2 2 2 2
          2 2 2 2 2 2
          2 2 2 2 2 2
          2 2 2 2 2 2
          2 2 2 2 2 2
          2 2 2 2 2 2
          2 2 2 2 2 2
          2 2 2 2 2 2
          2 2 2 2 2 2
          2 2 2 2 2 2
          2 2 2 2 2 2
          2 2 2 2 2 2
          2 2 2 2 2 2
          2 2 2 2 2 2
          2 2 2 2 2 2
          2 2 2 2 2 2
          2 2 2 2 2 2
          2 2 2 2 2 2
          2 2 2 2 2 2
          2 2 2 2 2 2
          2 0 0 1 1 0
          1 1 0 1 1 2
          2 2 2 0 0 1
          0.75 0 1 0.5 0 0.5
          0 2 1.75 1.6666666666666667 2 2
          2 2 2 2 2 2
          2 2 2 2 2 2
          2 2 2 2 2 2
          2 2 2 2 2 2
          2 2 2 2 2 2
          2 2 2 2 2 2
          2 2 2 2 2 2
          2 2 2 2 2 2
          2 2 2 2 2 2
          2 2 2 2 2 2
          2 2 2 2 2 2
          2 2 2 2 2 2
          2 2 2 2 2 2
          2 2 2 0 0 0
          0 0 0 0 0 0.75
          1 1 0.25 0 0 0
          0 0 0 0 1.3333333333333333 2
          2 2 2 1.6666666666666667 2 2
          2 2 1 1.5 2 2
          2 2 2 2 2 2
          2 2 0 0 0 0
          0 1 1 1 0 0
          0 0 0 0 0 2