<?xml version="1.0"?>
<VTKFile type="UnstructuredGrid" version="0.1" byte_order="LittleEndian" header_type="UInt32" compressor="vtkZLibDataCompressor">
  <UnstructuredGrid>
    <Piece NumberOfPoints="539" NumberOfCells="335">
      <PointData>
        <DataArray type="Int32" Name="libmesh_node_id" format="ascii" RangeMin="281" RangeMax="3745">
          281 351 673 674 675 707
          708 709 710 713 714 715
          779 780 785 786 1057 1062
          1063 1064 1065 1146 1147 1149
          1152 1154 1155 1156 1157 1158
          1159 1160 1161 1162 1163 1165
          1167 1169 1171 1173 1175 1180
          1181 1183 1186 1188 1189 1190
          1191 1192 1193 1194 1195 1196
          1197 1199 1203 1205 1206 1209
          1210 1309 1310 1312 1452 1453
          1454 1455 1456 1457 1458 1459
          1460 1461 1471 1477 1483 1486
          1487 1488 1489 1490 1491 1492
          1493 1494 1495 1500 1505 1506
          1507 1510 1511 1513 1517 2138
          2142 2156 2157 2159 2162 2170
          2172 2174 2176 2177 2178 2179
          2180 2181 2182 2183 2184 2185
          2186 2187 2188 2189 2190 2191
          2192 2193 2194 2195 2196 2197
          2198 2199 2200 2201 2202 2203
          2204 2205 2206 2207 2208 2209
          2210 2211 2212 2213 2214 2215
          2216 2217 2218 2219 2220 2221
          2222 2223 2226 2228 2229 2230
          2231 2232 2233 2246 2247 2249
          2252 2262 2264 2266 2280 2281
          2283 2286 2296 2298 2300 2302
          2303 2304 2305 2306 2307 2308
          2309 2310 2311 2312 2313 2314
          2315 2316 2317 2318 2319 2320
          2321 2322 2323 2324 2325 2326
          2327 2328 2329 2330 2331 2332
          2333 2334 2335 2336 2337 2338
          2339 2340 2341 2342 2343 2344
          2345 2346 2347 2348 2349 2350
          2351 2352 2353 2354 2355 2356
          2357 2358 2359 2360 2361 2362
          2363 2364 2365 2366 2367 2368
          2369 2376 2378 2380 2390 2392
          2394 2396 2397 2398 2399 2400
          2401 2402 2403 2404 2405 2406
          2407 2408 2409 2410 2411 2412
          2413 2414 2415 2416 2417 2418
          2419 2420 2421 2422 2423 3289
          3290 3291 3292 3293 3294 3295
          3296 3297 3298 3299 3300 3301
          3302 3303 3304 3305 3306 3307
          3308 3309 3310 3311 3312 3313
          3314 3315 3316 3317 3318 3319
          3320 3321 3322 3323 3324 3325
          3326 3327 3328 3329 3330 3331
          3332 3333 3334 3335 3336 3337
          3338 3339 3340 3341 3342 3343
          3344 3345 3346 3347 3348 3349
          3350 3351 3352 3353 3356 3358
          3359 3361 3372 3374 3376 3378
          3386 3387 3390 3392 3393 3395
          3406 3408 3410 3412 3440 3442
          3443 3447 3448 3449 3492 3493
          3494 3516 3517 3518 3519 3520
          3521 3522 3523 3524 3525 3526
          3527 3528 3529 3530 3531 3532
          3533 3534 3535 3536 3537 3538
          3539 3540 3541 3542 3543 3544
          3545 3546 3547 3548 3549 3550
          3551 3552 3553 3554 3555 3556
          3557 3558 3559 3560 3561 3562
          3563 3564 3565 3566 3567 3568
          3569 3570 3571 3572 3573 3574
          3575 3576 3577 3578 3579 3580
          3581 3582 3583 3584 3585 3588
          3590 3591 3593 3604 3606 3607
          3608 3610 3618 3619 3622 3624
          3625 3627 3638 3640 3641 3642
          3644 3652 3653 3654 3655 3656
          3657 3658 3659 3660 3661 3662
          3663 3674 3675 3676 3677 3678
          3679 3680 3681 3682 3683 3684
          3685 3686 3687 3698 3699 3700
          3701 3702 3703 3704 3726 3727
          3728 3729 3730 3731 3732 1172
          1176 1177 711 1174 712 1207
          1201 1208 1211 716 358 1472
          1476 1478 1508 1512 3457 3452
          3667 3664 3458 3668 3671 3666
          3672 3691 3688 3692 3695 3690
          3696 3506 3712 3507 3713 3716
          3717 3740 3741 3744 3745
        </DataArray>
        <DataArray type="Float64" Name="bounds" format="ascii" RangeMin="0" RangeMax="0">
          0 0 0 0 0 0
          0 0 0 0 0 0
          0 0 0 0 0 0
          0 0 0 0 0 0
          0 0 0 0 0 0
          0 0 0 0 0 0
          0 0 0 0 0 0
          0 0 0 0 0 0
          0 0 0 0 0 0
          0 0 0 0 0 0
          0 0 0 0 0 0
          0 0 0 0 0 0
          0 0 0 0 0 0
          0 0 0 0 0 0
          0 0 0 0 0 0
          0 0 0 0 0 0
          0 0 0 0 0 0
          0 0 0 0 0 0
          0 0 0 0 0 0
          0 0 0 0 0 0
          0 0 0 0 0 0
          0 0 0 0 0 0
          0 0 0 0 0 0
          0 0 0 0 0 0
          0 0 0 0 0 0
          0 0 0 0 0 0
          0 0 0 0 0 0
          0 0 0 0 0 0
          0 0 0 0 0 0
          0 0 0 0 0 0
          0 0 0 0 0 0
          0 0 0 0 0 0
          0 0 0 0 0 0
          0 0 0 0 0 0
          0 0 0 0 0 0
          0 0 0 0 0 0
          0 0 0 0 0 0
          0 0 0 0 0 0
          0 0 0 0 0 0
          0 0 0 0 0 0
          0 0 0 0 0 0
          0 0 0 0 0 0
          0 0 0 0 0 0
          0 0 0 0 0 0
          0 0 0 0 0 0
          0 0 0 0 0 0
          0 0 0 0 0 0
          0 0 0 0 0 0
          0 0 0 0 0 0
          0 0 0 0 0 0
          0 0 0 0 0 0
          0 0 0 0 0 0
          0 0 0 0 0 0
          0 0 0 0 0 0
          0 0 0 0 0 0
          0 0 0 0 0 0
          0 0 0 0 0 0
          0 0 0 0 0 0
          0 0 0 0 0 0
          0 0 0 0 0 0
          0 0 0 0 0 0
          0 0 0 0 0 0
          0 0 0 0 0 0
          0 0 0 0 0 0
          0 0 0 0 0 0
          0 0 0 0 0 0
          0 0 0 0 0 0
          0 0 0 0 0 0
          0 0 0 0 0 0
          0 0 0 0 0 0
          0 0 0 0 0 0
          0 0 0 0 0 0
          0 0 0 0 0 0
          0 0 0 0 0 0
          0 0 0 0 0 0
          0 0 0 0 0 0
          0 0 0 0 0 0
          0 0 0 0 0 0
          0 0 0 0 0 0
          0 0 0 0 0 0
          0 0 0 0 0 0
          0 0 0 0 0 0
          0 0 0 0 0 0
          0 0 0 0 0 0
          0 0 0 0 0 0
          0 0 0 0 0 0
          0 0 0 0 0 0
          0 0 0 0 0 0
          0 0 0 0 0 0
          0 0 0 0 0
        </DataArray>
        <DataArray type="Float64" Name="gradient_error" format="ascii" RangeMin="8.015892176568978e-9" RangeMax="3.336203601903401e-7">
          9.543278161230555e-9 2.2663295776055866e-7 3.336203601903401e-7 2.8990243965701966e-7 1.872467285113077e-7 1.632116036625764e-8
          5.578189290280576e-8 2.3158335567334792e-8 8.935319139895479e-8 1.0967987809736153e-8 1.9618168924030917e-8 3.0683689270734125e-8
          2.7210855962390703e-8 2.6049763017205303e-8 2.058370872869026e-8 3.636776403783659e-8 1.4207793238728054e-7 1.603327706703405e-7
          1.5204886115161576e-7 1.2453051705124188e-7 1.2692556940974568e-7 8.539799832045083e-8 8.198742687867279e-8 1.051659064168348e-7
          1.8861766914634718e-8 9.296465807233359e-8 8.854867550102087e-8 9.458809039636464e-8 8.94956637750337e-8 1.1092151046128865e-7
          1.1022508499537302e-7 1.9664565134715023e-8 2.2722980224464933e-8 2.6905268226366856e-8 6.182115870820185e-8 1.1697306595408998e-7
          1.0177329617297154e-7 1.1205350870943043e-7 1.1881519806758661e-7 9.922221631449021e-8 1.1686266338825362e-7 1.3391627389248753e-8
          1.6715905995966937e-8 2.052769650551298e-8 1.6314020659637985e-8 1.593810490865266e-8 2.1975655282738433e-8 1.793388992211358e-8
          2.6917885035025474e-8 2.5473028114216402e-8 5.4891419417035384e-8 1.1176773366419518e-8 2.1489760961521476e-8 2.6572611583320662e-8
          2.5162415341770165e-8 9.128587618632464e-8 9.502405690381336e-8 9.749975614432468e-8 1.2182067167452382e-7 1.0312651851126622e-7
          1.0397527442631787e-7 6.539907267557128e-8 6.125567562295873e-8 5.018560549243702e-8 5.876896533230196e-8 5.560211691579149e-8
          2.2451474325788326e-8 2.114771839163464e-8 6.309815076376451e-8 1.58007420530268e-8 2.5776895678906373e-8 3.017312090367512e-8
          3.082028460963154e-8 7.135530094921767e-8 1.9369201377255995e-8 1.5645193505322774e-8 1.1008688900038637e-8 2.0776467792540638e-8
          3.0189141038725395e-8 2.3616717755477247e-8 3.1692129742849266e-8 5.826236207383959e-8 3.4071015784676065e-8 1.3089348960541132e-8
          3.066169137142892e-8 3.1879169021985145e-8 3.517739790838783e-8 2.6894394372487585e-8 2.9899912929725645e-8 8.424142915182004e-8
          2.0910854517751338e-8 6.390554389478796e-8 2.31041393852955e-8 1.4826920511391368e-8 1.641771956708764e-8 2.2136638489504137e-8
          2.1239325912192347e-8 1.986058101948619e-8 2.025469676942929e-8 2.1257002662722175e-8 1.702515787508341e-8 2.189364858682571e-8
          2.192210436757946e-8 2.1282022634357614e-8 2.3997090532348063e-8 2.3814846003346722e-8 2.5410530368377058e-8 2.3541132529095304e-8
          2.6938344017955606e-8 2.673257506573393e-8 2.7581038459501133e-8 2.6258092092391342e-8 2.2698555224310766e-8 2.3988597504660964e-8
          2.194744686477631e-8 2.4986226138206818e-8 2.5540385544625687e-8 2.3983074205143205e-8 2.1295474131217817e-8 2.174101042672129e-8
          2.2772856943855174e-8 2.3295459355330697e-8 2.2833899914175792e-8 2.4451252848900542e-8 1.7950845243877988e-8 1.8780170303620225e-8
          2.0648459718752234e-8 2.069888910591774e-8 2.428470381799654e-8 2.48558071906249e-8 2.568198680552477e-8 2.626808997262479e-8
          2.601503750303905e-8 2.7368365699245297e-8 2.1430607318942126e-8 2.2550508688339293e-8 2.4361467797588437e-8 2.4844430635716328e-8
          2.3531446776748804e-8 2.5077203099190465e-8 2.3581640447370798e-8 2.506996226738608e-8 2.321330166298353e-8 2.5250980796326193e-8
          2.4904449139725718e-8 2.640307623857193e-8 2.732808496283695e-8 2.6202988034319025e-8 2.6773631666908122e-8 2.7308573672699276e-8
          2.920931790685414e-8 2.8430283832024124e-8 2.2690658051945773e-8 2.4356202729652105e-8 2.5829019046930243e-8 2.3275698995115147e-8
          2.680048341902986e-8 2.70679649282459e-8 2.550750760539209e-8 1.4755748621638554e-8 1.543952810857342e-8 1.6950991239762256e-8
          1.4584003093692683e-8 1.9078429974721214e-8 2.1896838185927916e-8 1.8133675402506894e-8 1.173607936922532e-8 1.3431737724878885e-8
          1.6475150022968743e-8 1.2896964778706874e-8 1.818828129720427e-8 1.9798101331250424e-8 1.824999773158103e-8 1.6649896313098334e-8
          1.7571881716470358e-8 1.8475817413702952e-8 1.968142505498051e-8 1.9337230730061086e-8 2.1820716140751534e-8 1.4770904108634255e-8
          1.6435226642069295e-8 1.818908708045226e-8 1.932263314962807e-8 2.0115576320971082e-8 2.1623639010834123e-8 2.153976200033067e-8
          2.3320149975744352e-8 2.4257869589698057e-8 2.6454209035873014e-8 1.693561588588923e-8 1.9827540872932286e-8 2.1399670104231938e-8
          2.4566083653179676e-8 2.137140088292218e-8 2.3865422264590813e-8 2.3998960691745304e-8 2.6230909567872807e-8 2.0866289542870575e-8
          2.370981711254209e-8 2.2884397990972382e-8 2.6549528979450873e-8 2.9295055830550678e-8 2.8343744338156345e-8 3.033072600961991e-8
          2.657744122272896e-8 2.938638750915105e-8 2.803506214941317e-8 1.2448330931474255e-8 1.4880702780687133e-8 1.2740655106182646e-8
          1.6120147061725877e-8 1.9060273868339642e-8 2.1695791923525006e-8 1.134681351420826e-8 1.4141549953031805e-8 1.510843897728811e-8
          1.8878631984966116e-8 1.263661903154614e-8 1.714851591005566e-8 1.2536826995902696e-8 1.8156180974573347e-8 2.4304620462108174e-8
          2.6790206999882094e-8 1.0403007913409205e-8 1.5767250034752275e-8 1.6385527582743094e-8 2.4075934439507214e-8 2.1166966193402013e-8
          2.4192585392368667e-8 2.2401824598115985e-8 2.5203143320770414e-8 2.1281890070127032e-8 2.4360228189902346e-8 2.2284017903171874e-8
          2.7102900973202398e-8 2.9783424472045852e-8 2.793578226141454e-8 3.0421297957034056e-8 2.735275645338712e-8 3.008133415423089e-8
          2.8054954084026675e-8 2.3041831071021606e-8 2.266817083561359e-8 2.313066227034989e-8 2.274758825314682e-8 2.445263247279631e-8
          2.262685605569131e-8 2.4826873545894467e-8 2.6545252239096782e-8 2.421803313386291e-8 2.560513028638457e-8 2.5120105450911693e-8
          2.7223496344133347e-8 2.5658276881867964e-8 2.796295447552e-8 2.8517735711393918e-8 2.6953440754930113e-8 2.7607756474954826e-8
          2.9279119536435156e-8 3.0827340465787975e-8 2.9230295773117867e-8 2.4911065565130037e-8 2.7194218544517074e-8 2.6544941214052874e-8
          2.8475376402449754e-8 2.4879464590573522e-8 2.7202929832030785e-8 2.6933695936980488e-8 2.9396949673380293e-8 3.123270479944687e-8
          3.017930863468513e-8 3.138478358239713e-8 2.9361085805900423e-8 3.120815214748275e-8 3.029739962760266e-8 1.9745774192899033e-8
          1.9186119030162518e-8 1.819269362415684e-8 2.79891611256181e-8 2.7842167832970165e-8 2.5289611024094777e-8 2.7170883614580218e-8
          1.8720184243592088e-8 1.8298601100593758e-8 1.6707905981691727e-8 1.6413798053804806e-8 1.7277492514211853e-8 1.540416805748361e-8
          2.3906268159930562e-8 2.3657712811723138e-8 2.2224685290836125e-8 2.2756369661635415e-8 1.6555309026865246e-8 1.4105174471947336e-8
          2.5445613658662826e-8 2.2678427667932513e-8 2.4244634628487444e-8 1.5572553971219025e-8 1.3701144219937894e-8 1.3283349137944983e-8
          1.1620742530178774e-8 2.070043083502779e-8 1.88553425818659e-8 1.764129406586613e-8 2.6682662265403106e-8 2.731057857997349e-8
          2.7214883800459782e-8 2.787934370107867e-8 2.831109103081509e-8 2.8670939241009027e-8 2.4662702266229978e-8 2.593335201446779e-8
          2.7210694601999474e-8 2.8716195402969297e-8 2.7427895595283954e-8 2.797193952705341e-8 2.689247332811438e-8 2.719039364158355e-8
          2.831597233046273e-8 2.6963335873568606e-8 2.6625704247317482e-8 2.8185690495704333e-8 2.8639744003723393e-8 3.102330852255819e-8
          2.7632486544539266e-8 2.737055078030234e-8 2.6581285921992226e-8 2.4552864657905328e-8 3.0567313903569394e-8 3.131028124209216e-8
          3.09062387639058e-8 2.6553415464947306e-8 2.4743689199116296e-8 2.287830329838791e-8 2.0790313369599663e-8 3.13673190382789e-8
          3.015167379396821e-8 2.798816447142367e-8 1.462002216094789e-8 1.4332376332077523e-8 1.3407506618436152e-8 2.0051696770367375e-8
          1.9768975957664187e-8 1.8644296631073453e-8 1.1846619138349562e-8 9.907406132186444e-9 1.646360881262959e-8 1.3655488846140283e-8
          2.5139199126076313e-8 2.5196584257226992e-8 2.448078463752867e-8 2.7182776797606928e-8 2.819948834257276e-8 2.9268180137878126e-8
          2.1948789263876335e-8 1.810110045066254e-8 2.7503733400482812e-8 2.2970550799325702e-8 2.0001334983281815e-8 2.4255374123406743e-8
          1.8787084612800923e-8 2.3083959691667524e-8 2.057458764751673e-8 1.7985407234880475e-8 1.7766228593959535e-8 1.482853884134161e-8
          1.3328115202443112e-8 2.2819562714424425e-8 2.4778597877391217e-8 2.3898284919651932e-8 2.5945937508376148e-8 2.827252091393665e-8
          2.9786506599939357e-8 1.9170364296469462e-8 2.2973538928202165e-8 2.452329114950421e-8 2.8831171918946945e-8 2.4682994229076753e-8
          2.6781359336901643e-8 2.5206840152310186e-8 2.74005453037098e-8 3.108188787317995e-8 3.1872501395618484e-8 2.249044055254866e-8
          2.57713006027514e-8 2.6340991593440995e-8 3.106724268956795e-8 3.142465400633786e-8 3.288835719396744e-8 3.3041899225160445e-8
          3.291921650127922e-8 3.158758916324239e-8 3.3218073527840565e-8 3.250273521064473e-8 3.395682598908874e-8 3.38197327338069e-8
          3.225387103930472e-8 3.070301033599834e-8 3.474735079587245e-8 3.55041960662249e-8 3.490799235342512e-8 1.3412697526119064e-8
          1.9606225259109165e-8 1.5748838134205302e-8 2.1711521781502e-8 2.898706672143219e-8 3.060733828422491e-8 1.0174550760876216e-8
          1.773485371463767e-8 2.016002506569591e-8 2.8875739073955174e-8 1.883027948508819e-8 2.4003280406145624e-8 2.1714635259532082e-8
          2.554824820915216e-8 3.1464279326137466e-8 3.176052072854728e-8 1.694021652627981e-8 2.2948572165331555e-8 2.505374808438771e-8
          3.162588418008295e-8 3.1937061293773743e-8 3.3640209559485557e-8 3.260988802820116e-8 3.4658550287578374e-8 3.2232983897015355e-8
          3.394471029853753e-8 3.306030230943837e-8 3.514354222385439e-8 3.6079902580547526e-8 3.613393697969651e-8 3.5862792737244985e-8
          3.537879933844402e-8 3.6237868171837396e-8 3.6520226286595515e-8 2.5742922617936028e-8 2.7883484575868446e-8 3.1600602529144425e-8
          2.376751741659809e-8 2.6472192192333206e-8 3.19897162043132e-8 3.1897612859231156e-8 2.755827215499142e-8 2.3483221564877683e-8
          3.453572602926442e-8 3.114545008187123e-8 2.2757441582434223e-8 2.576359805229266e-8 3.1860659431796846e-8 2.2367245522697656e-8
          2.558292419656927e-8 3.180815221515723e-8 3.567662156419092e-8 3.335227913185137e-8 2.9122055509951238e-8 3.5945736907470884e-8
          3.40859217821858e-8 2.8291339364759413e-8 2.24017365641708e-8 3.2243891999956205e-8 3.1778914645333176e-8 3.155867446502978e-8
          2.7147200189322547e-8 2.4547641803575453e-8 2.1113410427781133e-8 1.848367204271504e-8 3.035660287670906e-8 2.7782633860273224e-8
          2.3588404174182587e-8 3.250625418615049e-8 3.299754945283941e-8 3.149247445268102e-8 2.760911537708773e-8 3.276861637234476e-8
          3.348768322862779e-8 3.1426274440332276e-8 3.221803666419299e-8 2.98962324872554e-8 2.4962473704070588e-8 2.2539033911209042e-8
          3.282493511453308e-8 3.0634216899168e-8 2.5412364932053978e-8 2.1348019367191357e-8 1.7828452549829174e-8 1.578333863112812e-8
          1.3084819099527916e-8 2.438022062810477e-8 2.042132469619193e-8 1.7881959088013616e-8 2.6394191981982636e-8 2.218291832577689e-8
          1.9311577272035694e-8 1.6001132022009947e-8 2.710270908670421e-8 2.2803995621650174e-8 1.981982584948548e-8 1.1426651921100025e-7
          1.3930942987060253e-7 1.231895279965055e-7 2.109983473421735e-7 7.899091494114301e-8 1.5042678744109923e-7 1.359203733241325e-7
          1.3329094110169554e-7 1.2996094212203093e-7 1.4628185347979973e-7 1.4167519685702394e-7 1.4115839325912058e-7 6.148082909231281e-8
          9.005715006306876e-8 5.5226055182256114e-8 6.965288448639366e-8 7.57677420535007e-8 1.3797965456872341e-8 1.4813782201203109e-8
          1.5961886273077186e-8 1.7101592794257897e-8 1.1806648583246236e-8 1.3734908358339595e-8 1.7757742598524945e-8 1.8995141388124096e-8
          1.533536660939113e-8 1.8948886688353365e-8 2.0258710421093963e-8 1.6396775585902324e-8 1.9416764739794125e-8 2.081504610096569e-8
          1.676418985265597e-8 9.881077443499775e-9 1.1576877309630716e-8 8.015892176568978e-9 9.46030139103432e-9 1.2977164517678261e-8
          1.0652395439316571e-8 1.3908219453968057e-8 1.1440579234383006e-8 1.4236157894161728e-8 1.171649402841765e-8
        </DataArray>
        <DataArray type="Float64" Name="gradient_matprop_error" format="ascii" RangeMin="0" RangeMax="0">
          0 0 0 0 0 0
          0 0 0 0 0 0
          0 0 0 0 0 0
          0 0 0 0 0 0
          0 0 0 0 0 0
          0 0 0 0 0 0
          0 0 0 0 0 0
          0 0 0 0 0 0
          0 0 0 0 0 0
          0 0 0 0 0 0
          0 0 0 0 0 0
          0 0 0 0 0 0
          0 0 0 0 0 0
          0 0 0 0 0 0
          0 0 0 0 0 0
          0 0 0 0 0 0
          0 0 0 0 0 0
          0 0 0 0 0 0
          0 0 0 0 0 0
          0 0 0 0 0 0
          0 0 0 0 0 0
          0 0 0 0 0 0
          0 0 0 0 0 0
          0 0 0 0 0 0
          0 0 0 0 0 0
          0 0 0 0 0 0
          0 0 0 0 0 0
          0 0 0 0 0 0
          0 0 0 0 0 0
          0 0 0 0 0 0
          0 0 0 0 0 0
          0 0 0 0 0 0
          0 0 0 0 0 0
          0 0 0 0 0 0
          0 0 0 0 0 0
          0 0 0 0 0 0
          0 0 0 0 0 0
          0 0 0 0 0 0
          0 0 0 0 0 0
          0 0 0 0 0 0
          0 0 0 0 0 0
          0 0 0 0 0 0
          0 0 0 0 0 0
          0 0 0 0 0 0
          0 0 0 0 0 0
          0 0 0 0 0 0
          0 0 0 0 0 0
          0 0 0 0 0 0
          0 0 0 0 0 0
          0 0 0 0 0 0
          0 0 0 0 0 0
          0 0 0 0 0 0
          0 0 0 0 0 0
          0 0 0 0 0 0
          0 0 0 0 0 0
          0 0 0 0 0 0
          0 0 0 0 0 0
          0 0 0 0 0 0
          0 0 0 0 0 0
          0 0 0 0 0 0
          0 0 0 0 0 0
          0 0 0 0 0 0
          0 0 0 0 0 0
          0 0 0 0 0 0
          0 0 0 0 0 0
          0 0 0 0 0 0
          0 0 0 0 0 0
          0 0 0 0 0 0
          0 0 0 0 0 0
          0 0 0 0 0 0
          0 0 0 0 0 0
          0 0 0 0 0 0
          0 0 0 0 0 0
          0 0 0 0 0 0
          0 0 0 0 0 0
          0 0 0 0 0 0
          0 0 0 0 0 0
          0 0 0 0 0 0
          0 0 0 0 0 0
          0 0 0 0 0 0
          0 0 0 0 0 0
          0 0 0 0 0 0
          0 0 0 0 0 0
          0 0 0 0 0 0
          0 0 0 0 0 0
          0 0 0 0 0 0
          0 0 0 0 0 0
          0 0 0 0 0 0
          0 0 0 0 0 0
          0 0 0 0 0
        </DataArray>
        <DataArray type="Float64" Name="initial_marker" format="ascii" RangeMin="2" RangeMax="2">
          2 2 2 2 2 2
          2 2 2 2 2 2
          2 2 2 2 2 2
          2 2 2 2 2 2
          2 2 2 2 2 2
          2 2 2 2 2 2
          2 2 2 2 2 2
          2 2 2 2 2 2
          2 2 2 2 2 2
          2 2 2 2 2 2
          2 2 2 2 2 2
          2 2 2 2 2 2
          2 2 2 2 2 2
          2 2 2 2 2 2
          2 2 2 2 2 2
          2 2 2 2 2 2
          2 2 2 2 2 2
          2 2 2 2 2 2
          2 2 2 2 2 2
          2 2 2 2 2 2
          2 2 2 2 2 2
          2 2 2 2 2 2
          2 2 2 2 2 2
          2 2 2 2 2 2
          2 2 2 2 2 2
          2 2 2 2 2 2
          2 2 2 2 2 2
          2 2 2 2 2 2
          2 2 2 2 2 2
          2 2 2 2 2 2
          2 2 2 2 2 2
          2 2 2 2 2 2
          2 2 2 2 2 2
          2 2 2 2 2 2
          2 2 2 2 2 2
          2 2 2 2 2 2
          2 2 2 2 2 2
          2 2 2 2 2 2
          2 2 2 2 2 2
          2 2 2 2 2 2
          2 2 2 2 2 2
          2 2 2 2 2 2
          2 2 2 2 2 2
          2 2 2 2 2 2
          2 2 2 2 2 2
          2 2 2 2 2 2
          2 2 2 2 2 2
          2 2 2 2 2 2
          2 2 2 2 2 2
          2 2 2 2 2 2
          2 2 2 2 2 2
          2 2 2 2 2 2
          2 2 2 2 2 2
          2 2 2 2 2 2
          2 2 2 2 2 2
          2 2 2 2 2 2
          2 2 2 2 2 2
          2 2 2 2 2 2
          2 2 2 2 2 2
          2 2 2 2 2 2
          2 2 2 2 2 2
          2 2 2 2 2 2
          2 2 2 2 2 2
          2 2 2 2 2 2
          2 2 2 2 2 2
          2 2 2 2 2 2
          2 2 2 2 2 2
          2 2 2 2 2 2
          2 2 2 2 2 2
          2 2 2 2 2 2
          2 2 2 2 2 2
          2 2 2 2 2 2
          2 2 2 2 2 2
          2 2 2 2 2 2
          2 2 2 2 2 2
          2 2 2 2 2 2
          2 2 2 2 2 2
          2 2 2 2 2 2
          2 2 2 2 2 2
          2 2 2 2 2 2
          2 2 2 2 2 2
          2 2 2 2 2 2
          2 2 2 2 2 2
          2 2 2 2 2 2
          2 2 2 2 2 2
          2 2 2 2 2 2
          2 2 2 2 2 2
          2 2 2 2 2 2
          2 2 2 2 2 2
          2 2 2 2 2
        </DataArray>
        <DataArray type="Float64" Name="markers_norefine" format="ascii" RangeMin="0" RangeMax="2">
          2 0 0 0 0 2
          0.5 2 0.5 2 2 2
          1.5 0 2 0.5 0 0
          0 0 0 0 0 0
          2 0 0 0 0 0
          0 2 2 2 0.5 0
          0 0 0 0 0 2
          2 2 2 2 2 2
          2 2 1.75 2 2 2
          2 0 0 0 0 0
          0 0 0 0 0 0
          0 0 0 0 2 1.5
          0.75 0.25 0 0 0 2
          2 2 2 1.25 0.25 2
          2 2 1.5 0 0 0
          0 0 0 0 0 0
          0 1 1 1 2 0.5
          0 1.5 0 0 0 0
          0 0 0 0 0 0
          0 0 0 0 1 1
          1 1 1 1 2 2
          2 2 1 1 1 1
          1 1 2 2 2 2
          0.5 0.5 0 0 1.5 1.5
          0.6666666666666666 0.5 0.5 0 0 1.5
          1.5 0.6666666666666666 0 0 0 0
          0 0 0 2 2 2
          2 2 1.5 2 2 2
          2 2 2 2 2 2
          2 2 2 2 2 2
          2 2 2 2 2 2
          2 2 2 2 2 2
          2 2 2 1.5 1.5 2
          2 2 2 2 1.5 1.6666666666666667
          2 2 2 2 2 2
          2 2 2 2 2 2
          2 2 2 2 2 2
          2 2 2 2 2 2
          2 2 2 2 2 2
          2 2 2 2 2 2
          2 0.5 0 1 1 0
          1 0.5 0.5 0 0 1
          1 0 0.5 0.5 0 0
          1 1 0 1 1 0
          0 1 1 0 1 1
          0 0 1 1 0 0
          0 0 0 0 0 0
          0 0 0 0 0 0
          0 0 0 0 0 0
          0 0 0 0 0 0
          0 0 0 0 1 1
          1 1 0.75 0.5 2 2
          2 1.75 1 0.75 0.5 0.25
          0.25 0 2 1.75 1.25 1.25
          0.25 0 0 0 1.25 0.75
          1 0 0 0 0 0.5
          0.25 0 0 0 0 0
          0 0 0 0 0 0
          0 0 0 0.5 0.5 0.25
          0 0 0 0 0 0
          0 0 0 0 0 0
          0 2 2 2 2 2
          2 2 2 2 2 2
          2 2 2 2 1.75 2
          2 2 2 2 1.75 2
          1 2 2 2 1.25 0.75
          0.25 0 1.75 1.25 0.75 2
          2 2 2 2 2 2
          2 2 2 2 2 2
          2 2 2 2 2 2
          2 2 2 2 1.5 2
          2 2 2 1.5 1 0.5
          2 1.5 1 1.5 1.5 1
          2 2 1.75 0.25 0 0
          0.75 0 2 2 2 2
          2 2 1 0 0 1
          0 0 0 1 0.3333333333333333 0
          0 0 0 0 0 0
          0 1 0.5 0 0 1
          0.5 0 0 0 0 0
          0 0 0 0 0 0
          0 0 0 0 0 0
          0 0 0 0 0 0
          0 0 0 0 0 0
          0 0 0 0 0 0
          0 0 0 0 0 0
          0 0 0 0 0 0
          0 0 0 0 0 0
          0 0 0 0 0 0
          0 0 0 0 0
        </DataArray>
        <DataArray type="Float64" Name="markers_mustrefine" format="ascii" RangeMin="2" RangeMax="2">
          2 2 2 2 2 2
          2 2 2 2 2 2
          2 2 2 2 2 2
          2 2 2 2 2 2
          2 2 2 2 2 2
          2 2 2 2 2 2
          2 2 2 2 2 2
          2 2 2 2 2 2
          2 2 2 2 2 2
          2 2 2 2 2 2
          2 2 2 2 2 2
          2 2 2 2 2 2
          2 2 2 2 2 2
          2 2 2 2 2 2
          2 2 2 2 2 2
          2 2 2 2 2 2
          2 2 2 2 2 2
          2 2 2 2 2 2
          2 2 2 2 2 2
          2 2 2 2 2 2
          2 2 2 2 2 2
          2 2 2 2 2 2
          2 2 2 2 2 2
          2 2 2 2 2 2
          2 2 2 2 2 2
          2 2 2 2 2 2
          2 2 2 2 2 2
          2 2 2 2 2 2
          2 2 2 2 2 2
          2 2 2 2 2 2
          2 2 2 2 2 2
          2 2 2 2 2 2
          2 2 2 2 2 2
          2 2 2 2 2 2
          2 2 2 2 2 2
          2 2 2 2 2 2
          2 2 2 2 2 2
          2 2 2 2 2 2
          2 2 2 2 2 2
          2 2 2 2 2 2
          2 2 2 2 2 2
          2 2 2 2 2 2
          2 2 2 2 2 2
          2 2 2 2 2 2
          2 2 2 2 2 2
          2 2 2 2 2 2
          2 2 2 2 2 2
          2 2 2 2 2 2
          2 2 2 2 2 2
          2 2 2 2 2 2
          2 2 2 2 2 2
          2 2 2 2 2 2
          2 2 2 2 2 2
          2 2 2 2 2 2
          2 2 2 2 2 2
          2 2 2 2 2 2
          2 2 2 2 2 2
          2 2 2 2 2 2
          2 2 2 2 2 2
          2 2 2 2 2 2
          2 2 2 2 2 2
          2 2 2 2 2 2
          2 2 2 2 2 2
          2 2 2 2 2 2
          2 2 2 2 2 2
          2 2 2 2 2 2
          2 2 2 2 2 2
          2 2 2 2 2 2
          2 2 2 2 2 2
          2 2 2 2 2 2
          2 2 2 2 2 2
          2 2 2 2 2 2
          2 2 2 2 2 2
          2 2 2 2 2 2
          2 2 2 2 2 2
          2 2 2 2 2 2
          2 2 2 2 2 2
          2 2 2 2 2 2
          2 2 2 2 2 2
          2 2 2 2 2 2
          2 2 2 2 2 2
          2 2 2 2 2 2
          2 2 2 2 2 2
          2 2 2 2 2 2
          2 2 2 2 2 2
          2 2 2 2 2 2
          2 2 2 2 2 2
          2 2 2 2 2 2
          2 2 2 2 2 2
          2 2 2 2 2
        </DataArray>
        <DataArray type="Float64" Name="gradient_marker" format="ascii" RangeMin="0" RangeMax="1">
          0 0.75 1 1 0.75 0
          0.25 0 0.375 0 0 0
          1 1 1 1 1 1
          1 0.6666666666666666 1 0.5 0.5 0.75
          0 0.5 0.5 0.5 0.5 0.75
          0.75 0 0 0 0.25 0.75
          0.5 0.75 0.75 0.5 0.75 0
          0 0 0 0 0 0
          0 0 0.125 0 0 0
          0 0.5 0.5 0.5 0.625 0.5
          0.5 0.25 0.25 0.25 0.25 0.25
          1 1 0.375 1 0 0
          1 0.25 1 1 1 0
          0 1 1 0.125 1 0
          0 1 0 1 1 0.375
          1 0.25 1 1 1 0
          0 0 0 0 0 0
          0 0 0 0 0 0
          0 0 0 0 0 0
          0 0 0 0 0 0
          0 0 0 0 0 0
          0 0 0 0 0 0
          0 0 0 0 0 0
          0 0 0 0 0 0
          0 0 0 0 0 0
          0 0 0 0 0 0
          0 0 0 0 0 0
          0 0 0 0 0 0
          0 0 0 0 0 0
          0 0 0 0 0 0
          0 0 0 0 0 0
          0 0 0 0 0 0
          0 0 0 0 0 0
          0 0 0 0 0 0
          0 0 0 0 0 0
          0 0 0 0 0 0
          0 0 0 0 0 0
          0 0 0 0 0 0
          0 0 0 0 0 0
          0 0 0 0 0 0
          0 0 0 0 0 0
          0 0 0 0 0 0
          0 0 0 0 0 0
          0 0 0 0 0 0
          0 0 0 0 0 0
          0 0 0 0 0 0
          0 0 0 0 0 0
          0.5 0.5 1 1 0.5 1
          0.5 0.5 1 0.5 0 0
          0 0 0 0.5 1 0.5
          1 0.5 1 0.5 0 0
          0 0 0 0 0 0
          0 0 0.5 0.5 1 1
          0.5 1 0.5 0.5 1 0.5
          0 0 0 0 0 0
          0 0.5 1 0.5 1 0.5
          1 0.5 1 1 1 1
          1 1 1 1 1 1
          1 1 1 1 1 1
          1 1 1 1 0 0
          0.5 0.5 1 0.5 1 1
          1 0 0 0 0 0
          0 0 0 0 0 0.5
          0.5 1 1 0.5 1 0.5
          0.5 1 0.5 0 0 0
          0 0 0 0 0.5 1
          0.5 1 0.5 1 0.5 0
          0 0 0 0 0 0
          0 0 0 0.5 0.5 1
          1 0.5 1 0.5 0.5 1
          0.5 0 0 0 0 0
          0 0 0.5 1 0.5 1
          0.5 1 0.5 1 1 1
          1 1 1 1 1 1
          1 1 1 1 1 1
          1 1 1 1 1 1
          1 0 0 0 0 0
          0.5 1 0.5 1 0.5 1
          0.5 0 0 0 0 0
          0 0 0.5 1 0.5 1
          0.5 1 0.5 1 1 1
          1 1 1 1 1 1
          1 1 1 1 1 0.75
          0.875 0.8333333333333334 1 0.3333333333333333 0.625 0.875
          1 0.75 1 1 1 0.375
          0.5 0.25 0.375 0.5 0.5 0
          0.5 0 1 1 0.5 0
          1 0.5 0 1 0.5 0
          1 1 1 1 1 1
          1 1 1 1 1
        </DataArray>
        <DataArray type="Float64" Name="gradient_matprop_marker" format="ascii" RangeMin="0" RangeMax="0">
          0 0 0 0 0 0
          0 0 0 0 0 0
          0 0 0 0 0 0
          0 0 0 0 0 0
          0 0 0 0 0 0
          0 0 0 0 0 0