<?xml version="1.0"?>
<VTKFile type="UnstructuredGrid" version="0.1" byte_order="LittleEndian" header_type="UInt32" compressor="vtkZLibDataCompressor">
  <UnstructuredGrid>
    <Piece NumberOfPoints="551" NumberOfCells="320">
      <PointData>
        <DataArray type="Int32" Name="libmesh_node_id" format="ascii" RangeMin="226" RangeMax="2395">
          226 260 336 337 338 344
          346 347 348 349 353 354
          356 357 359 585 586 587
          590 591 592 593 594 600
          607 619 620 621 622 623
          624 625 626 627 628 643
          647 649 650 651 652 653
          654 655 656 657 658 659
          660 661 662 677 678 679
          680 681 682 683 684 685
          686 687 691 692 697 698
          699 700 701 702 703 704
          705 706 717 718 719 720
          721 722 723 1021 1022 1023
          1024 1025 1026 1027 1028 1029
          1030 1031 1032 1033 1034 1035
          1036 1037 1038 1039 1040 1041
          1042 1043 1044 1045 1055 1056
          1058 1066 1068 1078 1079 1080
          1081 1082 1083 1084 1085 1086
          1087 1088 1089 1090 1091 1092
          1093 1094 1095 1096 1097 1098
          1099 1100 1101 1102 1103 1104
          1105 1106 1107 1108 1109 1110
          1111 1112 1113 1114 1115 1116
          1117 1118 1119 1120 1121 1122
          1123 1124 1125 1126 1127 1128
          1129 1130 1131 1132 1133 1134
          1135 1136 1137 1138 1139 1140
          1141 1142 1143 1144 1145 1148
          1150 1151 1153 1164 1166 1168
          1170 1178 1179 1182 1184 1185
          1187 1198 1200 1202 1204 1212
          1213 1214 1215 1216 1217 1218
          1219 1220 1221 1222 1223 1224
          1225 1226 1228 1238 1240 1242
          1244 1982 1983 1984 1985 1986
          1987 1988 1989 1990 1991 1992
          1993 1994 1995 1996 1997 1998
          1999 2000 2001 2002 2003 2004
          2005 2006 2007 2008 2009 2010
          2011 2012 2013 2014 2015 2016
          2017 2018 2019 2020 2021 2022
          2023 2024 2025 2026 2027 2028
          2029 2030 2031 2032 2033 2034
          2035 2036 2037 2038 2039 2040
          2041 2042 2043 2044 2045 2046
          2047 2048 2049 2050 2051 2052
          2053 2054 2055 2056 2057 2058
          2059 2060 2061 2062 2063 2064
          2065 2066 2067 2068 2069 2070
          2071 2072 2073 2074 2075 2076
          2077 2078 2079 2080 2081 2082
          2083 2084 2085 2086 2087 2088
          2089 2090 2091 2092 2093 2094
          2095 2096 2097 2098 2099 2100
          2101 2102 2103 2104 2105 2106
          2107 2108 2109 2110 2111 2112
          2113 2114 2115 2116 2117 2118
          2119 2120 2121 2122 2123 2124
          2125 2126 2127 2128 2129 2130
          2131 2132 2133 2134 2135 2136
          2137 2139 2140 2141 2143 2144
          2145 2146 2147 2148 2149 2150
          2151 2152 2153 2154 2155 2158
          2160 2161 2163 2164 2165 2166
          2167 2168 2169 2171 2173 2175
          2224 2225 2227 2234 2235 2236
          2237 2238 2239 2240 2241 2242
          2243 2244 2245 2248 2250 2251
          2253 2254 2255 2256 2257 2258
          2259 2260 2261 2263 2265 2267
          2268 2269 2270 2271 2272 2273
          2274 2275 2276 2277 2278 2279
          2282 2284 2285 2287 2288 2289
          2290 2291 2292 2293 2294 2295
          2297 2299 2301 2370 2371 2372
          2373 2374 2375 2377 2379 2381
          2382 2383 2384 2385 2386 2387
          2388 2389 2391 2393 2395 663
          664 665 666 670 671 673
          674 676 688 694 696 711
          724 726 728 730 1057 1146
          1147 1149 1067 1165 1167 708
          1169 1199 1201 1203 716 1227
          1239 1241 1243 2138 2156 2157
          2159 707 2162 1152 2142 2170
          2172 2174 2246 2247 2249 1180
          2252 1181 2262 2264 2266 1183
          2280 2281 2283 713 2286 1186
          2296 2298 2300 714 2226 2376
          2378 2380 2390 2392 2394
        </DataArray>
        <DataArray type="Float64" Name="bounds" format="ascii" RangeMin="0" RangeMax="0">
          0 0 0 0 0 0
          0 0 0 0 0 0
          0 0 0 0 0 0
          0 0 0 0 0 0
          0 0 0 0 0 0
          0 0 0 0 0 0
          0 0 0 0 0 0
          0 0 0 0 0 0
          0 0 0 0 0 0
          0 0 0 0 0 0
          0 0 0 0 0 0
          0 0 0 0 0 0
          0 0 0 0 0 0
          0 0 0 0 0 0
          0 0 0 0 0 0
          0 0 0 0 0 0
          0 0 0 0 0 0
          0 0 0 0 0 0
          0 0 0 0 0 0
          0 0 0 0 0 0
          0 0 0 0 0 0
          0 0 0 0 0 0
          0 0 0 0 0 0
          0 0 0 0 0 0
          0 0 0 0 0 0
          0 0 0 0 0 0
          0 0 0 0 0 0
          0 0 0 0 0 0
          0 0 0 0 0 0
          0 0 0 0 0 0
          0 0 0 0 0 0
          0 0 0 0 0 0
          0 0 0 0 0 0
          0 0 0 0 0 0
          0 0 0 0 0 0
          0 0 0 0 0 0
          0 0 0 0 0 0
          0 0 0 0 0 0
          0 0 0 0 0 0
          0 0 0 0 0 0
          0 0 0 0 0 0
          0 0 0 0 0 0
          0 0 0 0 0 0
          0 0 0 0 0 0
          0 0 0 0 0 0
          0 0 0 0 0 0
          0 0 0 0 0 0
          0 0 0 0 0 0
          0 0 0 0 0 0
          0 0 0 0 0 0
          0 0 0 0 0 0
          0 0 0 0 0 0
          0 0 0 0 0 0
          0 0 0 0 0 0
          0 0 0 0 0 0
          0 0 0 0 0 0
          0 0 0 0 0 0
          0 0 0 0 0 0
          0 0 0 0 0 0
          0 0 0 0 0 0
          0 0 0 0 0 0
          0 0 0 0 0 0
          0 0 0 0 0 0
          0 0 0 0 0 0
          0 0 0 0 0 0
          0 0 0 0 0 0
          0 0 0 0 0 0
          0 0 0 0 0 0
          0 0 0 0 0 0
          0 0 0 0 0 0
          0 0 0 0 0 0
          0 0 0 0 0 0
          0 0 0 0 0 0
          0 0 0 0 0 0
          0 0 0 0 0 0
          0 0 0 0 0 0
          0 0 0 0 0 0
          0 0 0 0 0 0
          0 0 0 0 0 0
          0 0 0 0 0 0
          0 0 0 0 0 0
          0 0 0 0 0 0
          0 0 0 0 0 0
          0 0 0 0 0 0
          0 0 0 0 0 0
          0 0 0 0 0 0
          0 0 0 0 0 0
          0 0 0 0 0 0
          0 0 0 0 0 0
          0 0 0 0 0 0
          0 0 0 0 0 0
          0 0 0 0 0
        </DataArray>
        <DataArray type="Float64" Name="gradient_error" format="ascii" RangeMin="2.466972502949736e-9" RangeMax="4.414977011880039e-7">
          1.93994719947572e-7 2.779084272297218e-7 2.2160960582646916e-7 3.40742762311038e-7 4.052283556243151e-7 3.995589724436784e-7
          1.611047056076509e-7 1.311521487977596e-7 3.133188477596205e-7 3.158977328254267e-7 1.3080355440114208e-7 1.931011614786581e-7
          6.2656343526214956e-9 1.1837526628316794e-7 2.4379312669224863e-7 1.9373075832454345e-7 3.1145441039433164e-7 2.93457248939716e-7
          2.4155948835986295e-7 3.9172703210961645e-7 3.888703599768246e-7 3.9541693200790506e-7 3.5731744420920816e-7 1.7014847825447732e-7
          2.9583798006075133e-7 3.505405972272012e-7 3.8993133281502274e-7 2.302296911849828e-7 3.163958490039271e-7 4.2109023644479196e-7
          4.414977011880039e-7 2.8335841871932436e-7 3.532547133604716e-7 2.3504165193968186e-7 4.310799517571668e-7 4.0076815444114115e-7
          4.375604268958702e-7 1.923963666571075e-7 1.784839821058799e-7 3.3079261226684414e-7 3.0691530192477755e-7 1.1114397084948666e-7
          3.3889237046795236e-7 3.0830833078490177e-7 1.4147288276263314e-7 2.4116267216661284e-7 2.2876080462344878e-7 2.785591915620129e-7
          3.2262811513771677e-7 2.834236958961317e-7 3.738944840524883e-7 9.653159924693051e-8 1.5808679317212897e-7 7.701006630945528e-8
          1.376483063647033e-7 7.468903052324709e-8 1.1688623359374331e-7 9.549929458436028e-8 3.0187883390513295e-7 2.89054319590647e-7
          1.8817668657603776e-7 5.62366398600813e-8 3.954656532628943e-8 7.121402140531752e-8 5.007625170809404e-8 1.4395007079131332e-7
          3.7307988743582744e-8 9.832266303046356e-8 3.106311079915809e-7 2.067639474739231e-7 2.5736009859674283e-9 5.289505666311858e-8
          1.2773460173162215e-8 2.1465160533350488e-7 3.6300456079879747e-7 2.957279109582467e-7 2.3480904838061405e-7 2.1030978329165167e-7
          3.4331006595953263e-7 2.1254374565878872e-7 2.668947852292913e-7 6.97044136528618e-8 7.080180920851246e-8 7.025286062973076e-8
          6.970391205094906e-8 6.64687163306326e-8 7.360864217756855e-8 6.108090772060316e-8 6.208993115361759e-8 6.889057921075547e-8
          6.20437372525697e-8 7.510824577120067e-8 7.553428770752243e-8 7.660784936483279e-8 7.657293468566373e-8 7.539218171401009e-8
          8.665220610424549e-8 7.421142874235645e-8 1.000468484151119e-7 9.826109483389932e-8 1.1180076191891465e-7 9.258397592551217e-8
          7.903731316609815e-8 8.256615141581265e-8 8.919890792796342e-8 7.643969223328768e-8 1.317123975348397e-7 1.2724522967698937e-7
          1.1373522062047078e-7 9.436099075665197e-8 8.402960209150143e-8 7.630030764743105e-8 7.611029463428901e-8 8.86775694298655e-8
          8.866994573277248e-8 7.592028162114696e-8 8.9585071906525e-8 5.580055802837691e-8 6.524239979560373e-8 5.968219321363754e-8
          7.692314965010195e-8 1.025976485658247e-7 1.0236718052380143e-7 8.961647041576883e-8 1.0341871962424234e-7 9.973489701105519e-8
          1.1337725912575525e-7 5.800334435973404e-8 5.9371902569812026e-8 5.400651706702787e-8 8.471063624672938e-8 8.651329196071518e-8
          8.15960122732142e-8 8.113545396575619e-8 9.499713501279218e-8 8.105096994325561e-8 9.159675023772196e-8 1.0153246220765802e-7
          8.586041893511165e-8 9.364633778295301e-8 1.0525869143674784e-7 1.203223455355751e-7 9.650942675136942e-8 3.503708805276326e-8
          4.469159688499956e-8 6.3702508053362015e-9 1.8029476523114947e-8 6.773770100729227e-8 6.213584186252331e-8 3.357926895900895e-8
          3.5437013011115067e-8 6.167126354573591e-9 5.9021931559850204e-8 4.830536251635621e-9 7.682542756037657e-9 6.932784711427071e-9
          8.471891516584956e-9 4.8828465244918596e-8 4.316963609696586e-8 3.4853064029421924e-9 5.072325561472902e-9 7.633818820154602e-9
          3.472698179738433e-8 8.225942511887427e-8 9.618509835916355e-8 8.33007424426079e-8 9.333653982577761e-8 8.338339627199237e-8
          9.686912957680494e-8 8.55505149419602e-8 9.753310727945751e-8 9.971147609690325e-8 1.0088082228385473e-7 1.1339619197911102e-7
          8.521743399722634e-8 7.269183615155913e-8 1.0463807725912314e-7 7.533539049622605e-8 8.759234745721104e-8 1.1066453298200352e-7
          1.3594061268589977e-8 3.083510760328752e-8 7.876529730921162e-8 1.104289523604997e-7 9.932743967616364e-8 1.1799103484138958e-7
          1.1695581615787156e-7 1.0222982020137473e-8 1.1950403196901713e-8 3.2237992411920776e-8 8.951051330568691e-9 1.1605044205271713e-8
          1.518009641221854e-8 9.686308054900508e-8 1.247193976675862e-7 8.398599814118155e-8 1.3131770972877792e-7 7.808874491499643e-8
          8.11458609794936e-8 8.578808260784242e-8 7.607647434405051e-8 8.193841852626505e-8 7.768972680595917e-8 8.578809213753368e-8
          8.493818404653254e-8 8.990134583970859e-8 7.796460705572425e-8 7.881657300820239e-8 8.873050711357146e-8 9.401460907157473e-8
          7.985273976739798e-8 8.763423239724735e-8 7.791746768239934e-8 9.251692687734762e-8 7.878075231321683e-8 9.739962135744786e-8
          7.964403694403433e-8 9.278206511109436e-9 9.945730584515115e-9 9.82040878483e-9 1.0742226648429526e-8 9.695086985144883e-9
          1.178337488536819e-8 1.613086145948507e-8 1.10340912863858e-8 1.1198671245191105e-8 1.118577613959496e-8 1.1842258926386879e-8
          1.6100159329797155e-8 1.6025661188221618e-8 1.5951163046646082e-8 1.0501264462544024e-8 1.1009138063530765e-8 1.2565401336525077e-8
          1.2608477369356046e-8 1.2286964129166486e-8 1.3175246871904903e-8 1.2252661609555624e-8 1.4000491011113348e-8 1.4945177600080643e-8
          1.4301038948032111e-8 9.639681427118663e-9 9.503611374025346e-9 9.367541320932033e-9 9.021249951478274e-9 9.673134491047783e-9
          9.729156249545736e-9 9.512053126093521e-9 9.894121918998113e-9 9.785178008043688e-9 1.0760680465224467e-8 8.041829933934835e-9
          8.453682112564942e-9 7.248023164278648e-9 9.190737861826354e-9 9.696788204480144e-9 1.1784643966117807e-8 1.1839627960367619e-8
          9.994489529571625e-9 1.0745219642570993e-8 1.0147834056054276e-8 7.425383643765915e-9 7.782404525560405e-9 8.984896168799713e-9
          7.251325385105519e-9 5.7332247243133855e-9 6.4442045682091085e-9 3.5084430741774087e-9 4.475288878842548e-9 8.334110869165763e-9
          7.06684504384482e-9 4.7833279783375535e-9 5.618948625549807e-9 3.500548618694498e-9 7.819749461063242e-9 9.819434406575098e-9
          9.808501882905666e-9 9.942080608670052e-9 9.901226828097406e-9 9.796405684138983e-9 1.0289416329968114e-8 1.0901255964096019e-8
          9.807964126623186e-9 9.367938427855193e-9 1.043099860388195e-8 8.960742067685392e-9 9.523164448908212e-9 8.360429224729972e-9
          8.984094662897424e-9 1.0912226934996991e-8 1.0713551122494449e-8 5.176594639200197e-9 6.07721568444254e-9 5.531185793655835e-9
          8.417716262422642e-9 8.223231416977544e-9 8.813891108359891e-9 8.689740105835242e-9 9.20828650648694e-9 1.070171307973276e-8
          1.1031491133781263e-8 5.557755355555012e-9 6.018129076334859e-9 7.286351656972952e-9 7.666904131987265e-9 1.2054305600600478e-8
          1.2563284961157044e-8 1.2369744161338007e-8 1.3307227778390063e-8 1.0914500782485468e-8 1.0813194598177433e-8 1.1971405769810527e-8
          1.3086036496658047e-8 1.3746599723448592e-8 1.4173197633592815e-8 1.5157050086473297e-8 1.0823953014635913e-8 1.1219348766476522e-8
          1.3495939681810179e-8 2.9663844661825723e-9 3.669470431632569e-9 3.6418802298420373e-9 4.027545342027969e-9 6.018001141305661e-9
          5.640423877239899e-9 2.466972502949736e-9 3.0321671470053826e-9 3.7751322829441535e-9 5.182764701373141e-9 5.05800370688108e-9
          5.329450594929388e-9 6.496356083317734e-9 6.882995317382678e-9 6.2816055622396745e-9 7.732931405117783e-9 4.945695074063198e-9
          5.2412871903780764e-9 6.721988787484802e-9 6.024351650614291e-9 9.441039288404805e-9 9.086696355924379e-9 1.1218632691280854e-8
          1.2320782811901485e-8 8.87472408387315e-9 8.498326565903077e-9 1.0981280556061045e-8 8.951625860943034e-9 9.514412777414354e-9
          1.2853128255585674e-8 1.3260316318408624e-8 8.426927674816988e-9 9.138149868692194e-9 1.2485025148032838e-8 1.449831562117641e-8
          1.513607491368029e-8 1.6428403469821342e-8 1.536953190675404e-8 1.4518369427698087e-8 1.4685901242857445e-8 1.4538423234219767e-8
          1.5095521391516907e-8 1.628812258365879e-8 1.5425724352246883e-8 1.6888209826541092e-8 1.5054967869353527e-8 1.614784169749624e-8
          1.5481916797739725e-8 1.7232980071939223e-8 1.7022048295774314e-8 1.8761135512118262e-8 1.6811116519609405e-8 2.0623073845200804e-8
          2.0437054309224836e-8 2.0173230584426104e-8 1.8741747910475416e-8 1.9594812440247297e-8 1.909419848489125e-8 1.6514765833253654e-8
          1.658807438602268e-8 1.7409139034153896e-8 1.769713668809035e-8 1.6661382938791704e-8 1.8525972650007943e-8 1.3054512386638413e-8
          1.3577518961397266e-8 1.4261014440689546e-8 1.4420498212732941e-8 1.850960628953899e-8 1.8880088213596923e-8 1.9788310305322033e-8
          1.4799321609022792e-8 1.546922852555941e-8 1.737749261041461e-8 1.9312140206561017e-8 1.9016631147151817e-8 1.6036443717088965e-8
          1.8098078775647508e-8 1.7012443868291343e-8 2.0175995874177673e-8 2.002594127536613e-8 1.959031095652142e-8 2.0808678281672926e-8
          1.9718339166291732e-8 2.075614299746287e-8 2.0215795418526263e-8 9.597128410731961e-9 1.0094694225416554e-8 1.1023276628019014e-8
          1.1516394361290725e-8 1.181199025667797e-8 1.309028937403906e-8 8.548828921358744e-9 8.9523387249156e-9 1.0792380601924006e-8
          9.973296143987277e-9 1.2855764909184337e-8 1.3387409087197794e-8 1.4828404200643171e-8 1.1853588973152615e-8 1.2687181310248296e-8
          1.4234164075610748e-8 1.4662603107893597e-8 1.5826497661612507e-8 1.62934857425324e-8 1.8476977154436407e-8 1.2194011373075427e-8
          1.3711580779729381e-8 1.4930067996968268e-8 1.722399405562598e-8 2.0075155427620685e-8 1.5706298398848013e-8 1.856636187029568e-8
          7.92115494682869e-9 8.484073732885808e-9 9.33934502064509e-9 1.0145035203199555e-8 9.60895657616697e-9 1.1724887905754055e-8
          7.626435693695075e-9 8.251921020250031e-9 9.849206907815896e-9 9.520378737602914e-9 1.0657215921040457e-8 1.1823359494444384e-8
          1.401786091399408e-8 1.0116279229975946e-8 1.1431839609637954e-8 1.3872606883441753e-8 1.090561192549245e-8 1.2940064434279188e-8
          1.4143428527313579e-8 1.553317071258876e-8 1.0711963603532275e-8 1.2904110720176679e-8 1.367901886756148e-8 1.541587148468949e-8
          1.746842380260174e-8 1.5443691678000128e-8 1.722025933026461e-8 2.0225088698008643e-8 1.9983103272126722e-8 1.7820268089407712e-8
          1.9804458258356014e-8 1.8444890161208127e-8 2.1168667493405204e-8 2.0897257106745912e-8 2.128475953808986e-8 2.190183762940687e-8
          1.7579831504044377e-8 1.9047004112643798e-8 1.8513109171055475e-8 2.0408745242914358e-8 1.733939491868104e-8 1.8753239952616355e-8
          1.8581328180902823e-8 2.0761034970331686e-8 2.2370746544699026e-8 2.0533742853831188e-8 2.2516536625549872e-8 7.817228885543863e-8
          7.147015927744381e-8 3.2413342734539126e-7 2.880628278024158e-7 6.748759126425704e-8 2.0010700001807132e-7 3.336203601903401e-7
          2.8990243965701966e-7 2.9431905962362534e-7 1.0971789659100992e-7 2.5202546057922946e-7 1.2727981839026597e-7 2.109983473421735e-7
          2.627690535628948e-7 1.697578914683289e-7 1.8539250508321413e-7 2.0003679409343163e-7 1.4207793238728054e-7 8.539799832045083e-8
          8.198742687867279e-8 1.051659064168348e-7 9.687191498478429e-8 1.1697306595408998e-7 1.0177329617297154e-7 5.578189290280576e-8
          1.1205350870943043e-7 9.128587618632464e-8 1.3329094110169554e-7 9.502405690381336e-8 1.4167519685702394e-7 8.632717359277352e-8
          9.177504203458267e-8 7.572210509753323e-8 9.722291047639183e-8 2.2136638489504137e-8 1.986058101948619e-8 2.025469676942929e-8
          2.1257002662722175e-8 1.632116036625764e-8 1.702515787508341e-8 1.8861766914634718e-8 2.1239325912192347e-8 2.189364858682571e-8
          2.192210436757946e-8 2.1282022634357614e-8 1.4755748621638554e-8 1.543952810857342e-8 1.6950991239762256e-8 1.3391627389248753e-8
          1.4584003093692683e-8 1.6715905995966937e-8 1.9078429974721214e-8 2.1896838185927916e-8 1.8133675402506894e-8 2.052769650551298e-8
          1.173607936922532e-8 1.3431737724878885e-8 1.6475150022968743e-8 1.0967987809736153e-8 1.2896964778706874e-8 1.6314020659637985e-8
          1.818828129720427e-8 1.9798101331250424e-8 1.824999773158103e-8 1.9618168924030917e-8 2.2690658051945773e-8 2.3041831071021606e-8
          2.266817083561359e-8 2.313066227034989e-8 2.274758825314682e-8 2.445263247279631e-8 2.262685605569131e-8
        </DataArray>
        <DataArray type="Float64" Name="gradient_matprop_error" format="ascii" RangeMin="0" RangeMax="0">
          0 0 0 0 0 0
          0 0 0 0 0 0
          0 0 0 0 0 0
          0 0 0 0 0 0
          0 0 0 0 0 0
          0 0 0 0 0 0
          0 0 0 0 0 0
          0 0 0 0 0 0
          0 0 0 0 0 0
          0 0 0 0 0 0
          0 0 0 0 0 0
          0 0 0 0 0 0
          0 0 0 0 0 0
          0 0 0 0 0 0
          0 0 0 0 0 0
          0 0 0 0 0 0
          0 0 0 0 0 0
          0 0 0 0 0 0
          0 0 0 0 0 0
          0 0 0 0 0 0
          0 0 0 0 0 0
          0 0 0 0 0 0
          0 0 0 0 0 0
          0 0 0 0 0 0
          0 0 0 0 0 0
          0 0 0 0 0 0
          0 0 0 0 0 0
          0 0 0 0 0 0
          0 0 0 0 0 0
          0 0 0 0 0 0
          0 0 0 0 0 0
          0 0 0 0 0 0
          0 0 0 0 0 0
          0 0 0 0 0 0
          0 0 0 0 0 0
          0 0 0 0 0 0
          0 0 0 0 0 0
          0 0 0 0 0 0
          0 0 0 0 0 0
          0 0 0 0 0 0
          0 0 0 0 0 0
          0 0 0 0 0 0
          0 0 0 0 0 0
          0 0 0 0 0 0
          0 0 0 0 0 0
          0 0 0 0 0 0
          0 0 0 0 0 0
          0 0 0 0 0 0
          0 0 0 0 0 0
          0 0 0 0 0 0
          0 0 0 0 0 0
          0 0 0 0 0 0
          0 0 0 0 0 0
          0 0 0 0 0 0
          0 0 0 0 0 0
          0 0 0 0 0 0
          0 0 0 0 0 0
          0 0 0 0 0 0
          0 0 0 0 0 0
          0 0 0 0 0 0
          0 0 0 0 0 0
          0 0 0 0 0 0
          0 0 0 0 0 0
          0 0 0 0 0 0
          0 0 0 0 0 0
          0 0 0 0 0 0
          0 0 0 0 0 0
          0 0 0 0 0 0
          0 0 0 0 0 0
          0 0 0 0 0 0
          0 0 0 0 0 0
          0 0 0 0 0 0
          0 0 0 0 0 0
          0 0 0 0 0 0
          0 0 0 0 0 0
          0 0 0 0 0 0
          0 0 0 0 0 0
          0 0 0 0 0 0
          0 0 0 0 0 0
          0 0 0 0 0 0
          0 0 0 0 0 0
          0 0 0 0 0 0
          0 0 0 0 0 0
          0 0 0 0 0 0
          0 0 0 0 0 0
          0 0 0 0 0 0
          0 0 0 0 0 0
          0 0 0 0 0 0
          0 0 0 0 0 0
          0 0 0 0 0 0
          0 0 0 0 0 0
          0 0 0 0 0
        </DataArray>
        <DataArray type="Float64" Name="initial_marker" format="ascii" RangeMin="0" RangeMax="2">
          2 1 0.25 2 2 2
          1 0.5 2 2 0 0.25
          2 2 1 1.5 2 1.75
          1.25 2 2 2 1.75 0.5
          1 2 2 2 2 2
          2 2 2 2 2 1
          1 2 2 2 2 1.3333333333333333
          2 2 1 1.5 1.5 2
          2 2 2 0 0.5 0
          0.5 0 0 0 1 1.25
          0 0 0 0 2 2
          2 2 2 2 2 2
          2 2 1.25 1.75 0.25 0.75
          1.5 2 0.5 2 2 2
          2 2 2 2 2 2
          2 2 2 2 2 2
          2 2 2 2 2 2
          2 2 2 2 2 2
          2 2 2 2 2 2
          2 2 2 2 2 2
          2 2 2 2 2 2
          2 2 2 2 2 2
          2 2 2 2 2 2
          2 2 2 2 2 2
          2 2 2 2 2 2
          2 2 2 2 2 2
          2 2 2 2 2 2
          2 2 2 2 2 2
          2 2 2 2 2 2
          2 2 2 2 2 2
          2 2 2 2 2 2
          2 2 2 2 2 2
          2 2 2 2 2 2
          2 2 2 2 2 2
          2 2 2 2 2 2
          2 2 2 2 2 2
          2 2 2 2 2 2
          2 2 2 2 2 2
          2 2 2 2 2 2
          2 2 2 2 2 2
          2 2 2 2 2 2
          2 2 2 2 2 2
          2 2 2 2 2 2
          2 2 2 2 2 2
          2 2 2 2 2 2
          2 2 2 2 2 2
          2 2 2 2 2 2
          2 2 2 2 2 2
          2 2 2 2 2 2
          2 2 2 2 2 2
          2 2 2 2 2 2
          2 2 2 2 2 2
          2 2 2 2 2 2
          2 2 2 2 2 2
          2 2 2 2 2 2
          2 2 2 2 2 2
          2 2 2 2 2 2
          2 2 2 2 2 2
          2 2 2 2 2 2
          2 2 2 2 2 2
          2 2 2 2 2 2
          2 2 2 2 2 2
          2 2 2 2 2 2
          2 2 2 2 2 2
          2 2 2 2 2 2
          2 2 2 2 2 2
          2 2 2 2 2 2
          2 2 2 2 2 2
          2 2 2 2 2 2
          2 2 2 2 2 2
          2 2 2 2 2 2
          2 2 2 2 2 2
          2 2 2 2 2 2
          2 2 2 2 2 2
          2 2 2 2 2 2
          2 2 2 2 2 2
          2 2 2 2 2 2
          2 2 2 2 2 2
          2 2 2 2 2 2
          2 2 2 2 2 1
          1 2 2 0.6666666666666666 1.5 2
          2 2 0.5 1.5 0.6666666666666666 2
          2 1 2 1 2 2
          2 2 2 2 2 2
          2 2 2 2 2 2
          2 2 2 2 2 2
          2 2 2 2 2 2
          2 2 2 2 2 2
          2 2 2 2 2 2
          2 2 2 2 2 2
          2 2 2 2 2 2
          2 2 2 2 2
        </DataArray>
        <DataArray type="Float64" Name="markers_norefine" format="ascii" RangeMin="0" RangeMax="2">
          0 0 0 0 0 0
          0 0 0 0 0 0
          2 0 0 0 0 0
          0 0 0 0 0 0
          0 0 0 0 0 0
          0 0 0 0 0 0
          0 0 0 0 0 0
          0 0 0 0 0 0
          0 0 0 0 0 0
          0 0 0 0 0 0
          0 0 0 0 0 0
          1.5 0 0 0 2 0
          2 0 0 0 0 0
          0 0 0 0 0 0
          0 0 0 0 0 0
          0 0 0 0 0 0
          0 0 0 0 0 0
          0 0 0 0 0 0
          0 0 0 0 0 0
          0 0 0 0 0 0
          0 0 0 0 0 0
          0 1 0.25 1 0 0
          0 0 0 0 0 0
          0 0 0 0 0 0.5
          0 2 1 0 0 1
          0.5 2 0 2 2 2
          2 0.5 1.25 2 2 2
          1 0 0 0 0 0
          0 0 0 0 0 0
          0 0 0 0 0 0
          2 1.75 0.5 0 0 0
          0 2 2 1.75 2 2
          2 0 0 0 0 0
          0 0 0 0 0 0
          0 0 0 0 0 0
          0 0 0 0 0 0
          0 0 0 0 0 0
          0 0 1 0.5 1.5 0
          1 0.5 0 2 2 1.6666666666666667
          1.5 0 0 0 0.5 1
          0 0 0 0 0.5 0.5
          0.25 1 0.75 0 0.3333333333333333 1.5
          1 1.75 0.3333333333333333 0 0 0
          0 0.3333333333333333 0 2 1.5 0.5
          2 2 1.75 2 2 1
          1.75 2 2 2 1.5 0
          0 0 0.25 0.75 0 0
          0.5 1 0 1.5 1.25 2
          1.75 0.75 1.25 2 2 2
          1.75 2 2 2 2 1.75
          2 2 2 2 2 0.25
          0.5 0 0 1 1.5 0.5
          1 1.5 0.5 1 1.75 2
          1 2 2 2 2 2
          2 2 2 2 2 2
          2 2 2 2 2 2
          2 2 2 1.5 2 1
          1.3333333333333333 1.5 2 1 2 2
          1.25 1.75 2 2 1.5 0
          0 0.5 0 0 0 0
          0.25 0.75 0 0 0.5 1
          0 0 0 0 0 0
          0 0 0 0 0 1
          0.75 1 1 0.5 1 2
          1.75 2 1.6666666666666667 1 1 1
          2 2 2 0.5 0 1.5
          1.6666666666666667 1 0.5 0 1.5 0.6666666666666666
          0 0 0 2 2 2
          2 2 2 2 2 2
          2 2 2 2 2 2
          2 1.75 2 1.5 1.6666666666666667 2
          2 2 2 1.5 2 2
          2 2 2 2 2 2
          2 2 2 2 2 2
          2 2 2 2 2 2
          2 2 2 2 2 2
          2 2 2 0.5 0 1
          1 0 0.5 0 1 0
          1 1 0 0 1 1
          0 1 0 1 0 0
          0 0 0 0 0 0
          0 0 0 0 0 0
          0 0 0 0 0 0
          0 0 0 0 0 0.5
          0 0 0 0 0 0
          0 0 0 0 1 1
          1 2 2 2 0 0.5
          0 1.5 2 2 2 2
          2 2 2 1.5 2 2
          2 2 2 2 2 2
          2 2 2 2 0 0.5
          0 1 1 0 1
        </DataArray>
        <DataArray type="Float64" Name="markers_mustrefine" format="ascii" RangeMin="0" RangeMax="2">
          2 1 0.25 2 2 2
          1 0.5 2 2 0 0.25
          2 2 1 1.5 2 1.75
          1.25 2 2 2 1.75 0.5
          1 2 2 2 2 2
          2 2 2 2 2 1
          1 2 2 2 2 1.3333333333333333
          2 2 1 1.5 1.5 2
          2 2 2 0 0.5 0
          0.5 0 0 0 1 1.25
          0 0 0 0 2 2
          2 2 2 2 2 2
          2 2 1.25 1.75 0.25 0.75
          1.5 2 0.5 2 2 2
          2 2 2 2 2 2
          2 2 2 2 2 2
          2 2 2 2 2 2
          2 2 2 2 2 2
          2 2 2 2 2 2
          2 2 2 2 2 2
          2 2 2 2 2 2
          2 2 2 2 2 2
          2 2 2 2 2 2
          2 2 2 2 2 2
          2 2 2 2 2 2
          2 2 2 2 2 2
          2 2 2 2 2 2
          2 2 2 2 2 2
          2 2 2 2 2 2
          2 2 2 2 2 2
          2 2 2 2 2 2
          2 2 2 2 2 2
          2 2 2 2 2 2
          2 2 2 2 2 2
          2 2 2 2 2 2
          2 2 2 2 2 2
          2 2 2 2 2 2
          2 2 2 2 2 2
          2 2 2 2 2 2
          2 2 2 2 2 2
          2 2 2 2 2 2
          2 2 2 2 2 2
          2 2 2 2 2 2
          2 2 2 2 2 2
          2 2 2 2 2 2
          2 2 2 2 2 2
          2 2 2 2 2 2
          2 2 2 2 2 2
          2 2 2 2 2 2
          2 2 2 2 2 2
          2 2 2 2 2 2
          2 2 2 2 2 2
          2 2 2 2 2 2
          2 2 2 2 2 2
          2 2 2 2 2 2
          2 2 2 2 2 2
          2 2 2 2 2 2
          2 2 2 2 2 2
          2 2 2 2 2 2
          2 2 2 2 2 2
          2 2 2 2 2 2
          2 2 2 2 2 2
          2 2 2 2 2 2
          2 2 2 2 2 2
          2 2 2 2 2 2
          2 2 2 2 2 2
          2 2 2 2 2 2
          2 2 2 2 2 2
          2 2 2 2 2 2
          2 2 2 2 2 2
          2 2 2 2 2 2
          2 2 2 2 2 2
          2 2 2 2 2 2
          2 2 2 2 2 2
          2 2 2 2 2 2
          2 2 2 2 2 2
          2 2 2 2 2 2
          2 2 2 2 2 2
          2 2 2 2 2 2
          2 2 2 2 2 1
          1 2 2 0.6666666666666666 1.5 2
          2 2 0.5 1.5 0.6666666666666666 2
          2 1 2 1 2 2
          2 2 2 2 2 2
          2 2 2 2 2 2
          2 2 2 2 2 2
          2 2 2 2 2 2
          2 2 2 2 2 2
          2 2 2 2 2 2
          2 2 2 2 2 2
          2 2 2 2 2 2
          2 2 2 2 2
        </DataArray>
        <DataArray type="Float64" Name="gradient_marker" format="ascii" RangeMin="0" RangeMax="1">
          0.5 1 1 0.75 1 0.75
          0.75 0.75 1 0.75 0.75 0.875
          0 1 1 1 1 1
          1 1 1 0.875 1 0.875
          1 1 1 0.5 0.625 1
          0.875 1 1 0.5 1 1
          1 1 1 1 1 0.6666666666666666
          1 1 1 1 0.875 0.75
          0.625 1 0.875 0.5 0.75 0.25
          0.625 0 0.5 0.5 1 1
          1 0 0 0.25 0.25 0.5
          0.25 0.75 0.625 0.875 0 0.25
          0 0.75 0.875 0.75 1 0.875
          0.75 0.5 1 0 0 0
          0 0 0 0 0 0
          0 0 0 0 0 0
          0.25 0 1 0.75 1 0.5
          0 0.25 0.5 0 1 1
          1 0.5 0 0 0 0.5
          0.375 0 0.3333333333333333 0 0 0.25
          0 1 0.875 0.75 0.875 0.75
          1 0.5 0.5 0.375 0.75 0.25
          0 0 0.5 0 0.5 0.75
          0.25 0.5 0.875 1 0.5 0
          0 0 0 0 0.25 0
          0 0 0 0 0 0
          0 0.375 0.25 0 0 0
          0.25 0.125 0.625 0.25 0.5 0.25
          0.75 0.5 0.875 0.75 0.625 0.875
          0.75 0.5 0.75 0.5 0.625 0.875
          0 0.125 0.5 0.75 0.5 0.875
          1 0 0 0.125 0 0
          0 0.625 1 0.5 1 0
          0 0.25 0 0 0 0
          0.125 0.375 0 0 0.25 0.5
          0 0.5 0 0.5 0 0.5
          0 0 0 0 0 0
          0 0 0 0 0 0
          0 0 0 0 0 0
          0 0 0 0 0 0
          0 0 0 0 0 0
          0 0 0 0 0 0
          0 0 0 0 0 0
          0 0 0 0 0 0
          0 0 0 0 0 0
          0 0 0 0 0 0
          0 0 0 0 0 0
          0 0 0 0 0 0
          0 0 0 0 0 0
          0 0 0 0 0 0
          0 0 0 0 0 0
          0 0 0 0 0 0
          0 0 0 0 0 0
          0 0 0 0 0 0
          0 0 0 0 0 0
          0 0 0 0 0 0
          0 0 0 0 0 0
          0 0 0 0 0 0
          0 0 0 0 0 0
          0 0 0 0 0 0
          0 0 0 0 0 0
          0 0 0 0 0 0
          0 0 0 0 0 0
          0 0 0 0 0 0
          0 0 0 0 0 0
          0 0 0 0 0 0
          0 0 0 0 0 0
          0 0 0 0 0 0
          0 0 0 0 0 0