<?xml version="1.0"?>
<VTKFile type="UnstructuredGrid" version="0.1" byte_order="LittleEndian" header_type="UInt32" compressor="vtkZLibDataCompressor">
  <UnstructuredGrid>
    <Piece NumberOfPoints="564" NumberOfCells="330">
      <PointData>
        <DataArray type="Int32" Name="libmesh_node_id" format="ascii" RangeMin="283" RangeMax="5086">
          372 794 807 809 811 831
          836 1442 1443 1444 1445 1446
          1447 1448 1449 1450 1451 1547
          1549 1550 1551 1553 1581 1583
          1584 1585 1587 1657 1658 1659
          1660 1661 1662 1663 1671 1672
          1673 1674 1675 1676 1677 1724
          1725 1728 1755 1756 1759 1760
          1761 1762 1763 1764 1765 1766
          1767 1768 1769 1907 1908 1909
          1910 1911 1912 1913 1914 1915
          1916 1917 1918 1919 1920 1921
          1922 1923 1951 1952 1953 1954
          1955 1956 1957 3279 3280 3281
          3282 3283 3284 3285 3286 3287
          3288 3948 3949 3950 3951 3952
          3955 3957 3959 3960 3961 3962
          3963 3964 3965 3966 3967 3968
          3969 3970 3971 3972 3973 3974
          3975 3976 3977 3980 3983 3987
          3988 3989 3990 3991 3992 3993
          3994 3995 3996 3997 3998 3999
          4000 4001 4196 4197 4200 4203
          4207 4208 4209 4210 4211 4212
          4213 4214 4215 4216 4217 4218
          4219 4220 4221 4224 4225 4228
          4231 4235 4236 4237 4238 4239
          4240 4241 4242 4243 4244 4245
          4246 4247 4248 4249 4586 4587
          4588 4589 4590 4591 4592 4593
          4594 4595 4596 4597 4598 4599
          4600 4601 4602 4603 4604 4605
          4606 4607 4608 4609 4610 4611
          4612 4613 4614 4615 4616 4617
          4618 4619 4620 4621 4622 4623
          4624 4625 4626 4683 4684 4685
          4686 4687 4688 4689 4690 4691
          4692 4693 4694 4695 4696 4697
          4698 4699 4700 4701 4702 4703
          4704 4705 4706 4707 4708 4709
          4710 4711 4712 4713 4714 4715
          4716 4717 4718 4719 4720 4721
          4722 4723 4724 4725 4726 4727
          4728 4729 4730 4731 4732 4733
          4734 4868 4869 4870 4871 4872
          4873 4874 4875 4876 4877 4895
          4896 4897 4898 4899 4900 4901
          5025 5026 5027 5028 5029 5030
          5031 5032 5033 5034 5035 5036
          5037 5038 5039 5040 5041 5056
          5057 5058 5059 5060 5061 5062
          5063 5064 5065 5066 5067 5068
          5069 5070 5071 5072 5073 5074
          5075 5076 5077 5078 5079 5080
          5081 5082 5083 5084 5085 5086
          770 772 775 774 776 777
          369 778 826 377 839 837
          832 840 838 841 842 385
          845 844 846 283 754 821
          923 366 1013 1011 808 1014
          1012 812 1019 1018 753 1406
          1434 1398 1407 1435 1408 1438
          1411 1440 1651 1653 1709 1710
          1711 1722 1723 1726 1727 1902
          1903 1906 806 1680 1667 1681
          1684 810 1686 1934 1938 1935
          1939 1941 1943 1754 1944 1946
          1758 1948 1950 3128 3271 3095
          3145 3272 3146 3275 758 3149
          3277 3083 3133 3135 1400 3898
          3946 3900 3134 1409 3947 3784
          3844 1525 3848 3902 3845 1534
          1541 3140 3142 3953 3141 1410
          3954 3956 3851 3855 3852 1535
          3958 1548 3147 3097 3912 3148
          3914 3916 1543 3157 3158 3159
          3818 3878 3926 3879 3928 790
          3882 3978 3930 1539 3979 1545
          3885 3981 3886 3982 3984 3889
          3985 3986 1552 3940 3942 3944
          793 4146 4194 4148 4195 4150
          4198 1575 4199 4201 4202 4204
          4205 4206 1582 4160 4162 4164
          1577 4174 4222 4176 4223 4178
          4226 1579 4227 4229 4230 4232
          4233 4234 1586 4188 4190 4192
          798 4532 4534 4536 4566 4568
          4570 1655 4556 4580 4582 4584
          4635 4637 4639 1665 4649 4651
          4653 4663 4665 4667 1669 4677
          4679 4681 4785 4863 4864 4867
          4880 4881 4884 5013 5014 5017
          1753 4894 5020 5021 5024 5044
          5045 5048 1757 5051 5052 5055
        </DataArray>
        <DataArray type="Float64" Name="bounds" format="ascii" RangeMin="0" RangeMax="0">
          0 0 0 0 0 0
          0 0 0 0 0 0
          0 0 0 0 0 0
          0 0 0 0 0 0
          0 0 0 0 0 0
          0 0 0 0 0 0
          0 0 0 0 0 0
          0 0 0 0 0 0
          0 0 0 0 0 0
          0 0 0 0 0 0
          0 0 0 0 0 0
          0 0 0 0 0 0
          0 0 0 0 0 0
          0 0 0 0 0 0
          0 0 0 0 0 0
          0 0 0 0 0 0
          0 0 0 0 0 0
          0 0 0 0 0 0
          0 0 0 0 0 0
          0 0 0 0 0 0
          0 0 0 0 0 0
          0 0 0 0 0 0
          0 0 0 0 0 0
          0 0 0 0 0 0
          0 0 0 0 0 0
          0 0 0 0 0 0
          0 0 0 0 0 0
          0 0 0 0 0 0
          0 0 0 0 0 0
          0 0 0 0 0 0
          0 0 0 0 0 0
          0 0 0 0 0 0
          0 0 0 0 0 0
          0 0 0 0 0 0
          0 0 0 0 0 0
          0 0 0 0 0 0
          0 0 0 0 0 0
          0 0 0 0 0 0
          0 0 0 0 0 0
          0 0 0 0 0 0
          0 0 0 0 0 0
          0 0 0 0 0 0
          0 0 0 0 0 0
          0 0 0 0 0 0
          0 0 0 0 0 0
          0 0 0 0 0 0
          0 0 0 0 0 0
          0 0 0 0 0 0
          0 0 0 0 0 0
          0 0 0 0 0 0
          0 0 0 0 0 0
          0 0 0 0 0 0
          0 0 0 0 0 0
          0 0 0 0 0 0
          0 0 0 0 0 0
          0 0 0 0 0 0
          0 0 0 0 0 0
          0 0 0 0 0 0
          0 0 0 0 0 0
          0 0 0 0 0 0
          0 0 0 0 0 0
          0 0 0 0 0 0
          0 0 0 0 0 0
          0 0 0 0 0 0
          0 0 0 0 0 0
          0 0 0 0 0 0
          0 0 0 0 0 0
          0 0 0 0 0 0
          0 0 0 0 0 0
          0 0 0 0 0 0
          0 0 0 0 0 0
          0 0 0 0 0 0
          0 0 0 0 0 0
          0 0 0 0 0 0
          0 0 0 0 0 0
          0 0 0 0 0 0
          0 0 0 0 0 0
          0 0 0 0 0 0
          0 0 0 0 0 0
          0 0 0 0 0 0
          0 0 0 0 0 0
          0 0 0 0 0 0
          0 0 0 0 0 0
          0 0 0 0 0 0
          0 0 0 0 0 0
          0 0 0 0 0 0
          0 0 0 0 0 0
          0 0 0 0 0 0
          0 0 0 0 0 0
          0 0 0 0 0 0
          0 0 0 0 0 0
          0 0 0 0 0 0
          0 0 0 0 0 0
          0 0 0 0 0 0
        </DataArray>
        <DataArray type="Float64" Name="gradient_error" format="ascii" RangeMin="1.043096510324919e-11" RangeMax="3.129752315849808e-9">
          1.0550166457986404e-10 8.8612503028827e-11 2.504045662516552e-10 5.796657826010664e-10 2.0686461506410937e-10 5.996402918576706e-11
          5.982862693371562e-11 1.4917151635879606e-10 1.542534218123626e-10 9.455784475035262e-11 1.2658896492524088e-10 1.2688881128817993e-10
          1.6705699092948884e-10 1.1264808173985812e-10 1.8303389834238378e-10 1.169119949518219e-10 2.573903644298381e-10 2.675635011545464e-10
          1.414007034727276e-10 7.30149673785659e-11 4.609507259115944e-10 2.291292791366216e-10 6.476276993123977e-10 3.089395305271129e-10
          9.547569897008308e-11 7.270843326907532e-10 3.4205306301213194e-10 1.7743257248682077e-10 1.2500943153162914e-10 2.6266707048919974e-10
          1.6145325335302735e-10 1.8151827277360603e-10 1.5524911455209568e-10 2.850822803942425e-10 1.8403181814680151e-10 1.1873444144170053e-10
          3.017453588638344e-10 1.9890448269160397e-10 1.5803429018454648e-10 7.872087656025273e-11 2.771560758650083e-10 6.992321375700171e-11
          4.6234378063973695e-11 6.207971529481979e-11 4.147699287805986e-11 3.785711759818316e-11 4.508106574242979e-11 8.178744130672065e-11
          7.227167154440277e-11 5.831944732190006e-11 6.723212640989889e-11 8.233212480250151e-11 9.556670943535849e-11 5.894624032557669e-11
          7.639202349690207e-11 7.063861624006543e-11 1.0015349562759953e-10 1.9768683001678852e-10 2.2704823518376722e-10 1.579786043907687e-10
          1.585409369045275e-10 1.8433963302890587e-10 1.9523257484483377e-10 1.5661521753443607e-10 2.9065358920904606e-10 1.758589965390674e-10
          2.2746374894522986e-10 3.479248402585676e-10 2.0914605311623445e-10 2.6145068162084934e-10 1.8011722590328248e-10 3.70952142449789e-10
          2.2567738257262042e-10 2.7409938201200067e-10 6.233205810729747e-11 7.88590343837419e-11 4.459962138760461e-11 4.870643972583619e-11
          5.234363302253848e-11 6.301397969221201e-11 4.765960226569109e-11 5.283010886947474e-11 6.40671893318383e-11 4.39499155198001e-11
          5.1092172599953454e-11 4.63142731648854e-11 5.464764817372694e-11 4.5293443667657296e-11 9.122726487107242e-11 6.197391076467285e-11
          7.615985449586654e-11 3.2723018292570034e-10 1.908436216425969e-10 6.28242595916987e-10 3.5950727861459414e-10 4.620655917260979e-10
          1.0796831226904181e-10 1.98608387312172e-10 1.4978518980627684e-10 2.420193340171541e-10 1.4263262425637808e-10 1.7644745963130565e-10
          1.0452620384964907e-10 3.345039527850903e-10 1.958938537585808e-10 2.393366020421509e-10 8.197121273857251e-11 4.4749180434255726e-11
          6.080734432518776e-11 3.838005014320321e-11 1.1154338569735943e-10 6.079577247141694e-11 8.164634344537136e-11 8.656545049639311e-10
          4.923316698737782e-10 6.245937149022544e-10 3.595817506338706e-10 8.043359967567422e-10 1.999061410861533e-10 2.547103552457706e-10
          4.4404823684936014e-10 2.5868210253217354e-10 3.128027294497094e-10 1.839239356403064e-10 5.629714736359567e-10 3.26541371836453e-10
          3.9114226198481274e-10 1.4638197094754511e-10 7.940253055703792e-11 1.0538834919517329e-10 6.543639349020224e-11 1.8361355303586032e-10
          9.93568476164416e-11 1.3046756440720422e-10 9.829037348152895e-10 5.613618439612518e-10 1.1364848741998799e-9 3.0874618501814e-10
          3.550293589138022e-10 6.79333501993356e-10 3.926829518290047e-10 4.665748459378631e-10 2.7251063608662194e-10 7.782740267879415e-10
          4.488660821743278e-10 5.298337827739847e-10 2.193835265198082e-10 1.1860622529480826e-10 1.5409680499409215e-10 8.396768403977156e-11
          2.498374293789849e-10 1.348322056464608e-10 1.7415347452033958e-10 1.240883813782245e-9 7.062703345410657e-10 1.2779335786177617e-9
          3.864493983076897e-10 3.975991182101359e-10 8.450275938659581e-10 4.868162968624196e-10 5.720991144662981e-10 3.33407263278577e-10
          8.686308898534833e-10 5.00246558056682e-10 5.869716175178275e-10 2.706005506659788e-10 1.4578840622031745e-10 1.8794965041438355e-10
          1.02886070938098e-10 2.7793295892239996e-10 1.4964317504735406e-10 1.9280796383118424e-10 1.2614241594383306e-10 7.549464251973732e-11
          1.0433885602653573e-10 6.337962550457777e-11 1.6919778100276782e-10 1.007008174004486e-10 1.2841292424586228e-10 3.728404488517553e-11
          4.3862411348319565e-11 2.976092472472669e-11 3.35750148190581e-11 3.1729422243018955e-11 3.6676627889485854e-11 2.9023167121861117e-11
          5.789821105261129e-11 4.2806752720675833e-11 4.76028484476282e-11 2.1948327135355166e-10 1.2940423743130774e-10 1.5151274521904322e-10
          1.0233119633538865e-10 2.7174853393569225e-10 1.5976129108294166e-10 1.8690436126689947e-10 7.35129766447164e-11 5.395487625970579e-11
          5.986556154168058e-11 4.5402115518335656e-11 9.01514022676858e-11 5.580178475044474e-11 7.295817998848878e-11 9.21209720562973e-11
          1.0379905071667993e-10 7.506831914136651e-11 8.187361981112788e-11 7.793466967081042e-11 8.564457287194052e-11 6.985624328235768e-11
          1.2607842913961778e-10 9.710628938363817e-11 1.0170273551388462e-10 3.2085898068277103e-10 1.884020010298156e-10 2.1844581430415476e-10
          1.46348628745969e-10 3.6066089923466856e-10 2.1180702148863616e-10 2.4347431282530984e-10 1.0621893915479902e-10 5.880475149921131e-11
          8.59344887173335e-11 4.866744320763082e-11 1.200641957233681e-10 6.691444056976541e-11 8.815389866307156e-11 1.4581002923285136e-10
          1.1242475199633581e-10 1.169805490127549e-10 9.382911232655866e-11 1.6170904482155733e-10 1.0688377480798006e-10 1.2907977708402987e-10
          3.8624168927667066e-10 2.2732906045784742e-10 2.5919476967180127e-10 1.533062621319697e-10 3.950880262194527e-10 2.3287797162640746e-10
          2.6459943695873997e-10 1.3003221291175458e-10 7.184746510710087e-11 8.932058784629021e-11 5.765454190534605e-11 1.3374141714667322e-10
          7.361555094315114e-11 9.246126628884656e-11 1.7198686746563563e-10 1.0389486326345156e-10 1.3670674972371732e-10 8.519126913379757e-11
          1.754959748516863e-10 1.0712198716807532e-10 1.3916404835018616e-10 6.070359633343214e-11 6.193812245888536e-11 4.980079785337666e-11
          4.85453248099794e-11 5.188533196567215e-11 5.1582736674324286e-11 4.1900538100454745e-11 6.317264858433857e-11 4.7289851766582146e-11
          5.1280141382976417e-11 1.911718357934499e-11 2.3287364885335886e-11 1.4031936700713051e-11 1.6713918683122452e-11 1.6036716605194166e-11
          1.955494060372407e-11 1.437657709194277e-11 3.223558541869822e-11 2.30071833244667e-11 2.712596735226994e-11 4.206307615614971e-11
          3.0111295504015117e-11 3.527368073745869e-11 2.6582076222546953e-11 5.2427736952057335e-11 3.0543259668583864e-11 4.0767400655989985e-11
          6.255687788122924e-11 3.1606435914528454e-11 4.5250758891234736e-11 2.7164267836575527e-11 7.100475572821879e-11 3.593372392288225e-11
          5.1450188862645076e-11 1.4638780303990298e-11 1.583793419761879e-11 1.1476421279939294e-11 1.1623296867861375e-11 1.259366556508104e-11
          1.348779037945563e-11 1.043096510324919e-11 1.7839447645629038e-11 1.2374563830630205e-11 1.504054052965276e-11 7.660960265298444e-11
          3.863577991067197e-11 5.5210106595875296e-11 3.229564932906242e-11 7.858050337410484e-11 3.9604156814074904e-11 5.655454795126065e-11
          1.9092321967162366e-11 1.3262403050780896e-11 1.605887947511394e-11 1.1973098979782343e-11 1.9542836734313947e-11 1.3545850896084835e-11
          1.641859308475258e-11 2.984358047600995e-11 3.226197198440434e-11 2.3920177443807833e-11 2.4390607709259157e-11 2.536532020078849e-11
          2.6910207301377825e-11 2.1199851470403164e-11 3.62370270814723e-11 2.6036160579848757e-11 2.9676989377635345e-11 3.860472600073355e-11
          2.773466319059972e-11 3.145830513322939e-11 2.3745762877645672e-11 3.941576133132122e-11 2.8258043196212407e-11 3.201772591315525e-11
          1.0128096458266418e-9 4.123918859946068e-10 5.422916294704351e-10 1.6806018700918535e-9 9.099907306382123e-10 3.152019672309481e-10
          1.595242927815496e-9 1.6336824433069767e-9 8.654256914163542e-11 1.054642157879941e-10 1.0881973427971618e-10 1.6198236157008135e-10
          4.7313184876209274e-11 1.3377972230858987e-10 1.6785732930540649e-10 1.9655620704168187e-10 2.549371757038353e-10 9.496075380499121e-11
          1.4580543044722093e-10 1.8438047287932929e-10 2.801261708759932e-10 8.096777631188083e-10 1.9191737182681565e-10 1.1175211425888217e-10
          1.4537232382653698e-10 9.956495779426662e-11 1.0022966839495234e-9 1.7993265023814759e-9 1.5876445389879314e-9 1.037162400275471e-9
          2.115319703101038e-9 1.8501509390907061e-9 1.0720281166014184e-9 2.4313129038206e-9 2.921329071277149e-10 1.225102128320306e-10
          3.176994687080034e-10 1.8057090689912193e-10 1.0604401224539886e-10 3.252283689139165e-10 9.57529305121873e-11 4.041999156181438e-10
          9.23663480268344e-11 2.7091828847918467e-10 2.4271414419348726e-10 4.144910483159365e-10 4.3852174119298e-11 4.094055818955778e-11
          5.6186985043930367e-11 4.427704719004579e-11 3.978555099801657e-11 4.3877020276104856e-11 3.099641617409265e-11 4.027583399532191e-10
          4.879474430648194e-10 3.6668476563539067e-10 4.987972866987296e-10 6.510736996724942e-10 6.11042077491989e-10 7.73852422930547e-10
          5.321874495576184e-10 6.552280864410029e-10 8.186939926925255e-10 1.4200187213293419e-11 1.3483116613416051e-11 1.6705604615457966e-11
          1.5342616234349567e-11 2.1647871363154616e-11 1.8585850769455325e-11 2.6352021068502693e-11 2.5905323845571273e-11 2.1222286144547712e-11
          2.8679089810751376e-11 2.7725926982455824e-11 2.2474986605467855e-11 6.286924596329227e-11 8.260260743131653e-11 1.3811124979382207e-10
          8.62557272193107e-11 1.0191372381708469e-10 5.800912366801336e-11 8.649012860150584e-11 2.0307728516573266e-10 1.2565531825513335e-10
          1.473468779185808e-10 4.819120904415907e-10 2.900048325651291e-10 2.2296202132164075e-10 3.676306666796592e-10 7.280748179648273e-10
          4.3541034491880213e-10 5.425438279712345e-10 1.687226121427125e-10 1.310389257406704e-10 2.5109095396008107e-10 9.526247054788624e-10
          5.652238991482242e-10 1.4095276879292214e-9 8.326097907438857e-10 1.0556680699597556e-9 3.224698293607603e-10 4.712626795644351e-10
          7.698157767647212e-10 9.51534275499149e-11 7.497443170183826e-11 1.401354504941806e-10 5.170103806124808e-11 4.926169873711112e-11
          7.581462763832734e-11 5.883435022885626e-11 1.7764411214381927e-10 2.5686418845638464e-10 9.496633292634831e-11 1.3555822931177254e-10
          1.0644945108163381e-10 8.13561675329316e-11 1.6880465840567001e-10 2.754189226334114e-10 3.9770364158243913e-10 9.982427393051472e-11
          2.8784345894638843e-10 5.527686757898728e-10 3.9292028956891516e-10 5.77187215914933e-11 3.658015094870583e-11 4.747763446742438e-11
          1.981600134408183e-9 1.1678779246239667e-9 1.4594078720397664e-9 6.571069538054607e-10 1.0443596909206094e-9 2.631757433830043e-9
          1.5504816213552961e-9 1.1328697666432374e-9 1.9133401166144995e-9 8.689410486331562e-10 6.413746511397964e-10 1.3481880769358095e-9
          3.549782268283054e-10 2.6974436621544223e-10 1.851856672656167e-10 1.4310609011457076e-10 1.0774540616482189e-10 4.662024006552503e-10
          3.4903506626871763e-10 1.8355235023850481e-10 1.3630224262616476e-10 7.362619898920005e-10 5.147666103631163e-10 9.358258803220641e-10
          6.449876969513966e-10 2.3694624870020393e-9 1.4020421036956524e-9 1.6499288217085796e-9 7.912965083619839e-10 2.764474889667249e-9
          1.6358473287633575e-9 1.909149740812773e-9 9.214968659127999e-10 4.2844260909061637e-10 2.2379975471669042e-10 1.6426828114534698e-10
          4.972249425520483e-10 2.5852991173277717e-10 1.8813786109358686e-10 1.1312930596228827e-9 7.707094871401028e-10 1.2975147655114706e-9
          8.763631801278076e-10 3.033967829148833e-9 1.7957629611829931e-9 2.085118301196564e-9 1.0105881694477327e-9 3.129752315849808e-9
          1.8526814894728947e-9 2.147511034513951e-9 1.0423112214701315e-9 5.442276292851072e-10 2.82218974078705e-10 2.0431661982885254e-10
          5.609551879437051e-10 2.9064182625393824e-10 2.1005299341932993e-10 1.4096054349084415e-9 9.469673040372866e-10 1.4492199172397921e-9
          9.71804747793199e-10 2.0595168746320677e-10 1.639734380602415e-10 2.7733549673425683e-10 3.5788287162797776e-10 2.4548791099487043e-10
          4.42213263051198e-10 3.011253673334589e-10 1.4748627784421256e-10 1.669773852720728e-10 1.3601172422710442e-10 2.0288014069383386e-10
          5.230233404050659e-10 3.5271754459824724e-10 5.899018596732757e-10 3.949251579769854e-10 2.349631843517274e-10 1.8672999353218244e-10
          2.61193440267791e-10 6.34108690436413e-10 4.225278508647831e-10 6.495630253135572e-10 4.321092144827978e-10 2.782950778033827e-10
          2.1959036972134522e-10 2.841822396008564e-10 2.3777795894071317e-11 3.128342501911723e-11 2.2008646702988624e-11 4.3257214237006777e-11
          5.6842186673583276e-11 3.2362619787663795e-11 7.118430312234928e-11 8.493212002014121e-11 4.239486040314182e-11 9.670839999163123e-11
          4.847315949208548e-11 1.8653346281721235e-11 2.0972236662208226e-11 1.437995923673684e-11 2.3858673238945323e-11 1.0480270596186621e-10
          5.235415342152788e-11 1.0764218384993404e-10 5.371956391791395e-11 2.5648008471964863e-11 1.6750826404055514e-11 2.629779345888054e-11
        </DataArray>
        <DataArray type="Float64" Name="gradient_matprop_error" format="ascii" RangeMin="0" RangeMax="0">
          0 0 0 0 0 0
          0 0 0 0 0 0
          0 0 0 0 0 0
          0 0 0 0 0 0
          0 0 0 0 0 0
          0 0 0 0 0 0
          0 0 0 0 0 0
          0 0 0 0 0 0
          0 0 0 0 0 0
          0 0 0 0 0 0
          0 0 0 0 0 0
          0 0 0 0 0 0
          0 0 0 0 0 0
          0 0 0 0 0 0
          0 0 0 0 0 0
          0 0 0 0 0 0
          0 0 0 0 0 0
          0 0 0 0 0 0
          0 0 0 0 0 0
          0 0 0 0 0 0
          0 0 0 0 0 0
          0 0 0 0 0 0
          0 0 0 0 0 0
          0 0 0 0 0 0
          0 0 0 0 0 0
          0 0 0 0 0 0
          0 0 0 0 0 0
          0 0 0 0 0 0
          0 0 0 0 0 0
          0 0 0 0 0 0
          0 0 0 0 0 0
          0 0 0 0 0 0
          0 0 0 0 0 0
          0 0 0 0 0 0
          0 0 0 0 0 0
          0 0 0 0 0 0
          0 0 0 0 0 0
          0 0 0 0 0 0
          0 0 0 0 0 0
          0 0 0 0 0 0
          0 0 0 0 0 0
          0 0 0 0 0 0
          0 0 0 0 0 0
          0 0 0 0 0 0
          0 0 0 0 0 0
          0 0 0 0 0 0
          0 0 0 0 0 0
          0 0 0 0 0 0
          0 0 0 0 0 0
          0 0 0 0 0 0
          0 0 0 0 0 0
          0 0 0 0 0 0
          0 0 0 0 0 0
          0 0 0 0 0 0
          0 0 0 0 0 0
          0 0 0 0 0 0
          0 0 0 0 0 0
          0 0 0 0 0 0
          0 0 0 0 0 0
          0 0 0 0 0 0
          0 0 0 0 0 0
          0 0 0 0 0 0
          0 0 0 0 0 0
          0 0 0 0 0 0
          0 0 0 0 0 0
          0 0 0 0 0 0
          0 0 0 0 0 0
          0 0 0 0 0 0
          0 0 0 0 0 0
          0 0 0 0 0 0
          0 0 0 0 0 0
          0 0 0 0 0 0
          0 0 0 0 0 0
          0 0 0 0 0 0
          0 0 0 0 0 0
          0 0 0 0 0 0
          0 0 0 0 0 0
          0 0 0 0 0 0
          0 0 0 0 0 0
          0 0 0 0 0 0
          0 0 0 0 0 0
          0 0 0 0 0 0
          0 0 0 0 0 0
          0 0 0 0 0 0
          0 0 0 0 0 0
          0 0 0 0 0 0
          0 0 0 0 0 0
          0 0 0 0 0 0
          0 0 0 0 0 0
          0 0 0 0 0 0
          0 0 0 0 0 0
          0 0 0 0 0 0
          0 0 0 0 0 0
          0 0 0 0 0 0
        </DataArray>
        <DataArray type="Float64" Name="initial_marker" format="ascii" RangeMin="0" RangeMax="2">
          2 1.75 0 0 0 0
          0 0 0 0 0 0
          0 0 0 0 0 2
          2 1 2 2 2 2
          2 2 2 0.5 0 0
          0 1.25 0 0 1.5 0.5
          0 0 2 0.5 0 0
          0 0.25 0.5 0 0.5 0
          0 0 0 0 0 0
          0 0 0 0 0 0
          0 0 0 0 0 0
          0 0 0 0 0 0
          0 0 0 0 0 0
          0 0 0 0 0.25 0
          0 0 0 0 1 0.3333333333333333
          0.5 2 2 2 2 2
          2 2 2 2 2 2
          1.75 2 2 2 1.75 1
          1 0.3333333333333333 2 1.75 1.75 2
          2 2 2 2 2 2
          2 2 2 2 2 2
          2 2 2 2 2 2
          2 2 2 2 2 2
          2 2 2 2 2 2
          2 2 2 2 2 2
          2 2 2 2 2 2
          2 2 2 2 2 2
          2 2 2 2 2 2
          2 2 2 2 1.75 1
          1.5 0.5 2 1.5 1.6666666666666667 0
          0.25 0 0 0 0 0
          0.75 0.5 0 2 1.75 1.5
          1 2 2 1.75 1.25 1
          0.5 0 1.5 1 1 0.5
          0.5 0 0 0 0 0
          0.75 0.5 0 2 2 2
          2 2 2 2 1.75 1.25
          1.5 0.5 2 1.5 1.3333333333333333 1
          1 0 0 1 0.6666666666666666 0
          2 2 2 1.75 2 2
          2 2 1.5 1.25 0.6666666666666666 2
          1.5 1.5 1.25 0.75 0.5 0
          1.5 1 1 0 0.25 0
          0 0 0 0 0.5 0
          0 0 0.25 0 0 0
          0 0 1 0.5 0.5 1.5
          1 1 0 1.75 1.3333333333333333 1.3333333333333333
          2 1.5 1.5 0.6666666666666666 2 1.5
          1.5 0.5 0.5 0 0 0
          0 0 0.5 0 0 2
          1.5 1.5 0.6666666666666666 2 1.5 1.5
          0.5 0 0 0 0.5 0
          0 0.5 0.5 0 0 0
          0 0 0.5 0 0 0.5
          0 0 0 0.5 0 0
          0 0 0 0 0 0
          0 0 0 0 0 0
          0 0 0 0 0 0
          0 0 0 0 0 0
          0 0 0 0 0 0
          0 0 0 0 0 0
          0 0.5 0 0 0 0
          1 0.5 1.75 0 0 0
          0 0.75 0 1.75 0 0
          0 0 0.25 0 0.5 0
          0 1 0 0 0 0
          0 0 0 0.25 0 0
          0.5 0 0 0.3333333333333333 0 1.5
          1 0.5 0.3333333333333333 0 2 1.75
          1.5 2 2 2 2 2
          2 2 2 2 2 2
          2 2 2 2 2 2
          2 2 1.75 2 1.75 1
          2 1.75 2 2 2 2
          2 2 2 2 2 1.75
          2 2 2 1 0.3333333333333333 0.3333333333333333
          2 2 2 2 2 2
          2 2 2 2 2 2
          2 2 2 2 2 2
          2 2 2 2 2 2
          2 2 2 2 2 2
          2 2 2 2 2 2
          2 2 2 2 2 2
          2 2 2 2 2 2
          2 2 2 2 2 2
          2 2 2 2 2 2
          2 2 1.6666666666666667 2 2 2
          2 2 1 1 0 1.25
          2 2 2 2 1.5 1
          1.5 2 2 2 2 1.75
          1.5 2 0.3333333333333333 1 0.5 1.75
          2 1.6666666666666667 2 2 2 2
          2 1 1 0 1.25 2
          2 2 2 1.5 1 1.5
        </DataArray>
        <DataArray type="Float64" Name="markers_norefine" format="ascii" RangeMin="0" RangeMax="0">
          0 0 0 0 0 0
          0 0 0 0 0 0
          0 0 0 0 0 0
          0 0 0 0 0 0
          0 0 0 0 0 0
          0 0 0 0 0 0
          0 0 0 0 0 0
          0 0 0 0 0 0
          0 0 0 0 0 0
          0 0 0 0 0 0
          0 0 0 0 0 0
          0 0 0 0 0 0
          0 0 0 0 0 0
          0 0 0 0 0 0
          0 0 0 0 0 0
          0 0 0 0 0 0
          0 0 0 0 0 0
          0 0 0 0 0 0
          0 0 0 0 0 0
          0 0 0 0 0 0
          0 0 0 0 0 0
          0 0 0 0 0 0
          0 0 0 0 0 0
          0 0 0 0 0 0
          0 0 0 0 0 0
          0 0 0 0 0 0
          0 0 0 0 0 0
          0 0 0 0 0 0
          0 0 0 0 0 0
          0 0 0 0 0 0
          0 0 0 0 0 0
          0 0 0 0 0 0
          0 0 0 0 0 0
          0 0 0 0 0 0
          0 0 0 0 0 0
          0 0 0 0 0 0
          0 0 0 0 0 0
          0 0 0 0 0 0
          0 0 0 0 0 0
          0 0 0 0 0 0
          0 0 0 0 0 0
          0 0 0 0 0 0
          0 0 0 0 0 0
          0 0 0 0 0 0
          0 0 0 0 0 0
          0 0 0 0 0 0
          0 0 0 0 0 0
          0 0 0 0 0 0
          0 0 0 0 0 0
          0 0 0 0 0 0
          0 0 0 0 0 0
          0 0 0 0 0 0
          0 0 0 0 0 0
          0 0 0 0 0 0
          0 0 0 0 0 0
          0 0 0 0 0 0
          0 0 0 0 0 0
          0 0 0 0 0 0
          0 0 0 0 0 0
          0 0 0 0 0 0
          0 0 0 0 0 0
          0 0 0 0 0 0
          0 0 0 0 0 0
          0 0 0 0 0 0
          0 0 0 0 0 0
          0 0 0 0 0 0
          0 0 0 0 0 0
          0 0 0 0 0 0
          0 0 0 0 0 0
          0 0 0 0 0 0
          0 0 0 0 0 0
          0 0 0 0 0 0
          0 0 0 0 0 0
          0 0 0 0 0 0
          0 0 0 0 0 0
          0 0 0 0 0 0
          0 0 0 0 0 0
          0 0 0 0 0 0
          0 0 0 0 0 0
          0 0 0 0 0 0
          0 0 0 0 0 0
          0 0 0 0 0 0
          0 0 0 0 0 0
          0 0 0 0 0 0
          0 0 0 0 0 0
          0 0 0 0 0 0
          0 0 0 0 0 0
          0 0 0 0 0 0
          0 0 0 0 0 0
          0 0 0 0 0 0
          0 0 0 0 0 0
          0 0 0 0 0 0
          0 0 0 0 0 0
          0 0 0 0 0 0
        </DataArray>
        <DataArray type="Float64" Name="markers_mustrefine" format="ascii" RangeMin="0" RangeMax="2">
          2 1.75 0 0 0 0
          0 0 0 0 0 0
          0 0 0 0 0 2
          2 1 2 2 2 2
          2 2 2 0.5 0 0
          0 1.25 0 0 1.5 0.5
          0 0 2 0.5 0 0
          0 0.25 0.5 0 0.5 0
          0 0 0 0 0 0
          0 0 0 0 0 0
          0 0 0 0 0 0
          0 0 0 0 0 0
          0 0 0 0 0 0
          0 0 0 0 0.25 0
          0 0 0 0 1 0.3333333333333333
          0.5 2 2 2 2 2
          2 2 2 2 2 2
          1.75 2 2 2 1.75 1
          1 0.3333333333333333 2 1.75 1.75 2
          2 2 2 2 2 2
          2 2 2 2 2 2
          2 2 2 2 2 2
          2 2 2 2 2 2
          2 2 2 2 2 2
          2 2 2 2 2 2
          2 2 2 2 2 2
          2 2 2 2 2 2
          2 2 2 2 2 2
          2 2 2 2 1.75 1
          1.5 0.5 2 1.5 1.6666666666666667 0
          0.25 0 0 0 0 0
          0.75 0.5 0 2 1.75 1.5
          1 2 2 1.75 1.25 1
          0.5 0 1.5 1 1 0.5
          0.5 0 0 0 0 0
          0.75 0.5 0 2 2 2
          2 2 2 2 1.75 1.25
          1.5 0.5 2 1.5 1.3333333333333333 1
          1 0 0 1 0.6666666666666666 0
          2 2 2 1.75 2 2
          2 2 1.5 1.25 0.6666666666666666 2
          1.5 1.5 1.25 0.75 0.5 0
          1.5 1 1 0 0.25 0
          0 0 0 0 0.5 0
          0 0 0.25 0 0 0
          0 0 1 0.5 0.5 1.5
          1 1 0 1.75 1.3333333333333333 1.3333333333333333
          2 1.5 1.5 0.6666666666666666 2 1.5
          1.5 0.5 0.5 0 0 0
          0 0 0.5 0 0 2
          1.5 1.5 0.6666666666666666 2 1.5 1.5
          0.5 0 0 0 0.5 0
          0 0.5 0.5 0 0 0
          0 0 0.5 0 0 0.5
          0 0 0 0.5 0 0
          0 0 0 0 0 0
          0 0 0 0 0 0
          0 0 0 0 0 0
          0 0 0 0 0 0
          0 0 0 0 0 0
          0 0 0 0 0 0
          0 0.5 0 0 0 0
          1 0.5 1.75 0 0 0
          0 0.75 0 1.75 0 0
          0 0 0.25 0 0.5 0
          0 1 0 0 0 0
          0 0 0 0.25 0 0
          0.5 0 0 0.3333333333333333 0 1.5
          1 0.5 0.3333333333333333 0 2 1.75
          1.5 2 2 2 2 2
          2 2 2 2 2 2
          2 2 2 2 2 2
          2 2 1.75 2 1.75 1
          2 1.75 2 2 2 2
          2 2 2 2 2 1.75
          2 2 2 1 0.3333333333333333 0.3333333333333333
          2 2 2 2 2 2
          2 2 2 2 2 2
          2 2 2 2 2 2
          2 2 2 2 2 2
          2 2 2 2 2 2
          2 2 2 2 2 2
          2 2 2 2 2 2
          2 2 2 2 2 2
          2 2 2 2 2 2
          2 2 2 2 2 2
          2 2 1.6666666666666667 2 2 2
          2 2 1 1 0 1.25
          2 2 2 2 1.5 1
          1.5 2 2 2 2 1.75
          1.5 2 0.3333333333333333 1 0.5 1.75
          2 1.6666666666666667 2 2 2 2
          2 1 1 0 1.25 2
          2 2 2 1.5 1 1.5
        </DataArray>
        <DataArray type="Float64" Name="gradient_marker" format="ascii" RangeMin="1" RangeMax="1">
          1 1 1 1 1 1
          1 1 1 1 1 1
          1 1 1 1 1 1
          1 1 1 1 1 1
          1 1 1 1 1 1
          1 1 1 1 1 1
          1 1 1 1 1 1