<?xml version="1.0"?>
<VTKFile type="UnstructuredGrid" version="0.1" byte_order="LittleEndian" header_type="UInt32" compressor="vtkZLibDataCompressor">
  <UnstructuredGrid>
    <Piece NumberOfPoints="639" NumberOfCells="427">
      <PointData>
        <DataArray type="Int32" Name="libmesh_node_id" format="ascii" RangeMin="446" RangeMax="5897">
          446 452 1003 1037 1038 1043
          1051 1052 1773 1774 1775 1776
          1788 1789 1834 1835 1837 1852
          1933 1934 1935 1936 1937 1938
          1939 1940 1941 1942 1950 1951
          1954 1955 1967 1968 1969 1970
          1971 1972 1973 1974 1975 1976
          1984 1985 1988 1989 1991 1992
          1995 1997 1998 2000 2011 2015
          2025 2026 2027 2028 2029 2030
          2031 2032 2033 2034 2045 2049
          4091 4092 4093 4094 4095 4096
          4097 4098 4099 4100 4101 4102
          4103 4104 4105 4106 4107 4108
          4109 4110 4111 4112 4113 4114
          4115 4116 4117 4118 4119 4120
          4121 4122 4123 4124 4149 4151
          4193 4194 4195 4196 4197 4198
          4199 4200 4201 4202 4203 4204
          4205 4206 4494 4495 4496 4497
          4498 4499 4500 4501 4502 4503
          4510 4511 4513 4514 4515 4516
          4517 4518 4519 4520 4525 4527
          4624 4625 4626 4627 4628 4629
          4630 4635 5067 5068 5069 5070
          5071 5072 5073 5074 5075 5076
          5077 5078 5079 5080 5081 5082
          5083 5084 5085 5086 5087 5088
          5089 5090 5091 5092 5093 5094
          5095 5096 5097 5098 5099 5100
          5101 5102 5103 5104 5105 5106
          5107 5108 5109 5110 5111 5112
          5113 5114 5115 5116 5117 5118
          5119 5120 5121 5122 5123 5124
          5125 5126 5127 5128 5129 5130
          5131 5132 5133 5134 5177 5178
          5179 5180 5181 5182 5183 5184
          5185 5186 5187 5188 5189 5190
          5205 5206 5207 5208 5209 5210
          5211 5212 5213 5214 5215 5216
          5217 5218 5231 5301 5302 5303
          5304 5305 5306 5307 5308 5309
          5310 5311 5312 5313 5314 5315
          5316 5317 5318 5319 5320 5321
          5322 5323 5324 5325 5326 5327
          5328 5329 5330 5331 5332 5333
          5334 5335 5336 5337 5338 5339
          5340 5341 5342 5343 5344 5345
          5346 5347 5348 5349 5350 5351
          5352 5353 5354 5355 5356 5357
          5358 5359 5360 5361 5362 5363
          5364 5365 5366 5367 5368 5417
          5418 5419 5420 5421 5422 5423
          5424 5425 5426 5427 5428 5429
          5430 5431 5432 5435 5436 5438
          5439 5442 5443 5445 5446 5447
          5448 5449 5450 5451 5452 5453
          5454 5455 5456 5457 5458 5459
          5460 5463 5464 5466 5467 5470
          5471 5473 5474 5475 5476 5477
          5478 5479 5480 5481 5482 5483
          5484 5487 5489 5490 5492 5493
          5494 5495 5496 5497 5498 5499
          5500 5502 5504 5506 5507 5508
          5509 5510 5511 5512 5513 5514
          5515 5516 5517 5518 5521 5523
          5524 5526 5527 5528 5529 5530
          5531 5532 5533 5534 5536 5538
          5540 5609 5610 5611 5612 5613
          5614 5615 5616 5620 5637 5638
          5639 5640 5641 5642 5643 5644
          5648 5721 5722 5723 5724 5725
          5726 5727 5728 5729 5730 5731
          5732 5735 5737 5738 5739 5740
          5741 5742 5743 5744 5745 5746
          5747 5748 5750 5752 5753 5754
          5755 5756 5757 5758 5759 5760
          5761 5762 5763 5764 5765 5766
          5767 5768 5769 5770 5771 5772
          5773 5774 5775 5776 5777 5778
          5779 5780 5781 5782 5783 5784
          5785 5786 5787 5788 5857 5858
          5859 5860 5861 5862 5863 5864
          5868 5869 5885 5886 5887 5888
          5889 5890 5891 5892 5893 5896
          5897 4039 4040 1001 4045 4042
          1765 4051 4055 4053 1002 4153
          1782 4207 4159 4211 4163 4208
          4212 4214 4218 4215 4219 5013
          5014 5016 1925 5019 1926 5027
          5029 5031 1928 5045 5046 5048
          1035 5051 1931 5061 5063 5065
          1036 5139 5141 5143 1944 5191
          5149 5192 5195 5153 5196 5198
          5199 5202 5203 5161 5163 5165
          1948 5219 5171 5220 5223 5175
          5224 5226 5227 5230 5229 5228
          1040 5232 5245 5246 5248 1959
          5251 1960 5261 5263 5265 1962
          5279 5280 5282 1041 5285 1965
          5295 5297 5299 1042 5377 5379
          5381 1978 5387 5225 1039 5433
          5389 1956 5434 5391 5437 1980
          1986 5440 5441 5444 1987 5401
          5403 5405 1982 5411 5461 5413
          5462 5415 5465 1044 1990 5468
          5469 5472 453
        </DataArray>
        <DataArray type="Float64" Name="bounds" format="ascii" RangeMin="0" RangeMax="0">
          0 0 0 0 0 0
          0 0 0 0 0 0
          0 0 0 0 0 0
          0 0 0 0 0 0
          0 0 0 0 0 0
          0 0 0 0 0 0
          0 0 0 0 0 0
          0 0 0 0 0 0
          0 0 0 0 0 0
          0 0 0 0 0 0
          0 0 0 0 0 0
          0 0 0 0 0 0
          0 0 0 0 0 0
          0 0 0 0 0 0
          0 0 0 0 0 0
          0 0 0 0 0 0
          0 0 0 0 0 0
          0 0 0 0 0 0
          0 0 0 0 0 0
          0 0 0 0 0 0
          0 0 0 0 0 0
          0 0 0 0 0 0
          0 0 0 0 0 0
          0 0 0 0 0 0
          0 0 0 0 0 0
          0 0 0 0 0 0
          0 0 0 0 0 0
          0 0 0 0 0 0
          0 0 0 0 0 0
          0 0 0 0 0 0
          0 0 0 0 0 0
          0 0 0 0 0 0
          0 0 0 0 0 0
          0 0 0 0 0 0
          0 0 0 0 0 0
          0 0 0 0 0 0
          0 0 0 0 0 0
          0 0 0 0 0 0
          0 0 0 0 0 0
          0 0 0 0 0 0
          0 0 0 0 0 0
          0 0 0 0 0 0
          0 0 0 0 0 0
          0 0 0 0 0 0
          0 0 0 0 0 0
          0 0 0 0 0 0
          0 0 0 0 0 0
          0 0 0 0 0 0
          0 0 0 0 0 0
          0 0 0 0 0 0
          0 0 0 0 0 0
          0 0 0 0 0 0
          0 0 0 0 0 0
          0 0 0 0 0 0
          0 0 0 0 0 0
          0 0 0 0 0 0
          0 0 0 0 0 0
          0 0 0 0 0 0
          0 0 0 0 0 0
          0 0 0 0 0 0
          0 0 0 0 0 0
          0 0 0 0 0 0
          0 0 0 0 0 0
          0 0 0 0 0 0
          0 0 0 0 0 0
          0 0 0 0 0 0
          0 0 0 0 0 0
          0 0 0 0 0 0
          0 0 0 0 0 0
          0 0 0 0 0 0
          0 0 0 0 0 0
          0 0 0 0 0 0
          0 0 0 0 0 0
          0 0 0 0 0 0
          0 0 0 0 0 0
          0 0 0 0 0 0
          0 0 0 0 0 0
          0 0 0 0 0 0
          0 0 0 0 0 0
          0 0 0 0 0 0
          0 0 0 0 0 0
          0 0 0 0 0 0
          0 0 0 0 0 0
          0 0 0 0 0 0
          0 0 0 0 0 0
          0 0 0 0 0 0
          0 0 0 0 0 0
          0 0 0 0 0 0
          0 0 0 0 0 0
          0 0 0 0 0 0
          0 0 0 0 0 0
          0 0 0 0 0 0
          0 0 0 0 0 0
          0 0 0 0 0 0
          0 0 0 0 0 0
          0 0 0 0 0 0
          0 0 0 0 0 0
          0 0 0 0 0 0
          0 0 0 0 0 0
          0 0 0 0 0 0
          0 0 0 0 0 0
          0 0 0 0 0 0
          0 0 0 0 0 0
          0 0 0 0 0 0
          0 0 0 0 0 0
          0 0 0 0 0 0
          0 0 0
        </DataArray>
        <DataArray type="Float64" Name="gradient_error" format="ascii" RangeMin="7.414873544448211e-10" RangeMax="5.264112286120389e-8">
          1.1604385863042786e-8 3.1712044917696764e-8 5.744304350935876e-9 2.638575702494051e-8 1.4852032777216736e-8 2.0171808332063486e-8
          8.3563642366137e-9 3.6267963650748567e-9 1.824808315886167e-8 1.6929963682662622e-8 1.0218739383914414e-8 1.0370086006972925e-8
          4.699332320073486e-9 2.4034752350235705e-9 5.734253361873257e-9 4.793181427249762e-9 2.5428523828588268e-9 1.034364243598993e-9
          2.859798448605372e-8 2.8208317783961463e-8 1.8688152358890345e-8 1.735486159012434e-8 1.7414553226037952e-8 1.0071789315958852e-8
          3.230301555111435e-8 3.8611098845947507e-8 2.5256511725822776e-8 2.5375834182139045e-8 7.81239436990324e-9 4.126932277937496e-9
          1.1191856511609797e-8 6.063232326544123e-9 3.2256502623086623e-8 4.359327681056558e-8 3.085264210221773e-8 3.1556448171722886e-8
          3.1935446546030966e-8 1.8685008286030504e-8 3.3218077976379525e-8 4.492810546883593e-8 3.373562864301862e-8 3.452525253266604e-8
          1.3868251020017193e-8 7.626425722287492e-9 1.4897694350574814e-8 8.231017657301066e-9 1.0045577200266154e-8 8.658977197055011e-9
          4.612871814866805e-9 1.4429476159924052e-8 1.2933510570903991e-8 7.023830948065759e-9 1.8018761924568197e-9 2.6873325599065525e-9
          1.7669438016188188e-8 1.6272869375291583e-8 7.705009730991126e-9 6.490383023810437e-9 9.004352352981698e-9 3.3241445931963264e-9
          1.8918082610026535e-8 1.755016427946655e-8 7.0733383163467046e-9 9.772500251573888e-9 3.417059122502973e-9 3.701618022805548e-9
          1.6383984257022742e-8 1.6200638690462233e-8 1.3797606740943145e-8 1.3576617127013677e-8 1.5075694468623278e-8 1.2463572605548504e-8
          2.1636422091880564e-8 2.1575101219198513e-8 1.8127456008655307e-8 2.032912703233939e-8 1.1121395625157793e-8 1.0863356654249321e-8
          8.45875549906016e-9 8.200086366265361e-9 9.803649153462157e-9 7.276082243559427e-9 1.4897898653633077e-8 1.4701939634252276e-8
          1.1344039847765794e-8 1.3518848006802477e-8 1.259724712100128e-8 1.020536647174037e-8 9.515653186698555e-9 7.51874378370314e-9
          1.7086508492918834e-8 1.4025881746888372e-8 1.2924063371810685e-8 7.86387024022078e-9 5.729551519795853e-9 5.6688555362388244e-9
          4.058839568645246e-9 1.0975635092200262e-8 8.116277771687066e-9 7.928371047187731e-9 8.47778583929609e-9 5.987691316588995e-9
          6.7354984316943405e-9 5.178760628403929e-9 4.601705546368806e-9 3.4453645999996323e-9 9.123726470986681e-9 7.117877573182242e-9
          6.195444990114282e-9 3.821174825963364e-9 2.6934553930068514e-9 2.491747413034452e-9 1.7329975702332747e-9 5.31501777704407e-9
          3.7810039361527506e-9 3.4321545573887865e-9 6.0261399439432665e-9 5.802135087393565e-9 4.009926154313312e-9 3.838656070405976e-9
          5.07234485052548e-9 3.3158098247170433e-9 8.461951898709293e-9 8.196107311075678e-9 5.512080047204396e-9 7.2407130514696365e-9
          3.6105231266909774e-9 3.4500680356709083e-9 2.965129851855553e-9 3.9348485780172565e-9 2.5456631548504943e-9 2.7538324485674594e-9
          1.770815828549878e-9 5.642904364260792e-9 3.6828017834993344e-9 3.932588916002491e-9 2.2588947316692732e-9 1.5558161212642105e-9
          1.8107767133303998e-9 1.1613665703514233e-9 1.1570324537000436e-9 7.414873544448211e-10 2.5577016493045145e-9 1.645667935255104e-9
          1.6113231240347377e-9 1.00887663832013e-9 2.735615438682038e-8 2.7690365276354874e-8 2.3441612796201423e-8 2.3494139063542985e-8
          2.6625249730169385e-8 2.2214723088964822e-8 3.141320886374667e-8 3.28399173044969e-8 2.9156348982489263e-8 3.318777296271908e-8
          1.9103410094885922e-8 1.9027363520122416e-8 1.505154545544857e-8 1.4860000400312187e-8 1.7789742587739572e-8 1.3631437723079522e-8
          2.3824417603887815e-8 2.3916604900227855e-8 1.861384846891102e-8 2.2603650632294408e-8 2.2450360838640692e-8 1.849848737421623e-8
          1.689625493021277e-8 1.370378918051322e-8 2.85734372583992e-8 2.359598258086763e-8 2.13962958590799e-8 1.4615754979894046e-8
          1.0958447632242607e-8 1.0607967234401916e-8 7.776972821433522e-9 1.866627604175585e-8 1.4120987082885053e-8 1.359154136240387e-8
          3.234190450949814e-8 3.539924253632493e-8 3.17464893646956e-8 3.3455843771257325e-8 3.861294327267212e-8 3.403056774705882e-8
          3.2124320386306084e-8 3.627046090666294e-8 3.5488688811892225e-8 4.228273369530644e-8 2.833375199536582e-8 2.884660132060535e-8
          2.2588756631649184e-8 2.2630184454267244e-8 2.7768609684096025e-8 2.128848397139482e-8 3.134874770644552e-8 3.270575290290821e-8
          2.662574046812676e-8 3.261775561128258e-8 3.4833164406686026e-8 2.9072279168741745e-8 2.6265911896640365e-8 2.1382796096063864e-8
          4.0376888267070457e-8 3.4320871443322415e-8 3.1110847236919053e-8 2.3008454782515515e-8 1.7429832848562673e-8 1.6721238861474877e-8
          1.248869048945201e-8 2.736438651312007e-8 2.0704944367132294e-8 1.982301072528518e-8 1.1889642989247348e-8 9.3968402768037e-9
          8.042093334275104e-9 6.174203924810963e-9 1.493369748694504e-8 1.1922545058597889e-8 1.0067398976230151e-8 7.0962192800633565e-9
          5.095563729309228e-9 4.552685439430106e-9 3.210774806025575e-9 9.093586017854411e-9 6.588136374513146e-9 5.811395309027505e-9
          1.814434126579569e-8 1.4559194395638552e-8 1.2164429892434102e-8 9.523968369423751e-9 2.1370732233568426e-8 1.7150311459394792e-8
          1.4200869546467552e-8 1.1191466557204422e-8 8.172603222421924e-9 7.1379311227497725e-9 5.1011262580799434e-9 1.3239389582549486e-8
          9.73278071616539e-9 8.439054286072033e-9 3.687330788469523e-9 3.308731737173724e-8 3.7387295533352626e-8 3.195245593310979e-8
          3.618210521792045e-8 4.471750081276432e-8 4.1685152886216765e-8 3.4472862775805056e-8 3.889833485152814e-8 3.680467761171017e-8
          4.653158567397637e-8 3.2341097229246475e-8 3.48334801526654e-8 2.9266539609193618e-8 2.990323129141711e-8 3.6426363971946846e-8
          2.8839112340057633e-8 3.218572016871884e-8 3.558850308526078e-8 3.2005190984692956e-8 3.8874530876898705e-8 4.466231226991607e-8
          3.871376005373258e-8 3.545316773725792e-8 2.901709565738522e-8 4.7556777573894116e-8 4.1866638093796184e-8 3.8841242507793864e-8
          3.126519118547824e-8 2.3717413129574143e-8 2.2660724510302488e-8 1.6979380123958806e-8 3.428197796622306e-8 2.614927215973651e-8
          2.4959051329492473e-8 3.516592916910896e-8 4.000232895925806e-8 3.2943598087529325e-8 3.745297838587895e-8 4.7724916595659514e-8
          4.461788948741185e-8 3.5338083467819505e-8 4.0385409080317016e-8 3.769592918651684e-8 4.813169386751792e-8 3.2032788258395796e-8
          3.581443408090906e-8 3.151659981360191e-8 3.307400871522841e-8 4.015500356683231e-8 3.319108271925219e-8 3.202677297772569e-8
          3.588593051867003e-8 3.34087863323939e-8 4.0561898473515144e-8 4.915658941892111e-8 4.3703491353418295e-8 4.0964190098392846e-8
          3.3849427656956896e-8 4.9658315269294927e-8 4.4306465705308175e-8 4.16869903336472e-8 3.6186378027863465e-8 2.7712585657479697e-8
          2.6476728962636793e-8 1.978998188015781e-8 3.684663794555848e-8 2.824985747678009e-8 2.7012354867099076e-8 2.434371276743692e-8
          1.9516234363177062e-8 1.6033040086313804e-8 1.2683588517283935e-8 2.6742181039187543e-8 2.144310293083661e-8 1.7508798574984146e-8
          1.50760604473172e-8 1.1135607147424672e-8 9.608154991287542e-9 6.9321273456140656e-9 1.6547959440367854e-8 1.2251221543374739e-8
          1.0538473469752143e-8 1.0450312859658874e-8 8.048510725238388e-9 1.1375508177239378e-8 8.792950167139713e-9 5.947453697821914e-9
          4.20476145321712e-9 6.516243496233713e-9 4.618202311239968e-9 2.8300902720963258e-8 2.2707723749494647e-8 1.847331618079646e-8
          1.4632904955868133e-8 2.8841101820115904e-8 2.3147359197897182e-8 1.8809051626937226e-8 1.7509759386523893e-8 1.297115231815385e-8
          1.1138287332877791e-8 8.07554545081842e-9 1.784542202772981e-8 1.3220331821635978e-8 1.1345515564219744e-8 1.1971506805500162e-8
          9.272618504089446e-9 1.2177808884074437e-8 9.438234352786488e-9 6.8833032939831455e-9 4.885472876525511e-9 7.010220652745644e-9
          4.977938027242987e-9 1.1244771957778424e-8 1.0974451670242427e-8 7.78595141704792e-9 7.522624846717965e-9 9.828716008801071e-9
          6.60032959012065e-9 1.416334570944573e-8 1.3945165881975617e-8 9.76397488534717e-9 1.269304094419062e-8 4.979469759205125e-9
          4.77410550037918e-9 4.124611868599755e-9 6.536761500289716e-9 6.2920172129492824e-9 5.472901095645828e-9 7.720275062164941e-9
          5.090334662997505e-9 5.376335304836537e-9 3.500262966888079e-9 1.007637754526853e-8 6.7174203739506654e-9 7.031924670649424e-9
          3.142385852031533e-9 2.148994433024381e-9 4.178792746718479e-9 2.844956110510654e-9 1.7047254687177215e-8 1.692385898834841e-8
          1.2322841164527661e-8 1.2060201470769234e-8 1.564296459274268e-8 1.0829834590393654e-8 1.9809609147318354e-8 1.9788954206205305e-8
          1.4219338264700587e-8 1.8497200350728075e-8 8.17912276936342e-9 7.906183407077151e-9 6.92874586538272e-9 9.775083915845196e-9
          9.489229666745604e-9 8.379229406257271e-9 1.2558846388105549e-8 8.466234500044098e-9 8.801140598210352e-9 5.817730083153872e-9
          1.4981758985101945e-8 1.0199342310171055e-8 1.0549092363563646e-8 5.309754463846421e-9 3.606594099548715e-9 6.448451704638429e-9
          4.376735837996539e-9 3.470894955043439e-9 2.2424499016265248e-9 2.1624750289352342e-9 1.3913143183251413e-9 4.519818245062655e-9
          2.9341703031644015e-9 2.793010989358671e-9 1.376645534655534e-9 1.8052499184492814e-9 5.645433466574928e-9 3.6835012056882017e-9
          3.468890870068128e-9 2.2444936083674765e-9 6.764529915906584e-9 4.434990500621932e-9 4.141247111870951e-9 2.272462570109159e-9
          2.74414444375789e-9 2.240500898323693e-8 2.2447876259965116e-8 1.6243539984367294e-8 1.6098565271787503e-8 2.1086965439753315e-8
          1.4798378617662754e-8 2.4588672681316544e-8 2.469092814686103e-8 1.7578473931557335e-8 2.32267258352835e-8 1.1178637475055001e-8
          1.0896415786150595e-8 9.692549557021791e-9 1.2262581035905261e-8 1.1994668603040983e-8 7.437289792456281e-9 1.0737814920128132e-8
          1.7154087747266476e-8 1.1760934910110213e-8 1.2123058380565508e-8 8.122755252476666e-9 1.8889991668520432e-8 1.3004155754053626e-8
          1.3374107646529102e-8 7.49117896864248e-9 5.084798317476643e-9 8.331648939769013e-9 4.939651432107129e-9 5.657495698509419e-9
          2.5969742238437403e-8 2.616518845371318e-8 1.8595586059876035e-8 1.853457344662911e-8 2.4658302188217883e-8 1.7222082571963868e-8
          2.6420172195865417e-8 2.6663768768274016e-8 1.8866173092908814e-8 2.515778385954257e-8 1.2943530314903802e-8 1.2689908784426703e-8
          8.189326594980592e-9 7.915023602753905e-9 1.1409342145174993e-8 6.923248053741722e-9 1.3175584895802538e-8 1.292771134706965e-8
          8.08010682086592e-9 1.164066020507324e-8 2.0017293840217956e-8 1.3806502422893095e-8 1.4178360381730211e-8 9.5750111345438e-9
          2.0408559055313094e-8 1.4083910707049228e-8 1.4455565334692338e-8 8.87743498806703e-9 5.275598556319066e-9 6.030673903990308e-9
          3.5486774512477786e-9 9.066541869867371e-9 5.392362628537046e-9 6.160298568174297e-9 7.779491792298283e-9 5.121480543047291e-9
          4.751815900558357e-9 3.0916220651886895e-9 8.591482686220503e-9 5.673966959610579e-9 5.2412402616820675e-9 3.177814244690492e-9
          3.5287007674307013e-9 2.071427178854798e-9 9.115924734336004e-9 6.032621501065794e-9 5.5582669058391605e-9 3.6283715669794794e-9
          9.297114547716038e-9 6.1569319611795536e-9 5.66806196341132e-9 3.7573220500682964e-9 2.207260818369907e-9 3.836713738550813e-9
          2.254502045924478e-9 1.88388284029541e-8 1.8697306638530672e-8 2.467265223028169e-8 2.4743064595044423e-8 1.7547510236004828e-8
          2.354303059894389e-8 1.4916538541275926e-8 2.0027796878249748e-8 1.1601904977522692e-8 1.550233751711061e-8 1.1290130326318807e-8
          7.933245616946866e-9 3.0822866812359218e-9 4.143815442413101e-9 4.1146204610806465e-9 5.447084456977001e-9 2.2513424041033193e-9
          3.03980958263118e-9 1.599483450575953e-9 2.1769916638015243e-9 1.0998664862636873e-9 1.5047318200577795e-9 2.996681177164844e-8
          3.07486618877508e-8 3.036101286302582e-8 3.222423384829436e-8 3.452437823251415e-8 3.664688433633e-8 2.6170201122665736e-8
          2.0074960766441845e-8 3.2935373760765474e-8 2.5319463019239614e-8 3.2082721933142076e-8 3.576769228498739e-8 4.112330254641137e-8
          3.290255647512111e-8 3.6883442957250637e-8 4.396874383646916e-8 3.936089529338704e-8 3.09161323855951e-8 4.456536243355332e-8
          3.635490847743161e-8 1.449407537458096e-8 1.0146903371332905e-8 1.8032977499189427e-8 1.2538726691223451e-8 5.310057026084534e-9
          6.932095517016084e-9 3.965123542496378e-9 6.620039463806882e-9 8.53531108972395e-9 4.992353241792759e-9 2.861808350584594e-9
          1.98841861875659e-9 3.6296696276076515e-9 2.534810944785882e-9 2.1826029937369682e-8 1.498303970628671e-8 2.5657848479099985e-8
          1.7370630327666574e-8 7.973433611642664e-9 1.0162933140168906e-8 6.065504376460177e-9 9.282829591984643e-9 1.1709235589705524e-8
          7.111724660708569e-9 4.438928228666994e-9 3.114688977350574e-9 5.233224066626523e-9 1.8805949112683865e-9 2.7201720022398363e-9
          2.2141478147742547e-9 3.1929097863886262e-9 3.441360820098468e-8 3.88120741159194e-8 4.625567657445517e-8 3.452065853030476e-8
          4.024868460747739e-8 4.833928889310416e-8 4.8228610047234775e-8 4.105631106057508e-8 5.064089284943185e-8 4.448007427790255e-8
          3.3788787872880165e-8 4.0828159441172334e-8 4.98419970393858e-8 3.34143799664307e-8 4.0965608981350494e-8 5.0385322752233e-8
          5.212074110079874e-8 4.6470475468438854e-8 5.264112286120389e-8 4.712182716157754e-8 2.9185293563036667e-8 1.9561234028798767e-8
          3.2026624403778725e-8 2.1346680941898728e-8 1.3072305406288089e-8 5.957281936240733e-9 7.781716193503062e-9 6.691586111781698e-9
          8.692830310069509e-9 4.436097597874631e-9 5.0083278982567685e-9 1.4162856039218188e-8 7.273571982351603e-9 9.414583905365891e-9
          5.462585193957997e-9 3.6178028108552373e-9 2.514974615607302e-9 3.956134186090736e-9 2.755097862918252e-9 3.3839880227294646e-8
          2.252531840013311e-8 3.445374709057411e-8 2.2939576582864768e-8 1.487604209935489e-8 7.648472222588205e-9 9.879123934596316e-9
          5.75516136228981e-9 1.5122217518087975e-8 7.777998469146912e-9 1.003864914714348e-8 5.8562347636561415e-9 4.174400232263433e-9
          2.9102538502057107e-9 4.249837641411407e-9 2.9639261145310294e-9
        </DataArray>
        <DataArray type="Float64" Name="gradient_matprop_error" format="ascii" RangeMin="0" RangeMax="0">
          0 0 0 0 0 0
          0 0 0 0 0 0
          0 0 0 0 0 0
          0 0 0 0 0 0
          0 0 0 0 0 0
          0 0 0 0 0 0
          0 0 0 0 0 0
          0 0 0 0 0 0
          0 0 0 0 0 0
          0 0 0 0 0 0
          0 0 0 0 0 0
          0 0 0 0 0 0
          0 0 0 0 0 0
          0 0 0 0 0 0
          0 0 0 0 0 0
          0 0 0 0 0 0
          0 0 0 0 0 0
          0 0 0 0 0 0
          0 0 0 0 0 0
          0 0 0 0 0 0
          0 0 0 0 0 0
          0 0 0 0 0 0
          0 0 0 0 0 0
          0 0 0 0 0 0
          0 0 0 0 0 0
          0 0 0 0 0 0
          0 0 0 0 0 0
          0 0 0 0 0 0
          0 0 0 0 0 0
          0 0 0 0 0 0
          0 0 0 0 0 0
          0 0 0 0 0 0
          0 0 0 0 0 0
          0 0 0 0 0 0
          0 0 0 0 0 0
          0 0 0 0 0 0
          0 0 0 0 0 0
          0 0 0 0 0 0
          0 0 0 0 0 0
          0 0 0 0 0 0
          0 0 0 0 0 0
          0 0 0 0 0 0
          0 0 0 0 0 0
          0 0 0 0 0 0
          0 0 0 0 0 0
          0 0 0 0 0 0
          0 0 0 0 0 0
          0 0 0 0 0 0
          0 0 0 0 0 0
          0 0 0 0 0 0
          0 0 0 0 0 0
          0 0 0 0 0 0
          0 0 0 0 0 0
          0 0 0 0 0 0
          0 0 0 0 0 0
          0 0 0 0 0 0
          0 0 0 0 0 0
          0 0 0 0 0 0
          0 0 0 0 0 0
          0 0 0 0 0 0
          0 0 0 0 0 0
          0 0 0 0 0 0
          0 0 0 0 0 0
          0 0 0 0 0 0
          0 0 0 0 0 0
          0 0 0 0 0 0
          0 0 0 0 0 0
          0 0 0 0 0 0
          0 0 0 0 0 0
          0 0 0 0 0 0
          0 0 0 0 0 0
          0 0 0 0 0 0
          0 0 0 0 0 0
          0 0 0 0 0 0
          0 0 0 0 0 0
          0 0 0 0 0 0
          0 0 0 0 0 0
          0 0 0 0 0 0
          0 0 0 0 0 0
          0 0 0 0 0 0
          0 0 0 0 0 0
          0 0 0 0 0 0
          0 0 0 0 0 0
          0 0 0 0 0 0
          0 0 0 0 0 0
          0 0 0 0 0 0
          0 0 0 0 0 0
          0 0 0 0 0 0
          0 0 0 0 0 0
          0 0 0 0 0 0
          0 0 0 0 0 0
          0 0 0 0 0 0
          0 0 0 0 0 0
          0 0 0 0 0 0
          0 0 0 0 0 0
          0 0 0 0 0 0
          0 0 0 0 0 0
          0 0 0 0 0 0
          0 0 0 0 0 0
          0 0 0 0 0 0
          0 0 0 0 0 0
          0 0 0 0 0 0
          0 0 0 0 0 0
          0 0 0 0 0 0
          0 0 0 0 0 0
          0 0 0 0 0 0
          0 0 0
        </DataArray>
        <DataArray type="Float64" Name="initial_marker" format="ascii" RangeMin="2" RangeMax="2">
          2 2 2 2 2 2
          2 2 2 2 2 2
          2 2 2 2 2 2
          2 2 2 2 2 2
          2 2 2 2 2 2
          2 2 2 2 2 2
          2 2 2 2 2 2
          2 2 2 2 2 2
          2 2 2 2 2 2
          2 2 2 2 2 2
          2 2 2 2 2 2
          2 2 2 2 2 2
          2 2 2 2 2 2
          2 2 2 2 2 2
          2 2 2 2 2 2
          2 2 2 2 2 2
          2 2 2 2 2 2
          2 2 2 2 2 2
          2 2 2 2 2 2
          2 2 2 2 2 2
          2 2 2 2 2 2
          2 2 2 2 2 2
          2 2 2 2 2 2
          2 2 2 2 2 2
          2 2 2 2 2 2
          2 2 2 2 2 2
          2 2 2 2 2 2
          2 2 2 2 2 2
          2 2 2 2 2 2
          2 2 2 2 2 2
          2 2 2 2 2 2
          2 2 2 2 2 2
          2 2 2 2 2 2
          2 2 2 2 2 2
          2 2 2 2 2 2
          2 2 2 2 2 2
          2 2 2 2 2 2
          2 2 2 2 2 2
          2 2 2 2 2 2
          2 2 2 2 2 2
          2 2 2 2 2 2
          2 2 2 2 2 2
          2 2 2 2 2 2
          2 2 2 2 2 2
          2 2 2 2 2 2
          2 2 2 2 2 2
          2 2 2 2 2 2
          2 2 2 2 2 2
          2 2 2 2 2 2
          2 2 2 2 2 2
          2 2 2 2 2 2
          2 2 2 2 2 2
          2 2 2 2 2 2
          2 2 2 2 2 2
          2 2 2 2 2 2
          2 2 2 2 2 2
          2 2 2 2 2 2
          2 2 2 2 2 2
          2 2 2 2 2 2
          2 2 2 2 2 2
          2 2 2 2 2 2
          2 2 2 2 2 2
          2 2 2 2 2 2
          2 2 2 2 2 2
          2 2 2 2 2 2
          2 2 2 2 2 2
          2 2 2 2 2 2
          2 2 2 2 2 2
          2 2 2 2 2 2
          2 2 2 2 2 2
          2 2 2 2 2 2
          2 2 2 2 2 2
          2 2 2 2 2 2
          2 2 2 2 2 2
          2 2 2 2 2 2
          2 2 2 2 2 2
          2 2 2 2 2 2
          2 2 2 2 2 2
          2 2 2 2 2 2
          2 2 2 2 2 2
          2 2 2 2 2 2
          2 2 2 2 2 2
          2 2 2 2 2 2
          2 2 2 2 2 2
          2 2 2 2 2 2
          2 2 2 2 2 2
          2 2 2 2 2 2
          2 2 2 2 2 2
          2 2 2 2 2 2
          2 2 2 2 2 2
          2 2 2 2 2 2
          2 2 2 2 2 2
          2 2 2 2 2 2
          2 2 2 2 2 2
          2 2 2 2 2 2
          2 2 2 2 2 2
          2 2 2 2 2 2
          2 2 2 2 2 2
          2 2 2 2 2 2
          2 2 2 2 2 2
          2 2 2 2 2 2
          2 2 2 2 2 2
          2 2 2 2 2 2
          2 2 2 2 2 2
          2 2 2 2 2 2
          2 2 2 2 2 2
          2 2 2
        </DataArray>
        <DataArray type="Float64" Name="markers_norefine" format="ascii" RangeMin="0" RangeMax="2">
          0 0 0 0 0 0
          0 0 0 0 0 0
          0 0 0 0 0 0
          0 0 0 0 0 0
          1 0.25 0 0 0 0
          0 0 2 1 0 0
          0 0 2 1.5 0 0
          0 0 0 0 0 0
          0 0 0 0 0 0
          0 0 0 0 0 0
          0 0 0 0 0 0
          0 0 0 0 0 0
          0 0 0 0 0 0
          0 0 0 0 0 0
          0 0 0 0 0 0
          0 0 0 0 0 0
          0 0 0 0 0 0
          0 0 0 0 0 0
          0 0 0 0 0 0
          0 0 0 0 0 0
          0 0 0 0 0 0
          0 0 0 0 0 0
          0 0 0 0 0 0
          0 0 0 0 0 0
          0 0 0 0 0 0
          0 0 0.5 0.25 0 0
          0 0 0 0 0 0
          0 0 0 0 0 0
          0 0 0 0 0 0
          0 0 0 0 0 0
          1.5 1 0.5 0.25 0.25 0
          2 1.75 0.75 1 0 0
          0 0 0 0 0 0
          0 0 0 0 0 0
          0.25 0 0 0 0 0
          0 0 0 0 0 0
          0 0 0 0 0 0
          0 0 0 0 0 0
          0 0 0 0 0 0
          0 0 0 0 0 0
          0 0 0 2 2 1.5
          1.25 1.5 0.5 2 2 1.75
          1.75 0.5 0.25 0 0 0
          0 1 0.75 0 0.25 0.5
          0 0 0 0.75 0.25 0
          0 0 0 0 0 0
          0 2 2 2 2 2
          1.5 2 2 2 2 1
          1 0 0 0.5 0 1
          1 0 0.5 1 0.5 0
          0 1 0.5 0 0 0
          0 0 0 0 0 0
          0 0 0 0 0 0
          0 0 0 0 0 0
          0 0 0 0 0 0
          0 0 0 0 0 0
          0 0 0 0 0 0
          0 0 0 0 0 0
          0 0 0 0 0 0
          0 0 0 0 0 0
          0 0 0 0 0 0
          0 0 0 0 0 0
          0 0 0 0 0 0
          0 0 0 0 0 0
          0 0 0 0 0 0
          0 0 0 0 0 0
          0 0 0 0 0 0
          0 0 0 0 0 0
          0 0 0 0 0 0
          0 0 0 0 0 0
          0 0 0 0 0 0
          0 0 0 0 0 0
          0 0 0 0 0 0
          0 0 0 0 0 0
          0 0 0 0 0 0
          0 0 0 0 0 0
          0 0 0 0 0 0
          0 0 0 0 0 0
          0 0 0 0 0 0
          0 0 0 0 0 0
          0 0 0 0 0 0
          0 0 0 0 0 0
          0 0 0 0 0 0
          0 0 0 0 0 0
          0 0 0 0 0 0
          0 0 0 0 0 0
          0 0 0 0 0 0
          0 0 0 0 0 0
          0 0 0 0 0 0
          0 0 1 0.75 0.25 0
          0 0 0 2 1.75 1
          2 2 1.75 0.25 0 0.75
          0 0 0 0 0 0
          0 0 0 0 0 0
          0 0 0 0 0 0
          0 0 0 0 0 0
          0 0 0 0 0 0
          0 0 2 2 2 2
          2 2 1.25 0.25 1.5 0.5
          2 2 2 2 2 2
          1.5 0.5 1.5 0.5 0 0
          0 0 0 0 0 0
          0 0 0 0 0 0
          0 0 0 0 0 0
          0 0 0 0 0 0
          0 0 0 0 0 0
          0 0 0
        </DataArray>
        <DataArray type="Float64" Name="markers_mustrefine" format="ascii" RangeMin="2" RangeMax="2">
          2 2 2 2 2 2
          2 2 2 2 2 2
          2 2 2 2 2 2
          2 2 2 2 2 2
          2 2 2 2 2 2
          2 2 2 2 2 2
          2 2 2 2 2 2
          2 2 2 2 2 2
          2 2 2 2 2 2
          2 2 2 2 2 2
          2 2 2 2 2 2
          2 2 2 2 2 2
          2 2 2 2 2 2
          2 2 2 2 2 2
          2 2 2 2 2 2
          2 2 2 2 2 2
          2 2 2 2 2 2