<?xml version="1.0"?>
<VTKFile type="UnstructuredGrid" version="0.1" byte_order="LittleEndian" header_type="UInt32" compressor="vtkZLibDataCompressor">
  <UnstructuredGrid>
    <Piece NumberOfPoints="684" NumberOfCells="352">
      <PointData>
        <DataArray type="Int32" Name="libmesh_node_id" format="ascii" RangeMin="235" RangeMax="3052">
          304 373 374 405 442 443
          474 516 517 518 519 520
          521 522 523 524 525 526
          527 528 529 530 531 533
          537 538 541 543 651 652
          653 656 659 661 662 663
          664 665 666 667 668 669
          670 671 672 673 674 682
          683 684 688 696 697 702
          747 748 749 750 751 754
          755 756 757 758 762 763
          775 777 779 780 781 782
          784 785 787 788 789 790
          793 794 796 798 837 838
          839 842 843 844 845 846
          847 848 849 850 851 852
          853 854 855 856 857 858
          859 860 861 862 863 864
          865 866 867 868 871 874
          875 876 877 878 884 885
          887 888 889 890 891 892
          893 894 895 896 897 898
          901 902 904 906 1144 1145
          1146 1149 1152 1164 1165 1166
          1167 1169 1170 1171 1172 1174
          1175 1176 1177 1178 1179 1180
          1181 1182 1183 1184 1185 1186
          1187 1188 1189 1190 1191 1192
          1193 1194 1195 1196 1197 1198
          1199 1200 1201 1202 1203 1204
          1205 1206 1207 1208 1209 1210
          1211 1212 1213 1214 1215 1216
          1217 1218 1219 1220 1221 1222
          1223 1224 1225 1226 1227 1228
          1229 1230 1231 1232 1233 1234
          1235 1236 1237 1243 1244 1284
          1288 1289 1290 1293 1298 1299
          1300 1303 1356 1357 1358 1361
          1366 1367 1371 1707 1708 1711
          1713 1723 1725 1727 1729 1730
          1731 1732 1733 1734 1735 1736
          1737 1738 1739 1740 1741 1742
          1743 1744 1745 1746 1747 1748
          1749 1750 1751 1752 1753 1754
          1755 1811 1812 1813 1814 1815
          1816 1817 1818 1819 1820 1821
          1822 1823 1824 1825 1826 1827
          1828 1829 1830 1831 1832 1833
          1834 1835 1836 1837 1838 1839
          1840 1841 1842 1843 1844 1845
          1846 1847 1848 1849 1850 1851
          1852 1853 1854 1855 1856 1857
          1858 1859 1860 1861 1862 1863
          1864 1865 1866 1867 1868 1869
          1870 1871 1872 1873 1874 1875
          1876 1877 1878 1879 1880 1881
          1882 1883 1884 1885 1886 1887
          1888 1889 1890 1891 1892 1893
          1894 1895 1896 1897 1898 1899
          1900 1901 1903 1923 1924 1927
          1929 1930 1932 1943 1945 1951
          1952 1955 1957 1958 1960 1971
          1973 1975 1977 2831 2832 2833
          2834 2835 2836 2837 2838 2839
          2840 2841 2842 2843 2844 2845
          2846 2847 2848 2849 2850 2851
          2852 2853 2854 2855 2856 2857
          2858 2859 2860 2861 2862 2863
          2864 2865 2866 2867 2868 2869
          2870 2871 2872 2873 2874 2875
          2876 2877 2878 2879 2880 2881
          2882 2883 2884 2885 2886 2887
          2888 2889 2890 2891 2892 2893
          2894 2895 2896 2897 2898 2899
          2900 2901 2902 2903 2904 2905
          2906 2907 2908 2909 2910 2911
          2912 2913 2914 2915 2916 2917
          2918 2919 2920 2921 2922 2923
          2924 2925 2926 2927 2928 2929
          2930 2931 2932 2933 2934 2935
          2936 2937 2938 2939 2940 2941
          2942 2943 2944 2945 2946 2947
          2948 2949 2950 2951 2952 2953
          2954 2955 2956 2957 2958 2959
          2960 2961 2962 2963 2964 2965
          2966 2967 2968 2969 2970 2971
          2972 2973 2975 2991 2992 2993
          2994 2995 2996 2997 2998 2999
          3000 3001 3002 3005 3007 3008
          3010 3011 3012 3013 3016 3018
          3019 3020 3021 3022 3023 3024
          3025 3026 3027 3028 3029 3030
          3033 3035 3036 3038 3039 3040
          3041 3042 3043 3044 3045 3046
          3048 3050 3052 235 237 238
          236 306 307 305 337 336
          376 406 534 536 539 676
          679 678 681 690 692 693
          695 698 759 760 761 764
          375 791 792 795 445 797
          475 869 870 872 873 675
          879 880 881 882 883 886
          899 900 903 542 905 1238
          1239 1240 1241 1242 1245 1246
          1247 1249 1248 1265 1268 1285
          1286 1269 1287 1273 1291 1292
          1294 1295 1296 1297 1301 1302
          1352 1353 1354 1355 1359 1360
          1362 1363 1364 1365 1368 1369
          1370 1902 1925 1926 1928 1264
          1931 1954 1956 1944 1972 1974
          1271 1976 2974 3003 3004 3006
          1953 3009 3031 3032 3034 1270
          3037 1959 3017 3047 3049 3051
        </DataArray>
        <DataArray type="Float64" Name="bounds" format="ascii" RangeMin="0" RangeMax="0">
          0 0 0 0 0 0
          0 0 0 0 0 0
          0 0 0 0 0 0
          0 0 0 0 0 0
          0 0 0 0 0 0
          0 0 0 0 0 0
          0 0 0 0 0 0
          0 0 0 0 0 0
          0 0 0 0 0 0
          0 0 0 0 0 0
          0 0 0 0 0 0
          0 0 0 0 0 0
          0 0 0 0 0 0
          0 0 0 0 0 0
          0 0 0 0 0 0
          0 0 0 0 0 0
          0 0 0 0 0 0
          0 0 0 0 0 0
          0 0 0 0 0 0
          0 0 0 0 0 0
          0 0 0 0 0 0
          0 0 0 0 0 0
          0 0 0 0 0 0
          0 0 0 0 0 0
          0 0 0 0 0 0
          0 0 0 0 0 0
          0 0 0 0 0 0
          0 0 0 0 0 0
          0 0 0 0 0 0
          0 0 0 0 0 0
          0 0 0 0 0 0
          0 0 0 0 0 0
          0 0 0 0 0 0
          0 0 0 0 0 0
          0 0 0 0 0 0
          0 0 0 0 0 0
          0 0 0 0 0 0
          0 0 0 0 0 0
          0 0 0 0 0 0
          0 0 0 0 0 0
          0 0 0 0 0 0
          0 0 0 0 0 0
          0 0 0 0 0 0
          0 0 0 0 0 0
          0 0 0 0 0 0
          0 0 0 0 0 0
          0 0 0 0 0 0
          0 0 0 0 0 0
          0 0 0 0 0 0
          0 0 0 0 0 0
          0 0 0 0 0 0
          0 0 0 0 0 0
          0 0 0 0 0 0
          0 0 0 0 0 0
          0 0 0 0 0 0
          0 0 0 0 0 0
          0 0 0 0 0 0
          0 0 0 0 0 0
          0 0 0 0 0 0
          0 0 0 0 0 0
          0 0 0 0 0 0
          0 0 0 0 0 0
          0 0 0 0 0 0
          0 0 0 0 0 0
          0 0 0 0 0 0
          0 0 0 0 0 0
          0 0 0 0 0 0
          0 0 0 0 0 0
          0 0 0 0 0 0
          0 0 0 0 0 0
          0 0 0 0 0 0
          0 0 0 0 0 0
          0 0 0 0 0 0
          0 0 0 0 0 0
          0 0 0 0 0 0
          0 0 0 0 0 0
          0 0 0 0 0 0
          0 0 0 0 0 0
          0 0 0 0 0 0
          0 0 0 0 0 0
          0 0 0 0 0 0
          0 0 0 0 0 0
          0 0 0 0 0 0
          0 0 0 0 0 0
          0 0 0 0 0 0
          0 0 0 0 0 0
          0 0 0 0 0 0
          0 0 0 0 0 0
          0 0 0 0 0 0
          0 0 0 0 0 0
          0 0 0 0 0 0
          0 0 0 0 0 0
          0 0 0 0 0 0
          0 0 0 0 0 0
          0 0 0 0 0 0
          0 0 0 0 0 0
          0 0 0 0 0 0
          0 0 0 0 0 0
          0 0 0 0 0 0
          0 0 0 0 0 0
          0 0 0 0 0 0
          0 0 0 0 0 0
          0 0 0 0 0 0
          0 0 0 0 0 0
          0 0 0 0 0 0
          0 0 0 0 0 0
          0 0 0 0 0 0
          0 0 0 0 0 0
          0 0 0 0 0 0
          0 0 0 0 0 0
          0 0 0 0 0 0
          0 0 0 0 0 0
          0 0 0 0 0 0
          0 0 0 0 0 0
        </DataArray>
        <DataArray type="Float64" Name="gradient_error" format="ascii" RangeMin="1.545917587306466e-10" RangeMax="7.563186596710141e-7">
          7.420285867534872e-10 4.77836392304939e-9 1.9552549239220846e-9 5.71269278675299e-10 1.1924814321523603e-9 1.047891513103248e-8
          1.4142233650815556e-9 9.407517215414003e-9 4.985788021785971e-9 1.080050501217475e-7 3.8925969491385896e-8 3.586764109275041e-9
          6.78825448055258e-8 2.2139761855079752e-8 2.2959404429858322e-9 5.236888114144632e-9 3.884287612455926e-9 2.765019119114615e-7
          2.9620821271378535e-7 1.785872703822778e-7 1.7080447578232856e-8 5.1124934935703796e-9 4.938517506750447e-9 1.092952810321407e-7
          3.7455693349288885e-9 3.935848225012103e-9 7.051885733935815e-8 3.8040766043093745e-9 6.949328544512161e-8 5.946770031199631e-7
          4.414221770775959e-7 1.7528154559967814e-7 6.799522786988256e-7 8.31513530598226e-8 5.4173694069435176e-8 6.530515371490044e-7
          4.569020575883302e-7 5.20467767838591e-8 3.1984041119056764e-7 4.614380920466483e-7 3.347922195489647e-8 1.3341796878605587e-7
          9.561136941819933e-8 2.910829155059397e-9 7.563186596710141e-7 4.140723941273711e-7 2.385218031662634e-7 1.0158827074877007e-7
          1.1781697972620505e-7 1.2480915904955676e-7 1.2167099068227678e-7 8.24854481205539e-8 6.828749852351889e-8 2.809740688118147e-8
          4.53112466532209e-9 2.6376080153906914e-9 6.012990622686106e-10 2.5092328639214788e-9 1.6651510416982525e-9 8.210692194750264e-10
          5.653935284829248e-10 5.194656953479595e-10 1.6177030127642383e-9 1.4708702338032506e-9 4.735378622129943e-10 1.3240374548422627e-9
          3.604742555803391e-10 1.9541024402766553e-9 6.004871530396907e-10 2.0562848662993844e-9 1.8655176605080837e-10 7.904491841552563e-10
          8.424049444033087e-10 3.5477306249729714e-9 3.5120825795590776e-9 1.394346602259704e-9 1.0560198636746895e-9 1.4792958204056403e-9
          4.4256549641950314e-10 5.914796289344688e-10 1.902571777136591e-9 7.403937614494344e-10 8.802646228544854e-9 3.32509780199713e-8
          2.3548822070349254e-8 1.3846666120727216e-8 6.514941698407693e-9 4.905458431217894e-9 1.824946491205931e-8 1.34837201995061e-8
          4.8450165839631434e-9 1.8367361444458964e-8 1.7460611107867434e-8 3.2959751640280945e-9 8.717975486952891e-9 1.6553860771275904e-8
          3.217608072051728e-8 5.243974226996955e-8 7.175742866739944e-8 1.0619638321295583e-7 1.5754542534102485e-8 4.163115723570674e-8
          7.232192848895167e-9 1.496405476073161e-8 1.9032325812208732e-8 9.843249943113179e-9 1.1133877661428159e-7 1.599530241559421e-7
          6.750777193731099e-8 2.2695916672568056e-8 7.722640020893664e-9 7.651121462248824e-9 7.535899123097328e-9 7.579602903603983e-9
          2.651736140539843e-8 2.4758576186800696e-8 4.808267968379402e-9 4.749519019092535e-9 4.690770069805668e-9 1.5120359462968563e-8
          1.1179505578327366e-8 2.3677523526572397e-8 1.1943600099752229e-8 1.5048029065760742e-8 3.460408815406212e-9 6.1994609255952705e-9
          4.079937782852266e-9 3.6175541474817436e-8 1.8152458031769254e-8 8.93851303578433e-9 8.205694977160401e-9 8.377174063955504e-9
          2.546337255115597e-9 2.3342086277540246e-9 8.548653150750607e-9 2.1220800003924527e-9 1.436452381085382e-7 3.205656124329273e-7
          2.889538187633414e-7 2.0570547892128742e-7 5.641532733849809e-7 5.690094736790942e-7 6.200930104040599e-7 4.950007873868179e-7
          6.051799221116682e-7 6.260386239947661e-7 4.725184667519084e-7 5.857720971118784e-7 5.165694953999728e-7 1.4949338276647724e-7
          1.333741623565416e-7 3.208717081936609e-7 2.869712410354346e-7 1.219579036971748e-7 3.20019950451938e-7 2.836830344654971e-7
          9.343205585893995e-8 1.994796975235994e-7 1.9184573017893013e-7 6.230547441483407e-7 5.879520267140125e-7 6.127571121470694e-7
          4.4978828746735566e-7 1.2131116866091402e-7 1.0942731269041637e-7 3.1776140196650573e-7 2.789959372255411e-7 9.608952452865017e-8
          3.1364613184750485e-7 2.7269610200833014e-7 7.958133679380511e-8 1.8281646533851469e-7 1.7235483399274814e-7 4.917400682740844e-7
          5.398399500262651e-7 4.607883441780279e-7 4.6093176805626495e-7 4.1798176671093406e-7 5.90357055500493e-7 4.4664733634413976e-7
          6.288693832200768e-7 6.55673169061195e-7 6.863583603304452e-7 2.8017022187245976e-8 4.441898766284673e-7 4.760024060530007e-7
          7.172971023759375e-7 2.6225461154799623e-7 4.6763010672573097e-7 6.611075951185514e-8 2.982902955070549e-7 6.120865506622343e-7
          5.31281710495027e-7 1.6171421356409245e-9 2.797228713350458e-7 6.966410094379996e-8 5.906932482602626e-7 2.3021084639303265e-7
          2.3981328151478524e-7 3.9735185831149696e-7 3.994808405301987e-7 2.1840969772088882e-7 3.9230562965909304e-7 1.2796463621306582e-7
          2.1846197027741646e-7 2.3452313702551926e-7 1.995139154340798e-7 4.680945474297858e-7 4.6548658129955347e-7 4.676260583632274e-7
          2.59434015797201e-7 8.61306981165618e-8 8.285889769732571e-8 7.096509643857747e-8 1.6027969112386496e-7 2.0399923166458e-7
          1.0891428056950721e-7 1.778842749565962e-7 1.5308505368026103e-7 2.1091121634768642e-7 1.0385894464965114e-7 1.247199171600593e-7
          9.448161339839034e-8 1.4558088967046748e-7 5.646344970060683e-8 6.484347906493477e-8 3.874397987434537e-8 7.322350842926273e-8
          2.0891022368806035e-8 1.928176007984832e-8 1.76724977908906e-8 5.4417434375694214e-8 1.1019301518789277e-7 6.631709762696625e-8
          2.532087305454232e-7 3.975462877953762e-7 2.582800093291313e-7 4.546437104999973e-7 5.0381883702661475e-8 1.0362382214958537e-7
          4.707572220220455e-8 9.661359273546562e-8 3.1154597634049e-8 6.135902312918023e-8 5.688184359212722e-8 2.474255429508468e-7
          1.4812382024666657e-7 4.483839450374358e-8 8.932545904830033e-8 4.4099344738588994e-8 8.196676961270399e-8 2.805757213979565e-8
          5.324845990414766e-8 5.0969943409067075e-8 3.9938262093548573e-7 2.477202454277229e-7 4.607799165657871e-7 2.907562989864241e-7
          4.5368417628043144e-8 7.461719769815498e-8 4.6559447884680366e-8 7.093772604434359e-8 2.8393739657020953e-8 5.068248361526469e-8
          5.111042092477104e-8 7.023117212011219e-8 6.568898431065777e-8 6.830825185244574e-8 7.092751939423371e-8 6.63853315847793e-8
          1.0779010129143231e-7 1.1267964668637514e-7 1.1022358420318123e-7 1.1475393184244682e-7 1.0776752171998732e-7 7.448164379111016e-8
          7.582556319446698e-8 8.453508135694157e-8 7.716948259782382e-8 8.724973763435468e-8 8.978980380379729e-8 9.372603477021391e-8
          9.23298699732399e-8 6.510749269602141e-8 7.095302494532684e-8 5.538363796683296e-8 7.055686607850912e-8 7.67985571946323e-8
          8.577758330903098e-8 5.573334160093268e-8 6.608048669618671e-8 5.662417081055859e-8 7.642763179144076e-8 4.753662362104085e-8
          6.936820302738177e-8 4.9256453931513396e-8 7.22351999388974e-8 9.102264327612077e-8 9.490898691338203e-8 3.729014664601591e-9
          4.8809921501924675e-8 5.044932007255635e-8 8.971541657900165e-8 1.1178275677102265e-7 1.095469110617098e-7 1.0731106535239694e-7
          9.440806995117395e-8 9.744988770637559e-8 9.008499956548597e-8 1.0049170546157722e-7 1.1360352769420051e-7 1.1225864372160843e-7
          1.1791684026157148e-7 1.1743558224104774e-7 1.1091375974901634e-7 1.1695432422052398e-7 6.361269244555435e-8 8.744034713891722e-8
          9.162492613170508e-8 1.1402485461890027e-7 1.1412541694943123e-7 1.1818208963730663e-7 1.2493078073045145e-7 1.1655644368395536e-7
          5.070754481255507e-8 7.480808411179882e-8 2.989149568214173e-8 5.5352599211721656e-8 9.842299459128706e-8 9.288795528606047e-8
          2.2249970577327317e-9 5.168064639078895e-8 3.022171181654101e-8 9.635428372099689e-8 7.567430320003554e-9 3.492780741594333e-8
          6.6777685205155046e-9 3.576229640226764e-8 9.0988713491543e-8 9.482581083176009e-8 1.375244942762929e-9 7.312876081730569e-9
          6.493362536785282e-9 6.773770921064857e-8 1.1789513886628682e-7 1.1719539864937856e-7 1.216648607831424e-7 1.208811455089376e-7
          1.2652909502662543e-7 1.206561329762028e-7 1.2670671970518554e-7 1.235802013805686e-7 1.281274093227994e-7 1.2475582226845026e-7
          1.213865697402454e-7 1.1899233830945778e-7 1.1659810687867014e-7 1.2296096329799708e-7 1.2231669546752426e-7 1.2167242763705143e-7
          6.912688612921844e-8 9.563440748173801e-8 1.2559133318053993e-7 1.3014227099741068e-7 1.2786343785037863e-7 5.790932920996889e-9
          3.648861388085812e-8 9.869713587543783e-8 1.0871616681810178e-9 5.778802983645377e-9 7.235972003496782e-8 1.3178708332238672e-7
          1.3184308440300823e-7 1.3343189564736276e-7 1.3582273095563786e-7 7.10027965413074e-9 6.549082891433391e-9 6.822712164418292e-9
          7.0963414374031915e-9 6.5451446747058424e-9 7.500338689390512e-9 7.528542572568233e-9 8.000648765328953e-9 7.556746455745953e-9
          7.779058395933562e-9 8.014431863332602e-9 7.905085595713727e-9 8.249805330731643e-9 6.225048322550796e-9 6.88656171917075e-9
          5.776262136164304e-9 6.908684655026802e-9 7.548075115790704e-9 8.041107173889298e-9 4.949757955711083e-9 6.244580865773269e-9
          5.81672054472465e-9 7.539403775835456e-9 5.525180967856693e-9 6.7835201750907105e-9 5.255477858936883e-9 6.585238726262721e-9
          8.041859382324729e-9 7.91499959358856e-9 3.2713035397798237e-9 5.5526084868488195e-9 5.265391856811718e-9 7.833913433917816e-9
          1.265582399122376e-8 1.2336471582617567e-8 1.2726211597907702e-8 1.2832563888341523e-8 1.3115951613197835e-8 1.300624205372223e-8
          1.297568818620126e-8 1.32074331868662e-8 1.2945134318680292e-8 7.336127080832988e-9 7.726018443333258e-9 7.49264849369173e-9
          8.115909805833528e-9 1.1740957185763433e-8 1.2267502739570206e-8 1.2794048293376979e-8 6.604625608720996e-9 7.186292714345128e-9
          8.486121936513023e-9 7.76795981996926e-9 1.3229127204796076e-8 4.95254374647756e-9 6.3397364605774285e-9 4.616008365834464e-9
          6.0543257764243025e-9 7.726929174677297e-9 7.492643187014141e-9 2.5689604121221308e-9 4.9534544778216e-9 4.616003059156874e-9
          7.337948543521069e-9 4.245180746135249e-9 5.720538477525997e-9 3.818888709383989e-9 5.315580768675882e-9 7.195896208916744e-9
          8.478722693080352e-9 1.885735883549503e-9 4.254784240706866e-9 3.841569376540556e-9 6.623832597864229e-9 1.2395792185294667e-8
          1.2979961947283835e-8 1.156245716579326e-8 1.168055599743276e-8 1.2202361448009019e-8 1.1619465627042436e-8 1.2090127704547535e-8
          1.2724166898585275e-8 1.2560789782052634e-8 8.140295713918553e-9 9.016468139504032e-9 8.656469354916424e-9 1.0737514391559792e-8
          1.1570369221071002e-8 1.202439331511621e-8 1.1458998684578485e-8 1.1985295789392035e-8 1.2478417409161417e-8 1.2511592894205587e-8
          7.1257021217789034e-9 8.313551744219502e-9 7.931661224804828e-9 1.0254173141063587e-8 1.3078086395899853e-8 1.2774544895473458e-8
          1.3728910747299345e-8 1.2585862562748927e-8 1.2522861179961978e-8 1.34120084356273e-8 3.3645976888624687e-9 4.873980656439854e-9
          2.9845752588839985e-9 4.491322050351474e-9 8.936788913122403e-9 8.493930840682977e-9 1.4732443621357846e-9 3.393536331981983e-9
          3.0173969116236493e-9 7.933497330891472e-9 2.694939467118097e-9 4.145892943497105e-9 2.4479886205848498e-9 3.804148470581962e-9
          8.127972693801216e-9 7.761326529971269e-9 1.2729710790981641e-9 2.7377808425863626e-9 2.5081328834721416e-9 6.880535925828319e-9
          1.230635356527244e-8 1.2146532750633455e-8 1.3122492928317316e-8 1.3303272661719905e-8 1.1534620734645026e-8 1.1518520605793449e-8
          1.251607510933529e-8 1.2023155350797032e-8 1.1920400806738308e-8 1.3387211733867745e-8 1.3478456874113156e-8 1.1460448138845133e-8
          1.131794043351464e-8 1.3362415032108189e-8 1.3520136419607426e-8 1.3457261082078382e-8 1.36838965383572e-8 1.3394385744549335e-8
          1.3848155368928128e-8 1.3869810518160292e-8 1.3891465667392457e-8 1.1314308932464401e-8 1.1940284647957122e-8 1.1135947766064022e-8
          1.1875618224785867e-8 1.2566260363449844e-8 1.2615288683507714e-8 6.222446049085497e-9 7.551281532282277e-9 7.178911439037349e-9
          9.716236009125913e-9 1.0932009042736714e-8 1.1783770558194612e-8 1.2635532073652509e-8 5.400981887823325e-9 6.813304469022516e-9
          9.152477254344446e-9 1.2488584613776609e-8 1.2467380312004562e-8 1.3588695231133585e-8 1.2439782126488536e-8 1.3873386590387151e-8
          2.2346673979091336e-9 3.4957209961025792e-9 2.057773690367452e-9 3.219802520748247e-9 7.416421485701605e-9 7.081178698997432e-9
          1.132924142968647e-9 2.3121871414764716e-9 2.1491220746363337e-9 6.127556448889515e-9 1.918504999070234e-9 2.9741853066593753e-9
          6.740192120440628e-9 1.050908939039122e-9 2.0194922735026487e-9 5.4414675993208656e-9 1.1830526408780714e-8 1.1739915960264048e-8
          1.3584984440454243e-8 1.3699305873662272e-8 1.1172468203784817e-8 1.1012451608523532e-8 1.35812736497749e-8 1.1631689527903424e-8
          1.381286042917411e-8 1.0823596929318312e-8 1.375233426796107e-8 3.5507333000638443e-10 1.7855486386493773e-10 1.545917587306466e-10
          2.832566304193452e-10 3.11437069505883e-10 3.918128400900042e-10 5.152929115626298e-10 4.6463540662179736e-10 6.081882841640305e-10
          2.137456268418319e-9 5.341490988555285e-10 2.5713795055617392e-9 2.7375474247424476e-8 2.14451061762283e-9 1.0490283151220406e-7
          1.243342824603966e-7 3.9682789078060175e-7 2.9362146235539445e-7 7.085849928289864e-8 2.1049597496662356e-7 3.0660369866088105e-8
          1.1465925808719473e-7 2.763771119716808e-8 3.454029539140182e-10 9.86084362565997e-10 9.777964879584504e-10 9.695086133509038e-10
          2.0322250137927877e-9 7.819903541559e-10 7.459563598884078e-10 3.0413453397621717e-10 1.0425380032970036e-9 7.099223656209159e-10
          2.5838858661112675e-10 2.6059121988870342e-8 2.6288241697134384e-8 2.4302146678533383e-8 2.4530361432667038e-8 5.560857345122011e-8
          1.5157129649717945e-8 1.5138744556343256e-8 2.2320114844794477e-9 7.519739340316017e-9 7.007041029686e-9 6.494342719055983e-9
          3.5438162045042577e-9 3.584821237766004e-9 1.0474299496279275e-9 6.509876700406755e-9 3.6258262710277506e-9 3.071071325476203e-7
          2.645573015071525e-7 6.920853371527906e-8 2.976723589498926e-7 2.5439600154483324e-7 1.7100143981448797e-7 3.270656678094543e-7
          4.734353834114125e-7 4.607917182114674e-7 3.8014410664764555e-7 3.0446434782974776e-7 5.481494883919036e-7 3.837646397723023e-7
          2.2355326513249189e-7 4.5892997711665223e-7 3.709550087334777e-7 4.28635366761485e-7 4.6339679398371145e-7 4.542381218702209e-7
          2.668491030201134e-7 3.525420541925649e-7 2.4099771908751585e-7 3.272735286364676e-7 4.3823500536501627e-7 4.1354933818541935e-7
          2.0988286418120873e-7 2.939808104767078e-7 1.7354783667934586e-7 2.518233083626821e-7 3.7807875677220674e-7 3.3009878004601834e-7
          1.3333915228677086e-7 2.013777554680761e-7 9.25094751265033e-8 1.4615529593645997e-7 8.699337711334728e-9 2.694163586493813e-7
          1.9980111674641666e-7 1.2335361399031856e-7 1.281204708420438e-7 1.2721087705194153e-7 1.2630128326183925e-7 7.205753557097062e-8
          8.595514690204208e-8 2.332891438793292e-8 8.902024378406573e-8 1.3525823824344026e-7 1.3713131699530863e-7 1.3706282131177308e-7
          7.521064790837722e-8 1.3900439574717702e-7 1.4033785014901963e-8 1.0720102928647737e-8 1.1632985593797472e-8 1.3432438335854524e-8
          5.053852735005582e-9 6.440229557274705e-9 1.8102199636834812e-9 2.7825511190053762e-9 6.386105539845448e-9 1.0310422165676915e-9
          1.916829296154325e-9 5.1192042739512404e-9 1.331571941916347e-8 1.1482377015003242e-8 1.394742522464286e-8 1.0618329198897651e-8
        </DataArray>
        <DataArray type="Float64" Name="gradient_matprop_error" format="ascii" RangeMin="0" RangeMax="0">
          0 0 0 0 0 0
          0 0 0 0 0 0
          0 0 0 0 0 0
          0 0 0 0 0 0
          0 0 0 0 0 0
          0 0 0 0 0 0
          0 0 0 0 0 0
          0 0 0 0 0 0
          0 0 0 0 0 0
          0 0 0 0 0 0
          0 0 0 0 0 0
          0 0 0 0 0 0
          0 0 0 0 0 0
          0 0 0 0 0 0
          0 0 0 0 0 0
          0 0 0 0 0 0
          0 0 0 0 0 0
          0 0 0 0 0 0
          0 0 0 0 0 0
          0 0 0 0 0 0
          0 0 0 0 0 0
          0 0 0 0 0 0
          0 0 0 0 0 0
          0 0 0 0 0 0
          0 0 0 0 0 0
          0 0 0 0 0 0
          0 0 0 0 0 0
          0 0 0 0 0 0
          0 0 0 0 0 0
          0 0 0 0 0 0
          0 0 0 0 0 0
          0 0 0 0 0 0
          0 0 0 0 0 0
          0 0 0 0 0 0
          0 0 0 0 0 0
          0 0 0 0 0 0
          0 0 0 0 0 0
          0 0 0 0 0 0
          0 0 0 0 0 0
          0 0 0 0 0 0
          0 0 0 0 0 0
          0 0 0 0 0 0
          0 0 0 0 0 0
          0 0 0 0 0 0
          0 0 0 0 0 0
          0 0 0 0 0 0
          0 0 0 0 0 0
          0 0 0 0 0 0
          0 0 0 0 0 0
          0 0 0 0 0 0
          0 0 0 0 0 0
          0 0 0 0 0 0
          0 0 0 0 0 0
          0 0 0 0 0 0
          0 0 0 0 0 0
          0 0 0 0 0 0
          0 0 0 0 0 0
          0 0 0 0 0 0
          0 0 0 0 0 0
          0 0 0 0 0 0
          0 0 0 0 0 0
          0 0 0 0 0 0
          0 0 0 0 0 0
          0 0 0 0 0 0
          0 0 0 0 0 0
          0 0 0 0 0 0
          0 0 0 0 0 0
          0 0 0 0 0 0
          0 0 0 0 0 0
          0 0 0 0 0 0
          0 0 0 0 0 0
          0 0 0 0 0 0
          0 0 0 0 0 0
          0 0 0 0 0 0
          0 0 0 0 0 0
          0 0 0 0 0 0
          0 0 0 0 0 0
          0 0 0 0 0 0
          0 0 0 0 0 0
          0 0 0 0 0 0
          0 0 0 0 0 0
          0 0 0 0 0 0
          0 0 0 0 0 0
          0 0 0 0 0 0
          0 0 0 0 0 0
          0 0 0 0 0 0
          0 0 0 0 0 0
          0 0 0 0 0 0
          0 0 0 0 0 0
          0 0 0 0 0 0
          0 0 0 0 0 0
          0 0 0 0 0 0
          0 0 0 0 0 0
          0 0 0 0 0 0
          0 0 0 0 0 0
          0 0 0 0 0 0
          0 0 0 0 0 0
          0 0 0 0 0 0
          0 0 0 0 0 0
          0 0 0 0 0 0
          0 0 0 0 0 0
          0 0 0 0 0 0
          0 0 0 0 0 0
          0 0 0 0 0 0
          0 0 0 0 0 0
          0 0 0 0 0 0
          0 0 0 0 0 0
          0 0 0 0 0 0
          0 0 0 0 0 0
          0 0 0 0 0 0
          0 0 0 0 0 0
          0 0 0 0 0 0
          0 0 0 0 0 0
          0 0 0 0 0 0
        </DataArray>
        <DataArray type="Float64" Name="initial_marker" format="ascii" RangeMin="0" RangeMax="2">
          0 0 0 0 2 0
          0 0 0 0 0 0
          0 0 0 0 0 2
          0 0 0 0 0 0
          0 0 0 0 0 2
          1 0 1 0 0 2
          1 0 2 1 0 0
          0 2 1 2 0 0
          0 0 0 0 0 0
          0 0 0 0 0 0
          0 0 0 0 0 0
          0 0 0 0 0 0
          0 0 0 0 0 0
          0 0 0 0 0 0
          0 0 0 0 0 0
          0 0 0 0 0 0
          0 0 0 0 0 0
          0 0 0 0 0 0
          0 0 0 0 0 0
          0 0 0 0 0 0
          0 0 0 0 0 0
          0 0 0 0 0 0
          0 0 0 0 0 1
          1 0.5 2 2 2 2
          2 1 2 2 2 0
          0 1 1 0 1 1
          0 0.5 0.5 2 2 2
          1 0 0 1 1 0
          1 1 0 0.5 0.5 2
          2 2 1 2 2 2
          2 1 1 2 2 2
          1 2 2 2 2 1.25
          1.5 2 2 2 1.5 0
          0 0.25 0 0 0.5 0
          0 0 0 0.5 0 1
          0 0 0 0 0.5 0
          0 0 0 0 0 0
          0 0 0 0 0 0
          0 0 0 0 0 0
          0 0 0 0 0 0
          0 0 0 0 0 0
          0 0 0 0 0 0
          0 0 0 0 0 0
          0 0 0 0 0 0
          0 2 2 2 2 2
          2 2 2 2 2 2
          2 2 2 2 2 2
          2 2 2 2 2 2
          2 2 2 2 2 2
          2 2 2 2 2 2
          2 2 2 2 2 2
          2 2 2 2 2 2
          2 2 2 2 2 2
          2 2 2 2 2 2
          2 2 2 2 2 2
          2 2 2 2 2 2
          2 2 2 2 2 2
          2 2 2 2 2 2
          2 2 2 2 2 2
          2 2 2 2 2 2
          2 2 2 2 2 2
          2 2 2 2 2 2
          2 2 2 2 2 2
          2 2 2 2 2 2
          2 2 2 2 2 2
          2 2 2 2 2 2
          2 2 2 2 2 2
          2 2 2 2 2 2
          2 2 2 2 2 2
          2 2 2 2 2 2
          2 2 2 2 2 2
          2 2 2 2 2 2
          2 2 2 2 2 2
          2 2 2 2 2 2
          2 2 2 2 2 2
          2 2 2 2 2 2
          2 2 2 2 2 2
          2 2 2 2 2 2
          2 2 2 2 2 2
          2 2 2 2 2 2
          2 2 2 2 2 2
          2 2 2 2 2 2
          2 2 2 2 2 2
          2 2 2 2 2 2
          2 2 2 2 2 2
          2 2 2 2 2 2
          2 2 2 2 2 2
          2 2 2 2 2 2
          2 2 2 2 2 2
          2 2 2 2 2 2
          2 2 2 2 2 2
          2 2 2 2 2 2
          2 2 2 2 2 2
          2 2 2 2 2 2
          2 2 2 0 0 0
          0 0 0 0 0 0
          0 0 0 0 0 0
          0 1 1 0 1 0
          1 0 0 0 0 0
          0 0 0 0 0 0
          0 0 0 0 0 0
          0 0 0 0 0 0
          0 0 0 0 0 1
          1 0 1 1 0.6666666666666666 2
          2 1 2 2 1.5 0.5
          0 1.5 0.5 2 1 1
          0 0.5 0 0.5 1 1
          0 0.5 0 0.5 1 1
          0 0.5 0 0.5 0 1
          1 2 2 2 2 2
          2 2 2 2 2 2
          2 2 2 2 2 2
          2 2 2 2 2 2
          2 2 2 2 2 2
        </DataArray>
        <DataArray type="Float64" Name="markers_norefine" format="ascii" RangeMin="0" RangeMax="2">
          0 0 0 0 2 0
          0 0 0 0 0 0
          0 0 0 0 0 0
          0 0 0 0 0 0
          0 0 0 0 0 0
          0 0 0 0 0 0
          0 0 0 0 0 0
          0 2 0 0 0 0
          0 0 0 0 0 0
          0 0 0 0 0 0
          0 0 0 0 0 0
          0 0 0 0 0 0
          0 0 0 0 0 0
          0 0 0 0 0 0
          0 0 0 0 0 0
          0 0 0 0 0 0
          0 0 0 0 0 0
          0 0 0 0 0 0
          0 0 0 0 0 0
          0 0 0 0 0 0
          0 0 0 0 0 0
          0 0 0 0 0 0
          0 0 0 0 0 0
          0 0 0 0 0 0
          0 0 0 0 0 0
          0 0 0 0 0 0
          0 0 0 0 0 0
          0 0 0 0 0 0
          0 0 0 0 0 0
          0 0 0 0 0 0
          0 0 0 1 0 0
          0 0 0 0 0 0
          0 2 0 0 0 0
          0 0 0 0 0 0
          0 0 0 0 0 0
          0 0 0 0 0 0
          0 0 0 0 0 0
          0 0 0 0 0 0
          0 0 0 0 0 0
          0 0 0 0 0 0
          0 0 0 0 0 0
          0 0 0 0 0 0
          0 0 0 0 0 0
          0 0 0 0 0 0
          0 0 0 0 0 0
          0 0 0 0 0 0
          0 0 0 0 0 0
          0 0 0 0 0 0
          0 0 0 0 0 0.5
          0 1 0 0 0 2
          0.5 1 0 0 0 0
          0 0 0 0 0 0
          0 0 0 0 0 0
          0 0 0 0 0 0
          1 0.5 1 0.5 0 0
          2 1 1.5 0 2 0.5
          2 1.25 0 0 2 2