<?xml version="1.0"?>
<VTKFile type="UnstructuredGrid" version="0.1" byte_order="LittleEndian" header_type="UInt32" compressor="vtkZLibDataCompressor">
  <UnstructuredGrid>
    <Piece NumberOfPoints="408" NumberOfCells="220">
      <PointData>
        <DataArray type="Int32" Name="libmesh_node_id" format="ascii" RangeMin="246" RangeMax="2923">
          246 254 349 352 353 354
          355 357 358 359 367 368
          373 480 481 482 483 487
          488 730 736 745 746 750
          753 754 757 759 761 762
          763 764 765 766 767 768
          769 770 778 779 879 880
          886 979 980 981 982 983
          984 985 986 987 988 999
          1000 1003 1004 1006 1008 1305
          1315 1346 1380 1405 1406 1407
          1410 1411 1412 1413 1414 1417
          1440 1441 1444 1447 1448 1451
          1452 1453 1454 1455 1456 1457
          1458 1459 1460 1461 1462 1463
          1464 1465 1466 1467 1468 1469
          1470 1471 1472 1473 1474 1475
          1623 1624 1627 1628 1644 1645
          1646 1647 1648 1649 1650 1651
          1652 1653 1654 1655 1656 1657
          1658 1659 1660 1706 1707 1708
          1709 1710 1711 1712 1713 1714
          1715 1716 1717 1718 1719 1720
          1721 1722 2534 2538 2539 2540
          2541 2542 2543 2544 2545 2546
          2547 2548 2549 2550 2551 2558
          2562 2563 2564 2565 2566 2567
          2568 2569 2570 2571 2574 2575
          2578 2581 2582 2585 2586 2587
          2588 2589 2590 2591 2592 2593
          2594 2595 2596 2597 2598 2599
          2600 2601 2602 2603 2604 2605
          2608 2609 2615 2616 2620 2621
          2622 2623 2624 2625 2626 2627
          2628 2629 2630 2631 2632 2633
          2780 2781 2782 2783 2784 2785
          2786 2787 2788 2789 2800 2801
          2802 2803 2804 2805 2806 2807
          2808 2809 2824 2825 2826 2827
          2830 2831 2832 2833 2834 2837
          2854 2855 2858 2861 2862 2865
          2866 2867 2868 2869 2870 2871
          2872 2873 2874 2875 2876 2877
          2878 2879 2880 2881 2882 2883
          2884 2885 2886 2887 2888 2889
          2890 2891 2892 2893 2894 2895
          2896 2897 2898 2899 2900 2901
          2902 2903 2904 2905 2906 2907
          2908 2909 2910 2911 2912 2913
          2914 2915 2916 2917 2918 2919
          2920 2921 2922 2923 724 350
          725 726 712 1263 1297 1301
          1264 1266 1303 1299 1302 1304
          1307 1311 1313 1309 1312 1314
          1344 1404 1348 1408 1378 1438
          1382 1442 2190 2191 2192 2531
          2532 2533 2535 2536 2537 2529
          2555 2556 2557 2559 2560 1409
          2561 2553 2200 2202 2572 2201
          2573 2576 2577 2210 2212 2579
          2211 2580 2583 2584 2606 2607
          2610 2612 2611 1415 2613 2614
          2617 2619 2618 1416 2771 2775
          2776 2779 1439 2791 2795 2796
          2799 1443 2812 2813 2816 2828
          1445 2829 2819 2820 2823 2835
          1446 2836 2840 2852 2853 2844
          2856 2857 2859 2860 2863 2864
        </DataArray>
        <DataArray type="Float64" Name="bounds" format="ascii" RangeMin="0" RangeMax="0">
          0 0 0 0 0 0
          0 0 0 0 0 0
          0 0 0 0 0 0
          0 0 0 0 0 0
          0 0 0 0 0 0
          0 0 0 0 0 0
          0 0 0 0 0 0
          0 0 0 0 0 0
          0 0 0 0 0 0
          0 0 0 0 0 0
          0 0 0 0 0 0
          0 0 0 0 0 0
          0 0 0 0 0 0
          0 0 0 0 0 0
          0 0 0 0 0 0
          0 0 0 0 0 0
          0 0 0 0 0 0
          0 0 0 0 0 0
          0 0 0 0 0 0
          0 0 0 0 0 0
          0 0 0 0 0 0
          0 0 0 0 0 0
          0 0 0 0 0 0
          0 0 0 0 0 0
          0 0 0 0 0 0
          0 0 0 0 0 0
          0 0 0 0 0 0
          0 0 0 0 0 0
          0 0 0 0 0 0
          0 0 0 0 0 0
          0 0 0 0 0 0
          0 0 0 0 0 0
          0 0 0 0 0 0
          0 0 0 0 0 0
          0 0 0 0 0 0
          0 0 0 0 0 0
          0 0 0 0 0 0
          0 0 0 0 0 0
          0 0 0 0 0 0
          0 0 0 0 0 0
          0 0 0 0 0 0
          0 0 0 0 0 0
          0 0 0 0 0 0
          0 0 0 0 0 0
          0 0 0 0 0 0
          0 0 0 0 0 0
          0 0 0 0 0 0
          0 0 0 0 0 0
          0 0 0 0 0 0
          0 0 0 0 0 0
          0 0 0 0 0 0
          0 0 0 0 0 0
          0 0 0 0 0 0
          0 0 0 0 0 0
          0 0 0 0 0 0
          0 0 0 0 0 0
          0 0 0 0 0 0
          0 0 0 0 0 0
          0 0 0 0 0 0
          0 0 0 0 0 0
          0 0 0 0 0 0
          0 0 0 0 0 0
          0 0 0 0 0 0
          0 0 0 0 0 0
          0 0 0 0 0 0
          0 0 0 0 0 0
          0 0 0 0 0 0
          0 0 0 0 0 0
        </DataArray>
        <DataArray type="Float64" Name="gradient_error" format="ascii" RangeMin="4.237233655923087e-11" RangeMax="1.9217452892186491e-7">
          1.0377383353136689e-9 1.2591270572524653e-9 3.9330707591856906e-8 4.604835474996876e-10 1.9072459755125238e-8 1.6777406899617142e-8
          8.230054055249352e-10 9.099140513082123e-8 4.840943037718647e-10 5.687819451192635e-9 1.5651711987481698e-10 1.6197984784520078e-10
          1.734237097077488e-10 1.3154468405729653e-9 2.1175661522204755e-9 4.382059980192582e-10 5.798806178134578e-10 2.9196854638679854e-9
          7.215552376076573e-10 1.9452668293212127e-9 6.093603171786907e-8 1.8293926147471722e-9 3.3235621452361425e-10 2.125106845455571e-9
          1.8429421517202693e-8 3.687438780845252e-8 6.6958509647214166e-9 4.863679459867611e-8 2.490719041922033e-9 2.1989154728497782e-9
          6.390602453225527e-10 5.961680871150865e-10 2.529018605491866e-9 2.91707424930418e-9 9.98795917378181e-10 2.6366249890947315e-9
          7.253691116538002e-10 2.9873285246065427e-9 1.292948936924433e-10 1.1766915105970957e-10 1.5087163077255292e-10 1.644095056979193e-10
          1.7794738062328564e-10 2.501129718328005e-9 3.7763975807760955e-9 2.5650808451622113e-9 1.5725535380010717e-9 2.3887440779230534e-9
          3.978881927360486e-10 6.027276921278826e-10 1.0035825057245704e-9 1.607399871353242e-9 4.036354663562185e-10 1.4113389833473145e-10
          1.302397413329328e-10 1.460000048130686e-10 1.966369396329875e-10 1.3910343079864859e-10 2.282849300175062e-10 4.893070391851335e-9
          4.560869631736357e-10 2.0538713114969235e-8 5.681123401380872e-8 1.7545969003170219e-9 8.690734468624505e-9 1.6331128095437636e-9
          1.54592960594046e-8 7.482943421369402e-10 3.353623301102557e-10 6.484432071109134e-10 2.937618232220872e-10 7.363173758149576e-10
          2.1978082978699547e-8 1.8007956715091288e-9 2.49504042573935e-8 7.5326764745691e-10 4.0908342861110644e-10 9.009212675605872e-10
          9.141317832249584e-9 1.263576187406268e-8 9.776609380430556e-9 1.4372928319848456e-8 5.88944479435176e-9 7.417665945964789e-9
          1.7562340171134167e-9 1.2780629768858921e-9 4.570973377397273e-9 6.457105706296689e-9 2.045861494096476e-9 8.431209295666816e-9
          1.4377488948421256e-9 7.357450743898608e-9 6.556568908105185e-10 4.29444011669406e-10 3.029700224154005e-10 2.906485144532016e-10
          5.088376509738345e-10 6.600647370550476e-10 2.34901994164051e-10 4.775619052041722e-10 3.262864146230098e-10 7.242157859657262e-10
          9.747706644288272e-11 1.280446578562072e-10 7.88737125198143e-11 1.0294238644874132e-10 3.927235207797771e-9 5.655637722010019e-9
          4.051099540259134e-9 2.807585951166915e-9 4.106666887774818e-9 1.1808380919218311e-9 1.7822870181919025e-9 1.822961820309958e-9
          2.704073953204867e-9 9.309494080884818e-10 4.900262803085562e-10 7.077806114072303e-10 2.029117157851804e-10 2.7663878758861107e-10
          3.1255060034351364e-10 3.6715610707340686e-10 1.5576475608894926e-10 7.383302682705476e-11 1.0347276391088874e-10 4.815569339325769e-11
          6.2351192614827e-11 5.5214519410978135e-11 6.222004230833959e-11 4.237233655923087e-11 1.7400847794503702e-10 8.253097040108148e-11
          7.454335268675857e-11 2.475489114861198e-10 9.95116053385933e-11 8.418653451649805e-11 4.6179482658126364e-11 2.8019336807688827e-10
          1.1350010099376254e-10 8.851192886518004e-11 9.821392609557366e-10 8.824475504088601e-10 1.1105601016627804e-9 8.876776958649897e-10
          1.8411174749006124e-9 6.921848645661604e-10 8.962135024652784e-10 3.940210336332008e-10 5.455543061990476e-10 5.421769334367659e-10
          6.867265806316451e-10 3.822752037758707e-10 1.4973428967236786e-9 9.376179028759888e-10 1.1200343903492324e-9 2.9084310169215767e-9
          2.8853301629385756e-9 2.2914119790175735e-9 4.084973142983451e-9 2.361409495000464e-9 1.5062983969439365e-9 1.7617757507116932e-9
          9.9775392968662e-10 3.4014592352869444e-9 2.247116919349512e-9 2.0746961546445127e-9 6.247216619100894e-10 3.993199551763527e-10
          1.1487391009894702e-9 2.5160936048602534e-10 1.7934392281594137e-10 4.783588804376827e-10 2.3179493926850228e-10 3.3313168141001177e-10
          1.4260550023345937e-10 2.0778223704055012e-10 1.6416737277837592e-10 2.2624194231238102e-10 1.3938963608225964e-10 5.926409191398694e-10
          3.778911890585656e-10 3.920824148283846e-10 9.264310556049736e-11 1.304542848621867e-10 7.75452006481394e-11 1.0236574933297764e-10
          6.826977860224277e-11 9.093012373663856e-11 7.678991778007888e-11 2.3668945060195176e-10 1.6693922207846757e-10 1.5632061099485153e-10
          1.9552535893061132e-9 1.2969134685954558e-9 8.401207005213886e-10 5.264255265759208e-10 9.711878759285332e-10 6.291145396118497e-10
          6.30386697095223e-10 4.0481236057512864e-10 1.4728678263957743e-9 9.630177615769229e-10 7.868546637583865e-10 4.001329793933111e-10
          2.478423171075486e-10 2.5501211435154276e-10 1.5854265640204497e-10 6.179924514681386e-10 3.8599053778292073e-10 3.1754563288534146e-10
          5.435157417821086e-9 2.9798620340542076e-9 6.5768564546728505e-9 4.572529332311128e-9 3.0888589024287777e-9 2.3738476837617333e-9
          1.4498798001221447e-9 5.608389105470651e-9 3.882295586684421e-9 2.9081599792185e-9 7.356864354176444e-9 4.066986304362929e-9
          7.687482377675085e-9 6.336843832380644e-9 4.4598170013181655e-9 3.263081443851974e-9 2.038878318930453e-9 6.6274249847863215e-9
          4.672975362326813e-9 3.4028735390993677e-9 2.0522773251077765e-9 1.3517755864510412e-9 9.324659561801858e-10 5.980897049094696e-10
          1.1712604481816977e-9 8.732941474293996e-10 5.470480300221757e-10 3.7624996924239897e-10 2.7637539320224044e-10 4.757159239682637e-10
          1.3349976819191248e-9 8.615643735150175e-10 1.3945869223876773e-9 5.448897831989991e-10 4.015306563919091e-10 5.70015945410465e-10
          1.1201380227202716e-9 1.2947130839599833e-9 1.0606331654583973e-9 1.5631937163175423e-9 9.47562187881679e-10 1.0789721976974269e-9
          6.155922108582927e-10 6.926002403749307e-10 7.548092528919014e-10 8.187176788677138e-10 4.624085558722981e-10 1.2967762796150588e-9
          8.330390756269587e-10 9.47135109071998e-10 1.7276787332407595e-9 1.400481177799628e-9 1.798258179046129e-9 1.4406269706804145e-9
          9.330731889637845e-10 1.0527447865556392e-9 5.684753943135184e-10 1.4980835896438859e-9 9.696764965652206e-10 1.0938454598108082e-9
          3.79926144148695e-10 4.2905533183867433e-10 2.401835810946595e-10 2.69909325269951e-10 2.78928572909278e-10 2.8605002757000117e-10
          1.7965757301279332e-10 5.187049542335523e-10 3.26075776876091e-10 3.160616515044949e-10 1.4519192443564066e-10 1.6456358716749343e-10
          1.1367090630585357e-10 1.2545001815744237e-10 1.0822570369854707e-10 1.1347493392133732e-10 9.171985748952428e-11 2.000814827697877e-10
          1.4970201191315576e-10 1.2888810750453003e-10 5.82814194864435e-10 3.6762798101957936e-10 3.525537131586721e-10 2.2244172053522822e-10
          6.064030007904189e-10 3.827394777322191e-10 3.6615560553907885e-10 2.257931615741988e-10 1.6938758103060906e-10 1.4501908711778042e-10
          1.1831976616706194e-10 2.3535860750816836e-10 1.7660026824393778e-10 1.5098612337062839e-10 2.1604757603344685e-9 6.518971838595956e-10
          2.290910785654993e-9 5.936488673579309e-10 1.7335353191983137e-8 5.618280293519574e-9 3.509757724430981e-9 2.83677924678976e-9
          3.979772261561457e-9 2.146435258688349e-8 8.525507476811834e-9 9.043903524208959e-10 1.1401418798071539e-9 8.555013384775457e-10
          3.259143246166808e-10 4.2823226366147e-10 3.250551278431957e-10 1.614998494148206e-10 1.7369086089262492e-10 2.0339235083127912e-10
          5.0493466655121034e-8 2.2982448310353865e-8 1.0653740839340218e-7 4.9893542026512895e-8 1.663918415255606e-7 7.988090535236753e-8
          1.9217452892186491e-7 9.326078778223673e-8 1.3751731917713263e-9 8.368215867821364e-10 1.006686443118064e-9 2.59666702906558e-9
          1.6721282096225453e-9 1.5771012506710406e-9 4.6319797796287144e-9 3.1174342666726373e-9 2.745437804963391e-9 1.950917894719188e-9
          7.57915188253504e-9 5.364357415366219e-9 4.425804908989192e-9 1.1443482517067438e-8 8.448317316298797e-9 4.4641637761365155e-9
          6.572904365330054e-9 5.378014693441779e-9 5.316217471634649e-10 3.68257805405584e-10 1.0973936510713581e-9 3.3986962431760895e-10
          7.166507721718125e-10 2.113345555061555e-9 1.4105675046400275e-9 2.1338766807436397e-10 1.4567271390324577e-10 4.602441285695991e-10
          1.550759672077319e-10 2.8611066665478487e-10 9.178847564773145e-10 5.770121458908987e-10 3.761140305530304e-9 2.5679163596823377e-9
          6.102047816661475e-9 3.0623048506891456e-9 4.252442312956636e-9 2.061510393688769e-9 1.6933598919398202e-9 1.0734106188057148e-9
          2.8405897467797655e-9 1.346348159471609e-9 1.8136188174275375e-9 8.48875380633694e-10 1.0944832000198369e-8 9.168101705914349e-9
          6.283483181641607e-9 1.156216081924649e-8 8.036112374798033e-9 1.5805898623280985e-8 1.3338107217783913e-8 9.323156014700366e-9
          1.4076362851465655e-8 9.80067291335262e-9 4.373943876260249e-9 2.9803789029192007e-9 5.661517400782014e-9 2.605990376005781e-9
          3.89171148791481e-9 1.7271684159356985e-9 1.9621598853974805e-9 1.2423830436657492e-9 2.5779296377043207e-9 1.120839170062263e-9
          1.6379989558978108e-9 7.041532884104669e-10 6.616025621143805e-9 3.0100770390661876e-9 2.0027163012938788e-9 6.969315211608507e-9
          3.1585546606736663e-9 2.1040170954188064e-9 1.302847650440783e-9 8.196102045473715e-10 1.3697728744261563e-9 8.618977668586233e-10
        </DataArray>
        <DataArray type="Float64" Name="gradient_matprop_error" format="ascii" RangeMin="0" RangeMax="0">
          0 0 0 0 0 0
          0 0 0 0 0 0
          0 0 0 0 0 0
          0 0 0 0 0 0
          0 0 0 0 0 0
          0 0 0 0 0 0
          0 0 0 0 0 0
          0 0 0 0 0 0
          0 0 0 0 0 0
          0 0 0 0 0 0
          0 0 0 0 0 0
          0 0 0 0 0 0
          0 0 0 0 0 0
          0 0 0 0 0 0
          0 0 0 0 0 0
          0 0 0 0 0 0
          0 0 0 0 0 0
          0 0 0 0 0 0
          0 0 0 0 0 0
          0 0 0 0 0 0
          0 0 0 0 0 0
          0 0 0 0 0 0
          0 0 0 0 0 0
          0 0 0 0 0 0
          0 0 0 0 0 0
          0 0 0 0 0 0
          0 0 0 0 0 0
          0 0 0 0 0 0
          0 0 0 0 0 0
          0 0 0 0 0 0
          0 0 0 0 0 0
          0 0 0 0 0 0
          0 0 0 0 0 0
          0 0 0 0 0 0
          0 0 0 0 0 0
          0 0 0 0 0 0
          0 0 0 0 0 0
          0 0 0 0 0 0
          0 0 0 0 0 0
          0 0 0 0 0 0
          0 0 0 0 0 0
          0 0 0 0 0 0
          0 0 0 0 0 0
          0 0 0 0 0 0
          0 0 0 0 0 0
          0 0 0 0 0 0
          0 0 0 0 0 0
          0 0 0 0 0 0
          0 0 0 0 0 0
          0 0 0 0 0 0
          0 0 0 0 0 0
          0 0 0 0 0 0
          0 0 0 0 0 0
          0 0 0 0 0 0
          0 0 0 0 0 0
          0 0 0 0 0 0
          0 0 0 0 0 0
          0 0 0 0 0 0
          0 0 0 0 0 0
          0 0 0 0 0 0
          0 0 0 0 0 0
          0 0 0 0 0 0
          0 0 0 0 0 0
          0 0 0 0 0 0
          0 0 0 0 0 0
          0 0 0 0 0 0
          0 0 0 0 0 0
          0 0 0 0 0 0
        </DataArray>
        <DataArray type="Float64" Name="initial_marker" format="ascii" RangeMin="0" RangeMax="2">
          0 0 0.75 0 0 0
          0 2 1.5 0 0 0
          0 0 0 0 0 0
          0 0 1.5 1.5 1 2
          0 0.25 0 0.5 0 0
          0 0 0 0 0 0
          0 0 0 0 0 0
          0 0 0 0 0 0
          0 0 0 0 0 0
          0 0 0 0 0 0.3333333333333333
          0 1.3333333333333333 2 2 0.75 0.5
          1.5 2 1.75 0.25 0 1
          2 2 2 2 1.25 2
          0.5 1 0 1 0.25 0.5
          0 0 0 0 0 0.5
          0 0 0 0 0 0
          0 0 0 0 0 0
          0 0 0 0 0 0
          0 0 0 0 0 0
          0 0 0 0 0 0
          0 0 0 0 0 0
          0 0 0 0 0 0
          0 0 0 0 0 0
          0 0 1.5 0 0.5 0
          1.5 0 0.5 0 0.5 0
          0 0 1.5 1.5 1 2
          2 2 2 2 2 2
          2 2 2 2 1.5 1.5
          2 1.5 1.3333333333333333 2 0 0.5
          0 0.5 0 0 0 1.5
          1.25 1 0 0.5 0 0.5
          0 0 0 1 1 0
          2 2 2 2 2 1.75
          2 1.5 2 2 1.6666666666666667 1.5
          1.5 1 1 2 2 1.3333333333333333
          2 2 2 2 2 2
          2 2 2 2 2 2
          2 2 2 2 2 2
          2 2 2 2 1.75 1.5
          2 2 2 1.25 1.3333333333333333 1.75
          2 2 2 2 2 2
          1 1 0 1 1 1
          1 1 0 0 0 1
          1 0 1 0 1 1
          1 0 0 1 1 0
          0.5 0.75 0 0.5 0 0
          0 1 1 0 0 0.25
          0 0 0 0 0 0.75
          0.5 0 1 1 0 0
          1 1 0 1 1 0
          0 1 1 0 0 0
          0 0 0.3333333333333333 0.5 0.25 0
          0 1.6666666666666667 1 0 0 0.5
          0 0 0.5 0 0 0.25
          2 2 2 2 2 2
          2 2 1.5 1.5 0.6666666666666666 2
          2 1.5 2 2 2 1.5
          2 2 2 2 2 2
          2 2 1.5 0.6666666666666666 2 1.5
          2 2 2 1.25 0.6666666666666666 2
          1 1.75 2 2 2 2
          2 2 2 2 2 2
          2 2 2 2 2 2
          2 2 2 2 2 2
          2 2 2 2 2 2
          2 2 2 2 2 2
          2 2 2 2 2 2
          2 2 2 2 2 2
        </DataArray>
        <DataArray type="Float64" Name="markers_norefine" format="ascii" RangeMin="0" RangeMax="0">
          0 0 0 0 0 0
          0 0 0 0 0 0
          0 0 0 0 0 0
          0 0 0 0 0 0
          0 0 0 0 0 0
          0 0 0 0 0 0
          0 0 0 0 0 0
          0 0 0 0 0 0
          0 0 0 0 0 0
          0 0 0 0 0 0
          0 0 0 0 0 0
          0 0 0 0 0 0
          0 0 0 0 0 0
          0 0 0 0 0 0
          0 0 0 0 0 0
          0 0 0 0 0 0
          0 0 0 0 0 0
          0 0 0 0 0 0
          0 0 0 0 0 0
          0 0 0 0 0 0
          0 0 0 0 0 0
          0 0 0 0 0 0
          0 0 0 0 0 0
          0 0 0 0 0 0
          0 0 0 0 0 0
          0 0 0 0 0 0
          0 0 0 0 0 0
          0 0 0 0 0 0
          0 0 0 0 0 0
          0 0 0 0 0 0
          0 0 0 0 0 0
          0 0 0 0 0 0
          0 0 0 0 0 0
          0 0 0 0 0 0
          0 0 0 0 0 0
          0 0 0 0 0 0
          0 0 0 0 0 0
          0 0 0 0 0 0
          0 0 0 0 0 0
          0 0 0 0 0 0
          0 0 0 0 0 0
          0 0 0 0 0 0
          0 0 0 0 0 0
          0 0 0 0 0 0
          0 0 0 0 0 0
          0 0 0 0 0 0
          0 0 0 0 0 0
          0 0 0 0 0 0
          0 0 0 0 0 0
          0 0 0 0 0 0
          0 0 0 0 0 0
          0 0 0 0 0 0
          0 0 0 0 0 0
          0 0 0 0 0 0
          0 0 0 0 0 0
          0 0 0 0 0 0
          0 0 0 0 0 0
          0 0 0 0 0 0
          0 0 0 0 0 0
          0 0 0 0 0 0
          0 0 0 0 0 0
          0 0 0 0 0 0
          0 0 0 0 0 0
          0 0 0 0 0 0
          0 0 0 0 0 0
          0 0 0 0 0 0
          0 0 0 0 0 0
          0 0 0 0 0 0
        </DataArray>
        <DataArray type="Float64" Name="markers_mustrefine" format="ascii" RangeMin="0" RangeMax="2">
          0 0 0.75 0 0 0
          0 2 1.5 0 0 0
          0 0 0 0 0 0
          0 0 1.5 1.5 1 2
          0 0.25 0 0.5 0 0
          0 0 0 0 0 0
          0 0 0 0 0 0
          0 0 0 0 0 0
          0 0 0 0 0 0
          0 0 0 0 0 0.3333333333333333
          0 1.3333333333333333 2 2 0.75 0.5
          1.5 2 1.75 0.25 0 1
          2 2 2 2 1.25 2
          0.5 1 0 1 0.25 0.5
          0 0 0 0 0 0.5
          0 0 0 0 0 0
          0 0 0 0 0 0
          0 0 0 0 0 0
          0 0 0 0 0 0
          0 0 0 0 0 0
          0 0 0 0 0 0
          0 0 0 0 0 0
          0 0 0 0 0 0
          0 0 1.5 0 0.5 0
          1.5 0 0.5 0 0.5 0
          0 0 1.5 1.5 1 2
          2 2 2 2 2 2
          2 2 2 2 1.5 1.5
          2 1.5 1.3333333333333333 2 0 0.5
          0 0.5 0 0 0 1.5
          1.25 1 0 0.5 0 0.5
          0 0 0 1 1 0
          2 2 2 2 2 1.75
          2 1.5 2 2 1.6666666666666667 1.5
          1.5 1 1 2 2 1.3333333333333333
          2 2 2 2 2 2
          2 2 2 2 2 2
          2 2 2 2 2 2
          2 2 2 2 1.75 1.5
          2 2 2 1.25 1.3333333333333333 1.75
          2 2 2 2 2 2
          1 1 0 1 1 1
          1 1 0 0 0 1
          1 0 1 0 1 1
          1 0 0 1 1 0
          0.5 0.75 0 0.5 0 0
          0 1 1 0 0 0.25
          0 0 0 0 0 0.75
          0.5 0 1 1 0 0
          1 1 0 1 1 0
          0 1 1 0 0 0
          0 0 0.3333333333333333 0.5 0.25 0
          0 1.6666666666666667 1 0 0 0.5
          0 0 0.5 0 0 0.25
          2 2 2 2 2 2
          2 2 1.5 1.5 0.6666666666666666 2
          2 1.5 2 2 2 1.5
          2 2 2 2 2 2
          2 2 1.5 0.6666666666666666 2 1.5
          2 2 2 1.25 0.6666666666666666 2
          1 1.75 2 2 2 2
          2 2 2 2 2 2
          2 2 2 2 2 2
          2 2 2 2 2 2
          2 2 2 2 2 2
          2 2 2 2 2 2
          2 2 2 2 2 2
          2 2 2 2 2 2
        </DataArray>
        <DataArray type="Float64" Name="gradient_marker" format="ascii" RangeMin="0" RangeMax="1">
          1 1 0.25 1 1 0.875
          1 0.25 1 0.75 1 1
          1 1 1 1 1 1
          1 1 0.125 1 1 1
          0.5 0.375 0.5 0.5 1 1
          1 1 1 1 1 1
          1 1 1 1 1 1
          1 1 1 1 1 1
          1 1 1 1 1 1
          1 1 1 1 1 0.5
          1 0 0 1 0.5 1
          0.5 1 1 1 1 1
          0.5 1 0.5 1 1 1
          0 0 0 0 0.5 0.5
          1 1 0.5 0.5 1 0.5
          1 0.5 1 1 1 1
          1 1 1 1 1 1
          1 1 1 1 0 0
          0 0.5 0.5 1 1 0.5
          0.5 1 1 1 1 1
          1 1 1 1 1 1
          1 1 1 1 1 1
          1 1 1 1 1 1
          1 1 1 1 1 1
          1 1 1 1 1 1
          1 1 1 1 1 1
          1 1 1 1 1 1
          1 1 1 1 1 1
          1 1 1 1 1 1
          1 1 1 1 1 1
          1 1 1 1 1 1
          1 1 1 1 1 1
          1 1 1 1 1 1
          1 1 1 1 1 1
          1 1 1 1 1 1
          1 1 1 1 1 1
          1 1 1 1 1 1
          1 1 1 1 1 1
          1 1 1 1 1 1
          1 1 1 1 1 1
          1 1 1 1 1 1
          1 1 1 1 1 1
          1 1 1 1 1 1
          1 1 1 1 1 1
          1 1 1 1 1 1
          1 1 1 1 1 1
          1 1 1 1 1 1
          1 1 1 1 1 1
          1 1 1 1 1 1
          1 1 1 1 1 1
          1 1 1 1 1 1
          1 1 0.5 0 0.5 0.5
          0 0 0.5 1 1 1
          1 1 1 1 1 1
          0.125 0.5 0.375 0.625 0.5 0.75
          0.5 0.75 1 1 1 1
          1 1 1 1 1 1
          1 1 1 1 1 1
          1 1 1 1 1 1
          1 1 1 1 1 1
          1 1 1 1 1 1
          1 1 1 1 1 1
          1 1 1 1 1 1
          1 1 1 1 1 1
          1 1 1 1 1 1
          1 1 1 1 1 1
          1 1 1 1 1 1
          1 1 1 1 1 1
        </DataArray>
        <DataArray type="Float64" Name="gradient_matprop_marker" format="ascii" RangeMin="0" RangeMax="0">
          0 0 0 0 0 0
          0 0 0 0 0 0
          0 0 0 0 0 0
          0 0 0 0 0 0
          0 0 0 0 0 0
          0 0 0 0 0 0
          0 0 0 0 0 0
          0 0 0 0 0 0
          0 0 0 0 0 0
          0 0 0 0 0 0
          0 0 0 0 0 0
          0 0 0 0 0 0
          0 0 0 0 0 0
          0 0 0 0 0 0
          0 0 0 0 0 0
          0 0 0 0 0 0
          0 0 0 0 0 0
          0 0 0 0 0 0
          0 0 0 0 0 0
          0 0 0 0 0 0
          0 0 0 0 0 0
          0 0 0 0 0 0
          0 0 0 0 0 0
          0 0 0 0 0 0
          0 0 0 0 0 0
          0 0 0 0 0 0
          0 0 0 0 0 0
          0 0 0 0 0 0
          0 0 0 0 0 0
          0 0 0 0 0 0
          0 0 0 0 0 0
          0 0 0 0 0 0
          0 0 0 0 0 0
          0 0 0 0 0 0
          0 0 0 0 0 0
          0 0 0 0 0 0
          0 0 0 0 0 0
          0 0 0 0 0 0
          0 0 0 0 0 0
          0 0 0 0 0 0
          0 0 0 0 0 0
          0 0 0 0 0 0
          0 0 0 0 0 0
          0 0 0 0 0 0
          0 0 0 0 0 0
          0 0 0 0 0 0
          0 0 0 0 0 0
          0 0 0 0 0 0
          0 0 0 0 0 0
          0 0 0 0 0 0
          0 0 0 0 0 0
          0 0 0 0 0 0
          0 0 0 0 0 0
          0 0 0 0 0 0
          0 0 0 0 0 0
          0 0 0 0 0 0
          0 0 0 0 0 0
          0 0 0 0 0 0
          0 0 0 0 0 0
          0 0 0 0 0 0
          0 0 0 0 0 0
          0 0 0 0 0 0
          0 0 0 0 0 0
          0 0 0 0 0 0
          0 0 0 0 0 0
          0 0 0 0 0 0
          0 0 0 0 0 0
          0 0 0 0 0 0
        </DataArray>
        <DataArray type="Float64" Name="combo" format="ascii" RangeMin="0" RangeMax="1">
          1 1 0.25 1 1 0.875
          1 0.25 1 0.75 1 1
          1 1 1 1 1 1
          1 1 0.125 1 1 1
          0.5 0.375 0.5 0.5 1 1
          1 1 1 1 1 1
          1 1 1 1 1 1
          1 1 1 1 1 1
          1 1 1 1 1 1
          1 1 1 1 1 0.5
          1 0 0 1 0.5 1
          0.5 1 1 1 1 1
          0.5 1 0.5 1 1 1
          0 0 0 0 0.5 0.5
          1 1 0.5 0.5 1 0.5
          1 0.5 1 1 1 1
          1 1 1 1 1 1
          1 1 1 1 0 0
          0 0.5 0.5 1 1 0.5
          0.5 1 1 1 1 1
          1 1 1 1 1 1
          1 1 1 1 1 1
          1 1 1 1 1 1
          1 1 1 1 1 1
          1 1 1 1 1 1
          1 1 1 1 1 1
          1 1 1 1 1 1
          1 1 1 1 1 1
          1 1 1 1 1 1
          1 1 1 1 1 1
          1 1 1 1 1 1
          1 1 1 1 1 1
          1 1 1 1 1 1
          1 1 1 1 1 1
          1 1 1 1 1 1
          1 1 1 1 1 1
          1 1 1 1 1 1
          1 1 1 1 1 1
          1 1 1 1 1 1
          1 1 1 1 1 1
          1 1 1 1 1 1
          1 1 1 1 1 1
          1 1 1 1 1 1
          1 1 1 1 1 1
          1 1 1 1 1 1
          1 1 1 1 1 1
          1 1 1 1 1 1
          1 1 1 1 1 1
          1 1 1 1 1 1
          1 1 1 1 1 1
          1 1 1 1 1 1
          1 1 0.5 0 0.5 0.5
          0 0 0.5 1 1 1
          1 1 1 1 1 1
          0.125 0.5 0.375 0.625 0.5 0.75
          0.5 0.75 1 1 1 1
          1 1 1 1 1 1
          1 1 1 1 1 1
          1 1 1 1 1 1
          1 1 1 1 1 1
          1 1 1 1 1 1
          1 1 1 1 1 1
          1 1 1 1 1 1
          1 1 1 1 1 1
          1 1 1 1 1 1
          1 1 1 1 1 1
          1 1 1 1 1 1
          1 1 1 1 1 1
        </DataArray>
        <DataArray type="Float64" Name="dHdT" format="ascii" RangeMin="25.81166250532951" RangeMax="32.801584613896104">
          25.812375873902436 25.815614177132215 26.1020593627661 25.8216027006077 25.825770915565432 25.834185212072473
          25.814175606418623 27.73291484260884 25.872415114975375 25.832724667756544 25.81178044031526 25.811869142465618
          25.811928450317442 25.81222595134377 25.812896978087053 25.81196381457218 25.812086913029013 25.813568004830337
          25.81221001148584 25.86589376651801 26.918479378845625 26.027689374182017 25.843550942636938 26.22327825407603
          25.917398867081776 26.02973756578125 25.849591538939553 26.105603487595037 25.833442846379725 25.844599316471687
          25.81720139996857 25.819007389663756 25.82479569369758 25.828288841301525 25.817367421849585 25.855251870799645
          25.820795755319498 25.82976135226538 25.81240366528163 25.81264837164913 25.81166250532951 25.811679798333294
          25.811697091337084 25.822414498204537 25.83312354247809 25.82367890368828 25.818670593572644 25.825363677135446
          25.813849021393978 25.815415778108772 25.816400196908845 25.819587626983164 25.814227829279677 25.812904469037377
          25.813175822991408 25.812801625446415 25.813056401083806 25.813521950644446 25.813198104320257 25.987731948730147
          25.838095621549424 26.47199219249623 27.76223420396022 26.145517202492528 26.144037915103873 25.922617067270714
          26.4600408856829 25.947804113448257 25.86296594122591 25.85586308255637 25.82872859129531 25.896976348752133
          26.821458054568772 26.161410708162727 26.984202300001513 25.951734755469154 25.86272071944257 25.978306314193965
          26.117771641929952 26.23398790378272 26.032874684125275 26.289282520235638 26.026481870346224 26.10836266712876
          25.888066808415683 25.90164330182069 25.930036294984205 25.966496522998945 25.87452663309389 26.147541557874064
          25.912770973455817 25.983721506622942 25.84246161890848 25.846758398370874 25.82442693139355 25.82660433821143
          25.832932223716735 25.83797661107887 25.822387457868643 25.850871479173094 25.82832870166173 25.84039078732532
          25.812377255651878 25.812633246824213 25.81232995452396 25.812509253784718 25.94473279073197 26.00079139363104
          25.92712957546514 25.90938658060511 25.948546771269108 25.856918091250115 25.872045329515778 25.87812665720142
          25.89446385389744 25.848175120107292 25.831902716868562 25.837244846803948 25.820243616252373 25.822151734286706
          25.82641151135577 25.82835676197841 25.819108498192772 25.815104570731748 25.815852313802232 25.81373153067389
          25.814102342514587 25.814556252857493 25.81482455443829 25.813593528563008 25.817722350951136 25.8145381756202
          25.815443032562985 25.81983207479404 25.81497301936852 25.81614939014525 25.81368136722555 25.82081950455852
          25.81537535248439 25.816505571183612 26.00339686637789 25.991742411526033 26.045946148142217 25.991045324326848
          26.185383763915034 25.95669683484206 26.000758965892352 25.900954409372915 25.928566533208578 25.925088460026203
          25.95659853786914 25.90180773901701 26.114464234194728 26.00037863742007 26.035652734263824 26.3618493528094
          26.385318753682217 26.226863174375964 26.63116336418404 26.278391473057596 26.105905487714743 26.14536234453116