<?xml version="1.0"?>
<VTKFile type="UnstructuredGrid" version="0.1" byte_order="LittleEndian" header_type="UInt32" compressor="vtkZLibDataCompressor">
  <UnstructuredGrid>
    <Piece NumberOfPoints="545" NumberOfCells="288">
      <PointData>
        <DataArray type="Int32" Name="libmesh_node_id" format="ascii" RangeMin="0" RangeMax="5314">
          0 1 2 3 4 5
          6 7 8 9 10 11
          72 73 74 75 76 77
          108 109 110 111 112 113
          144 145 146 162 163 164
          165 166 167 168 169 198
          199 200 201 216 217 218
          219 220 221 222 223 224
          225 252 253 254 255 256
          270 271 272 273 274 275
          276 277 278 279 306 307
          308 309 310 324 325 326
          327 328 329 330 331 332
          333 334 360 361 362 363
          364 4679 4680 4681 4682 4683
          4684 4685 4686 4687 4688 4689
          4690 4691 4692 4693 4694 4695
          4696 4697 4698 4699 4700 4701
          4702 4703 4704 4705 4706 4707
          4708 4709 4710 4711 4712 4713
          4714 4715 4716 4717 4718 4719
          4720 4721 4722 4723 4724 4725
          4726 4727 4728 4729 4730 4731
          4732 4733 4734 4735 4736 4737
          4738 4739 4740 4741 4742 4743
          4745 4746 4747 4748 4750 4751
          4752 4753 4849 4850 4851 4852
          4853 4854 4855 4856 4857 4858
          4859 4860 4861 4862 4863 4864
          4865 4866 4870 4871 4879 4880
          4881 4882 4883 4884 4885 4886
          4887 4888 4889 4890 4891 4892
          4893 4894 4895 4896 4897 4898
          4899 4900 4901 4902 4903 4904
          4907 4908 4910 4912 4929 4930
          4931 4932 4933 4934 4935 4936
          4937 4938 4939 4940 4941 4942
          4943 4944 4945 4946 4947 4948
          4949 4950 4951 4952 4953 4954
          4955 4956 4957 4958 4959 4960
          4961 4962 4963 4964 4965 4966
          4967 4968 4969 4970 4971 4972
          4973 4974 4975 4976 4977 4978
          4979 4980 4981 4982 4983 4984
          4985 4986 4987 4988 4989 4990
          4991 4992 4993 4994 4995 4996
          4997 4998 4999 5000 5001 5002
          5003 5004 5005 5006 5007 5008
          5009 5010 5011 5012 5013 5014
          5015 5016 5017 5018 5019 5020
          5021 5022 5023 5024 5025 5026
          5027 5028 5029 5030 5031 5032
          5033 5034 5035 5036 5037 5038
          5039 5040 5041 5042 5043 5044
          5045 5046 5047 5048 5049 5050
          5051 5052 5053 5054 5055 5056
          5057 5058 5059 5060 5061 5062
          5063 5064 5065 5066 5067 5068
          5069 5070 5071 5072 5073 5074
          5075 5076 5077 5078 5079 5080
          5081 5082 5083 5084 5085 5086
          5087 5088 5089 5090 5091 5092
          5093 5094 5095 5096 5097 5098
          5099 5100 5101 5102 5103 5104
          5105 5106 5107 5108 5109 5110
          5111 5115 5116 5118 5119 5120
          5121 5122 5123 5124 5125 5126
          5127 5128 5129 5130 5131 5132
          5133 5134 5135 5136 5137 5138
          5139 5140 5141 5142 5143 5144
          5145 5146 5147 5148 5149 5150
          5151 5152 5153 5154 5155 5156
          5157 5158 5159 5160 5161 5172
          5173 5175 5190 5191 5194 5196
          5197 5199 5210 5211 5214 5215
          5217 5219 5285 5286 5287 5288
          5289 5290 5291 5292 5293 5294
          5295 5296 5297 5298 5299 5300
          5301 5302 5303 5304 5305 5306
          5307 5308 5309 5310 5311 5312
          5313 5314 12 13 14 15
          78 79 114 115 147 116
          117 170 171 148 202 172
          173 226 227 203 257 281
          311 4744 4749 4755 4760 4757
          4761 4867 4868 4869 4872 280
          4905 4906 4909 335 4911 365
          5112 5113 5114 5117 5164 5165
          5167 5168 4756 5174 5170 5171
          5192 5193 5195 4763 5198 4764
          5212 5213 5216 5218 4766
        </DataArray>
        <DataArray type="Float64" Name="bounds" format="ascii" RangeMin="0" RangeMax="0">
          0 0 0 0 0 0
          0 0 0 0 0 0
          0 0 0 0 0 0
          0 0 0 0 0 0
          0 0 0 0 0 0
          0 0 0 0 0 0
          0 0 0 0 0 0
          0 0 0 0 0 0
          0 0 0 0 0 0
          0 0 0 0 0 0
          0 0 0 0 0 0
          0 0 0 0 0 0
          0 0 0 0 0 0
          0 0 0 0 0 0
          0 0 0 0 0 0
          0 0 0 0 0 0
          0 0 0 0 0 0
          0 0 0 0 0 0
          0 0 0 0 0 0
          0 0 0 0 0 0
          0 0 0 0 0 0
          0 0 0 0 0 0
          0 0 0 0 0 0
          0 0 0 0 0 0
          0 0 0 0 0 0
          0 0 0 0 0 0
          0 0 0 0 0 0
          0 0 0 0 0 0
          0 0 0 0 0 0
          0 0 0 0 0 0
          0 0 0 0 0 0
          0 0 0 0 0 0
          0 0 0 0 0 0
          0 0 0 0 0 0
          0 0 0 0 0 0
          0 0 0 0 0 0
          0 0 0 0 0 0
          0 0 0 0 0 0
          0 0 0 0 0 0
          0 0 0 0 0 0
          0 0 0 0 0 0
          0 0 0 0 0 0
          0 0 0 0 0 0
          0 0 0 0 0 0
          0 0 0 0 0 0
          0 0 0 0 0 0
          0 0 0 0 0 0
          0 0 0 0 0 0
          0 0 0 0 0 0
          0 0 0 0 0 0
          0 0 0 0 0 0
          0 0 0 0 0 0
          0 0 0 0 0 0
          0 0 0 0 0 0
          0 0 0 0 0 0
          0 0 0 0 0 0
          0 0 0 0 0 0
          0 0 0 0 0 0
          0 0 0 0 0 0
          0 0 0 0 0 0
          0 0 0 0 0 0
          0 0 0 0 0 0
          0 0 0 0 0 0
          0 0 0 0 0 0
          0 0 0 0 0 0
          0 0 0 0 0 0
          0 0 0 0 0 0
          0 0 0 0 0 0
          0 0 0 0 0 0
          0 0 0 0 0 0
          0 0 0 0 0 0
          0 0 0 0 0 0
          0 0 0 0 0 0
          0 0 0 0 0 0
          0 0 0 0 0 0
          0 0 0 0 0 0
          0 0 0 0 0 0
          0 0 0 0 0 0
          0 0 0 0 0 0
          0 0 0 0 0 0
          0 0 0 0 0 0
          0 0 0 0 0 0
          0 0 0 0 0 0
          0 0 0 0 0 0
          0 0 0 0 0 0
          0 0 0 0 0 0
          0 0 0 0 0 0
          0 0 0 0 0 0
          0 0 0 0 0 0
          0 0 0 0 0 0
          0 0 0 0 0
        </DataArray>
        <DataArray type="Float64" Name="gradient_error" format="ascii" RangeMin="5.692224897118522e-11" RangeMax="0.00000305166811584867">
          9.751459735662415e-10 7.437137311040003e-10 4.1597384683497097e-10 5.377836443589125e-10 2.6062297398501435e-9 1.9639430426873217e-9
          1.104400895349472e-9 1.4414058271666729e-9 4.85520226061579e-10 2.8024331853915205e-10 1.236913206355972e-9 7.222151253828328e-10
          8.823396256594158e-11 1.0042131515158338e-10 2.4485874801162307e-10 2.7658191448320215e-10 7.496641101672512e-11 2.0751704440969377e-10
          1.0315698482000331e-8 7.705286717251411e-9 4.415867629148883e-9 5.7886010380029016e-9 4.896063637521408e-9 2.924128918322201e-9
          1.1264485410463567e-9 1.261503594005473e-9 9.521941991229943e-10 3.965320545598714e-8 2.9459904159824033e-8 1.7342240517980573e-8
          2.272807313577818e-8 1.9203520066121655e-8 1.1808627553399009e-8 2.0539004620712273e-8 1.1983766223823341e-8 5.224576876137111e-9
          5.802940815569225e-9 4.41373504067636e-9 3.4285278269344087e-9 1.0996772285454784e-7 8.430347099611693e-8 4.988928584733966e-8
          6.380824721039722e-8 8.773465370112093e-8 5.011428267249568e-8 7.397622684030568e-8 3.975115710163915e-8 2.4157924802466477e-8
          1.0319370673122788e-8 1.5475100698562392e-8 1.764877156624662e-8 1.2493911643870431e-8 9.472428437834496e-9 5.905990930409173e-9
          0.0000012640793409882015 0.0000012540745008428956 6.681391195636461e-7 9.157114029015118e-7 0.0000012773058102223937 4.1045894684085164e-7
          0.000001278550118697978 3.662880244403633e-7 1.2954409516796987e-7 3.0082095919702256e-7 5.390115780250559e-7 0.0000010325879120911764
          1.605461130576589e-8 1.4599848099383677e-8 1.2217178439057976e-8 2.7502187193748817e-7 3.0610540355898736e-7 0.0000021592108764171367
          0.0000025339446662251236 3.611189996471858e-7 4.3571572601459204e-7 4.260852041153951e-7 4.0183248070862177e-7 5.322604115543289e-7
          3.4457327744379e-7 6.749822304895713e-7 0.0000011155351844349276 0.000002039413898006802 4.2203265531831096e-8 6.492635073814647e-8
          7.23740157624119e-8 0.0000023759563828104858 0.0000019045146766793871 0.0000019058911164450608 0.0000014313927307894826 0.0000014433724706665096
          0.000001836343555892232 0.0000018272559505237382 0.0000018986801465624135 0.0000014671041948143388 0.0000018519532259962224 0.000001433072970548289
          0.000002242370543198479 0.000002234561051806076 0.000001602432779045251 2.8645684588295273e-7 0.000001774175905424874 0.0000017522817472655568
          0.0000018145600598992936 0.00000305166811584867 0.0000023988865933497246 0.000001883609998126244 0.000001494029097458318 0.00000151756412178002
          0.0000018592207128065855 0.0000015224356232541871 0.000001185351718406944 7.787253150752714e-7 9.299483515725109e-7 5.691677231148232e-7
          3.282278247956725e-7 0.0000011897198334935624 5.671682908869161e-7 0.0000011081638738522765 0.0000024109118117625573 0.000001833214876885644
          0.0000015493199733429737 0.000001187912227808176 0.0000012302453227693837 0.0000015782926332470675 0.0000011913775543756064 6.995532727368483e-7
          5.446503861001894e-7 5.13269224035691e-7 3.920389274924621e-7 6.049619638052927e-7 6.450269551333405e-7 4.2584887518433016e-7
          7.169563317583121e-7 6.5053525034065e-7 0.0000011044528268291279 9.287727184905658e-7 3.4141639310157777e-7 6.489473368282912e-7
          6.715513022482347e-7 4.3080594167580145e-7 4.761462210293441e-7 4.3254909625711e-7 4.685969117913338e-7 6.883373824365284e-7
          7.349060849481343e-7 3.7431402523793135e-7 1.1142503533593299e-7 3.158271933822675e-7 6.89464078845132e-7 6.674809507992772e-7
          7.287919752275632e-7 6.621898499509611e-7 3.6689799449852877e-7 3.8956644378875245e-7 5.972603015884315e-7 7.870212300041871e-7
          8.44001411230956e-7 3.122848584518524e-7 2.339620075786547e-8 1.57818760371966e-8 1.9264131934213236e-8 5.975775736395966e-8
          5.61855112068778e-8 4.3822836592777415e-8 4.499501574529756e-8 1.3172108858807622e-8 4.699415505238574e-8 4.041203854531254e-8
          8.167551316527732e-9 3.1460161978677015e-8 3.023227412663547e-8 3.3829922038239356e-8 2.3844413657387102e-8 1.3429478505987679e-8
          4.168366459892148e-8 3.9441534852061134e-8 3.0145433545882543e-9 3.71994051052008e-8 7.954170534168147e-8 9.246684011805498e-8
          1.790132723921127e-7 1.8543515064740637e-7 6.560341746943026e-8 1.6207311194361392e-7 1.5494807218396516e-8 3.5826907424254796e-8
          2.8293907108265705e-8 4.041777280769929e-8 2.784848394425439e-7 2.784034611767578e-7 2.5854280641779757e-7 5.615900763011308e-8
          5.339426051755705e-8 1.4357437777902282e-7 4.39213478242355e-8 1.2514686548193294e-7 1.5944568164252072e-8 4.2838382247037515e-8
          4.435059743682221e-8 2.3375449504048858e-7 2.0637238313963034e-7 6.973219632982297e-8 3.345165957374822e-8 1.0496835773217875e-7
          1.5359700328847377e-8 4.4045879027864506e-8 1.764850558906093e-7 7.273205772688164e-8 4.97039209675521e-7 4.851028297505615e-7
          4.802080163094678e-7 3.8333588489751917e-7 3.8772869291687326e-7 4.3261855986364557e-7 4.278814911610229e-7 4.977326564420078e-7
          3.9862270220274307e-7 4.446514634420117e-7 4.73166449825602e-7 4.775084268104179e-7 4.724270974245267e-7 4.906802246812803e-7
          2.7841817615822557e-7 3.801342899767296e-7 3.7555496601257813e-7 3.9157027044201555e-7 4.818504037952337e-7 5.285962092385133e-7
          5.144468510248783e-7 4.1235507532225723e-7 4.601679826483586e-7 5.331127988850153e-7 4.2703916312734566e-7 4.773127963354673e-7
          5.002974928112434e-7 5.0798088997446e-7 5.275864295435887e-7 2.961139414060012e-7 4.058891142718389e-7 4.215127937859193e-7
          5.156642871376767e-7 5.681560829601149e-7 5.531500514305691e-7 4.4201962252276405e-7 4.957949237082086e-7 5.730754748172934e-7
          4.586997131812918e-7 5.12473149543984e-7 5.381440199010232e-7 5.495702248936531e-7 5.243123611790461e-7 3.1588316208541314e-7
          4.3843979598584804e-7 4.5187082427067457e-7 5.609964298862828e-7 6.113897286469523e-7 5.929441912475422e-7 4.78058560648236e-7
          5.266179904627816e-7 6.149931614984662e-7 4.981223570345819e-7 5.435907152450428e-7 4.882130344499457e-7 5.179750447826938e-7
          5.393255074471095e-7 3.447273926495196e-7 4.602917896780211e-7 4.7218826899161947e-7 5.477370551154418e-7 6.605518550080051e-7
          6.385973165310563e-7 5.18400438189619e-7 5.641867919199159e-7 6.629460196246392e-7 5.398835312079259e-7 5.861158375925453e-7
          5.278677475063477e-7 5.569344834408704e-7 5.737857712680003e-7 3.762490213712329e-7 4.897762673087752e-7 5.092856555604515e-7
          5.860012193753934e-7 7.167049389049798e-7 6.886396809328664e-7 5.626595083902628e-7 6.093035206617915e-7 7.155165736398323e-7
          5.866068481343161e-7 6.336765499964776e-7 5.575330915676741e-7 5.910639058451222e-7 6.088885147543341e-7 4.086140778755459e-7
          5.299673603907166e-7 5.518365263531231e-7 6.245947201225704e-7 3.6577276130579005e-7 3.6286979040380686e-7 4.2016571493535884e-7
          4.1500455097586087e-7 3.6833109659853166e-7 4.25158488548172e-7 2.770537624369849e-7 3.1415115111379335e-7 3.1478570339288576e-7
          3.132861994463149e-7 4.7455866856492764e-7 4.671393115479149e-7 4.819858804978124e-7 3.5124853979060183e-7 2.401324288978183e-7
          2.1759024456731304e-7 2.460286148144879e-7 3.4717995916462496e-7 3.440853367606442e-7 3.0512550432881314e-7 3.0574423017033195e-7
          1.7915528326980753e-7 3.3889703785610403e-7 3.028635047623451e-7 1.950480602368078e-7 2.661656718969821e-7 2.6430850117603894e-7
          2.6682997166858615e-7 6.220117529253527e-7 5.824929885454451e-7 6.304353270770958e-7 6.081685355868933e-7 5.232167209574233e-7
          7.786285399681999e-7 7.434138219710561e-7 6.116241193203816e-7 6.592129589680211e-7 6.323794567746426e-7 6.822551246533864e-7
          5.882445818619111e-7 6.27284287470612e-7 6.454317027743299e-7 4.4461969867256315e-7 5.750120959649861e-7 6.015871814542168e-7
          6.663239930793129e-7 6.480390099649981e-7 7.024846911067122e-7 6.700290864876546e-7 7.2752116191345e-7 6.636093873082226e-7
          6.833056514338442e-7 5.000927587027611e-7 6.326441692128476e-7 6.65276978907996e-7 7.110353349588888e-7 3.704558978791937e-7
          4.298778164590078e-7 3.722554751283733e-7 4.3436488018435307e-7 2.7262173600847797e-7 3.1198885659245255e-7 3.0999714735217636e-7
          4.89299735038822e-7 4.964742852403327e-7 3.513559771764271e-7 3.7389553091136416e-7 4.386800204073598e-7 3.751196962584832e-7
          4.426334551305758e-7 2.6408934728153336e-7 3.070716384467004e-7 3.0366884473270855e-7 5.034645099033554e-7 5.101472140026684e-7
          3.500539296118675e-7 1.703472803118272e-7 1.65487620955101e-7 3.3587660541922517e-7 3.000070946063208e-7 1.5898132422154337e-7
          3.3378869708472046e-7 2.97322927284396e-7 1.6062796159837477e-7 2.641375837934165e-7 2.6085715748407163e-7 6.69991934137871e-7
          6.262685897600702e-7 6.422304553490155e-7 5.542350468620577e-7 1.583299198786947e-7 1.5375215117835783e-7 3.312627816711179e-7
          2.9414964581326397e-7 1.4917438247802094e-7 2.5703650995541e-7 7.089582825087297e-7 6.579926757322184e-7 6.737875684416548e-7
          5.733300980579051e-7 7.010287591439577e-7 7.585323310455093e-7 7.359691101203325e-7 7.922211852273411e-7 7.039122582727024e-7
          7.247803359319729e-7 5.634795805387963e-7 6.990540508284186e-7 7.356459901038999e-7 7.602955492465473e-7 7.740155218017291e-7
          8.284006871718909e-7 8.153204722787714e-7 8.672264769581201e-7 7.462328977550069e-7 7.682349593761555e-7 6.343101220495399e-7
          7.753631633275152e-7 8.185321858774677e-7 8.149199671395559e-7 3.756173907620797e-7 4.460082229380287e-7 3.754410230655434e-7
          4.488061225923651e-7 2.536201317025252e-7 3.0022783227771363e-7 2.9652483365513395e-7 5.163990551139777e-7 5.221712221191869e-7
          3.468355328529021e-7 3.7463060156092557e-7 4.510175259686878e-7 3.731049273285006e-7 4.5255040696575695e-7 2.433250468595505e-7
          2.923551089694145e-7 2.8776337681667173e-7 5.274044503764501e-7 5.319958866030133e-7 3.413851710792785e-7 7.490284239214553e-7
          6.896264515897735e-7 5.902915161876664e-7 8.6021192915478e-7 9.089570043713709e-7 7.90741777073571e-7 7.19686983667506e-7
          8.655353549246751e-7 8.742605426266943e-7 3.7078931205549436e-7 4.533035765768697e-7 2.3115303406417296e-7 2.828256785945592e-7
          5.35817841098245e-7 3.344983231249455e-7 1.1602692112221263e-7 1.334224529662508e-7 2.01116365500742e-7 2.178827782214571e-7
          4.293661499664605e-8 7.789467011480243e-8 1.317919812847516e-7 2.8620580987927135e-7 3.0234310347666337e-7 1.1285272523295879e-7
          3.4618873821003784e-7 3.3930195009625466e-7 3.9879792379497545e-7 3.9522878609954666e-7 3.5546352499953753e-7 4.047084721610884e-7
          2.9045006136831636e-7 3.368231783018907e-7 3.500136604753076e-7 3.1982500288346166e-7 4.5140710937991306e-7 4.5115562210283867e-7
          4.5395341932263927e-7 3.8319629523546504e-7 3.5959839051223603e-7 4.0972566233432765e-7 2.8010406406588444e-7 3.1555550343712686e-7
          4.5985293415641933e-7 3.5100694280836927e-7 4.839862750104183e-10 2.704542619908018e-10 1.246549235515057e-9 7.021577073406659e-10
          5.692224897118522e-11 1.5776617916627495e-10 5.088593765934189e-9 2.9096244352362032e-9 7.306551045382175e-10 4.031825651839311e-9
          2.2328757031440135e-9 1.609140161461362e-8 9.153613737325658e-9 4.3392575444871564e-10 2.215825860037691e-9 9.318774496923371e-9
          5.6826965754541395e-9 1.7175350962712448e-8 7.669487682222409e-9 2.0466186539849084e-9 5.667262334347935e-9 2.549013024324625e-7
          1.0492892210384398e-8 2.978520020436761e-7 3.471318004447348e-7 2.789927422169549e-7 3.0591049707658175e-7 6.530495286080082e-7
          3.030512862975683e-7 1.2060312662368539e-8 4.330027800116381e-8 4.230289131389824e-8 4.1305504626632685e-8 1.1071220913936197e-7
          2.213128813361846e-8 8.305584548896093e-8 4.1795362629992455e-8 2.7775467845427127e-7 1.439804028443034e-7 7.052254078954292e-8
          1.4913299882800648e-7 3.281565246292675e-7 2.903936838362718e-7 2.5263084304327607e-7 3.242407152847975e-7 2.858868588298955e-7
          3.1940769232504055e-7 2.805349445830009e-7 7.696380224912099e-7 7.054305320675149e-7 2.475330023749935e-7 2.4166219684096134e-7
          9.090878008335663e-7 9.53896958128348e-7 8.136772245604926e-7 7.688603377380797e-7 9.168050978272436e-7 9.056778792904117e-7
          3.6759445108064915e-7 4.531624569282084e-7 2.776765801585613e-7 5.387304627757676e-7 2.4144786893496416e-7
        </DataArray>
        <DataArray type="Float64" Name="gradient_matprop_error" format="ascii" RangeMin="0" RangeMax="0">
          0 0 0 0 0 0
          0 0 0 0 0 0
          0 0 0 0 0 0
          0 0 0 0 0 0
          0 0 0 0 0 0
          0 0 0 0 0 0
          0 0 0 0 0 0
          0 0 0 0 0 0
          0 0 0 0 0 0
          0 0 0 0 0 0
          0 0 0 0 0 0
          0 0 0 0 0 0
          0 0 0 0 0 0
          0 0 0 0 0 0
          0 0 0 0 0 0
          0 0 0 0 0 0
          0 0 0 0 0 0
          0 0 0 0 0 0
          0 0 0 0 0 0
          0 0 0 0 0 0
          0 0 0 0 0 0
          0 0 0 0 0 0
          0 0 0 0 0 0
          0 0 0 0 0 0
          0 0 0 0 0 0
          0 0 0 0 0 0
          0 0 0 0 0 0
          0 0 0 0 0 0
          0 0 0 0 0 0
          0 0 0 0 0 0
          0 0 0 0 0 0
          0 0 0 0 0 0
          0 0 0 0 0 0
          0 0 0 0 0 0
          0 0 0 0 0 0
          0 0 0 0 0 0
          0 0 0 0 0 0
          0 0 0 0 0 0
          0 0 0 0 0 0
          0 0 0 0 0 0
          0 0 0 0 0 0
          0 0 0 0 0 0
          0 0 0 0 0 0
          0 0 0 0 0 0
          0 0 0 0 0 0
          0 0 0 0 0 0
          0 0 0 0 0 0
          0 0 0 0 0 0
          0 0 0 0 0 0
          0 0 0 0 0 0
          0 0 0 0 0 0
          0 0 0 0 0 0
          0 0 0 0 0 0
          0 0 0 0 0 0
          0 0 0 0 0 0
          0 0 0 0 0 0
          0 0 0 0 0 0
          0 0 0 0 0 0
          0 0 0 0 0 0
          0 0 0 0 0 0
          0 0 0 0 0 0
          0 0 0 0 0 0
          0 0 0 0 0 0
          0 0 0 0 0 0
          0 0 0 0 0 0
          0 0 0 0 0 0
          0 0 0 0 0 0
          0 0 0 0 0 0
          0 0 0 0 0 0
          0 0 0 0 0 0
          0 0 0 0 0 0
          0 0 0 0 0 0
          0 0 0 0 0 0
          0 0 0 0 0 0
          0 0 0 0 0 0
          0 0 0 0 0 0
          0 0 0 0 0 0
          0 0 0 0 0 0
          0 0 0 0 0 0
          0 0 0 0 0 0
          0 0 0 0 0 0
          0 0 0 0 0 0
          0 0 0 0 0 0
          0 0 0 0 0 0
          0 0 0 0 0 0
          0 0 0 0 0 0
          0 0 0 0 0 0
          0 0 0 0 0 0
          0 0 0 0 0 0
          0 0 0 0 0 0
          0 0 0 0 0
        </DataArray>
        <DataArray type="Float64" Name="initial_marker" format="ascii" RangeMin="0" RangeMax="0">
          0 0 0 0 0 0
          0 0 0 0 0 0
          0 0 0 0 0 0
          0 0 0 0 0 0
          0 0 0 0 0 0
          0 0 0 0 0 0
          0 0 0 0 0 0
          0 0 0 0 0 0
          0 0 0 0 0 0
          0 0 0 0 0 0
          0 0 0 0 0 0
          0 0 0 0 0 0
          0 0 0 0 0 0
          0 0 0 0 0 0
          0 0 0 0 0 0
          0 0 0 0 0 0
          0 0 0 0 0 0
          0 0 0 0 0 0
          0 0 0 0 0 0
          0 0 0 0 0 0
          0 0 0 0 0 0
          0 0 0 0 0 0
          0 0 0 0 0 0
          0 0 0 0 0 0
          0 0 0 0 0 0
          0 0 0 0 0 0
          0 0 0 0 0 0
          0 0 0 0 0 0
          0 0 0 0 0 0
          0 0 0 0 0 0
          0 0 0 0 0 0
          0 0 0 0 0 0
          0 0 0 0 0 0
          0 0 0 0 0 0
          0 0 0 0 0 0
          0 0 0 0 0 0
          0 0 0 0 0 0
          0 0 0 0 0 0
          0 0 0 0 0 0
          0 0 0 0 0 0
          0 0 0 0 0 0
          0 0 0 0 0 0
          0 0 0 0 0 0
          0 0 0 0 0 0
          0 0 0 0 0 0
          0 0 0 0 0 0
          0 0 0 0 0 0
          0 0 0 0 0 0
          0 0 0 0 0 0
          0 0 0 0 0 0
          0 0 0 0 0 0
          0 0 0 0 0 0
          0 0 0 0 0 0
          0 0 0 0 0 0
          0 0 0 0 0 0
          0 0 0 0 0 0
          0 0 0 0 0 0
          0 0 0 0 0 0
          0 0 0 0 0 0
          0 0 0 0 0 0
          0 0 0 0 0 0
          0 0 0 0 0 0
          0 0 0 0 0 0
          0 0 0 0 0 0
          0 0 0 0 0 0
          0 0 0 0 0 0
          0 0 0 0 0 0
          0 0 0 0 0 0
          0 0 0 0 0 0
          0 0 0 0 0 0
          0 0 0 0 0 0
          0 0 0 0 0 0
          0 0 0 0 0 0
          0 0 0 0 0 0
          0 0 0 0 0 0
          0 0 0 0 0 0
          0 0 0 0 0 0
          0 0 0 0 0 0
          0 0 0 0 0 0
          0 0 0 0 0 0
          0 0 0 0 0 0
          0 0 0 0 0 0
          0 0 0 0 0 0
          0 0 0 0 0 0
          0 0 0 0 0 0
          0 0 0 0 0 0
          0 0 0 0 0 0
          0 0 0 0 0 0
          0 0 0 0 0 0
          0 0 0 0 0 0
          0 0 0 0 0
        </DataArray>
        <DataArray type="Float64" Name="markers_norefine" format="ascii" RangeMin="0" RangeMax="0">
          0 0 0 0 0 0
          0 0 0 0 0 0
          0 0 0 0 0 0
          0 0 0 0 0 0
          0 0 0 0 0 0
          0 0 0 0 0 0
          0 0 0 0 0 0
          0 0 0 0 0 0
          0 0 0 0 0 0
          0 0 0 0 0 0
          0 0 0 0 0 0
          0 0 0 0 0 0
          0 0 0 0 0 0
          0 0 0 0 0 0
          0 0 0 0 0 0
          0 0 0 0 0 0
          0 0 0 0 0 0
          0 0 0 0 0 0
          0 0 0 0 0 0
          0 0 0 0 0 0
          0 0 0 0 0 0
          0 0 0 0 0 0
          0 0 0 0 0 0
          0 0 0 0 0 0
          0 0 0 0 0 0
          0 0 0 0 0 0
          0 0 0 0 0 0
          0 0 0 0 0 0
          0 0 0 0 0 0
          0 0 0 0 0 0
          0 0 0 0 0 0
          0 0 0 0 0 0
          0 0 0 0 0 0
          0 0 0 0 0 0
          0 0 0 0 0 0
          0 0 0 0 0 0
          0 0 0 0 0 0
          0 0 0 0 0 0
          0 0 0 0 0 0
          0 0 0 0 0 0
          0 0 0 0 0 0
          0 0 0 0 0 0
          0 0 0 0 0 0
          0 0 0 0 0 0
          0 0 0 0 0 0
          0 0 0 0 0 0
          0 0 0 0 0 0
          0 0 0 0 0 0
          0 0 0 0 0 0
          0 0 0 0 0 0
          0 0 0 0 0 0
          0 0 0 0 0 0
          0 0 0 0 0 0
          0 0 0 0 0 0
          0 0 0 0 0 0
          0 0 0 0 0 0
          0 0 0 0 0 0
          0 0 0 0 0 0
          0 0 0 0 0 0
          0 0 0 0 0 0
          0 0 0 0 0 0
          0 0 0 0 0 0
          0 0 0 0 0 0
          0 0 0 0 0 0
          0 0 0 0 0 0
          0 0 0 0 0 0
          0 0 0 0 0 0
          0 0 0 0 0 0
          0 0 0 0 0 0
          0 0 0 0 0 0
          0 0 0 0 0 0
          0 0 0 0 0 0
          0 0 0 0 0 0
          0 0 0 0 0 0
          0 0 0 0 0 0
          0 0 0 0 0 0
          0 0 0 0 0 0
          0 0 0 0 0 0
          0 0 0 0 0 0
          0 0 0 0 0 0
          0 0 0 0 0 0
          0 0 0 0 0 0
          0 0 0 0 0 0
          0 0 0 0 0 0
          0 0 0 0 0 0
          0 0 0 0 0 0
          0 0 0 0 0 0
          0 0 0 0 0 0
          0 0 0 0 0 0
          0 0 0 0 0 0
          0 0 0 0 0
        </DataArray>
        <DataArray type="Float64" Name="markers_mustrefine" format="ascii" RangeMin="0" RangeMax="0">
          0 0 0 0 0 0
          0 0 0 0 0 0
          0 0 0 0 0 0
          0 0 0 0 0 0
          0 0 0 0 0 0
          0 0 0 0 0 0
          0 0 0 0 0 0
          0 0 0 0 0 0
          0 0 0 0 0 0
          0 0 0 0 0 0
          0 0 0 0 0 0
          0 0 0 0 0 0
          0 0 0 0 0 0
          0 0 0 0 0 0
          0 0 0 0 0 0
          0 0 0 0 0 0
          0 0 0 0 0 0
          0 0 0 0 0 0
          0 0 0 0 0 0
          0 0 0 0 0 0
          0 0 0 0 0 0
          0 0 0 0 0 0
          0 0 0 0 0 0
          0 0 0 0 0 0
          0 0 0 0 0 0
          0 0 0 0 0 0
          0 0 0 0 0 0
          0 0 0 0 0 0
          0 0 0 0 0 0
          0 0 0 0 0 0
          0 0 0 0 0 0
          0 0 0 0 0 0
          0 0 0 0 0 0
          0 0 0 0 0 0
          0 0 0 0 0 0
          0 0 0 0 0 0
          0 0 0 0 0 0
          0 0 0 0 0 0
          0 0 0 0 0 0
          0 0 0 0 0 0
          0 0 0 0 0 0
          0 0 0 0 0 0
          0 0 0 0 0 0
          0 0 0 0 0 0
          0 0 0 0 0 0
          0 0 0 0 0 0
          0 0 0 0 0 0
          0 0 0 0 0 0
          0 0 0 0 0 0
          0 0 0 0 0 0
          0 0 0 0 0 0
          0 0 0 0 0 0
          0 0 0 0 0 0
          0 0 0 0 0 0
          0 0 0 0 0 0
          0 0 0 0 0 0
          0 0 0 0 0 0
          0 0 0 0 0 0
          0 0 0 0 0 0
          0 0 0 0 0 0
          0 0 0 0 0 0
          0 0 0 0 0 0
          0 0 0 0 0 0
          0 0 0 0 0 0
          0 0 0 0 0 0
          0 0 0 0 0 0
          0 0 0 0 0 0
          0 0 0 0 0 0
          0 0 0 0 0 0
          0 0 0 0 0 0
          0 0 0 0 0 0
          0 0 0 0 0 0
          0 0 0 0 0 0
          0 0 0 0 0 0
          0 0 0 0 0 0
          0 0 0 0 0 0
          0 0 0 0 0 0
          0 0 0 0 0 0
          0 0 0 0 0 0
          0 0 0 0 0 0
          0 0 0 0 0 0
          0 0 0 0 0 0
          0 0 0 0 0 0
          0 0 0 0 0 0
          0 0 0 0 0 0
          0 0 0 0 0 0
          0 0 0 0 0 0
          0 0 0 0 0 0
          0 0 0 0 0 0
          0 0 0 0 0 0
          0 0 0 0 0
        </DataArray>
        <DataArray type="Float64" Name="gradient_marker" format="ascii" RangeMin="1" RangeMax="1">
          1 1 1 1 1 1
          1 1 1 1 1 1
          1 1 1 1 1 1
          1 1 1 1 1 1
          1 1 1 1 1 1
          1 1 1 1 1 1
          1 1 1 1 1 1
          1 1 1 1 1 1
          1 1 1 1 1 1
          1 1 1 1 1 1
          1 1 1 1 1 1
          1 1 1 1 1 1
          1 1 1 1 1 1
          1 1 1 1 1 1
          1 1 1 1 1 1
          1 1 1 1 1 1
          1 1 1 1 1 1
          1 1 1 1 1 1
          1 1 1 1 1 1
          1 1 1 1 1 1
          1 1 1 1 1 1
          1 1 1 1 1 1
          1 1 1 1 1 1
          1 1 1 1 1 1
          1 1 1 1 1 1
          1 1 1 1 1 1
          1 1 1 1 1 1
          1 1 1 1 1 1
          1 1 1 1 1 1
          1 1 1 1 1 1
          1 1 1 1 1 1
          1 1 1 1 1 1
          1 1 1 1 1 1
          1 1 1 1 1 1
          1 1 1 1 1 1
          1 1 1 1 1 1
          1 1 1 1 1 1
          1 1 1 1 1 1
          1 1 1 1 1 1
          1 1 1 1 1 1
          1 1 1 1 1 1
          1 1 1 1 1 1
          1 1 1 1 1 1
          1 1 1 1 1 1
          1 1 1 1 1 1
          1 1 1 1 1 1
          1 1 1 1 1 1
          1 1 1 1 1 1
          1 1 1 1 1 1
          1 1 1 1 1 1
          1 1 1 1 1 1
          1 1 1 1 1 1
          1 1 1 1 1 1
          1 1 1 1 1 1
          1 1 1 1 1 1
          1 1 1 1 1 1
          1 1 1 1 1 1
          1 1 1 1 1 1
          1 1 1 1 1 1
          1 1 1 1 1 1
          1 1 1 1 1 1
          1 1 1 1 1 1
          1 1 1 1 1 1
          1 1 1 1 1 1
          1 1 1 1 1 1
          1 1 1 1 1 1
          1 1 1 1 1 1
          1 1 1 1 1 1
          1 1 1 1 1 1
          1 1 1 1 1 1
          1 1 1 1 1 1
          1 1 1 1 1 1
          1 1 1 1 1 1
          1 1 1 1 1 1
          1 1 1 1 1 1
          1 1 1 1 1 1
          1 1 1 1 1 1
          1 1 1 1 1 1
          1 1 1 1 1 1
          1 1 1 1 1 1
          1 1 1 1 1 1
          1 1 1 1 1 1
          1 1 1 1 1 1
          1 1 1 1 1 1
          1 1 1 1 1 1
          1 1 1 1 1 1
          1 1 1 1 1 1
          1 1 1 1 1 1
          1 1 1 1 1 1
          1 1 1 1 1 1
          1 1 1 1 1
        </DataArray>
        <DataArray type="Float64" Name="gradient_matprop_marker" format="ascii" RangeMin="0" RangeMax="0">
          0 0 0 0 0 0
          0 0 0 0 0 0
          0 0 0 0 0 0
          0 0 0 0 0 0
          0 0 0 0 0 0
          0 0 0 0 0 0
          0 0 0 0 0 0
          0 0 0 0 0 0
          0 0 0 0 0 0
          0 0 0 0 0 0
          0 0 0 0 0 0
          0 0 0 0 0 0
          0 0 0 0 0 0
          0 0 0 0 0 0
          0 0 0 0 0 0
          0 0 0 0 0 0
          0 0 0 0 0 0
          0 0 0 0 0 0
          0 0 0 0 0 0
          0 0 0 0 0 0
          0 0 0 0 0 0
          0 0 0 0 0 0