<?xml version="1.0"?>
<VTKFile type="UnstructuredGrid" version="0.1" byte_order="LittleEndian" header_type="UInt32" compressor="vtkZLibDataCompressor">
  <UnstructuredGrid>
    <Piece NumberOfPoints="621" NumberOfCells="294">
      <PointData>
        <DataArray type="Int32" Name="libmesh_node_id" format="ascii" RangeMin="44" RangeMax="4477">
          48 49 50 51 52 53
          54 55 56 57 58 59
          60 61 62 63 64 65
          66 67 68 69 70 71
          96 97 98 99 100 101
          102 103 104 105 106 107
          132 133 134 135 136 137
          138 139 140 141 142 143
          156 157 158 159 160 161
          186 187 188 189 190 191
          192 193 194 195 196 197
          210 211 212 213 214 215
          240 241 242 243 244 245
          246 247 248 249 250 251
          264 265 266 267 268 269
          296 297 298 299 300 301
          302 303 304 305 318 319
          320 321 322 323 350 351
          352 353 354 355 356 357
          358 359 372 373 374 375
          376 377 439 440 441 442
          443 444 445 446 447 448
          450 451 452 558 560 561
          562 565 568 594 595 598
          601 602 603 604 605 606
          607 608 609 610 611 612
          613 628 629 630 631 632
          633 634 635 636 637 638
          639 640 641 656 658 660
          662 666 667 668 669 670
          671 672 673 674 675 778
          779 782 783 784 785 787
          788 789 790 791 792 793
          794 795 796 797 798 799
          800 801 804 805 806 807
          808 810 811 1176 1195 1196
          1199 1204 1446 1447 1448 1449
          1450 1451 1452 1453 1454 1455
          1465 1466 1469 1471 1487 1488
          1491 1492 1493 1494 1495 1496
          1499 1500 2058 2059 2060 2061
          2062 2063 2064 2068 2069 2070
          2153 2154 2155 2156 2157 2158
          2159 2160 2161 2162 2167 2168
          2169 2170 2171 2172 2173 2174
          2175 2176 2183 2184 2187 2293
          2294 2295 2296 2297 2298 2299
          2301 2302 2304 2305 2306 2308
          2309 2334 2335 2336 2337 2338
          2339 2340 2341 2342 2343 3808
          3809 3810 3811 3812 3813 3814
          3815 3816 3817 3818 3819 3820
          3821 3822 3823 3824 3825 3826
          3827 3828 3829 3830 3831 3832
          3833 3834 3835 3836 3837 3838
          3839 3840 3841 3842 3843 3844
          3946 3947 3949 3961 3963 3964
          4369 4370 4371 4372 4373 4374
          4375 4376 4377 4378 4381 4383
          4384 4385 4386 4387 4388 4389
          4390 4391 4392 4393 4394 4395
          4396 4397 4398 4399 4400 4401
          4402 4403 4405 4409 4410 4412
          4417 4418 4419 4420 4421 4422
          4428 4430 4434 4435 4436 4437
          4438 4439 4440 4444 4445 4446
          4447 4448 4449 4450 4451 4452
          4453 4460 4461 4464 4468 4469
          4470 4471 4472 4473 4474 44
          45 46 47 94 95 130
          131 155 184 185 209 238
          239 263 293 295 317 429
          431 434 557 563 559 564
          588 589 596 597 590 599
          600 593 415 426 432 294
          646 420 433 657 647 659
          661 651 663 664 665 349
          752 753 780 781 754 786
          757 556 802 803 770 771
          774 569 809 776 1171 1175
          1172 1173 1177 1174 1180 1183
          1202 1463 1203 1464 1467 1468
          1208 1470 1472 1200 1489 1490
          1201 1497 1498 1207 2048 2049
          2050 2065 2066 2053 2067 2071
          2177 2179 2178 2165 2180 1198
          2181 2111 2097 2182 2112 2185
          2186 2188 2189 2190 2300 2205
          2206 2303 2212 2214 2210 2307
          2216 3778 3779 3780 3783 1181
          3786 2056 3800 3801 3804 3806
          3845 1182 3878 3934 3935 3879
          3936 3937 3938 3881 3939 3944
          3945 3948 3950 2094 3952 3951
          2095 3953 3954 3894 3955 3956
          3896 3957 3962 3965 3966 3967
          3969 3968 3970 4379 4380 4382
          4404 4406 4407 4408 4411 4413
          2163 4415 4414 2164 4416 4423
          4424 1197 4425 4426 4427 4429
          4432 4431 2166 4433 4441 4442
          4443 4454 4455 4456 4457 4458
          4459 4462 4463 4466 4465 4467
          4475 4476 4477
        </DataArray>
        <DataArray type="Float64" Name="bounds" format="ascii" RangeMin="0" RangeMax="0">
          0 0 0 0 0 0
          0 0 0 0 0 0
          0 0 0 0 0 0
          0 0 0 0 0 0
          0 0 0 0 0 0
          0 0 0 0 0 0
          0 0 0 0 0 0
          0 0 0 0 0 0
          0 0 0 0 0 0
          0 0 0 0 0 0
          0 0 0 0 0 0
          0 0 0 0 0 0
          0 0 0 0 0 0
          0 0 0 0 0 0
          0 0 0 0 0 0
          0 0 0 0 0 0
          0 0 0 0 0 0
          0 0 0 0 0 0
          0 0 0 0 0 0
          0 0 0 0 0 0
          0 0 0 0 0 0
          0 0 0 0 0 0
          0 0 0 0 0 0
          0 0 0 0 0 0
          0 0 0 0 0 0
          0 0 0 0 0 0
          0 0 0 0 0 0
          0 0 0 0 0 0
          0 0 0 0 0 0
          0 0 0 0 0 0
          0 0 0 0 0 0
          0 0 0 0 0 0
          0 0 0 0 0 0
          0 0 0 0 0 0
          0 0 0 0 0 0
          0 0 0 0 0 0
          0 0 0 0 0 0
          0 0 0 0 0 0
          0 0 0 0 0 0
          0 0 0 0 0 0
          0 0 0 0 0 0
          0 0 0 0 0 0
          0 0 0 0 0 0
          0 0 0 0 0 0
          0 0 0 0 0 0
          0 0 0 0 0 0
          0 0 0 0 0 0
          0 0 0 0 0 0
          0 0 0 0 0 0
          0 0 0 0 0 0
          0 0 0 0 0 0
          0 0 0 0 0 0
          0 0 0 0 0 0
          0 0 0 0 0 0
          0 0 0 0 0 0
          0 0 0 0 0 0
          0 0 0 0 0 0
          0 0 0 0 0 0
          0 0 0 0 0 0
          0 0 0 0 0 0
          0 0 0 0 0 0
          0 0 0 0 0 0
          0 0 0 0 0 0
          0 0 0 0 0 0
          0 0 0 0 0 0
          0 0 0 0 0 0
          0 0 0 0 0 0
          0 0 0 0 0 0
          0 0 0 0 0 0
          0 0 0 0 0 0
          0 0 0 0 0 0
          0 0 0 0 0 0
          0 0 0 0 0 0
          0 0 0 0 0 0
          0 0 0 0 0 0
          0 0 0 0 0 0
          0 0 0 0 0 0
          0 0 0 0 0 0
          0 0 0 0 0 0
          0 0 0 0 0 0
          0 0 0 0 0 0
          0 0 0 0 0 0
          0 0 0 0 0 0
          0 0 0 0 0 0
          0 0 0 0 0 0
          0 0 0 0 0 0
          0 0 0 0 0 0
          0 0 0 0 0 0
          0 0 0 0 0 0
          0 0 0 0 0 0
          0 0 0 0 0 0
          0 0 0 0 0 0
          0 0 0 0 0 0
          0 0 0 0 0 0
          0 0 0 0 0 0
          0 0 0 0 0 0
          0 0 0 0 0 0
          0 0 0 0 0 0
          0 0 0 0 0 0
          0 0 0 0 0 0
          0 0 0 0 0 0
          0 0 0 0 0 0
          0 0 0 0 0 0
          0 0 0
        </DataArray>
        <DataArray type="Float64" Name="gradient_error" format="ascii" RangeMin="1.4545489585392518e-13" RangeMax="3.5572313606153363e-9">
          2.0196027806673092e-12 1.846970484229473e-12 3.857425945553839e-12 3.749660074777231e-12 1.430493707243525e-12 1.3963005397735658e-12
          1.766500270031648e-12 1.7796462989363191e-12 1.3584386591283977e-12 1.3449459457959021e-12 1.2786166993602689e-12 1.2959981353228962e-12
          1.3306030216766855e-12 1.3276992463924994e-12 1.3079065420288957e-12 1.3128574463317305e-12 1.3244757948483095e-12 1.3236807252916945e-12
          1.3158481035868381e-12 1.3177860261020329e-12 1.3234159981705204e-12 1.3229680195284406e-12 1.3173132911137223e-12 1.3187285889276442e-12
          1.6743381877916362e-12 3.641894204000622e-12 1.3621073723036067e-12 1.79279232784099e-12 1.3314532324634063e-12 1.3133795712855236e-12
          1.3247954711083135e-12 1.3178083506345655e-12 1.3228856557350794e-12 1.3197239486172273e-12 1.322520040886361e-12 1.3201438867415661e-12
          1.2938152389779735e-11 1.3751261948548246e-11 4.030389155558577e-12 4.18658442243978e-12 1.3963657586683508e-12 1.3556671687471689e-12
          1.3668357711169596e-12 1.3434095428848559e-12 1.3659699975748844e-12 1.3453825405738315e-12 1.3656303544748937e-12 1.3455423206026974e-12
          1.4564371507316758e-11 4.342779689320983e-12 1.314968578825987e-12 1.3199833146527524e-12 1.324795083572778e-12 1.3254542867305013e-12
          5.89085061524014e-11 6.225465856246585e-11 1.6613094637002533e-11 1.7267834118611133e-11 2.492573945309373e-12 2.4439537035807316e-12
          1.479892997706196e-12 1.414589690566365e-12 1.2905032154961149e-12 1.2304842012579872e-12 1.2612799667780647e-12 1.2031796974274024e-12
          6.560081097253031e-11 1.7922573600219737e-11 2.3953334618520906e-12 1.3492863834265339e-12 1.1704651870198596e-12 1.1450794280767398e-12
          9.925115499068757e-11 1.6274345484749422e-10 1.5956903163079864e-11 3.7075292695800097e-11 3.536603015517121e-12 3.5226418896495176e-12
          1.2651967217395392e-12 1.2412912652175076e-12 8.629936437164257e-13 8.27446824682541e-13 8.030183546550518e-13 7.651992637519033e-13
          2.20105028236404e-10 5.63879030118734e-11 3.5086807637819134e-12 1.217385808695476e-12 7.919000056486564e-13 7.273801728487546e-13
          1.1286220640062997e-11 3.167858283707085e-11 2.2441820808052604e-12 2.4731104206354086e-12 8.84031695993726e-13 7.940627671781306e-13
          5.21580130743725e-13 4.413721568076104e-13 4.691115082940233e-13 3.9535506071255824e-13 2.152133161529285e-10 4.506097179948024e-11
          2.7434458565742195e-12 7.040938383625352e-13 3.6116418287149573e-13 3.215986131310931e-13 2.051983377418399e-12 8.348846111050912e-12
          7.310473567782686e-13 1.3067851762363539e-12 7.489944640679519e-13 5.459189455552254e-13 4.73459822222426e-13 3.099453125308214e-13
          4.34696115941209e-13 2.900755058975671e-13 7.526945280821761e-11 3.764909473157211e-12 1.9255658617444605e-12 3.428434270424989e-13
          1.464308028392168e-13 1.4545489585392518e-13 4.0334422999617124e-11 6.78144708379068e-11 1.3625391413858924e-11 4.7411844708405476e-11
          1.5756730541081808e-11 7.037324170356684e-12 9.654543138956493e-12 7.845777568028638e-11 5.2049744233517467e-11 1.317538065229505e-11
          1.4167781305769669e-11 6.496494719664122e-12 2.1610310264330358e-11 2.055527407436677e-11 1.7721662367812678e-11 4.208135988382312e-12
          8.178330304287647e-12 1.8603814406477713e-11 4.7759087423474756e-12 2.5547043135303463e-10 2.6324093806154025e-10 1.0699707981358827e-10
          2.7101144477004586e-10 7.658596131250462e-10 3.0662991180876453e-10 1.0135620135484303e-11 1.507234537198887e-11 3.661280875432598e-11
          4.178011644901417e-11 6.941609535833607e-12 9.337969654568986e-12 1.4406989887825644e-11 2.0009070608493433e-11 4.694742414370237e-11
          1.94760101210823e-11 1.3085324556107472e-12 1.0409223098075579e-12 1.3779057164550733e-12 1.1791138547266435e-12 5.441588950513379e-13
          5.516512005964706e-13 4.887226714627966e-13 7.733121640043688e-13 9.803219929982137e-13 4.2579414232912253e-13 1.4472789772993994e-12
          1.3173053996457291e-12 4.3328644787425527e-13 1.1873318219920589e-12 5.671332651883101e-10 2.2227119708751699e-10 2.3652524587481735e-10
          8.658417889595165e-11 3.2421731732439876e-11 2.600789017208081e-11 1.607846522938988e-11 1.1193627073151377e-11 1.9229194284963767e-11
          1.3924687069297644e-11 7.181260574318351e-12 1.9594048611721748e-11 6.308788916912875e-12 8.620179853631519e-12 5.569184111216848e-11
          4.239100382408227e-11 1.4140500172246318e-11 1.7797925616562725e-11 2.0501711377313505e-11 2.9090166535996056e-11 2.3205497138064288e-11
          4.1321626115508445e-12 3.790559375570304e-12 2.7565872848888345e-12 2.9033557617019127e-12 2.1171754756746154e-12 1.7897688798125204e-12
          1.9514792263145035e-12 3.448956139589764e-12 3.1507871963004074e-12 2.113189572816487e-12 2.1362399395331964e-12 2.1685244414455258e-12
          1.7857829769543917e-12 2.8526182530110507e-12 2.2123207461811207e-11 1.9899697929076966e-11 2.4715236553705657e-11 2.97448383724768e-11
          9.098711025083188e-12 1.7676188396342725e-11 3.477444019124794e-11 2.1653550970804633e-11 4.272585778669762e-12 8.291729624371647e-12
          2.979429022708696e-12 3.692129456150263e-12 6.565762574003436e-12 5.939313994999797e-12 4.786143987740614e-12 6.839371795679531e-12
          3.663014745174801e-12 4.411087495702063e-12 4.250951764739787e-12 5.312865415996159e-12 8.75110641846968e-12 4.090816033777511e-12
          4.262743535359707e-12 4.913210068000225e-12 3.452871293927878e-12 5.563676600640741e-12 2.6407707297954922e-12 1.9443013160300967e-12
          8.749598867205391e-13 1.8315137835977455e-12 1.4049461709857303e-12 1.2478319022647016e-12 2.228601312576957e-12 9.783785583737152e-13
          1.9349324552509214e-12 3.209370722889212e-12 1.6120203333840233e-11 1.3181952525387824e-11 1.238545534024854e-11 1.6333773959809534e-11
          4.199314067459111e-12 8.35345879200955e-12 1.2858623479142214e-11 6.744206172407049e-11 5.43127133030734e-11 2.0968417793106478e-11
          8.89132206675169e-12 9.519051499854423e-12 2.7308422993346555e-11 2.1539279974575914e-11 6.601896045671745e-12 5.485439307540432e-12
          8.198625126712017e-12 1.3765706777003846e-11 1.4397121753348754e-11 7.648128247549934e-12 3.5725992447168345e-12 3.019916225906988e-12
          2.9414241045100784e-12 4.4159481962846195e-12 1.3747498377307825e-12 2.397987518408111e-12 2.1546143167709446e-12 1.961806767866611e-12
          4.222722384608742e-12 1.6149577446994062e-12 3.5876388865253203e-12 3.83750879757299e-12 3.4657105485496265e-12 1.1126555408426668e-12
          1.8188104750938384e-12 7.4004104385243e-13 1.0132924250395783e-12 7.68930753049253e-13 1.050107898648013e-12 7.079104758141221e-13
          1.8122198426372529e-12 2.0458129489252996e-12 2.8182323710178487e-12 3.3233157935082934e-12 2.044078091884576e-12 3.298568862987918e-12
          3.8862907334127605e-12 1.4493766519771833e-12 1.932312914210867e-12 6.962752218086406e-12 6.016655504308794e-12 1.472395135980242e-12
          3.122174679197917e-12 2.7913227918944655e-12 2.4152491764445507e-12 5.070558790531183e-12 2.460470904591014e-12 1.535064514997465e-11
          1.4894795083188613e-11 3.601059654893681e-11 3.362502083276522e-11 8.991010988994824e-12 1.953815086065027e-11 1.821163807092288e-11
          1.3352051505909215e-11 2.749125371341362e-11 1.679114743917664e-11 1.2576374470316404e-10 1.1673290266489437e-10 6.237278095125627e-11
          9.33321024188217e-11 5.0356291316201485e-12 5.534681015334354e-12 1.0059645279152524e-11 9.530224360407803e-12 4.194407126965316e-12
          6.621173571862073e-12 6.495870026641235e-12 6.033732899048559e-12 9.00080344166308e-12 6.370566481420397e-12 3.447722985802079e-11
          3.174077968242923e-11 1.9238742614062604e-11 3.056376156121666e-11 1.1165327741196796e-11 1.9888705462855042e-11 8.926065192410948e-12
          1.4114498600050241e-11 1.0065497486977737e-11 1.6034348615476457e-11 1.1625805444961543e-11 6.452569253324838e-11 4.257799242831856e-11
          5.1907239387173415e-11 4.7931329392302666e-11 3.783307250211509e-11 2.7772009481433532e-11 1.385804917187858e-11 2.5668306608871514e-11
          1.2077749696439736e-11 1.1317890821199555e-11 2.372818006094264e-11 2.1951546949223577e-11 5.189802159593157e-12 1.0385235770621043e-11
          9.595351297793019e-12 9.280304736564654e-12 1.7380744886187492e-11 8.83504379834614e-12 2.5136411066020047e-11 2.3532445868846774e-12
          2.453269370297197e-12 4.365883323731122e-12 4.112075128379441e-12 1.616007052665022e-12 2.5129117182100223e-12 2.526614903400031e-12
          2.5532941537097163e-12 3.858266933027759e-12 2.5403180885900394e-12 1.127816554629274e-11 1.035024940168589e-11 5.077414661049036e-12
          9.511094100812228e-12 6.81674375820434e-12 1.1827367341651216e-11 4.536324171996888e-12 7.358289887816357e-12 5.630909989238745e-12
          9.068158748431959e-12 5.822382030524279e-12 1.6146095758116713e-11 6.239716825534937e-11 5.759464483309053e-11 4.5058785650592506e-11
          2.530354124328789e-11 2.3358054192905245e-11 9.802073927448539e-12 8.990971094995849e-12 1.8277840466672035e-11 8.30797620772664e-12
          2.9812361394121116e-11 1.6902825101161876e-11 7.887352039444638e-12 1.2216231016491335e-11 4.6756297723665076e-12 6.976290453890737e-12
          4.642571321163593e-12 7.062118825029695e-12 4.084104268947849e-12 2.316415459920143e-12 2.252221720691023e-12 3.5951497282193255e-12
          3.3507517626560946e-12 1.3227247138709462e-12 1.8688113164997135e-12 1.917298846229703e-12 2.1880279814619034e-12 3.106353797092864e-12
          1.9657863759596933e-12 5.678582866453668e-12 8.471541913648106e-12 5.436706522861381e-12 2.449175118719012e-12 3.60752962489743e-12
          1.5443827252131025e-12 2.1389491296910557e-12 1.6992958857215062e-12 2.3801698418966752e-12 1.4980785311742883e-12 4.442711891305599e-12
          3.778397710803608e-12 9.349657181074135e-12 8.93160163751494e-12 3.114083530301616e-12 8.51354609395575e-12 3.409140721982804e-11
          3.617699903814983e-11 3.826259085647162e-11 1.71972433738615e-10 1.731649902882366e-10 1.7435754683785817e-10 3.932835841722696e-10
          4.298366658408162e-10 5.58523358318018e-10 2.039212569377324e-9 6.851438819637362e-10 5.494635297113506e-10 6.71694158388998e-10
          6.751844010869462e-10 5.905257393435661e-10 7.091142672601035e-11 5.924522378258625e-11 2.347675363118247e-11 6.268980656526903e-11
          4.0441490202746736e-10 1.370932238459676e-9 7.514348287090609e-10 7.586472209170535e-10 1.1285647644941678e-9 2.9300136677064757e-10
          2.9981563928970603e-10 8.861972905286596e-10 3.5572313606153363e-9 2.3100613662444295e-9 2.1330732428787667e-9 3.6329539364872787e-10
          6.266085367777096e-10 2.835441135344621e-9 1.872702547203998e-9 6.180882550650833e-10 1.1887747537336576e-9 2.1173924017404915e-10
          2.365905334372289e-10 4.822814129982434e-10 6.690432449418565e-10 2.0120728326058137e-10 2.366558209996405e-10 2.2677577235396732e-10
          1.9084517456040772e-10 6.96862870878684e-10 1.1297063594311164e-10 7.884950124963947e-11 5.497528218951624e-10 4.47283665561673e-11
          4.0264277291164096e-10 1.0436452671564039e-10 5.738539157312215e-11 6.207117240070278e-11 2.39174797134428e-10 3.1164681299228586e-10
          1.2672424572978965e-10 7.134393624026215e-11 6.675695322828341e-11 3.841188288501438e-10 1.429002723924777e-10 3.058992201927848e-11
          1.1219681694624526e-10 9.448577062288772e-11 1.9105918450865328e-11 6.844738510467901e-11 2.2589353041016682e-11 2.096613116242056e-11
          9.313682868504775e-12 9.157703429030575e-12 8.597171789024892e-12 7.314240964690345e-12 4.729246610858069e-12 5.2406754387456456e-12
          1.0709636652932471e-11 5.555229141200134e-12 5.752104266633222e-12 7.45960201093281e-12 5.222602047272187e-12 3.7256016799245725e-12
          4.666233042438458e-12 7.804433364748882e-12 5.506902043819047e-12 7.863225830596429e-12 3.984726969560283e-11 3.646462357042085e-11
          3.077360207300302e-11 7.711335914343151e-12 2.2009428954531833e-11 2.6321284023851918e-11 1.5481184719265334e-11 3.546518334475657e-11
          4.932326011781461e-12 5.2387536386347506e-12 5.808369953200079e-12 1.493350800316647e-11 6.3883165755635685e-12 8.891985485404414e-12
          1.3690785520891523e-11 1.9033638597102863e-11 4.088438845143228e-11 1.2711532985304941e-11 2.0810685240351274e-11 5.873900168154409e-12
          1.2761883549761357e-11 1.2690971606649022e-11 6.912229815936597e-12 1.2792878752661148e-11 4.126371353420007e-12 8.205275103560687e-12
          5.5379189349577675e-12 7.216894043336765e-12 1.2509007714781594e-11 9.912769421137564e-12 1.0057217958399803e-11 8.706010789178527e-12
          1.52954877041284e-11 2.5417203505442586e-11 6.376003961704416e-11 5.961328771218305e-11 4.894541296896547e-11 2.2374277974776882e-10
          2.0773613550099173e-10 1.6634963122472864e-10 1.7388699863195316e-11 3.5422284688658665e-11 2.6165780338774116e-11 1.1554497060307364e-10
          4.7842703697987405e-11 7.672194327385281e-11 7.073500789340772e-10 3.974275594899188e-10 3.6721401839173206e-10 6.535802533331778e-10
          2.119120609311331e-10 1.9589476210763644e-10 2.890940434480745e-10 5.144839484352501e-10 1.5443700706937949e-10 1.075483376626441e-10
          9.93574319809813e-11 7.831044129997509e-11 2.9375963945561504e-10 1.3992677766866574e-10 1.289532615643069e-10 2.705235330274731e-10
          1.0066802960321502e-10 2.1060056356908888e-10 1.9437012655420047e-10 3.459334750422138e-10 1.0404026096988944e-10 1.1334135033996926e-10
          2.0190833736411435e-10 6.07813766021699e-11 5.297292971119263e-11 1.721170261792434e-11 3.108534053651894e-11 1.7828156090975873e-11
          6.664427231350052e-11 1.3870105797216447e-10 7.820052256574066e-11 6.330418944053154e-11 5.84320951883528e-11 4.579856796778902e-11
          3.038863566334286e-11 2.072156740014608e-11 1.4679835598936686e-10 1.3530194930827664e-10 1.0538184622776963e-10 2.9100443754507e-10
          1.226687250761895e-10 1.1317611025809989e-10 2.683928238359315e-10 8.825176907816045e-11 2.0863133704157898e-10 4.9036897280099335e-11
          4.534110225117103e-11 1.871200721625536e-11 1.722559573336622e-11 3.555269946005134e-11 6.907797830351056e-11 3.853079491004378e-11
          5.7731138329914527e-11 1.3513443391843238e-10 3.202921107095087e-11 7.373866169495558e-11 2.3568254736413692e-11 1.0919675763951591e-11
          1.3306587945507354e-11 6.852721559788428e-12 6.279270582571809e-12 3.4080312272202726e-12 5.549039931104735e-12 1.2489974010917238e-11
          1.8902317588577166e-11 8.29551847595968e-12 1.1940852135735036e-11 1.5565191106396798e-11 3.509548374084022e-11 1.7688463938344304e-11
          6.561610456895797e-12 3.785514584400936e-12 4.186462797744298e-12
        </DataArray>
        <DataArray type="Float64" Name="gradient_matprop_error" format="ascii" RangeMin="0" RangeMax="0">
          0 0 0 0 0 0
          0 0 0 0 0 0
          0 0 0 0 0 0
          0 0 0 0 0 0
          0 0 0 0 0 0
          0 0 0 0 0 0
          0 0 0 0 0 0
          0 0 0 0 0 0
          0 0 0 0 0 0
          0 0 0 0 0 0
          0 0 0 0 0 0
          0 0 0 0 0 0
          0 0 0 0 0 0
          0 0 0 0 0 0
          0 0 0 0 0 0
          0 0 0 0 0 0
          0 0 0 0 0 0
          0 0 0 0 0 0
          0 0 0 0 0 0
          0 0 0 0 0 0
          0 0 0 0 0 0
          0 0 0 0 0 0
          0 0 0 0 0 0
          0 0 0 0 0 0
          0 0 0 0 0 0
          0 0 0 0 0 0
          0 0 0 0 0 0
          0 0 0 0 0 0
          0 0 0 0 0 0
          0 0 0 0 0 0
          0 0 0 0 0 0
          0 0 0 0 0 0
          0 0 0 0 0 0
          0 0 0 0 0 0
          0 0 0 0 0 0
          0 0 0 0 0 0
          0 0 0 0 0 0
          0 0 0 0 0 0
          0 0 0 0 0 0
          0 0 0 0 0 0
          0 0 0 0 0 0
          0 0 0 0 0 0
          0 0 0 0 0 0
          0 0 0 0 0 0
          0 0 0 0 0 0
          0 0 0 0 0 0
          0 0 0 0 0 0
          0 0 0 0 0 0
          0 0 0 0 0 0
          0 0 0 0 0 0
          0 0 0 0 0 0
          0 0 0 0 0 0
          0 0 0 0 0 0
          0 0 0 0 0 0
          0 0 0 0 0 0
          0 0 0 0 0 0
          0 0 0 0 0 0
          0 0 0 0 0 0
          0 0 0 0 0 0
          0 0 0 0 0 0
          0 0 0 0 0 0
          0 0 0 0 0 0
          0 0 0 0 0 0
          0 0 0 0 0 0
          0 0 0 0 0 0
          0 0 0 0 0 0
          0 0 0 0 0 0
          0 0 0 0 0 0
          0 0 0 0 0 0
          0 0 0 0 0 0
          0 0 0 0 0 0
          0 0 0 0 0 0
          0 0 0 0 0 0
          0 0 0 0 0 0
          0 0 0 0 0 0
          0 0 0 0 0 0
          0 0 0 0 0 0
          0 0 0 0 0 0
          0 0 0 0 0 0
          0 0 0 0 0 0
          0 0 0 0 0 0
          0 0 0 0 0 0
          0 0 0 0 0 0
          0 0 0 0 0 0
          0 0 0 0 0 0
          0 0 0 0 0 0
          0 0 0 0 0 0
          0 0 0 0 0 0
          0 0 0 0 0 0
          0 0 0 0 0 0
          0 0 0 0 0 0
          0 0 0 0 0 0
          0 0 0 0 0 0
          0 0 0 0 0 0
          0 0 0 0 0 0
          0 0 0 0 0 0
          0 0 0 0 0 0
          0 0 0 0 0 0
          0 0 0 0 0 0
          0 0 0 0 0 0
          0 0 0 0 0 0
          0 0 0 0 0 0
          0 0 0 0 0 0
          0 0 0
        </DataArray>
        <DataArray type="Float64" Name="initial_marker" format="ascii" RangeMin="0" RangeMax="2">
          0 0 0 0 0 0
          0 0 0 0 0 0
          0 0 0 0 0 0
          0 0 0 0 0 0
          0 0 0 0 0 0
          0 0 0 0 0 0
          0 0 0 0 0 0
          0 0 0 0 0 0
          0 0 0 0 0 0
          0 0 0 0 0 0
          0 0 0 0 0 0
          0 0 0 0 0 0
          0 0 0 0 0 0
          0 0 0 0 0 0
          0 0 0 0 0 0
          0 0 0 0 0 0
          0 0 0 0 0 0
          0 0 0 0 0 0
          0 0 0 0 0 0
          0 0 0 0 0 0
          0 0 0 0 0 0
          0 0 0 0 0 0
          0 0 0 1 0 0
          0 0 0 0 0 0
          0 0 0 0 0 0
          0 0 0 0 0 0
          0 0 0 0 0 0
          0 0 0 0 0 0
          0 0 0 0 0 0
          0 0 0 0 0 0
          0 0 0 0 0 0
          0 0 0 0 0 0
          0 0 0 0 0 0
          0 0 0 0 0 0
          0 0 0 0 0 0
          0 0 0 0 0 0
          0 0 0 0 0 0
          0 0 0 0 0 0
          0 0 0 0 0 0
          0 0 0 0 0 0
          0 0 0 0 0 0
          0 0 0 2 1.75 1
          0 0 2 1.75 0 0.5
          0.25 0 0.75 0 0 0
          0 0 0 0 0 0
          0 0 0 0 0 0
          0 0 0 0 0 0
          0 0 0 0 0 0
          0 0 0 0 0 0
          0 0 0 0 0 0
          0 1 1 0 1 1
          0 1 1 2 2 2
          2 0 0 0.5 0.5 0
          0 0 0 0.5 0 1.5
          1.5 1.3333333333333333 1.6666666666666667 0 0.75 0
          0.5 0 0.5 0 1.75 1.6666666666666667
          2 2 2 2 1.5 1.75
          1 1 1.5 1.5 0 1
          1 1 1.5 1 2 0
          0 0.5 0.5 0 0 0
          0 0.5 0 1.5 1.5 0.6666666666666666
          1.3333333333333333 0.5 1 0 0.5 0
          0.5 0 1.6666666666666667 2 2 2
          2 2 1.5 1.5 1.75 1.3333333333333333
          2 1.75 1 1.5 0 1
          0.5 1 0.5 0 0 0.5
          0.5 0 0 0 0 0.5
          0 0.5 0.75 0 0 0.25
          0 0 0 0 0 0
          0 0 0 0 0 0
          0 0 0 0 0 0
          0 0 0 0 0 0
          0 0 0 0 0 0
          0 0 0 0 0 0
          0 0 0 0 0 0
          0 0 0 0 0 0
          0 0 0 0 0 0
          0 0 0 0 0 0
          0 0 0 0 0 0
          0 0 0 0 0 0
          0 0 0 0 0 0.25
          0 0 0 0 0 0
          0 0 0 0 0 0
          0 0 0 0 0 0.5
          0.25 0 0 0 0 0.75
          0 0 0 1.75 0 0.5
          0 0 1.75 0 0.25 0
          0 0.25 0 0 0 0
          0 0 0 0 0 0
          0 1 1.5 1.5 1.25 2
          2 2 0 1 0.6666666666666666 2
          1.6666666666666667 1.5 2 2 2 2
          2 2 2 2 2 2
          2 2 2 2 2 2
          2 2 2 2 2 2
          2 1.75 2 1 1.5 1.3333333333333333
          2 2 2 2 2 2
          1.75 1.6666666666666667 2 2 2 2
          2 2 2 2 2 2
          2 2 2 2 2 2
          2 2 2 2 2 1.6666666666666667
          1.5 1 1 0 1 1
          1.25 0 0.5 1.25 1.75 1
          0.5 0 0
        </DataArray>
        <DataArray type="Float64" Name="markers_norefine" format="ascii" RangeMin="0" RangeMax="0">
          0 0 0 0 0 0
          0 0 0 0 0 0
          0 0 0 0 0 0
          0 0 0 0 0 0
          0 0 0 0 0 0
          0 0 0 0 0 0
          0 0 0 0 0 0
          0 0 0 0 0 0
          0 0 0 0 0 0
          0 0 0 0 0 0
          0 0 0 0 0 0
          0 0 0 0 0 0
          0 0 0 0 0 0
          0 0 0 0 0 0
          0 0 0 0 0 0
          0 0 0 0 0 0
          0 0 0 0 0 0
          0 0 0 0 0 0
          0 0 0 0 0 0
          0 0 0 0 0 0
          0 0 0 0 0 0
          0 0 0 0 0 0
          0 0 0 0 0 0
          0 0 0 0 0 0
          0 0 0 0 0 0
          0 0 0 0 0 0
          0 0 0 0 0 0
          0 0 0 0 0 0
          0 0 0 0 0 0
          0 0 0 0 0 0
          0 0 0 0 0 0
          0 0 0 0 0 0
          0 0 0 0 0 0
          0 0 0 0 0 0
          0 0 0 0 0 0
          0 0 0 0 0 0
          0 0 0 0 0 0
          0 0 0 0 0 0
          0 0 0 0 0 0
          0 0 0 0 0 0
          0 0 0 0 0 0
          0 0 0 0 0 0
          0 0 0 0 0 0
          0 0 0 0 0 0
          0 0 0 0 0 0
          0 0 0 0 0 0
          0 0 0 0 0 0
          0 0 0 0 0 0
          0 0 0 0 0 0
          0 0 0 0 0 0
          0 0 0 0 0 0
          0 0 0 0 0 0
          0 0 0 0 0 0
          0 0 0 0 0 0
          0 0 0 0 0 0
          0 0 0 0 0 0
          0 0 0 0 0 0
          0 0 0 0 0 0
          0 0 0 0 0 0
          0 0 0 0 0 0
          0 0 0 0 0 0
          0 0 0 0 0 0
          0 0 0 0 0 0
          0 0 0 0 0 0
          0 0 0 0 0 0
          0 0 0 0 0 0
          0 0 0 0 0 0
          0 0 0 0 0 0
          0 0 0 0 0 0
          0 0 0 0 0 0
          0 0 0 0 0 0
          0 0 0 0 0 0
          0 0 0 0 0 0
          0 0 0 0 0 0
          0 0 0 0 0 0
          0 0 0 0 0 0
          0 0 0 0 0 0
          0 0 0 0 0 0
          0 0 0 0 0 0
          0 0 0 0 0 0
          0 0 0 0 0 0
          0 0 0 0 0 0
          0 0 0 0 0 0
          0 0 0 0 0 0
          0 0 0 0 0 0
          0 0 0 0 0 0
          0 0 0 0 0 0
          0 0 0 0 0 0
          0 0 0 0 0 0
          0 0 0 0 0 0
          0 0 0 0 0 0
          0 0 0 0 0 0
          0 0 0 0 0 0
          0 0 0 0 0 0
          0 0 0 0 0 0
          0 0 0 0 0 0
          0 0 0 0 0 0
          0 0 0 0 0 0
          0 0 0 0 0 0
          0 0 0 0 0 0
          0 0 0 0 0 0
          0 0 0 0 0 0
          0 0 0 0 0 0
          0 0 0
        </DataArray>
        <DataArray type="Float64" Name="markers_mustrefine" format="ascii" RangeMin="0" RangeMax="2">
          0 0 0 0 0 0
          0 0 0 0 0 0
          0 0 0 0 0 0
          0 0 0 0 0 0
          0 0 0 0 0 0
          0 0 0 0 0 0
          0 0 0 0 0 0
          0 0 0 0 0 0
          0 0 0 0 0 0
          0 0 0 0 0 0
          0 0 0 0 0 0
          0 0 0 0 0 0
          0 0 0 0 0 0
          0 0 0 0 0 0
          0 0 0 0 0 0
          0 0 0 0 0 0
          0 0 0 0 0 0
          0 0 0 0 0 0
          0 0 0 0 0 0
          0 0 0 0 0 0
          0 0 0 0 0 0
          0 0 0 0 0 0
          0 0 0 1 0 0
          0 0 0 0 0 0
          0 0 0 0 0 0
          0 0 0 0 0 0
          0 0 0 0 0 0
          0 0 0 0 0 0
          0 0 0 0 0 0