<?xml version="1.0"?>
<VTKFile type="UnstructuredGrid" version="0.1" byte_order="LittleEndian" header_type="UInt32" compressor="vtkZLibDataCompressor">
  <UnstructuredGrid>
    <Piece NumberOfPoints="719" NumberOfCells="400">
      <PointData>
        <DataArray type="Int32" Name="libmesh_node_id" format="ascii" RangeMin="566" RangeMax="6442">
          566 567 620 621 622 695
          696 698 699 700 701 702
          703 704 707 708 723 724
          725 726 728 729 731 733
          734 735 736 835 840 841
          842 843 844 845 846 847
          848 849 850 851 852 853
          870 871 873 874 913 915
          919 920 1004 1009 1012 1013
          1016 1018 1020 1021 1022 1023
          1024 1025 1026 1027 1028 1029
          1044 1045 1046 1047 1048 1049
          1050 1051 1052 1053 1054 1055
          1056 1057 1427 1429 1430 1431
          1432 1433 1436 1437 1438 1439
          1441 1442 1443 1444 1445 1446
          1447 1448 1449 1450 1451 1452
          1453 1454 1455 1457 1458 1459
          1461 1463 1535 1536 1537 1538
          1539 1540 1541 1542 1543 1544
          1698 1699 1702 1703 1704 1705
          1707 1708 1709 1710 1712 1713
          1714 1715 1716 1717 1718 1719
          1720 1721 1722 1723 1724 1725
          1726 1727 1728 1729 1730 1731
          1732 1747 1748 1749 1750 1751
          1752 1753 1754 1755 1756 1757
          1758 1759 1760 2553 2554 2555
          2558 2561 2563 2564 2565 2566
          2567 2568 2569 2570 2571 2572
          2573 2574 2575 2576 2587 2588
          2589 2590 2591 2592 2593 2594
          2595 2599 2600 2602 2605 2607
          2608 2609 2610 2611 2612 2613
          2614 2615 2616 2624 2625 2627
          2628 2629 2631 2632 2633 2634
          2635 2636 2637 2638 2639 2640
          2641 2642 2643 2644 2645 2646
          2647 2648 2649 2650 2651 2652
          2653 2654 2655 2656 2657 2658
          2659 2660 2661 2662 2663 2664
          2665 2666 2667 2668 2669 2670
          2671 2672 2673 2674 2675 2676
          2677 2678 2713 2714 2715 2716
          2717 2718 2719 2849 2850 2851
          2852 2853 2854 2855 2856 2857
          2858 2859 2860 2861 2862 2863
          2864 2865 2875 2876 2879 2881
          2931 2932 2933 2936 2937 2938
          2939 2940 2941 2942 2943 2944
          2945 2946 5853 5854 5857 5858
          5859 5860 5862 5865 5877 5879
          5880 5881 5883 5885 5899 5900
          5902 5905 5915 5917 5919 5921
          5922 5923 5924 5925 5926 5927
          5928 5929 5930 5931 5932 5933
          5934 5935 5936 5937 5938 5939
          5940 5941 5942 5943 5944 5945
          5946 5947 5948 5949 5950 5951
          5952 5953 5954 5955 5956 5957
          5958 5959 5960 5961 5962 5963
          5964 5965 5966 5967 5968 6011
          6012 6015 6017 6019 6020 6021
          6022 6023 6024 6025 6026 6027
          6028 6041 6042 6044 6047 6057
          6059 6061 6075 6076 6078 6081
          6091 6093 6095 6097 6098 6099
          6100 6101 6102 6103 6104 6105
          6106 6107 6108 6109 6110 6111
          6112 6113 6114 6115 6116 6117
          6118 6119 6120 6121 6122 6123
          6124 6125 6126 6127 6128 6129
          6130 6131 6132 6133 6134 6135
          6136 6137 6138 6139 6140 6141
          6142 6143 6144 6145 6146 6147
          6148 6149 6150 6151 6152 6153
          6154 6155 6156 6157 6158 6159
          6160 6161 6162 6163 6164 6222
          6224 6226 6228 6229 6230 6231
          6232 6233 6234 6253 6256 6258
          6260 6262 6263 6264 6265 6266
          6267 6268 6277 6279 6281 6283
          6284 6285 6286 6287 6288 6289
          6290 6291 6292 6293 6294 6295
          6296 6297 6298 6299 6300 6301
          6302 6303 6304 6305 6306 6307
          6308 6309 6310 6311 6312 6313
          6314 6315 6316 6317 6318 6319
          6320 6321 6322 6323 6324 6325
          6326 6327 6328 6329 6330 6331
          6332 6333 6334 6335 6336 6337
          6338 6339 6340 6341 6342 6343
          6344 6345 6346 6347 6348 6349
          6350 6351 6352 6353 6354 6355
          6356 6357 6358 6359 6360 6361
          6362 6363 6364 6365 6366 6367
          6368 6369 6370 6371 6372 6373
          6374 6375 6376 6377 6378 6379
          6380 6381 6382 6383 6384 6385
          6386 6387 6388 6389 6390 6391
          6392 6393 6394 6395 6396 6397
          6398 6399 6400 6401 6402 6403
          6404 6405 6406 6407 6408 6409
          6410 6411 6412 6413 6414 6415
          6416 6417 6418 6419 6420 6421
          6422 6423 6424 6425 6426 6427
          6428 6429 6430 6431 6432 6433
          6434 6435 6436 6437 6438 6439
          6440 6441 6442 1005 1006 697
          830 1683 1684 1706 1685 1711
          1688 1428 1434 2927 2928 2929
          2930 2934 2935 2549 2550 2556
          5843 5844 5855 5856 5845 5861
          5848 5863 5864 5866 5869 5878
          5870 5882 5873 5884 5886 5897
          5898 5901 5903 5904 5906 5914
          5916 5918 5920 6039 6040 6043
          6045 6046 6048 6056 6058 6060
          6062 6073 6074 6077 6079 6080
          6082 6090 6092 6094 6096
        </DataArray>
        <DataArray type="Float64" Name="bounds" format="ascii" RangeMin="0" RangeMax="0">
          0 0 0 0 0 0
          0 0 0 0 0 0
          0 0 0 0 0 0
          0 0 0 0 0 0
          0 0 0 0 0 0
          0 0 0 0 0 0
          0 0 0 0 0 0
          0 0 0 0 0 0
          0 0 0 0 0 0
          0 0 0 0 0 0
          0 0 0 0 0 0
          0 0 0 0 0 0
          0 0 0 0 0 0
          0 0 0 0 0 0
          0 0 0 0 0 0
          0 0 0 0 0 0
          0 0 0 0 0 0
          0 0 0 0 0 0
          0 0 0 0 0 0
          0 0 0 0 0 0
          0 0 0 0 0 0
          0 0 0 0 0 0
          0 0 0 0 0 0
          0 0 0 0 0 0
          0 0 0 0 0 0
          0 0 0 0 0 0
          0 0 0 0 0 0
          0 0 0 0 0 0
          0 0 0 0 0 0
          0 0 0 0 0 0
          0 0 0 0 0 0
          0 0 0 0 0 0
          0 0 0 0 0 0
          0 0 0 0 0 0
          0 0 0 0 0 0
          0 0 0 0 0 0
          0 0 0 0 0 0
          0 0 0 0 0 0
          0 0 0 0 0 0
          0 0 0 0 0 0
          0 0 0 0 0 0
          0 0 0 0 0 0
          0 0 0 0 0 0
          0 0 0 0 0 0
          0 0 0 0 0 0
          0 0 0 0 0 0
          0 0 0 0 0 0
          0 0 0 0 0 0
          0 0 0 0 0 0
          0 0 0 0 0 0
          0 0 0 0 0 0
          0 0 0 0 0 0
          0 0 0 0 0 0
          0 0 0 0 0 0
          0 0 0 0 0 0
          0 0 0 0 0 0
          0 0 0 0 0 0
          0 0 0 0 0 0
          0 0 0 0 0 0
          0 0 0 0 0 0
          0 0 0 0 0 0
          0 0 0 0 0 0
          0 0 0 0 0 0
          0 0 0 0 0 0
          0 0 0 0 0 0
          0 0 0 0 0 0
          0 0 0 0 0 0
          0 0 0 0 0 0
          0 0 0 0 0 0
          0 0 0 0 0 0
          0 0 0 0 0 0
          0 0 0 0 0 0
          0 0 0 0 0 0
          0 0 0 0 0 0
          0 0 0 0 0 0
          0 0 0 0 0 0
          0 0 0 0 0 0
          0 0 0 0 0 0
          0 0 0 0 0 0
          0 0 0 0 0 0
          0 0 0 0 0 0
          0 0 0 0 0 0
          0 0 0 0 0 0
          0 0 0 0 0 0
          0 0 0 0 0 0
          0 0 0 0 0 0
          0 0 0 0 0 0
          0 0 0 0 0 0
          0 0 0 0 0 0
          0 0 0 0 0 0
          0 0 0 0 0 0
          0 0 0 0 0 0
          0 0 0 0 0 0
          0 0 0 0 0 0
          0 0 0 0 0 0
          0 0 0 0 0 0
          0 0 0 0 0 0
          0 0 0 0 0 0
          0 0 0 0 0 0
          0 0 0 0 0 0
          0 0 0 0 0 0
          0 0 0 0 0 0
          0 0 0 0 0 0
          0 0 0 0 0 0
          0 0 0 0 0 0
          0 0 0 0 0 0
          0 0 0 0 0 0
          0 0 0 0 0 0
          0 0 0 0 0 0
          0 0 0 0 0 0
          0 0 0 0 0 0
          0 0 0 0 0 0
          0 0 0 0 0 0
          0 0 0 0 0 0
          0 0 0 0 0 0
          0 0 0 0 0 0
          0 0 0 0 0 0
          0 0 0 0 0 0
          0 0 0 0 0 0
          0 0 0 0 0
        </DataArray>
        <DataArray type="Float64" Name="gradient_error" format="ascii" RangeMin="6.386908382405564e-14" RangeMax="1.3337252614284696e-10">
          4.137657797933179e-12 2.082456850584921e-11 6.348282177061342e-13 3.0239160840438496e-12 6.116568111390211e-13 2.1616198245223953e-11
          5.523474408302918e-11 4.3981521545168555e-11 8.847910931731774e-12 7.517009298813131e-13 4.605937489922646e-12 7.008076819453907e-11
          5.181415698810783e-11 8.032523923616667e-12 6.143488875379175e-13 1.798017702993202e-11 1.2904353429139299e-12 1.1093621084254097e-12
          7.133119460057924e-13 8.494898861318454e-13 4.074193103583403e-13 4.4652080198528225e-13 9.606660571567581e-13 1.6761693249828894e-13
          5.667961491089965e-13 2.9926021846642205e-13 9.930432403766262e-13 8.237321015156865e-12 1.370506084215465e-12 2.271411082494144e-12
          1.324136202669048e-12 1.2773945927929832e-12 1.1135985764951542e-12 3.778856391594832e-13 5.213396336923624e-13 3.6107503128821666e-12
          2.051235060419859e-12 1.0860187170383892e-12 9.288992281597609e-12 8.827005146956662e-13 2.4552574556492856e-13 1.271547765273012e-12
          2.1695103165722337e-11 2.505196153338157e-11 5.27273826421889e-12 8.366074961583765e-12 2.16306898251219e-11 7.236723141794839e-12
          1.919572383088608e-11 4.091412842106935e-12 7.89198863157684e-12 1.6681707209584436e-11 1.5572614088216445e-11 9.16259904978239e-12
          6.61134555574185e-12 2.7219337135466973e-12 3.441468808357575e-12 2.3644248839415746e-12 2.123194621533962e-12 1.309312706103264e-12
          2.4714435813037353e-12 1.646786149879548e-12 9.163501972570955e-13 1.2873809595255735e-12 4.95430790672566e-13 8.221287184553606e-13
          1.5128740825985868e-13 1.8944164300104843e-13 1.3061878679881788e-13 1.5864820414678473e-13 1.276751844600284e-13 1.0910002965838164e-13
          1.2056786143106082e-13 2.275958777422382e-13 1.9442903839099318e-13 1.3203569320374002e-13 1.6708826205579745e-13 1.3919480680054121e-13
          1.1346053840209325e-13 1.6126219903974822e-13 2.2722047406794786e-12 1.6708136627926693e-11 7.354109002664038e-12 1.004200553557535e-12
          1.7924408908652677e-12 8.805632433065764e-13 1.0743061736671227e-12 8.188785936793275e-11 3.9105639370900514e-11 4.234404596242402e-12
          4.905846809626351e-13 3.9392888048439883e-13 7.805450533120681e-13 6.084301042071877e-13 3.374765438210995e-13 5.63047983099981e-13
          4.032241709107523e-13 3.522262259037238e-13 3.360930332004473e-13 2.4718109666163283e-13 7.451597146776692e-13 4.582253841014105e-13
          4.1468968585405335e-13 3.790380590333904e-13 1.612883563597144e-12 1.0538972962860696e-12 8.685105122418824e-13 1.3226276300017207e-12
          6.134326264586486e-13 5.523481192046113e-13 9.838058114324629e-13 1.7590906088810158e-12 1.7052468160363514e-12 2.65945023465754e-12
          1.0231613044232738e-12 6.094555441277182e-13 1.4058032783101908e-12 2.534375406329569e-12 3.613653653278728e-12 2.2021510124926637e-12
          2.6452620110942335e-12 3.999792613774025e-12 3.066094951740544e-12 9.882199952510751e-13 8.435140369010698e-13 1.2149765259994106e-12
          3.3695045556762866e-13 9.373358007444174e-13 8.54305261274664e-13 7.984738056708494e-13 7.615789405719129e-13 1.325367059809186e-13
          1.3694144019664085e-13 2.870952707354277e-13 2.542919234325654e-13 8.793506054819499e-14 1.0738115748797707e-13 1.0403075298167818e-13
          1.4134617441236306e-13 2.2148857612970322e-13 1.0068034847537929e-13 3.124082338662054e-13 2.4833387210348217e-13 1.1755278302611715e-13
          1.5494412045172034e-13 1.5166748681111202e-13 1.621789140011044e-13 7.215199669730467e-14 1.8898465788205116e-13 1.9233545787732354e-13
          1.726903411910968e-13 1.677754504687175e-13 1.2796499466004342e-13 3.192071706141235e-13 2.332069736944336e-13 6.386908382405564e-14
          1.3651001433455917e-13 1.0377817369108598e-13 8.815453885136935e-14 1.472067767747437e-13 7.10463330476128e-14 4.706388907595295e-13
          3.384489527288238e-13 1.4368726355811632e-13 2.0625901469811806e-13 1.9676255065290093e-12 3.196954014903307e-12 2.7248773235559027e-12
          2.2554727885012354e-12 1.3585886899203529e-11 2.88056979311369e-12 2.5203203776558327e-12 2.0325917108521622e-12 1.758158315585267e-12
          9.511285899565281e-13 7.338276917246538e-13 6.353952257078877e-13 1.7146840868315713e-12 1.157366153625353e-12 5.330714320822669e-13
          5.690410009921949e-12 4.6299653702367375e-12 1.4600531645977945e-12 2.510151350716011e-12 9.410132023000226e-13 1.1524590786386637e-12
          3.6824813118403447e-13 5.321556430422046e-13 6.127291931348786e-13 1.4924810335001428e-12 5.420679153785368e-13 1.3979624534792178e-12
          7.08562904256426e-13 6.405723704550499e-11 5.178734784824432e-11 2.6944059244343107e-11 6.96744413942856e-11 2.1866775679752145e-11
          1.7645298846603187e-11 6.869065673987283e-12 5.536692310562952e-12 9.15969185924803e-12 2.8709460358464996e-12 2.8829166516321145e-11
          2.426115533556156e-11 7.749750162559854e-12 1.340977388667649e-11 3.0486045033896625e-12 1.069494890608777e-12 8.168550860743538e-13
          4.546129378134745e-12 1.4297069900651356e-12 3.5264885662101016e-13 3.1224464088944954e-13 4.160059010784009e-13 3.5956460064236907e-13
          1.535726095439139e-13 4.771840196493365e-13 4.1413807985214847e-13 2.2000900289984347e-13 3.5545971565500814e-13 2.771247420625946e-13
          6.689912400168724e-13 5.516376328510287e-13 6.165672703816116e-13 5.655232574428464e-13 1.9851346564522817e-12 1.598114094060811e-12
          7.335433129433515e-13 5.991003093716204e-13 9.39425660254081e-13 5.422086869819329e-13 2.7446763847095497e-12 2.273432610313149e-12
          6.122924708970725e-13 1.230519952941975e-12 7.313684288713007e-13 6.16659500353385e-13 5.474143016607989e-13 4.621642993429355e-13
          2.8382138893187457e-13 4.26373094264567e-13 3.6702451045305157e-13 3.8028488563293034e-13 3.6518155323960203e-13 2.417757927519581e-13
          3.870139157260558e-13 3.2717847897833177e-13 4.5022763197422857e-13 3.558880791184151e-13 6.424767760525082e-13 6.770216307629752e-13
          4.620503978668001e-13 5.25309600360389e-13 4.687445312769423e-13 5.046954425379291e-13 3.30133752866103e-13 5.60977049716553e-13
          4.812880855019811e-13 4.4436934233678624e-13 9.492937121483614e-13 1.2265769418438417e-12 8.058926514248071e-13 7.73021033236009e-13
          1.0004478915060885e-12 1.0232090414918936e-12 8.038546883661004e-13 1.4329932978899507e-13 3.0060988376362447e-13 9.978778333065197e-14
          1.6561486904913487e-13 1.1842107893619231e-13 1.9226615059944974e-13 1.2807239402804095e-13 1.932612852735501e-13 2.5702343592489127e-13
          1.0795065079452223e-13 1.367715666518978e-13 1.279033711167087e-13 1.5626517373428986e-13 9.76674744414154e-14 3.2078558657623234e-13
          1.6559248250927335e-13 1.8462697635187105e-13 4.967245714294128e-13 6.607328355966402e-13 2.881355768326395e-13 8.247410997638676e-13
          5.884665871457034e-13 1.1982297265627543e-12 1.1248620094539751e-12 1.0514942923451961e-12 1.884028472413873e-13 2.3576196693386607e-13
          1.2189975203108113e-13 1.2954580173609556e-13 1.2553210868451646e-13 1.414704066117632e-13 9.120402387468465e-14 2.831210866263448e-13
          1.3719185144110999e-13 1.5740870453900991e-13 8.838897840425324e-13 8.48562729569669e-13 7.140489821667758e-13 1.091566305885039e-12
          1.0475302316943174e-12 7.570809076255498e-13 9.301898440907275e-13 2.7671985573735402e-12 6.864076178899896e-13 5.665581399347648e-13
          7.899743663698902e-13 6.718890956256849e-13 7.230632020619211e-13 1.949505062847478e-12 6.540646477803006e-12 6.241146610358977e-12
          5.417283381230141e-12 1.5864478011175928e-11 4.276660558545926e-12 3.0812994465313174e-12 1.0506690900536653e-11 2.0910086419304024e-12
          2.0041001709512122e-12 3.8417159353209974e-12 3.666060995234444e-12 1.134659685487935e-12 2.2113352940395213e-12 2.1100456696570395e-12
          1.7557324179307592e-12 3.1826281208707825e-12 1.833001169127513e-12 9.845776983909008e-12 9.349167973165308e-12 5.4039059348213834e-12
          8.008020398003313e-12 6.693452065140956e-13 6.403186717793601e-13 1.2534136041950744e-12 1.1958246461643602e-12 3.628242198003663e-13
          6.982844134840718e-13 6.660928706343889e-13 5.632692585776354e-13 1.0397893819990347e-12 5.803741084844675e-13 3.2255489451108576e-12
          3.063650827373815e-12 1.7027351456634553e-12 2.625429826775053e-12 1.4057049866696533e-12 2.515280370028448e-12 8.051087448345612e-13
          1.452045626137361e-12 1.0350538828028258e-12 1.8163334036589467e-12 1.050183808032848e-12 6.195174715924048e-12 3.5838280268986374e-12
          4.338460999277523e-12 4.611325763198876e-13 8.245129244970527e-13 2.672400337054551e-13 4.585019864727557e-13 3.5049016362868426e-13
          5.941090667456334e-13 3.734773871855817e-13 2.034164816439601e-12 1.1286498004986666e-12 1.4243225251403325e-12 4.2637137595125787e-13
          6.937795735669436e-13 5.340364903624452e-13 1.588359944845836e-12 2.501343629159417e-13 3.918038754561029e-13 1.913223320588454e-13
          2.8273645643162636e-13 2.0630717110364382e-13 3.030723905506215e-13 2.2535491882907267e-13 9.004045474609276e-13 5.962553397877661e-13
          6.086994698654452e-13 3.732421578971071e-11 3.5344087868616757e-11 3.0010452021101155e-11 6.076330453429237e-11 2.2852567004453902e-11
          1.562499879318376e-11 3.9525469273032164e-11 7.964986676622197e-11 7.61880094146787e-11 6.629825709190929e-11 7.88306306009229e-11
          5.1834771291805963e-11 3.602775037288653e-11 5.544611506460522e-11 2.196887878808584e-11 2.0802696270859714e-11 1.2673987289861773e-11
          1.2001261074255236e-11 1.7662751685606362e-11 1.0190648725438047e-11 3.7820939175769435e-11 3.5865310753030276e-11 2.0731137278606695e-11
          3.0544210320863766e-11 7.16777858341976e-12 6.787598030752123e-12 3.975874128986146e-12 3.765235140969454e-12 5.764142187993181e-12
          3.197783559997815e-12 1.2382801707432189e-11 1.1737425673466873e-11 6.509965568700884e-12 9.986079649001129e-12 1.3451309238645128e-11
          7.764044782755458e-12 9.20023017361084e-12 5.314307674879462e-12 2.3292187327404504e-11 1.3448022959765063e-11 1.586872358650161e-11
          4.396214565219864e-12 2.4410376350649104e-12 3.0142064637540825e-12 1.6739327077212018e-12 7.60800694274992e-12 4.2179750435876985e-12
          5.1801542133118155e-12 4.7470060707760135e-11 4.535836930521408e-11 2.767875317822869e-11 2.642269020338183e-11 3.936712014878698e-11
          2.2880190116812497e-11 4.913686990104666e-11 4.72211955192741e-11 2.766324778224412e-11 4.1564806054863315e-11 1.5793917811460714e-11
          1.5064669088610325e-11 8.821709279085814e-12 8.408062555740699e-12 1.3018809686385216e-11 7.253293818688014e-12 1.654417348655091e-11
          1.5853711857592882e-11 8.890555486160038e-12 1.3859194302624868e-11 3.068683589719449e-11 1.7789439893434636e-11 2.1277211877411048e-11
          1.2310262780599542e-11 3.2926421938409384e-11 1.9142249886492946e-11 2.3138127855000575e-11 1.010028923717077e-11 5.617788714432005e-12
          6.978113276736716e-12 3.876435877895022e-12 1.0896557359076443e-11 6.074166950061156e-12 7.613413973939886e-12 3.2783548859724374e-12
          1.821163194942628e-12 5.58059275154636e-12 1.86286438162137e-12 1.0313927546055446e-12 1.0282391968277484e-12 6.650075496382255e-13
          3.1629838102729625e-12 1.7523636521430619e-12 1.7234743575320698e-12 5.277567201948012e-13 7.558961196634994e-12 4.127286246368351e-12
          8.297914543613105e-12 4.2857134442091956e-12 2.3819999232503604e-12 2.338602822337828e-12 1.2937834936080914e-12 4.703852324189614e-12
          2.614750332146241e-12 2.5736049234676454e-12 6.261003541542884e-13 3.9916743568663333e-13 6.939614904600524e-13 2.187388359981234e-13
          2.0929229724047292e-13 3.769531794065678e-13 3.598621191049508e-13 1.589637680016738e-13 2.602707727498007e-13 2.4888128932819313e-13
          1.8380174960096617e-13 3.14098797085092e-13 2.170905781880841e-13 9.756312394292262e-13 9.268172873711046e-13 5.959218479490343e-13
          7.95519841961055e-13 1.5552922163850445e-13 2.4910575296342423e-13 1.168524016104743e-13 1.757237560793169e-13 1.4330070255789898e-13
          2.127849705599982e-13 1.5475816168905118e-13 6.136959991042068e-13 3.9687929207785527e-13 5.027152069620102e-13 2.166922440798552e-12
          2.052258776546353e-12 1.1541332213593539e-12 1.0930238077562443e-12 1.743007039877227e-12 9.288741933291083e-13 3.731666510353727e-12
          3.5362704458043353e-12 1.8809881619154186e-12 3.005669631080679e-12 3.99926436276616e-13 3.7904776089664317e-13 5.937044401052104e-13
          5.62327182058776e-13 2.64845598084164e-13 3.9817165348230805e-13 3.7735770464504465e-13 3.232292445073231e-13 4.782492205805652e-13
          3.204470605393534e-13 1.033364472149018e-12 9.791215496405656e-13 5.694215480086939e-13 8.311855708034026e-13 1.3297129279999398e-12
          7.047425782105089e-13 9.051691544021708e-13 5.489148154834658e-13 2.292530476515261e-12 1.2142580475461802e-12 1.5587468094569703e-12
          2.5355415316775453e-13 3.6315381051770614e-13 1.7987710708947769e-13 2.4858796626530756e-13 2.1881890283753312e-13 3.0075910388662353e-13
          2.128255672596894e-13 6.26542036076376e-13 3.6451093381894446e-13 4.71974796983544e-13 4.824733330829209e-12 4.595364231047768e-12
          2.585376533128966e-12 2.460824238410669e-12 3.95723451642457e-12 2.1151390547627166e-12 5.103883566504627e-12 4.879502489806792e-12
          2.6212364019067945e-12 4.242500011089343e-12 1.360998954175099e-12 1.294706395401894e-12 6.939075056518687e-13 6.598597017536934e-13
          1.109644389059357e-12 5.640237739091453e-13 1.4427514079859672e-12 1.3767762947435655e-12 7.105219870973085e-13 1.190186833165716e-12
          3.063043053438657e-12 1.6353810750552533e-12 2.112354549900462e-12 1.121943490032019e-12 3.3157412959266025e-12 1.773709828596461e-12
          2.304615598529357e-12 8.55961204552224e-13 4.3161784272101105e-13 5.813061917232452e-13 3.4000315500325365e-13 9.315918048193539e-13
          4.75118697434174e-13 6.459998404390313e-13 3.036241439714772e-13 2.8777701407808083e-13 3.4154928091856183e-13 3.246922447256759e-13
          1.941915811935872e-13 2.2844732523056395e-13 2.1726582691266476e-13 2.4446121830117353e-13 2.77253259728222e-13 1.846199453365894e-13
          3.794744178656464e-13 3.6160747537327097e-13 2.4034007263174233e-13 3.1004530115527045e-13 1.8457665352119187e-13 2.095267221844233e-13
          1.273637708651792e-13 1.4138563470196782e-13 1.5216075462472122e-13 1.7238213344519269e-13 1.1961570732552235e-13 2.3447679084765476e-13
          1.5540749853875646e-13 1.9260351226566415e-13 3.8483181390743794e-13 5.522727255013171e-13 2.7678901062435025e-13 3.843031459094166e-13
          2.9022930612741836e-13 4.0521403073787236e-13 2.891641732003079e-13 9.444117231969086e-13 5.707220894573053e-13 5.872218491692353e-13
          1.2987507832278122e-12 6.85891187314936e-13 7.002817888705326e-13 4.397298442749958e-13 1.4283917571570035e-12 7.616078810411553e-13
          7.798301816613755e-13 3.067569348739941e-13 3.4884764000600064e-13 2.1336489003843103e-13 2.373080363287126e-13 2.2877259415347625e-13
          2.5613036417993385e-13 1.7660667860616294e-13 3.9093834513800725e-13 2.612511826189942e-13 2.8348813420639144e-13 3.009915574168396e-13
          3.385796064532926e-13 2.1828531744426425e-13 2.395383236240244e-13 2.1216936653393814e-13 2.2700030711472324e-13 1.6918987210961976e-13
          3.761676554897456e-13 2.6079132980378456e-13 2.4183124769550834e-13 8.899279994339387e-12 1.2790493601961912e-11 7.918892522715534e-12
          1.007544094154623e-11 3.1752094796572965e-12 2.8111461601442005e-12 1.932948321936164e-12 3.1374606158212875e-12 2.0266365155112306e-12
          4.196672402764696e-12 2.9423829500952816e-12 2.5407297262335235e-12 8.59593405745873e-13 8.874244243321495e-13 2.1403536223576595e-12
          1.915143205054593e-12 9.15255442918426e-13 1.6899327877515274e-12 2.3620122615908962e-12 2.035271201926495e-12 4.09570843629367e-12
          1.254393734970138e-12 2.385770889536422e-12 1.4552494482071114e-12 1.398043566478921e-12 2.2945894321312952e-12 1.2455152642856396e-12
          2.047153563904136e-12 3.986181722569502e-12 3.820991814508096e-12 3.3626410756201275e-12 1.0453202927174974e-12 1.0375803066620536e-12
          1.6974439616553118e-12 9.249677695035583e-13 1.5039887702285195e-12 2.6925091731751957e-12 2.3417292158544402e-12 1.0848979265387364e-11
          1.0350219671613628e-11 8.984493091344091e-12 2.7818737424334735e-11 2.641358910717957e-11 2.261787852478914e-11 7.0992133430927154e-12
          5.1147925997764364e-12 1.748806003401158e-11 1.2237797437640714e-11 6.214228526485387e-11 5.885031933560062e-11 4.997892660165205e-11
          1.062131605252757e-10 1.007898646597016e-10 8.598531785975228e-11 3.806420640142758e-11 2.6026885010491537e-11 6.57043146953533e-11
          4.48336345744661e-11 1.3069977365717635e-10 1.2517262229064218e-10 1.0925438880792953e-10 1.3337252614284696e-10 1.2864495583632254e-10
          1.14237891702474e-10 8.571916388339573e-11 5.97553712338274e-11 9.138415244618602e-11 6.472766306188617e-11
        </DataArray>
        <DataArray type="Float64" Name="gradient_matprop_error" format="ascii" RangeMin="0" RangeMax="0">
          0 0 0 0 0 0
          0 0 0 0 0 0
          0 0 0 0 0 0
          0 0 0 0 0 0
          0 0 0 0 0 0
          0 0 0 0 0 0
          0 0 0 0 0 0
          0 0 0 0 0 0
          0 0 0 0 0 0
          0 0 0 0 0 0
          0 0 0 0 0 0
          0 0 0 0 0 0
          0 0 0 0 0 0
          0 0 0 0 0 0
          0 0 0 0 0 0
          0 0 0 0 0 0
          0 0 0 0 0 0
          0 0 0 0 0 0
          0 0 0 0 0 0
          0 0 0 0 0 0
          0 0 0 0 0 0
          0 0 0 0 0 0
          0 0 0 0 0 0
          0 0 0 0 0 0
          0 0 0 0 0 0
          0 0 0 0 0 0
          0 0 0 0 0 0
          0 0 0 0 0 0
          0 0 0 0 0 0
          0 0 0 0 0 0
          0 0 0 0 0 0
          0 0 0 0 0 0
          0 0 0 0 0 0
          0 0 0 0 0 0
          0 0 0 0 0 0
          0 0 0 0 0 0
          0 0 0 0 0 0
          0 0 0 0 0 0
          0 0 0 0 0 0
          0 0 0 0 0 0
          0 0 0 0 0 0
          0 0 0 0 0 0
          0 0 0 0 0 0
          0 0 0 0 0 0
          0 0 0 0 0 0
          0 0 0 0 0 0
          0 0 0 0 0 0
          0 0 0 0 0 0
          0 0 0 0 0 0
          0 0 0 0 0 0
          0 0 0 0 0 0
          0 0 0 0 0 0
          0 0 0 0 0 0
          0 0 0 0 0 0
          0 0 0 0 0 0
          0 0 0 0 0 0
          0 0 0 0 0 0
          0 0 0 0 0 0
          0 0 0 0 0 0
          0 0 0 0 0 0
          0 0 0 0 0 0
          0 0 0 0 0 0
          0 0 0 0 0 0
          0 0 0 0 0 0
          0 0 0 0 0 0
          0 0 0 0 0 0
          0 0 0 0 0 0
          0 0 0 0 0 0
          0 0 0 0 0 0
          0 0 0 0 0 0
          0 0 0 0 0 0
          0 0 0 0 0 0
          0 0 0 0 0 0
          0 0 0 0 0 0
          0 0 0 0 0 0
          0 0 0 0 0 0
          0 0 0 0 0 0
          0 0 0 0 0 0
          0 0 0 0 0 0
          0 0 0 0 0 0
          0 0 0 0 0 0
          0 0 0 0 0 0
          0 0 0 0 0 0
          0 0 0 0 0 0
          0 0 0 0 0 0
          0 0 0 0 0 0
          0 0 0 0 0 0
          0 0 0 0 0 0
          0 0 0 0 0 0
          0 0 0 0 0 0
          0 0 0 0 0 0
          0 0 0 0 0 0
          0 0 0 0 0 0
          0 0 0 0 0 0
          0 0 0 0 0 0
          0 0 0 0 0 0
          0 0 0 0 0 0
          0 0 0 0 0 0
          0 0 0 0 0 0
          0 0 0 0 0 0
          0 0 0 0 0 0
          0 0 0 0 0 0
          0 0 0 0 0 0
          0 0 0 0 0 0
          0 0 0 0 0 0
          0 0 0 0 0 0
          0 0 0 0 0 0
          0 0 0 0 0 0
          0 0 0 0 0 0
          0 0 0 0 0 0
          0 0 0 0 0 0
          0 0 0 0 0 0
          0 0 0 0 0 0
          0 0 0 0 0 0
          0 0 0 0 0 0
          0 0 0 0 0 0
          0 0 0 0 0 0
          0 0 0 0 0 0
          0 0 0 0 0 0
          0 0 0 0 0
        </DataArray>
        <DataArray type="Float64" Name="initial_marker" format="ascii" RangeMin="0" RangeMax="2">
          0 0 0 0 0 0
          0 0 0 0 0 0
          0 0 0 0 0 0
          0 0 0 0 0 0
          0 0 0 0 0 0
          0 0 0 0 0 0
          0 0 2 0 0 0
          0 0 0 0 0 0
          0 0 0 0 0 0
          0 0 0 0 0 0
          0 0 0 0 0 0
          0 0 0 0 0 0
          0 0 0 0 0 0
          0 0 0 2 2 0
          2 1.25 0 2 2 2
          0 0 0 0 0 0
          0 0 0 0 2 0.5
          0 0 0 0 0 0
          0 0 0 0 0 0
          0 0 0 0 0 0
          0 0 0 0 0 0
          0 0 0 0 0 0
          0 0 0 0 0 0
          0 0 0 0 0 0
          0 0 0 0 0 0
          0 0 0 0 0 0
          0 0 0 0 0 0
          0 0 0 0 1 1
          0.75 2 0 0 1 0.75
          0 0 0 0 0 0
          2 2 2 2 0 0
          0 0 0 0 0 1
          0.25 2 2 2 2 2
          2 2 2 2 2 2
          2 2 2 2 1.5 0
          2 2 0 0 0 0
          0 0 0 0 0 0
          1 1 0 0.25 2 2
          1.5 1.25 1.75 0.25 2 2
          2 2 0 0 0 0
          0 0 0 0 0 0
          0 0 0 0 0 0.25
          0 0 0 0 0 0.5
          0 0 0 0 0 0
          0 0 0 0 0 0
          0 0 0 0 0 0
          0 0 0 0 0 0
          0 0 0 0 0 0
          0 0 0 0 0 0
          0 0 0 0 0 0
          0 0 0 0 0 0
          0 0 0 1.3333333333333333 0 0
          0 0 0 1.3333333333333333 2 2
          2 2 2 1.75 2 2
          2 2 2 2 2 2
          2 2 1.75 2 2 2
          2 1 1 1.5 1.5 0
          1 1 0.5 1.25 1 2
          2 2 2 1.5 1.75 0.5
          1.25 0.5 1.25 1 2 2
          2 0 1 0 0.75 0
          0.75 0.3333333333333333 2 1.75 1.75 0
          0.75 0.5 1.75 0 0.25 0
          0 0 0 0 1.25 1
          0.6666666666666666 2 2 2 2 2
          2 2 2 2 2 2
          2 2 2 2 2 2
          2 2 2 2 2 2
          2 2 2 2 2 2
          2 2 2 2 2 2
          2 2 2 2 2 2
          2 2 2 2 2 2
          2 2 2 2 2 2
          2 2 2 2 2 2
          2 2 2 2 2 2
          2 2 2 2 2 2