<?xml version="1.0"?>
<VTKFile type="UnstructuredGrid" version="0.1" byte_order="LittleEndian" header_type="UInt32" compressor="vtkZLibDataCompressor">
  <UnstructuredGrid>
    <Piece NumberOfPoints="683" NumberOfCells="407">
      <PointData>
        <DataArray type="Int32" Name="libmesh_node_id" format="ascii" RangeMin="683" RangeMax="4195">
          691 803 810 822 1259 1273
          1274 1275 1276 1279 1280 1291
          1292 1295 1296 1298 1300 1311
          1312 1329 1330 1331 1332 1335
          1336 1337 1913 1914 1915 1916
          2006 2007 2009 2012 2016 2017
          2020 2022 2024 2025 2026 2027
          2028 2029 2030 2031 2032 2033
          2046 2047 2049 2052 2055 2057
          2059 2061 2062 2063 2064 2065
          2066 2067 2068 2069 2070 2071
          2076 2077 2079 2108 2109 2110
          2111 2112 2113 2114 2115 2116
          2117 2118 2119 2122 2124 2125
          2126 2127 2128 2129 2130 2131
          2132 2133 2134 2135 2136 2137
          2138 2139 2142 2143 2145 2146
          2147 2148 2149 2150 2151 2152
          2153 2154 2155 2156 2157 2158
          2159 2160 2161 2162 2163 2164
          2165 2166 2167 2168 2169 2170
          2171 2172 2173 2174 2175 2176
          2177 2179 2180 2181 2188 2222
          2223 2228 2229 3388 3389 3390
          3391 3395 3396 3397 3398 3399
          3400 3401 3402 3403 3404 3483
          3484 3485 3486 3487 3488 3489
          3490 3491 3492 3500 3501 3502
          3503 3504 3505 3506 3517 3518
          3519 3520 3521 3522 3523 3524
          3525 3526 3534 3535 3536 3537
          3538 3539 3540 3544 3545 3546
          3547 3548 3556 3557 3558 3559
          3560 3561 3562 3563 3564 3565
          3566 3567 3568 3569 3570 3571
          3572 3573 3574 3575 3576 3577
          3578 3579 3580 3581 3582 3583
          3584 3585 3586 3587 3588 3589
          3590 3648 3649 3650 3651 3652
          3653 3654 3655 3656 3657 3658
          3659 3660 3661 3662 3663 3664
          3665 3666 3667 3668 3669 3670
          3671 3672 3673 3674 3675 3676
          3677 3678 3679 3680 3681 3682
          3683 3684 3685 3686 3687 3688
          3689 3690 3691 3692 3693 3694
          3695 3696 3697 3698 3699 3700
          3701 3702 3703 3704 3705 3706
          3707 3708 3709 3710 3711 3712
          3713 3714 3715 3716 3717 3718
          3719 3720 3721 3722 3723 3724
          3725 3726 3727 3728 3729 3730
          3731 3732 3733 3734 3735 3736
          3737 3738 3739 3740 3741 3742
          3743 3744 3745 3746 3747 3748
          3749 3750 3751 3752 3753 3754
          3755 3756 3757 3758 3759 3760
          3761 3762 3763 3764 3765 3766
          3767 3768 3769 3770 3771 3772
          3773 3774 3775 3776 3777 3778
          3779 3780 3781 3782 3783 3784
          3785 3786 3787 3788 3789 3790
          3791 3792 3793 3794 3795 3796
          3797 3798 3799 3800 3801 3802
          3803 3804 3805 3806 3807 3808
          3809 3810 3811 3812 3813 3814
          3815 3816 3817 3818 3819 3820
          3821 3822 3823 3824 3825 3826
          3827 3828 3829 3830 3831 3832
          3833 3834 3835 3836 3837 3838
          3839 3840 3841 3842 3843 3844
          3845 3846 3847 3848 3849 3850
          3851 3852 3853 3854 3855 3856
          3857 3858 3859 3860 3861 3862
          3863 3864 3865 3873 3874 3875
          3876 3880 3881 3883 3884 3886
          4042 4043 4044 4045 4046 4047
          4048 4049 4050 4051 4052 4053
          4056 4058 4059 4061 4062 4064
          4066 4068 4076 4077 4078 4079
          4080 4081 4082 4083 4084 4085
          4086 4087 4090 4092 4093 4095
          4096 4098 4100 4102 4178 4180
          4189 4191 4193 4195 799 802
          684 805 801 804 807 806
          983 981 811 692 988 987
          1247 683 1251 1248 1249 1252
          1253 1250 1254 1256 1255 1257
          1258 1260 1283 1266 1284 1293
          1294 1287 1297 809 1289 1299
          1303 1304 1306 1307 814 1313
          1309 1314 1310 815 1349 1333
          1350 1338 1356 1911 1996 2004
          2005 1997 2008 1999 2010 2011
          2013 1912 2014 1998 2015 2018
          2019 2003 1272 2021 2023 2038
          2039 2054 2056 2058 2060 2078
          2120 2121 2123 2140 2141 2144
          1334 2178 823 2182 2183 2189
          2184 2185 1339 2190 2186 2191
          2203 2209 2207 2211 2226 2242
          2244 2246 2248 3386 3475 3476
          3478 2044 3481 2045 3393 3494
          3496 3498 2048 3509 3510 3512
          2050 3515 2051 3528 3530 3532
          2053 3438 3542 3462 3468 3550
          3469 3552 2043 3472 3554 1278
          3394 3435 3495 3499 3529 3533
          3882 4054 4055 4057 2224 4060
          2225 3885 4063 4065 4067 3889
          4069 3890 4070 4073 4074 4088
          4089 4091 1345 4094 2230 4097
          4099 4101 2231 4103 4104 4107
          4108 4179 4190 4192 4194
        </DataArray>
        <DataArray type="Float64" Name="bounds" format="ascii" RangeMin="0" RangeMax="0">
          0 0 0 0 0 0
          0 0 0 0 0 0
          0 0 0 0 0 0
          0 0 0 0 0 0
          0 0 0 0 0 0
          0 0 0 0 0 0
          0 0 0 0 0 0
          0 0 0 0 0 0
          0 0 0 0 0 0
          0 0 0 0 0 0
          0 0 0 0 0 0
          0 0 0 0 0 0
          0 0 0 0 0 0
          0 0 0 0 0 0
          0 0 0 0 0 0
          0 0 0 0 0 0
          0 0 0 0 0 0
          0 0 0 0 0 0
          0 0 0 0 0 0
          0 0 0 0 0 0
          0 0 0 0 0 0
          0 0 0 0 0 0
          0 0 0 0 0 0
          0 0 0 0 0 0
          0 0 0 0 0 0
          0 0 0 0 0 0
          0 0 0 0 0 0
          0 0 0 0 0 0
          0 0 0 0 0 0
          0 0 0 0 0 0
          0 0 0 0 0 0
          0 0 0 0 0 0
          0 0 0 0 0 0
          0 0 0 0 0 0
          0 0 0 0 0 0
          0 0 0 0 0 0
          0 0 0 0 0 0
          0 0 0 0 0 0
          0 0 0 0 0 0
          0 0 0 0 0 0
          0 0 0 0 0 0
          0 0 0 0 0 0
          0 0 0 0 0 0
          0 0 0 0 0 0
          0 0 0 0 0 0
          0 0 0 0 0 0
          0 0 0 0 0 0
          0 0 0 0 0 0
          0 0 0 0 0 0
          0 0 0 0 0 0
          0 0 0 0 0 0
          0 0 0 0 0 0
          0 0 0 0 0 0
          0 0 0 0 0 0
          0 0 0 0 0 0
          0 0 0 0 0 0
          0 0 0 0 0 0
          0 0 0 0 0 0
          0 0 0 0 0 0
          0 0 0 0 0 0
          0 0 0 0 0 0
          0 0 0 0 0 0
          0 0 0 0 0 0
          0 0 0 0 0 0
          0 0 0 0 0 0
          0 0 0 0 0 0
          0 0 0 0 0 0
          0 0 0 0 0 0
          0 0 0 0 0 0
          0 0 0 0 0 0
          0 0 0 0 0 0
          0 0 0 0 0 0
          0 0 0 0 0 0
          0 0 0 0 0 0
          0 0 0 0 0 0
          0 0 0 0 0 0
          0 0 0 0 0 0
          0 0 0 0 0 0
          0 0 0 0 0 0
          0 0 0 0 0 0
          0 0 0 0 0 0
          0 0 0 0 0 0
          0 0 0 0 0 0
          0 0 0 0 0 0
          0 0 0 0 0 0
          0 0 0 0 0 0
          0 0 0 0 0 0
          0 0 0 0 0 0
          0 0 0 0 0 0
          0 0 0 0 0 0
          0 0 0 0 0 0
          0 0 0 0 0 0
          0 0 0 0 0 0
          0 0 0 0 0 0
          0 0 0 0 0 0
          0 0 0 0 0 0
          0 0 0 0 0 0
          0 0 0 0 0 0
          0 0 0 0 0 0
          0 0 0 0 0 0
          0 0 0 0 0 0
          0 0 0 0 0 0
          0 0 0 0 0 0
          0 0 0 0 0 0
          0 0 0 0 0 0
          0 0 0 0 0 0
          0 0 0 0 0 0
          0 0 0 0 0 0
          0 0 0 0 0 0
          0 0 0 0 0 0
          0 0 0 0 0 0
          0 0 0 0 0 0
          0 0 0 0 0 0
          0 0 0 0 0
        </DataArray>
        <DataArray type="Float64" Name="gradient_error" format="ascii" RangeMin="2.0372711696993703e-9" RangeMax="1.326322059974973e-7">
          5.106692955320071e-9 6.958700191356028e-8 1.2125867673008046e-7 6.52024108793057e-9 5.3472329760156966e-8 5.20050303071059e-8
          4.0793716793047584e-8 9.742340947887458e-8 8.685475594179123e-8 9.874727875132353e-9 1.2977403407261433e-7 6.13966534398263e-8
          8.486706716054257e-8 1.872168167378416e-8 2.1314052877917507e-8 1.0833748088125884e-7 2.3906424082050853e-8 5.25043168492931e-8
          3.942651433816791e-8 5.5540181697542e-8 5.0533595024716e-8 5.257243495555076e-8 5.466878425737305e-8 5.896416669241219e-9
          1.271404253197284e-8 1.4914182643390162e-8 4.976248748868065e-8 4.6286858125087586e-8 4.405426659354872e-8 3.702836044595171e-8
          7.009562760657613e-8 6.531674366307907e-8 5.216936669052525e-8 4.936788587424153e-8 2.7974252623012155e-8 3.774392438533153e-8
          2.9799083365308883e-8 4.8100879541957395e-8 2.619754028068048e-8 3.668566027831317e-8 2.399757241484235e-8 3.498847009427285e-8
          2.1149588430952068e-8 2.8229149399642865e-8 2.6176066527077184e-8 4.0201041464665116e-8 3.967383692930624e-8 4.627554996415966e-8
          1.0547195861722946e-8 1.0626116763962434e-8 1.1246431839448027e-8 8.02554910940601e-9 4.371121083419018e-8 6.150264114901206e-8
          3.859425366455811e-8 3.708222913784006e-8 3.794511427242209e-8 6.342622132569432e-8 6.434268960006354e-8 4.055366850254407e-8
          4.203361094837758e-8 6.961005309140296e-8 4.438027905258106e-8 4.086166442986657e-8 3.670360442400913e-8 3.1741648206990475e-8
          3.470048503762086e-8 3.1746533794553274e-8 2.4138949701592373e-8 6.989524904945702e-8 6.464089276813106e-8 6.792174529358e-8
          6.235355476240439e-8 5.044601000846653e-8 4.752927854548874e-8 5.434783455782297e-8 5.107437531312583e-8 5.1584028692140125e-8
          4.096860164373471e-8 6.407539043170267e-8 5.8342714831377307e-8 4.3476378926767116e-8 5.5076304385037945e-8 5.0652863725861036e-8
          4.7884293355950056e-8 5.8789164600749407e-8 2.1399932536011976e-8 3.2582384875814396e-8 1.855368914850537e-8 2.9581519656965946e-8
          1.6659618465195083e-8 2.365928622150083e-8 2.0889846454183193e-8 3.823743434323649e-8 4.665532253114527e-8 4.319385922909801e-8
          1.5583290423014406e-8 2.6216961400048714e-8 1.1681263994329752e-8 1.8091204177615128e-8 5.429203290241037e-8 4.995887968993182e-8
          3.6742354935404516e-8 1.251110972760717e-8 1.2476842864195867e-8 1.44469610399408e-8 1.430641128056158e-8 1.2570229004191325e-8
          2.397560740860921e-8 5.66903234577616e-9 9.344882467368301e-9 1.052685517174634e-8 1.1287383988633023e-8 1.63352707825318e-8
          1.5935500701775116e-8 1.785639128708865e-8 1.7237640737918814e-8 3.48537651846092e-8 3.454247047117112e-8 6.10471358064897e-9
          1.1612454264531026e-8 1.2660451058043939e-8 1.4027518576207513e-8 3.807103138693908e-8 4.777862996382588e-8 6.387550513266096e-8
          6.182375287720879e-8 4.2784442432299064e-8 4.255670394397414e-8 7.202224578493249e-8 5.6300556372777804e-8 5.276318823362406e-8
          5.8345492641396716e-8 4.1132249258392076e-8 3.8462730956046946e-8 6.770741977288491e-8 4.797091652095851e-8 1.8693971931311285e-8
          1.8069640616893652e-8 8.011140342628427e-9 1.3550011343892591e-8 1.0605985606754454e-8 1.0809640899837137e-8 1.1620077663359634e-8
          1.1415798960018172e-8 1.1959846427799155e-8 1.2574423801811865e-8 1.1543031944563298e-8 9.334264348578328e-9 9.555014325986276e-9
          9.924088147308954e-9 8.955462410930083e-9 1.0193300929796653e-8 1.042128505238064e-8 9.401929098948494e-9 1.0527038077718229e-8
          1.0584556637733133e-8 1.1432557107480576e-8 1.1470053489907182e-8 1.0767734335634541e-8 1.157641286072969e-8 9.586724686097164e-9
          9.641334465034987e-9 1.0586561736218733e-8 9.731780406570231e-9 1.1124486069459511e-8 1.1811044443337958e-8 1.136288735798727e-8
          1.18894798803609e-8 9.880510083039661e-9 1.0675138404289008e-8 1.059431867033785e-8 6.735359453484209e-9 7.277198032512858e-9
          7.381290284503774e-9 7.977737919900084e-9 8.35387008846456e-9 9.14075396587258e-9 4.745360083456097e-9 5.631199510584871e-9
          6.102381683817432e-9 7.3638490750395674e-9 9.055613185992304e-9 9.850398765316299e-9 9.604465958567273e-9 1.028143132657443e-8
          8.639331917025157e-9 9.398185806918635e-9 9.203037347870085e-9 9.77229705141288e-9 9.326230934901416e-9 9.206989477606966e-9
          9.827013525740441e-9 9.720660914252268e-9 8.994376014924696e-9 9.427597079994255e-9 9.810221343011207e-9 1.0287638080885171e-8
          8.781762552242425e-9 9.219838748501566e-9 9.899781771770145e-9 9.9724181981612e-9 1.0354084067925382e-8 9.48656387972687e-9
          9.783063136434379e-9 1.024398892582361e-8 1.069236111553258e-8 1.0325457920418022e-8 1.0703459448391233e-8 1.1029190734874024e-8
          1.0036722846205902e-8 1.0256234746576576e-8 1.1173174288182641e-8 1.1658215866154508e-8 1.1151114832601251e-8 9.887836293971344e-9
          1.0382958575722378e-8 1.0791511615168459e-8 1.1310923643785558e-8 9.6775168066316e-9 1.016527490892141e-8 1.094977273802453e-8
          1.0911552644009238e-8 1.145995956519613e-8 1.1836696177480925e-8 1.235053163142723e-8 1.0690374678639e-8 1.1240583815450648e-8
          1.2042679283222656e-8 1.2321134035721032e-8 1.2496036502492426e-8 1.3414685676285829e-8 1.2940072125215984e-8 1.430211729129594e-8
          1.4339369091635783e-8 1.520505944040337e-8 1.4476732904189971e-8 1.3208712916196162e-8 1.3834155794618934e-8 1.2396196106365653e-8
          1.4422475630397702e-8 1.4933862099936738e-8 1.3107357418191413e-8 1.6057646453459224e-8 1.5960014571251315e-8 1.661498912393726e-8
          1.579378923135259e-8 1.7240453507820448e-8 1.7181554254164615e-8 1.7693402008116955e-8 1.6850805359215546e-8 1.533400521406023e-8
          1.562586930850267e-8 1.4942814654458684e-8 1.5774426741826078e-8 1.5709272498770715e-8 1.4969897765729856e-8 1.0610082917453232e-8
          1.075499379179611e-8 9.635994173399332e-9 1.0852487303727107e-8 1.0886772622376804e-8 9.758366115462487e-9 1.2381417603269816e-8
          1.2395242412701544e-8 1.3359667587753176e-8 1.3341004455353044e-8 1.241419244644588e-8 1.3258050340382358e-8 1.1528378062244051e-8
          1.155416377483239e-8 1.2528424427524977e-8 1.1545151241548854e-8 1.4347762818615065e-8 1.4283187447614418e-8 1.5301200438392973e-8
          1.518773839156684e-8 1.4080770759781935e-8 1.4862485920593264e-8 1.3481867596326524e-8 1.3498268971155073e-8 1.4458283695004114e-8
          1.3405485536055694e-8 1.2514647353375397e-8 1.3217542995091806e-8 1.241174327320668e-8 1.2907799204781586e-8 1.1491979328563188e-8
          1.232271061116792e-8 1.1911413847173288e-8 1.3912508799802505e-8 1.4568901534302392e-8 1.3342581495702795e-8 1.3947636933840925e-8
          1.3170784760075572e-8 1.4009436942188359e-8 1.320007597430409e-8 8.023944099254922e-9 8.684238457242434e-9 8.628683347398552e-9
          9.367569633884193e-9 9.947696483520837e-9 1.0755548517425712e-8 5.432833244840344e-9 6.5545976877307515e-9 6.9456136471386845e-9
          8.693403251619741e-9 9.187049483324471e-9 1.0012141792268524e-8 9.725653776504753e-9 1.0630158401489457e-8 1.1541584449682832e-8
          1.2289629087581794e-8 5.803772119930085e-9 7.254751445819944e-9 7.514166755701001e-9 9.957006442628175e-9 1.0666830471466983e-8
          1.149339514654761e-8 1.0984556608111321e-8 1.1699537532489668e-8 1.0170284076362224e-8 1.0942299266324052e-8 1.0573575961923773e-8
          1.231560696844301e-8 1.3105030614891389e-8 1.2414203792917112e-8 1.3121329326070494e-8 1.1692186385942186e-8 1.2395128314074107e-8
          1.2006061210440223e-8 1.617512333693009e-8 1.6018407106320517e-8 1.6951834029202363e-8 1.6755590656645196e-8 1.5588245828589942e-8
          1.6243235632002848e-8 1.541011705485675e-8 1.5392452478562122e-8 1.626648801358908e-8 1.5155840867031943e-8 1.7612136936760017e-8
          1.738386265080393e-8 1.8150029450720118e-8 1.7898318229171012e-8 1.681205174196799e-8 1.7261934798291702e-8 1.7169685773554917e-8
          1.70449536824788e-8 1.769359748276099e-8 1.6636644427576175e-8 1.5127908308742383e-8 1.5588182513066417e-8 1.494101583601583e-8
          1.5249241046215164e-8 1.4763365239382701e-8 1.5433709084563168e-8 1.4430299718262226e-8 1.5951147120420906e-8 1.6169139585840904e-8
          1.5433779121753684e-8 1.5461016582720313e-8 1.605181752748408e-8 1.6585075399258714e-8 1.5452557442534372e-8 1.0267237862460499e-8
          1.124091256388306e-8 1.078695001579962e-8 1.1836460666933889e-8 1.3000984619259552e-8 1.3681907993798154e-8 6.006841835608456e-9
          7.773719812031594e-9 8.036137496042747e-9 1.1072989930282514e-8 1.1277617132504958e-8 1.2409462343544103e-8 1.1843562838332697e-8
          1.3005538541235156e-8 1.432334884430039e-8 1.4899172677615853e-8 6.1996830835996695e-9 8.315188369573853e-9 8.727116567173405e-9
          1.2146706958168863e-8 1.382270950124692e-8 1.4473439643793486e-8 1.3786483559639623e-8 1.4383513801600388e-8 1.3040499927152968e-8
          1.3629956836090798e-8 1.339712605067239e-8 1.5070492262136286e-8 1.5573928526224606e-8 1.4889038073223733e-8 1.5284443051252325e-8
          1.416521696832015e-8 1.4606712926842884e-8 1.4548070221534664e-8 1.132456549427586e-8 1.158162493472107e-8 1.0435621478130673e-8
          1.0588978092250776e-8 1.213172910522274e-8 1.2584770514106475e-8 1.1914236177548302e-8 1.1783438204863484e-8 1.1865666164929714e-8
          1.0763801574976287e-8 1.0862636672654585e-8 1.2992813973484488e-8 1.3423801961387384e-8 1.2630744792384182e-8 1.2011077739311715e-8
          1.2556737102913198e-8 1.2835843053523024e-8 1.3296548319460688e-8 1.1797745339276439e-8 1.2352189255259481e-8 1.307846253481146e-8
          1.3085482488234164e-8 1.3570132998266679e-8 1.3727836529367039e-8 1.4063073425485726e-8 1.2899726135499214e-8 1.3426842908193599e-8
          1.3963420508455802e-8 1.4050737629292018e-8 1.4285727117587908e-8 1.399024939773539e-8 1.4417788885944545e-8 1.4447544558050252e-8
          1.3979041026722975e-8 1.3979256532189306e-8 1.4295250894233503e-8 1.4243582974379716e-8 1.4292508803325053e-8 1.3907775435086592e-8
          1.4304774670879097e-8 1.4496916551024043e-8 1.4497355931844897e-8 1.4579895258769087e-8 1.4252230107497373e-8 1.4107930356388648e-8
          1.4576922977745247e-8 1.4712245959487923e-8 1.4525419188271769e-8 1.8309358389500336e-8 1.8153855003017328e-8 1.8311613076964144e-8
          1.7307876917002e-8 1.841313455335358e-8 1.7935028172436986e-8 1.6369323190578786e-8 1.540218313057264e-8 1.4186964043675603e-8
          1.8558748658657763e-8 1.829074853060826e-8 1.8769561747554815e-8 1.8491912722169008e-8 1.7564411688726456e-8 1.7666683248115055e-8
          1.8352497250868746e-8 1.818894738004792e-8 1.8551165382410532e-8 1.7712672199002644e-8 1.8759834329458352e-8 1.845789635060708e-8
          1.7517671596895462e-8 1.8934555113441565e-8 1.879672013817902e-8 1.8285473972719312e-8 1.6223008837887124e-8 1.5339942700880087e-8
          1.700202407107026e-8 1.6176062315969113e-8 1.2544977253766952e-8 1.3640344181605348e-8 1.3248980072407791e-8 1.4216592382354323e-8
          1.537071762554696e-8 1.5704107058025404e-8 7.193098933611598e-9 9.330435661314056e-9 1.0003066367261455e-8 1.313703731353954e-8
          1.3767564927296e-8 1.4608962659953002e-8 1.5858265310169192e-8 8.772553733272e-9 1.0605249572325145e-8 1.381160267811189e-8
          1.5931397098421516e-8 1.5577595060226897e-8 1.4902580599904113e-8 1.513755732554241e-8 1.4361153531260417e-8 1.3402322621338123e-8
          1.4546643039150536e-8 1.3795166013040137e-8 1.4732132547040655e-8 1.4188009404742151e-8 4.0586490574619833e-8 2.1737801240772118e-8
          1.91408148179323e-8 4.5018540231885606e-8 8.856235159018411e-8 5.6298986179413095e-8 2.1726620350894987e-8 4.15001179718504e-8
          2.0372711696993703e-9 4.4886705046669825e-9 2.3789702408734032e-8 1.0376602175910997e-8 3.108570826808581e-9 7.616257949829019e-9
          8.487501911600523e-9 5.317611088968326e-9 6.265482539357796e-9 1.0450567855713797e-8 6.293519138075418e-8 4.797938507946077e-8
          3.9242305702437074e-8 5.201589191441011e-8 1.2413633799827072e-8 3.0505226325413376e-8 4.109659244806605e-8 8.414977588094071e-8
          6.609670640054553e-8 6.560720661229683e-8 7.214026172009624e-8 1.0341590402567706e-7 9.591441292616038e-8 4.9217805394978516e-8
          7.115815729239221e-8 2.988390508881873e-8 1.3857069722431509e-8 1.326322059974973e-7 1.196885641322245e-7 9.309850918980588e-8
          3.346824222549695e-8 2.707670835415459e-8 1.445180442650853e-8 1.3376444319805775e-8 2.904490201083685e-8 2.2645902022261497e-8
          2.0685174482812233e-8 3.8691184484632784e-8 9.213863338495522e-9 2.0951139739564638e-8 3.659591856910652e-8 7.185285332120652e-8
          5.5770753200301376e-8 1.0613397013591198e-7 7.494558783149623e-8 4.758150142831777e-8 6.643892909735612e-8 6.88012689029519e-8
          6.461062468533527e-8 6.286723638806146e-8 5.278107581235106e-8 5.2492154542060476e-8 4.885051170060881e-8 4.6832274532516995e-8
          3.981241417957952e-8 3.955116886448261e-8 2.9391832980442733e-8 5.148819335711351e-8 3.822072422741901e-8 2.4557576842727516e-8
          3.0929424771206506e-8 5.176095974215865e-8 4.620638763134285e-8 5.482629360208803e-8 4.588300654435828e-8 2.3366094750731617e-8
          1.685408497279922e-8 4.948400883564391e-8 5.8946971148306965e-8 3.6438760183419865e-8 6.342920190758288e-8 1.9462088242018817e-8
          5.82002869509104e-8 5.2538390960589786e-8 3.833962289389091e-8 1.2637899999060816e-8 2.2588650903951145e-8 1.2351734984374582e-8
          4.156731155213159e-8 4.0713103270984036e-8 6.69607042951616e-8 5.03790309299816e-8 4.5194714908651964e-8 4.303484904411653e-8
          2.54763394726496e-8 2.275326058097487e-8 2.8975066034254877e-8 2.5634485357313373e-8 3.2473460042408746e-8 4.857097658030547e-8
          1.8802247088175277e-8 4.424186118801472e-8 9.013335564930934e-9 1.9197089022405833e-8 3.2971215506749396e-8 4.744406420058141e-8
          3.102444242941357e-8 3.464145648736836e-8 3.6425767651273416e-8 1.0074509276943262e-8 9.675911813596144e-9 9.752192039109105e-9
          1.0001982157501879e-8 8.666320841960542e-9 8.73536827607379e-9 8.875878398015554e-9 1.1360191990996237e-8 1.0462073864502156e-8
          1.0836880339019502e-8 9.122678372129354e-9 9.972250469746994e-9 6.109466882908624e-9 6.602508618361143e-9 7.600640234673056e-9
          4.377142625093989e-9 5.164155485849654e-9 6.7233301688677104e-9 8.291877309279545e-9 8.966509005342921e-9 7.902353612308463e-9
          8.571240568822221e-9 8.000587260811796e-9 8.807101289966744e-9 6.8740552415429926e-9 7.321197592950715e-9 8.590469928475476e-9
          7.817035063991876e-9 9.374604217344048e-9 6.511964225588454e-9 6.970839374027745e-9 8.373838566984207e-9 7.463440010179017e-9
          1.0559684152471006e-8 9.886266941000462e-9 1.032544725969891e-8 9.418372433816745e-9 8.368770159222581e-9 7.992005817738483e-9
          1.4369379046267785e-8 1.8512213028928795e-8 1.8171211224413606e-8 1.712052588753606e-8 1.903860739305415e-8 1.886668470140652e-8
          1.829496524643553e-8 1.4801532659892425e-8 1.6071002292283736e-8 1.5022901785120563e-8 1.7265419709126323e-8 1.3938723327601137e-8
          1.5671560834843182e-8 1.09567757787434e-8 1.5087829734720565e-8 1.7331351814968347e-8 1.7208849279979693e-8 1.4037795099103999e-8
          1.4758850844585757e-8 1.5790797245187302e-8 9.410328924416241e-9 1.1055019791588017e-8 1.3820723429430135e-8 1.611244655941879e-8
          1.5735249160715868e-8 1.5034525625259985e-8 1.526322743462462e-8 1.6125969334042287e-8 1.6002666860717764e-8 1.4993633380233107e-8
          1.482601190924534e-8 1.407589082479255e-8 1.4351316155429193e-8 1.323301768451428e-8 1.4626741486065836e-8
        </DataArray>
        <DataArray type="Float64" Name="gradient_matprop_error" format="ascii" RangeMin="0" RangeMax="0">
          0 0 0 0 0 0
          0 0 0 0 0 0
          0 0 0 0 0 0
          0 0 0 0 0 0
          0 0 0 0 0 0
          0 0 0 0 0 0
          0 0 0 0 0 0
          0 0 0 0 0 0
          0 0 0 0 0 0
          0 0 0 0 0 0
          0 0 0 0 0 0
          0 0 0 0 0 0
          0 0 0 0 0 0
          0 0 0 0 0 0
          0 0 0 0 0 0
          0 0 0 0 0 0
          0 0 0 0 0 0
          0 0 0 0 0 0
          0 0 0 0 0 0
          0 0 0 0 0 0
          0 0 0 0 0 0
          0 0 0 0 0 0
          0 0 0 0 0 0
          0 0 0 0 0 0
          0 0 0 0 0 0
          0 0 0 0 0 0
          0 0 0 0 0 0
          0 0 0 0 0 0
          0 0 0 0 0 0
          0 0 0 0 0 0
          0 0 0 0 0 0
          0 0 0 0 0 0
          0 0 0 0 0 0
          0 0 0 0 0 0
          0 0 0 0 0 0
          0 0 0 0 0 0
          0 0 0 0 0 0
          0 0 0 0 0 0
          0 0 0 0 0 0
          0 0 0 0 0 0
          0 0 0 0 0 0
          0 0 0 0 0 0
          0 0 0 0 0 0
          0 0 0 0 0 0
          0 0 0 0 0 0
          0 0 0 0 0 0
          0 0 0 0 0 0
          0 0 0 0 0 0
          0 0 0 0 0 0
          0 0 0 0 0 0
          0 0 0 0 0 0
          0 0 0 0 0 0
          0 0 0 0 0 0
          0 0 0 0 0 0
          0 0 0 0 0 0
          0 0 0 0 0 0
          0 0 0 0 0 0
          0 0 0 0 0 0
          0 0 0 0 0 0
          0 0 0 0 0 0
          0 0 0 0 0 0
          0 0 0 0 0 0
          0 0 0 0 0 0
          0 0 0 0 0 0
          0 0 0 0 0 0
          0 0 0 0 0 0
          0 0 0 0 0 0
          0 0 0 0 0 0
          0 0 0 0 0 0
          0 0 0 0 0 0
          0 0 0 0 0 0
          0 0 0 0 0 0
          0 0 0 0 0 0
          0 0 0 0 0 0
          0 0 0 0 0 0
          0 0 0 0 0 0
          0 0 0 0 0 0
          0 0 0 0 0 0
          0 0 0 0 0 0
          0 0 0 0 0 0
          0 0 0 0 0 0
          0 0 0 0 0 0
          0 0 0 0 0 0
          0 0 0 0 0 0
          0 0 0 0 0 0
          0 0 0 0 0 0
          0 0 0 0 0 0
          0 0 0 0 0 0
          0 0 0 0 0 0
          0 0 0 0 0 0
          0 0 0 0 0 0
          0 0 0 0 0 0
          0 0 0 0 0 0
          0 0 0 0 0 0
          0 0 0 0 0 0
          0 0 0 0 0 0
          0 0 0 0 0 0
          0 0 0 0 0 0
          0 0 0 0 0 0
          0 0 0 0 0 0
          0 0 0 0 0 0
          0 0 0 0 0 0
          0 0 0 0 0 0
          0 0 0 0 0 0
          0 0 0 0 0 0
          0 0 0 0 0 0
          0 0 0 0 0 0
          0 0 0 0 0 0
          0 0 0 0 0 0
          0 0 0 0 0 0
          0 0 0 0 0 0
          0 0 0 0 0 0
          0 0 0 0 0 0
          0 0 0 0 0
        </DataArray>
        <DataArray type="Float64" Name="initial_marker" format="ascii" RangeMin="0" RangeMax="2">
          2 2 2 2 1.5 2
          2 2 2 2 2 1
          1 0 0 1 0 2
          1.5 2 2 2 2 2
          2 2 2 2 2 2
          2 2 2 2 2 2
          2 2 2 2 2 2
          2 2 2 2 2 2
          2 2 2 2 2 2
          2 2 2 2 2 2
          2 2 2 2 2 2
          2 2 2 2 2 2
          2 2 2 2 2 2
          2 2 2 2 2 2
          2 2 2 2 2 2
          2 2 2 2 2 2
          2 2 2 2 2 2
          2 2 2 2 2 2
          2 2 2 2 2 2
          2 2 2 2 2 2
          2 2 2 2 2 2
          2 2 2 2 2 2
          2 2 2 2 2 2
          2 2 2 2 2 2
          2 2 2 2 2 2
          2 2 2 2 2 2
          2 2 2 2 2 2
          2 2 2 2 2 2
          2 2 2 2 2 2
          2 2 2 2 2 2
          2 2 2 2 2 2
          2 2 2 2 2 2
          2 2 2 2 2 2
          2 2 2 2 2 2
          2 2 2 2 2 2
          2 2 2 2 2 2
          2 2 2 2 2 2
          2 2 2 2 2 2
          2 2 2 2 2 2
          2 2 2 2 2 2
          2 2 2 2 2 2
          2 2 2 2 2 2
          2 2 2 2 2 2
          2 2 2 2 2 2
          2 2 2 2 2 2
          2 2 2 2 2 2
          2 2 2 2 2 2
          2 2 2 2 2 2
          2 2 2 2 2 2
          2 2 2 2 2 2
          2 2 2 2 2 2
          2 2 2 2 2 2
          2 2 2 2 2 2
          2 2 2 2 2 2
          2 2 2 2 2 2
          2 2 2 2 2 2
          2 2 2 2 2 2
          2 2 2 2 2 2
          2 2 2 2 2 2
          2 2 2 2 2 2
          2 2 2 2 2 2
          2 2 2 2 2 2
          2 2 2 2 2 2
          2 2 2 2 2 2
          2 2 2 2 2 2
          2 2 2 2 2 2
          2 2 2 2 2 2
          2 2 2 2 2 2
          2 2 2 2 2 2
          2 2 2 2 2 2
          2 2 2 2 2 2
          2 2 2 2 2 2
          2 2 2 2 2 2
          2 2 2 2 2 2
          2 2 2 2 2 2
          2 2 2 2 2 2
          2 2 2 2 2 2
          2 2 2 2 2 2
          2 2 2 2 2 2
          2 2 2 2 2 2
          2 2 2 2 2 2
          2 2 2 2 2 2
          2 2 2 2 2 2
          2 2 2 2 0 0
          0 0 1 1 0 0
          0 0 0 0 0 0
          0 0 0 0 1 1
          0.5 0.5 0 0 0 2
          1.5 1.3333333333333333 1 2 1 1
          1 0 0 2 1 1
          1 0.5 0.5 0.25 2 1.5
          0 1.3333333333333333 0 1 1 2
          1 2 1 2 2 2
          2 2 2 2 2 2
          2 2 2 2 2 2
          2 2 2 2 2 2
          2 2 2 2 2 2
          2 2 2 2 2 2
          2 2 2 2 2 2
          2 2 2 2 2 2
          2 2 2 2 2 2
          2 2 2 2 2 2
          2 2 2 2 2 2
          2 2 2 2 2 2
          2 2 2 2 2 2
          2 2 2 2 2 2
          2 2 2 2 2 2
          2 2 2 2 2 2
          2 2 2 2 2 2
          2 2 2 2 2 2
          2 2 2 2 2 2
          2 2 2 2 2 2
          2 2 2 2 2 2
          2 2 2 2 2
        </DataArray>
        <DataArray type="Float64" Name="markers_norefine" format="ascii" RangeMin="0" RangeMax="2">
          2 0 0 2 0 1
          0 0 0 2 0 0
          0 0 0 0 0 0
          0 1 0 1 0 2
          2 2 0 0 0 0
          0 0 0 1 0 0
          0 0 0 0 0 0
          0 0 0 0 0 0
          2 2 2 2 0 0
          0 0 0 0 0 0
          0 0 0 0 0 0
          0 0 0 0 0 0
          0 0 0 1 1 1
          0 0 0 0 1 1
          0.75 0 0 0 0 0
          0 0 0 0 0 0
          0 0 0 0 0 0
          0 2 2 2 2 2
          1.5 2 2 2 2 2
          2 2 2 1.5 1.5 2
          2 2 2 0 0 0
          0 0 0 0 0 0
          0 0 0 0 1 2
          2 2 2 2 2 2
          2 1 1 0 0 0
          0 0 0 0 0 2
          2 2 2 2 2 2
          2 2 2 1.5 1.5 1
          1 2 2 2 2 2
          2 2 2 2 2 2
          2 2 2 2 2 2
          2 2 2 0.5 0 1
          1 0 1 1 0 0
          1 1 0 0.5 0.5 0
          0 1 1 0 0.5 0.5
          0 0 1 1 0 1
          1 0 0 1 1 0
          1 1 0 0 1 1
          0 2 2 2 2 2
          2 2 2 1 1 0
          1 1 0 2 2 2
          2 2 2 2 2 1
          1 0 1 0.5 0 0
          0 0 0 0 0 2
          2 2 2 2 2 2
          2 2 2 2 2 2
          2 2 2 2 2 2
          2 1.5 1.5 1 1 2