<?xml version="1.0"?>
<VTKFile type="UnstructuredGrid" version="0.1" byte_order="LittleEndian" header_type="UInt32" compressor="vtkZLibDataCompressor">
  <UnstructuredGrid>
    <Piece NumberOfPoints="544" NumberOfCells="319">
      <PointData>
        <DataArray type="Int32" Name="libmesh_node_id" format="ascii" RangeMin="379" RangeMax="2920">
          379 491 498 502 503 510
          511 937 938 940 943 961
          962 964 965 967 968 969
          970 971 972 975 976 983
          984 987 988 989 990 991
          992 993 994 995 996 997
          998 1003 1004 1007 1008 1009
          1010 1014 1015 1483 1484 1485
          1486 1487 1535 1536 1538 1541
          1546 1547 1548 1549 1550 1563
          1564 1566 1569 1579 1580 1581
          1583 1584 1585 1586 1587 1588
          1589 1590 1591 1592 1593 1594
          1595 1596 1597 1598 1599 1600
          1601 1602 1613 1614 1615 1616
          1617 1618 1619 1620 1621 1622
          1623 1624 1625 1626 1627 1628
          1629 1630 1631 1632 1633 1634
          1635 1636 1637 1638 1639 1640
          1641 1642 1643 1644 1645 1646
          1647 1648 1649 1650 1651 1652
          1653 1654 1655 1656 1657 1658
          1659 1660 1661 1662 1663 1664
          1665 1666 1667 1668 1669 1670
          1671 1672 1673 1674 1675 1676
          1677 1678 1679 1680 1681 1682
          1683 1684 1685 1686 1687 1688
          1689 1690 1701 1702 1705 1706
          1715 1716 1717 1718 1719 1720
          1721 1722 1723 1724 1735 1736
          1739 1740 2489 2490 2491 2492
          2493 2555 2556 2557 2558 2559
          2560 2561 2562 2563 2564 2568
          2569 2570 2571 2572 2583 2584
          2585 2586 2587 2588 2589 2590
          2591 2592 2600 2601 2602 2603
          2604 2605 2606 2607 2608 2609
          2610 2611 2612 2613 2614 2615
          2616 2617 2618 2619 2620 2621
          2622 2623 2624 2625 2626 2627
          2628 2629 2630 2631 2632 2633
          2634 2635 2636 2637 2638 2639
          2640 2641 2642 2643 2644 2645
          2646 2647 2648 2649 2650 2651
          2652 2653 2654 2655 2656 2657
          2658 2659 2660 2661 2662 2663
          2664 2665 2666 2667 2668 2669
          2670 2671 2672 2673 2674 2675
          2676 2677 2678 2679 2680 2681
          2682 2683 2684 2685 2686 2687
          2688 2689 2690 2691 2692 2693
          2694 2695 2696 2697 2698 2699
          2700 2701 2702 2703 2704 2705
          2706 2707 2708 2709 2710 2711
          2712 2713 2714 2715 2716 2717
          2718 2719 2720 2721 2722 2723
          2724 2725 2726 2727 2728 2729
          2730 2731 2732 2733 2734 2735
          2736 2737 2738 2739 2740 2741
          2742 2743 2744 2745 2746 2747
          2748 2749 2750 2751 2752 2753
          2754 2755 2756 2757 2758 2759
          2760 2761 2762 2763 2764 2765
          2766 2767 2768 2769 2770 2771
          2772 2773 2774 2775 2776 2777
          2778 2779 2780 2781 2782 2783
          2784 2785 2786 2787 2788 2789
          2790 2791 2792 2793 2794 2795
          2796 2797 2798 2799 2800 2801
          2802 2803 2804 2805 2806 2807
          2808 2853 2854 2855 2856 2857
          2858 2859 2860 2861 2862 2863
          2864 2865 2866 2867 2868 2869
          2870 2871 2872 2873 2874 2875
          2876 2877 2878 2879 2880 2881
          2882 2883 2884 2885 2886 2887
          2888 2889 2890 2891 2892 2893
          2894 2895 2896 2897 2898 2899
          2900 2901 2902 2903 2904 2905
          2906 2907 2908 2909 2910 2911
          2912 2913 2914 2915 2916 2917
          2918 2919 2920 913 916 917
          914 921 923 922 492 924
          936 939 949 945 950 947
          944 957 955 920 1481 1525
          1533 1534 1526 1537 1528 1539
          1540 1542 1562 1565 1544 1556
          1578 1572 1574 1570 1582 1576
          2487 2547 2548 2550 1561 2553
          2575 2576 2578 1567 2581 1568
          2566 2594 2596 2598
        </DataArray>
        <DataArray type="Float64" Name="bounds" format="ascii" RangeMin="0" RangeMax="0">
          0 0 0 0 0 0
          0 0 0 0 0 0
          0 0 0 0 0 0
          0 0 0 0 0 0
          0 0 0 0 0 0
          0 0 0 0 0 0
          0 0 0 0 0 0
          0 0 0 0 0 0
          0 0 0 0 0 0
          0 0 0 0 0 0
          0 0 0 0 0 0
          0 0 0 0 0 0
          0 0 0 0 0 0
          0 0 0 0 0 0
          0 0 0 0 0 0
          0 0 0 0 0 0
          0 0 0 0 0 0
          0 0 0 0 0 0
          0 0 0 0 0 0
          0 0 0 0 0 0
          0 0 0 0 0 0
          0 0 0 0 0 0
          0 0 0 0 0 0
          0 0 0 0 0 0
          0 0 0 0 0 0
          0 0 0 0 0 0
          0 0 0 0 0 0
          0 0 0 0 0 0
          0 0 0 0 0 0
          0 0 0 0 0 0
          0 0 0 0 0 0
          0 0 0 0 0 0
          0 0 0 0 0 0
          0 0 0 0 0 0
          0 0 0 0 0 0
          0 0 0 0 0 0
          0 0 0 0 0 0
          0 0 0 0 0 0
          0 0 0 0 0 0
          0 0 0 0 0 0
          0 0 0 0 0 0
          0 0 0 0 0 0
          0 0 0 0 0 0
          0 0 0 0 0 0
          0 0 0 0 0 0
          0 0 0 0 0 0
          0 0 0 0 0 0
          0 0 0 0 0 0
          0 0 0 0 0 0
          0 0 0 0 0 0
          0 0 0 0 0 0
          0 0 0 0 0 0
          0 0 0 0 0 0
          0 0 0 0 0 0
          0 0 0 0 0 0
          0 0 0 0 0 0
          0 0 0 0 0 0
          0 0 0 0 0 0
          0 0 0 0 0 0
          0 0 0 0 0 0
          0 0 0 0 0 0
          0 0 0 0 0 0
          0 0 0 0 0 0
          0 0 0 0 0 0
          0 0 0 0 0 0
          0 0 0 0 0 0
          0 0 0 0 0 0
          0 0 0 0 0 0
          0 0 0 0 0 0
          0 0 0 0 0 0
          0 0 0 0 0 0
          0 0 0 0 0 0
          0 0 0 0 0 0
          0 0 0 0 0 0
          0 0 0 0 0 0
          0 0 0 0 0 0
          0 0 0 0 0 0
          0 0 0 0 0 0
          0 0 0 0 0 0
          0 0 0 0 0 0
          0 0 0 0 0 0
          0 0 0 0 0 0
          0 0 0 0 0 0
          0 0 0 0 0 0
          0 0 0 0 0 0
          0 0 0 0 0 0
          0 0 0 0 0 0
          0 0 0 0 0 0
          0 0 0 0 0 0
          0 0 0 0 0 0
          0 0 0 0
        </DataArray>
        <DataArray type="Float64" Name="gradient_error" format="ascii" RangeMin="1.2893557706921212e-9" RangeMax="5.043456400441407e-7">
          1.2893557706921212e-9 3.8285094678698044e-7 3.815502473540135e-7 4.05971246491199e-7 2.6557485095027576e-7 3.9197046208088465e-9
          3.7762459948487874e-7 7.525190548090162e-8 2.1568782349979154e-7 4.158095410084276e-7 8.284645792034197e-8 3.825134622565414e-7
          3.198244374896588e-7 3.6789516497032504e-7 3.020871217059376e-7 1.733086748635005e-7 1.835616717207091e-7 3.962491755254598e-7
          3.3066321591531295e-7 3.3004949887536694e-7 2.577292590549054e-7 3.441770808451338e-7 2.765006289233001e-7 4.0909860041139827e-7
          3.218988841315927e-7 8.289572666594093e-8 1.249468823394165e-7 5.3022579530532475e-8 1.4150405196244825e-7 3.162884927703234e-7
          3.0341018835881886e-7 2.4350078280761494e-9 9.2893277331849e-8 1.0579124958740946e-7 3.8404629142809537e-7 1.6841596079769165e-8
          1.6218989818836313e-7 5.865231179722331e-9 7.152560335957366e-8 1.641822724091454e-7 2.9798891520737804e-7 1.6660340622394025e-7
          2.687761010801236e-7 3.578093482297008e-7 3.272969134784922e-7 1.2941614858974177e-7 1.2635820548573467e-7 1.3266412102438914e-7
          1.2330026238172757e-7 1.014091686573899e-7 1.3624620809928709e-7 1.3592207149518934e-7 1.3211203089502897e-7 9.15348638260951e-8
          1.1404701677989436e-7 1.0295381065688497e-7 1.3360697581607305e-7 1.3594531371358917e-7 1.294045469761538e-7 4.978027578838202e-9
          2.5539177203898732e-8 9.629952328319602e-8 6.614399691828564e-9 1.437210663277616e-7 1.3336032154363673e-7 1.394780399398808e-7
          1.4686659453633885e-7 1.373160961111196e-7 1.4332819680355146e-7 1.3928816309922512e-7 1.463717515275968e-7 1.2466427293598273e-7
          1.599294493730421e-7 1.540702581345152e-7 1.627651099825741e-7 1.3480361977767086e-7 1.02310422186778e-7 1.0459594323544296e-7
          9.054042789648927e-8 1.0740409625462639e-7 1.0939493874010301e-7 9.341201984989935e-8 1.8125438940695145e-7 1.7262280366510625e-7
          1.8316223055870653e-7 1.454364489325691e-7 1.4368134922418108e-7 1.4333915777921324e-7 1.518731200557736e-7 1.5140294485548414e-7
          1.3581456578752215e-7 1.430357535876441e-7 7.89623048378264e-8 8.188739095845614e-8 8.664468453977043e-8 1.1718300793840239e-7
          1.6098318396857295e-7 1.6026316246449766e-7 1.3238649744409885e-7 1.5064766843656195e-7 1.50348262152971e-7 1.5808173476138933e-7
          8.719959868431082e-8 9.184498799295284e-8 7.800405245198024e-8 1.3284528201150383e-7 1.1601249925756315e-7 1.2009008787038327e-7
          1.0339283327432742e-7 1.05041438220673e-7 1.3898090456458406e-7 1.4592419128874991e-7 1.2813684272606962e-7 1.2433450556245054e-7
          1.2813600617604786e-7 1.0751562777938148e-7 1.0913687003183657e-7 1.5296154634149863e-7 1.6035735176386142e-7 1.3617591862747333e-7
          4.3249971550686036e-9 1.0201825989797688e-8 4.36700113205874e-9 9.593370375422185e-9 8.761710253493861e-8 9.332215276317837e-8
          1.6046702175409506e-9 5.943262571632921e-9 5.827162468285762e-9 8.760228626518161e-8 5.169067613489081e-9 9.476331311794556e-9
          6.256015556089589e-9 9.997071638655415e-9 9.958873096177046e-8 1.0669430582950303e-7 3.1568539500867637e-9 6.461322042545035e-9
          7.71891410173813e-9 9.888610366646509e-8 1.5160671700478727e-7 1.600609412748401e-7 1.4561440400979692e-7 1.5199479212160835e-7
          1.549662012087547e-7 1.6385773247750388e-7 1.512003612196202e-7 1.692116709699277e-7 1.793343621241072e-7 1.5868587445314822e-7
          1.6555612201281116e-7 1.737651641271329e-7 1.848310943324843e-7 1.6663914736021333e-7 1.0295768530831132e-7 1.4125350388770726e-7
          1.1031980371478216e-7 1.5093637321882133e-7 1.6633618312210903e-7 1.751848821827932e-7 1.6166069455275034e-8 6.357376370058586e-8
          6.812308530631239e-8 1.512325129062293e-7 1.3090509242704628e-7 1.3278057168270976e-7 1.6804747502665186e-7 1.7571505336896402e-7
          7.664561543906186e-9 1.1160846689421065e-8 9.298976497010702e-9 1.2931827022331492e-8 1.14862126382535e-7 9.790043784478719e-8
          4.800859633882602e-9 9.287007867374658e-9 1.1154349704445375e-8 1.141812669839258e-7 1.90481362448916e-7 1.7601873612055177e-7
          1.9706363691715563e-7 1.5776582406529365e-7 1.4137858138765383e-8 1.4284160175126913e-8 1.4398162359325196e-8 1.4430462211488443e-8
          1.7046432767462194e-8 1.1034962196598958e-8 1.2096541506850869e-8 1.0712588394237588e-8 1.185844880250631e-8 1.315812081710278e-8
          1.4180717005544169e-8 5.431558619423708e-9 7.20323101171513e-9 6.71457760211598e-9 1.0308324730997521e-8 1.6852548233750663e-8
          1.7171563872418878e-8 1.4302195153778475e-8 1.507981480776624e-8 1.562922292257749e-8 2.1114463490129562e-9 3.5453883121308777e-9
          1.9857424880286718e-9 3.2690385854501628e-9 8.286823209858984e-9 7.834462928003273e-9 1.2918417136110283e-9 2.5932374394063182e-9
          2.427657212355785e-9 7.054049034580242e-9 1.3647857372195988e-8 1.356508367470381e-8 1.5701398599922808e-8 1.6013576176272735e-8
          1.2993519590613501e-8 1.2839776987777832e-8 1.5773574277268128e-8 1.406689270360957e-8 1.446873234916026e-8 1.4457975786284173e-8
          1.6064955723196136e-8 1.3616867437681857e-8 1.43492430248829e-8 1.4146195883156853e-8 1.663110075059573e-8 1.7429313764505873e-8
          1.803985552375801e-8 1.7599288077330426e-8 1.854289357748197e-8 1.9117320734192152e-8 1.890520426585642e-8 2.246861430884224e-8
          1.2784998037829836e-8 1.386829359934443e-8 1.3584703177312918e-8 1.7056590899140396e-8 2.2127185204100738e-8 2.208760296619199e-8
          2.2048020728283246e-8 1.2069002672765174e-8 1.338333407880455e-8 1.6017060513374427e-8 1.740750875460152e-8 1.9725261532673838e-8
          2.0336127871427167e-8 2.0288930427925907e-8 2.0940625008770254e-8 2.1570901296277117e-8 2.1763897993181394e-8 1.0360557623723052e-8
          1.153206379290394e-8 9.984090909436256e-9 1.1189645733946082e-8 1.455864812750696e-8 1.4377071201190012e-8 4.596975966183985e-9
          6.226139785576967e-9 5.8196058121298e-9 1.0786706368190377e-8 9.614640809330498e-9 1.0874236203799356e-8 9.3122634870785e-9
          1.059121702098363e-8 1.4316569787273367e-8 1.4259102116867023e-8 4.232840229071014e-9 5.580192468067195e-9 5.544138785811312e-9
          9.84762387804135e-9 1.701805903674685e-8 1.7343725962541296e-8 1.7622391780564607e-8 1.832851008115848e-8 1.539404169082112e-8
          1.536230629025203e-8 1.706997425023144e-8 1.76884033777394e-8 1.807022351387668e-8 1.8877498779200283e-8 1.9492413348908074e-8
          1.542298874203218e-8 1.5491339704782696e-8 1.8078274435045035e-8 1.953576124093611e-9 3.105792747967092e-9 2.0882953698238496e-9
          3.080694737896842e-9 7.379647170357681e-9 6.988700803279589e-9 1.367422859655788e-9 2.3547011614278667e-9 2.443493533142076e-9
          6.238222136152389e-9 2.4308161693486298e-9 3.2495724673157998e-9 2.8919165184826272e-9 3.6106319820503997e-9 6.7416223256463755e-9
          6.675464940782742e-9 2.0083660615343725e-9 2.737989381213024e-9 3.1692245512885838e-9 5.790035719161056e-9 1.343532705201348e-8
          1.3307692996338894e-8 1.6369369135152174e-8 1.671107849208845e-8 1.2689375031372543e-8 1.2538369813498314e-8 1.6244285253640252e-8
          1.3201009510601855e-8 1.3120234789367197e-8 1.698710313519393e-8 1.721888714278708e-8 1.2389954715136187e-8 1.2280916462730209e-8
          1.666745069284194e-8 9.139447990783554e-9 1.0388231160954793e-8 9.126264271287838e-9 1.031093365748223e-8 1.4219984444966578e-8
          1.4237072046108038e-8 4.7050178607830236e-9 5.7131184070241466e-9 6.04934667383144e-9 9.458088910864881e-9 9.244650454529488e-9
          1.0372933312856542e-8 9.394219940628845e-9 1.0509206843081833e-8 1.4331991980262215e-8 1.4491881437997241e-8 5.6879082154951855e-9
          6.506126453013875e-9 7.068188885019543e-9 9.657321745180339e-9 1.847834933594309e-8 1.8906633172405606e-8 2.0153744113079068e-8
          2.0834725296271756e-8 1.5587809644273267e-8 1.5731515663124498e-8 1.8980660420082037e-8 1.9346544406637107e-8 1.981000498036154e-8
          2.153032102393339e-8 2.2260440830263422e-8 1.5929058962905673e-8 1.6194895243482092e-8 1.9867819125983232e-8 3.3597574454376804e-9
          4.082434934439095e-9 3.802369719503521e-9 4.600546528560284e-9 6.7939497078998e-9 7.086874882671824e-9 2.8033771130465836e-9
          3.6468017773950572e-9 4.139563847109228e-9 6.055099584862597e-9 4.24066998251218e-9 5.144852951518827e-9 4.699931099381357e-9
          5.720405850119474e-9 7.544244747015584e-9 8.148990766625108e-9 3.5258217703277905e-9 4.639985543918439e-9 5.150552658072756e-9
          7.030321209593397e-9 1.310022892571104e-8 1.3163295621391501e-8 1.741767085906299e-8 1.75515648150564e-8 1.22562757020879e-8
          1.2340698389918054e-8 1.6892578676194137e-8 1.3324235128127811e-8 1.3612696980414966e-8 1.760901668274993e-8 1.766829302843731e-8
          1.2542816134948243e-8 1.2884712138311717e-8 1.677913916821878e-8 2.3399579309760616e-8 2.3211521433043383e-8 2.449727236227468e-8
          2.302346355632615e-8 2.5845711705726334e-8 2.562768816078478e-8 2.684097183454916e-8 2.5409664615843225e-8 2.2342385716886387e-8
          2.2487451189145428e-8 2.2862795999944743e-8 2.3250376854458985e-8 2.2632516661404465e-8 2.363795770897322e-8 1.6321144534097224e-8
          1.732817062110011e-8 1.7421572069101098e-8 1.9228535701628628e-8 2.346620043877558e-8 2.397276271416193e-8 2.4071695820449206e-8
          2.4706264254542878e-8 2.4479324989548273e-8 2.534083268863655e-8 1.6413909019752922e-8 1.774236009191488e-8 1.8183606511250362e-8
          2.0048943334189476e-8 2.225743830007242e-8 2.3007696768164276e-8 2.349966291146494e-8 2.3828826029511662e-8 2.473717579275607e-8
          2.5652444384608577e-8 9.57511643350995e-9 1.0703644232474813e-8 9.978869812982875e-9 1.109554453128441e-8 1.4729640623399081e-8
          1.510118537232389e-8 6.914840732354955e-9 7.744189024230241e-9 8.52271352467223e-9 1.0499903163889838e-8 1.0681018743793912e-8
          1.1730654436829621e-8 1.1605081606138272e-8 1.2557371799513397e-8 1.5612273259645958e-8 1.6282167774822426e-8 8.460309866270586e-9
          9.381256310635847e-9 1.031977072494335e-8 1.1969231792655669e-8 2.032502257627534e-8 2.091530128702955e-8 2.3022935937192193e-8
          2.384045107899726e-8 1.6559629811248897e-8 1.705376522945141e-8 2.0692990610823644e-8 2.1596302741819445e-8 2.240903846151669e-8
          2.47483490942123e-8 2.5763403366277048e-8 1.7692523091592857e-8 1.8473322273845493e-8 2.1748785352875487e-8 5.189780513576071e-9
          6.331383546513944e-9 5.719885608030502e-9 6.9831493748182e-9 8.870286898021321e-9 9.682629799168686e-9 4.343015485279844e-9
          5.688717212564285e-9 6.272297971301844e-9 8.478030045859574e-9 6.301796351945876e-9 7.690764361611034e-9 6.946250164462104e-9
          8.475102805726996e-9 1.0586016858271506e-8 1.1615377532398406e-8 5.303881591257392e-9 6.913442059318929e-9 7.629751412629947e-9
          1.015919433086604e-8 1.4052355258870287e-8 1.464896163419878e-8 1.7837123301149752e-8 1.8179076811666084e-8 1.3378057747721041e-8
          1.4013298615389563e-8 1.683447434357166e-8 1.5396910065288168e-8 1.6237372356174636e-8 1.8701518785309514e-8 2.2636874918565868e-8
          1.4772553401517843e-8 1.5609001294935596e-8 1.7749720668684072e-8 3.9344200521945557e-7 3.9044549087781884e-7 3.3178023525837033e-7
          3.39322893498236e-7 3.6726932301570967e-7 4.2103337965720877e-7 5.036812777639173e-7 3.745551153339507e-7 4.787619291750006e-7
          3.046194896027251e-7 5.043456400441407e-7 1.857121180736131e-7 2.035205832503331e-7 3.1971596916115643e-7 3.3530540214350453e-7
          3.7352159420784747e-7 3.786601240992271e-7 3.918909969113439e-7 1.918566633782343e-7 1.2030781264172444e-7 1.2227036894419002e-7
          1.2922281689569686e-7 1.289644618547662e-7 1.2210579574248734e-7 1.287061068138355e-7 1.219412225407847e-7 7.154391436749909e-8
          1.0094034957026486e-7 1.3277187808555623e-7 3.960530793080952e-8 1.0515314209305843e-7 1.2708092674258798e-7 9.941571694761887e-8
          1.3640890838524514e-7 1.294368550037393e-7 1.273582539290677e-7 7.829659111869849e-8 1.392108409544172e-7 1.3179278326489063e-7
          1.4142013506038671e-8 1.1338852917927418e-8 1.2268678048471585e-8 1.3198503179015753e-8 5.950562111187172e-9 7.693169884516765e-9
          2.309703045914159e-9 3.910040168599406e-9 8.740144585086606e-9 1.337644171962589e-9 2.82908315906978e-9 7.552473925570827e-9
          1.422934880830309e-8 1.3682679940313259e-8 1.539544800173796e-8 1.313601107232343e-8
        </DataArray>
        <DataArray type="Float64" Name="gradient_matprop_error" format="ascii" RangeMin="0" RangeMax="0">
          0 0 0 0 0 0
          0 0 0 0 0 0
          0 0 0 0 0 0
          0 0 0 0 0 0
          0 0 0 0 0 0
          0 0 0 0 0 0
          0 0 0 0 0 0
          0 0 0 0 0 0
          0 0 0 0 0 0
          0 0 0 0 0 0
          0 0 0 0 0 0
          0 0 0 0 0 0
          0 0 0 0 0 0
          0 0 0 0 0 0
          0 0 0 0 0 0
          0 0 0 0 0 0
          0 0 0 0 0 0
          0 0 0 0 0 0
          0 0 0 0 0 0
          0 0 0 0 0 0
          0 0 0 0 0 0
          0 0 0 0 0 0
          0 0 0 0 0 0
          0 0 0 0 0 0
          0 0 0 0 0 0
          0 0 0 0 0 0
          0 0 0 0 0 0
          0 0 0 0 0 0
          0 0 0 0 0 0
          0 0 0 0 0 0
          0 0 0 0 0 0
          0 0 0 0 0 0
          0 0 0 0 0 0
          0 0 0 0 0 0
          0 0 0 0 0 0
          0 0 0 0 0 0
          0 0 0 0 0 0
          0 0 0 0 0 0
          0 0 0 0 0 0
          0 0 0 0 0 0
          0 0 0 0 0 0
          0 0 0 0 0 0
          0 0 0 0 0 0
          0 0 0 0 0 0
          0 0 0 0 0 0
          0 0 0 0 0 0
          0 0 0 0 0 0
          0 0 0 0 0 0
          0 0 0 0 0 0
          0 0 0 0 0 0
          0 0 0 0 0 0
          0 0 0 0 0 0
          0 0 0 0 0 0
          0 0 0 0 0 0
          0 0 0 0 0 0
          0 0 0 0 0 0
          0 0 0 0 0 0
          0 0 0 0 0 0
          0 0 0 0 0 0
          0 0 0 0 0 0
          0 0 0 0 0 0
          0 0 0 0 0 0
          0 0 0 0 0 0
          0 0 0 0 0 0
          0 0 0 0 0 0
          0 0 0 0 0 0
          0 0 0 0 0 0
          0 0 0 0 0 0
          0 0 0 0 0 0
          0 0 0 0 0 0
          0 0 0 0 0 0
          0 0 0 0 0 0
          0 0 0 0 0 0
          0 0 0 0 0 0
          0 0 0 0 0 0
          0 0 0 0 0 0
          0 0 0 0 0 0
          0 0 0 0 0 0
          0 0 0 0 0 0
          0 0 0 0 0 0
          0 0 0 0 0 0
          0 0 0 0 0 0
          0 0 0 0 0 0
          0 0 0 0 0 0
          0 0 0 0 0 0
          0 0 0 0 0 0
          0 0 0 0 0 0
          0 0 0 0 0 0
          0 0 0 0 0 0
          0 0 0 0 0 0
          0 0 0 0
        </DataArray>
        <DataArray type="Float64" Name="initial_marker" format="ascii" RangeMin="0" RangeMax="2">
          2 2 2 2 1 2
          2 2 2 1.5 2 1
          1 1 1 0.5 0.6666666666666666 2
          2 2 1 1 1 2
          2 2 2 2 2 1.5
          1.5 2 2 2 2 2
          2 2 2 0 0.5 0
          0.5 1 1 2 2 2
          2 2 2 2 2 2
          2 2 2 2 2 2
          2 2 2 2 2 2
          2 2 2 2 2 2
          2 2 2 2 2 2
          2 2 2 2 2 2
          2 2 2 2 2 2
          2 2 2 2 2 2
          2 2 2 2 2 2
          2 2 2 2 2 2
          2 2 2 2 2 2
          2 2 2 2 2 2
          2 2 2 2 2 2
          2 2 2 2 2 2
          2 2 2 2 2 2
          2 2 2 2 2 2
          2 2 2 2 2 2
          2 2 2 2 2 2
          2 2 2 2 2 2
          2 2 2 2 2 2
          2 2 2 2 2 2
          2 2 2 2 2 2
          2 2 2 2 2 2
          2 2 2 2 2 2
          2 2 2 2 2 2
          2 2 2 2 2 2
          2 2 2 2 2 2
          2 2 2 2 2 2
          2 2 2 2 2 2
          2 2 2 2 2 2
          2 2 2 2 2 2
          2 2 2 2 2 2
          2 2 2 2 2 2
          2 2 2 2 2 2
          2 2 2 2 2 2
          2 2 2 2 2 2
          2 2 2 2 2 2
          2 2 2 2 2 2
          2 2 2 2 2 2
          2 2 2 2 2 2
          2 2 2 2 2 2
          2 2 2 2 2 2
          2 2 2 2 2 2
          2 2 2 2 2 2
          2 2 2 2 2 2
          2 2 2 2 2 2
          2 2 2 2 2 2
          2 2 2 2 2 2
          2 2 2 2 2 2
          2 2 2 2 2 2
          2 2 2 2 2 2
          2 2 2 2 2 2
          2 2 2 2 2 2
          2 2 2 2 2 2
          2 2 2 2 2 2
          2 2 2 2 2 2
          2 2 2 2 2 2
          2 2 2 2 2 2
          2 2 2 2 2 2
          2 2 2 2 2 2
          2 2 2 2 2 2
          2 2 2 2 2 2
          2 2 2 2 2 2
          2 2 2 2 2 2
          2 2 2 2 2 2
          2 2 2 2 2 2
          2 2 2 2 2 2
          2 2 2 2 2 2
          2 2 2 2 2 2
          2 2 2 2 2 2
          2 2 2 2 2 2
          2 2 2 2 2 2
          2 2 2 2 2 2
          2 2 2 1 1 1
          1 2 2 2 1 1
          2 1.5 0 0 0.5 0.5
          2 1 1 0.5 2 2
          2 2 2 2 2 2
          2 2 2 2 2 2
          2 2 2 2 2 2
          2 2 2 2 2 2
          2 2 2 2 2 2
          2 2 2 2
        </DataArray>
        <DataArray type="Float64" Name="markers_norefine" format="ascii" RangeMin="0" RangeMax="2">
          2 0 0 0 0 2
          0 0.5 0 0 0 0
          0 0 0 0 0 0
          0 0 0 0 0 0
          0 1 0 1.5 0 0
          0 2 1 1 0 2
          0 2 1 0 0 0
          0 0 0 0 0 0
          0 0 0 0 0 0
          0 0 0 0 0 2
          1.5 0 2 0 0 0
          0 0 0 0 0 0
          0 0 0 0 0 0
          0 0 0 0 0 0
          0 0 0 0 0 0
          0 0 1 0 0.5 0
          0 0 0 0 0 0
          1 0.5 1 0 0 0
          0 0 0 0 0 0
          0 0 0 0 0 0
          2 2 2 2 0 0.25
          2 2 2 0 2 2
          2 2 0.5 0.75 2 2
          2 1 0 0 0 0
          0 0 0 0 0 0
          0 0 0 0 0 0
          0 0 0 0 2 1.25
          1.5 0 0 0 0 0
          2 2 2 2 1 1
          2 2 2 1 0 0
          0 0 0 0 0.5 0
          0 1 1 1.5 1.25 1
          0.6666666666666666 2 2 2 2 0
          0 1 0.6666666666666666 0 2 2
          2 2 2 2 2 2
          2 2 1 1 0 0
          1 1 0 2 1 1
          0 2 1.5 2 0.5 0
          0 0 0 0 0 0
          2 2 2 1 1 0.5
          0 2 2 1.6666666666666667 1.5 0
          0 0 0.5 1 0 2
          1.5 2 1.5 0.75 1 2
          2 2 1.75 2 1.75 2
          2 1.25 1.5 2 2 2
          2 0.25 0.5 0 0 0.75
          1 0 0.5 0.5 0 0
          1 1.25 0 2 2 2
          2 2 2 2 2 2
          2 2 2 2 2 2
          2 2 2 2 2 1
          1 0 0 1 1 0
          1.25 1.75 0.5 1.5 1.5 2
          1 2 2 2 2 1.5
          1.5 2 2 2 2 2
          2 2 2 1.75 2 2
          2 2 2 0.5 0.5 0
          0 1.5 1.5 1 0.75 1.25
          0 0.5 1.5 1.75 1 2
          2 2 2 2 2 2
          2 2 2 2 2 2
          2 2 2 2 2 2
          2 2 2 2 2 2
          2 2 2 2 2 2
          2 2 2 0 0 0
          0 0 0 0 0 1
          0.5 1 0.75 0 0.5 2
          1.5 1.75 1.3333333333333333 1 1 1
          1 1 1 2 2 2
          2 1 1 0 1 1
          0 2 2 2 2 2
          2 2 2 2 2 2
          2 2 2 2 2 2
          2 2 2 1.5 1.5 1
          1 2 2 2 1.5 1.5
          1 1 2 2 2 2
          2 2 2 2 2 2
          2 2 2 2 2 2
          2 2 2 2 2 2
          2 2 2 2 2 2
          2 2 2 2 2 1.3333333333333333
          2 2 2 0 0 0
          0 0 0 0 0 0
          0 0 0 0 0 0
          0 0 0 0 0 0
          0 0 0 0 0 0
          0 0 1.5 0 0 0
          0 0 0 0 0 0
          0 1 1 1 2 2
          2 2 2 2 2 2
          1 1 0 1
        </DataArray>
        <DataArray type="Float64" Name="markers_mustrefine" format="ascii" RangeMin="0" RangeMax="2">
          2 2 2 2 1 2
          2 2 2 1.5 2 1
          1 1 1 0.5 0.6666666666666666 2
          2 2 1 1 1 2
          2 2 2 2 2 1.5
          1.5 2 2 2 2 2
          2 2 2 0 0.5 0
          0.5 1 1 2 2 2
          2 2 2 2 2 2
          2 2 2 2 2 2
          2 2 2 2 2 2
          2 2 2 2 2 2
          2 2 2 2 2 2
          2 2 2 2 2 2
          2 2 2 2 2 2
          2 2 2 2 2 2
          2 2 2 2 2 2
          2 2 2 2 2 2
          2 2 2 2 2 2
          2 2 2 2 2 2
          2 2 2 2 2 2
          2 2 2 2 2 2
          2 2 2 2 2 2
          2 2 2 2 2 2
          2 2 2 2 2 2
          2 2 2 2 2 2
          2 2 2 2 2 2
          2 2 2 2 2 2
          2 2 2 2 2 2
          2 2 2 2 2 2
          2 2 2 2 2 2
          2 2 2 2 2 2
          2 2 2 2 2 2
          2 2 2 2 2 2
          2 2 2 2 2 2
          2 2 2 2 2 2
          2 2 2 2 2 2
          2 2 2 2 2 2
          2 2 2 2 2 2
          2 2 2 2 2 2
          2 2 2 2 2 2
          2 2 2 2 2 2
          2 2 2 2 2 2
          2 2 2 2 2 2
          2 2 2 2 2 2
          2 2 2 2 2 2
          2 2 2 2 2 2
          2 2 2 2 2 2
          2 2 2 2 2 2
          2 2 2 2 2 2
          2 2 2 2 2 2
          2 2 2 2 2 2
          2 2 2 2 2 2
          2 2 2 2 2 2
          2 2 2 2 2 2
          2 2 2 2 2 2
          2 2 2 2 2 2
          2 2 2 2 2 2
          2 2 2 2 2 2
          2 2 2 2 2 2
          2 2 2 2 2 2
          2 2 2 2 2 2
          2 2 2 2 2 2
          2 2 2 2 2 2
          2 2 2 2 2 2
          2 2 2 2 2 2
          2 2 2 2 2 2
          2 2 2 2 2 2
          2 2 2 2 2 2
          2 2 2 2 2 2
          2 2 2 2 2 2
          2 2 2 2 2 2
          2 2 2 2 2 2
          2 2 2 2 2 2
          2 2 2 2 2 2
          2 2 2 2 2 2
          2 2 2 2 2 2
          2 2 2 2 2 2
          2 2 2 2 2 2
          2 2 2 2 2 2
          2 2 2 2 2 2
          2 2 2 1 1 1
          1 2 2 2 1 1
          2 1.5 0 0 0.5 0.5
          2 1 1 0.5 2 2
          2 2 2 2 2 2
          2 2 2 2 2 2
          2 2 2 2 2 2
          2 2 2 2 2 2
          2 2 2 2 2 2
          2 2 2 2
        </DataArray>
        <DataArray type="Float64" Name="gradient_marker" format="ascii" RangeMin="0" RangeMax="1">
          0 0.75 1 1 0.625 0
          1 0.25 0.75 0.75 0.5 0.75
          0.625 0.5 0.5 0.375 0.3333333333333333 1
          0.75 0.75 0.625 0.5 0.5 1
          0.75 0.5 0.75 0.25 0.75 0.75
          0.75 0 0.5 0.5 1 0
          0.75 0 0.25 0.375 0.5 0.3333333333333333
          0.5 0.5 0.5 0 0 0.25
          0 0 0.5 0.5 0.5 0.375
          0.25 0 0.25 0.6666666666666666 0 0
          0 0.5 0 0.875 0.25 0.75
          1 0.5 1 0.75 1 0.25
          1 1 1 0.5 0 0
          0 0 0 0 1 1
          1 0.5 1 0.875 1 1
          0.625 0.75 0.5 0.5 0.5 0.75
          1 1 0.75 0.875 0.75 0.75
          0.5 0.5 0.375 0.75 0.25 0.25
          0 0 0.75 0.75 0.5 0.25
          0.25 0 0 0.75 0.75 0.5
          0 0 0 0 0.5 0.5
          0 0 0 0.5 0 0
          0 0 0.5 0.5 0 0
          0 0.5 1 1 1 1
          1 1 1 1 1 1
          1 1 1 1 0.5 0.75
          0.5 0.75 0.75 0.75 0 0.25
          0.25 0.75 0.25 0.25 0.75 0.75
          0 0 0 0 0.5 0.375
          0 0 0 0.5 1 0.875
          1 0.75 0 0 0 0
          0 0 0 0 0 0
          0 0 0 0 0 0
          0 0 0 0 0 0
          0 0 0 0 0 0
          0 0 0 0 0 0
          0 0 0 0 0 0
          0 0 0 0 0 0
          0 0 0 0 0 0
          0 0 0 0 0 0
          0 0 0 0 0 0
          0 0 0 0 0 0
          0 0 0 0 0 0
          0 0 0 0 0 0
          0 0 0 0 0 0
          0 0 0 0 0 0
          0 0 0 0 0 0
          0 0 0 0 0 0
          0 0 0 0 0 0
          0 0 0 0 0 0
          0 0 0 0 0 0
          0 0 0 0 0 0
          0 0 0 0 0 0
          0 0 0 0 0 0
          0 0 0 0 0 0
          0 0 0 0 0 0
          0 0 0 0 0 0
          0 0 0 0 0 0
          0 0 0 0 0 0
          0 0 0 0 0 0
          0 0 0 0 0 0
          0 0 0 0 0 0
          0 0 0 0 0 0
          0 0 0 0 0 0
          0 0 0 0 0 0
          0 0 0 0 0 0
          0 0 0 0 0 0
          0 0 0 0 0 0
          0 0 0 0 0 0
          0 0 0 0 0 0
          0 0 0 0 0 0
          0 0 0 0 0 0
          0 0 0 0 0 0
          0 0 0 0 0 0
          0 0 0 0 0 0
          0 0 0 0 0 0
          0 0 0 0 0 0
          0 0 0 0 0 0
          0 0 0 0 0 0
          0 0 0 0 0 0
          0 0 0 0 0 0
          0 0 0 1 1 0.75
          0.75 0.5 0.625 0.75 0.875 1
          0.25 0.75 0.5 0.5 0.625 0.75
          0.5 0.75 1 0.5 0 0
          0 0.125 0 0.25 0 0
          0.125 0.3333333333333333 0 0.25 0 0