<?xml version="1.0"?>
<VTKFile type="UnstructuredGrid" version="0.1" byte_order="LittleEndian" header_type="UInt32" compressor="vtkZLibDataCompressor">
  <UnstructuredGrid>
    <Piece NumberOfPoints="343" NumberOfCells="166">
      <PointData>
        <DataArray type="Int32" Name="libmesh_node_id" format="ascii" RangeMin="160" RangeMax="2851">
          160 161 162 175 190 191
          205 210 211 212 213 214
          215 216 220 221 222 224
          225 226 228 243 244 247
          248 250 251 253 254 256
          271 272 273 274 275 276
          277 278 279 280 281 282
          283 284 285 286 287 288
          289 290 291 297 332 333
          334 335 338 339 340 342
          343 345 356 357 359 362
          363 364 367 369 394 395
          396 397 398 399 400 401
          402 403 404 405 406 407
          408 409 410 411 412 413
          414 415 416 420 421 423
          424 426 534 535 536 537
          539 540 555 556 557 558
          559 560 561 562 563 564
          565 566 567 568 569 570
          571 572 573 576 577 579
          580 581 582 583 584 585
          586 587 588 619 620 621
          622 623 624 625 626 627
          628 629 630 631 632 633
          634 635 636 637 638 639
          640 641 642 643 644 645
          646 647 648 649 650 651
          652 653 654 655 656 657
          658 659 660 661 662 663
          664 665 666 667 668 669
          670 671 672 673 674 675
          676 677 678 679 682 683
          685 686 692 695 696 697
          698 699 700 761 762 763
          764 765 766 767 768 769
          773 774 776 777 779 780
          781 782 783 784 785 788
          789 791 793 794 795 796
          797 798 799 802 804 805
          807 808 809 810 811 813
          815 817 1204 1205 1206 1207
          1208 1209 1210 1211 1212 1213
          2794 2796 2798 2799 2801 2803
          2836 2837 2841 2844 2846 2847
          2848 2849 2850 2851 217 163
          219 223 293 298 336 337
          176 341 193 344 206 358
          360 299 361 365 303 366
          368 574 575 578 218 294
          680 681 684 292 417 687
          688 689 690 691 693 694
          442 422 444 449 301 452
          770 771 772 775 418 778
          419 786 787 790 792 800
          801 803 300 806 425 812
          814 816 434 441 296 445
          447
        </DataArray>
        <DataArray type="Float64" Name="bounds" format="ascii" RangeMin="0" RangeMax="0">
          0 0 0 0 0 0
          0 0 0 0 0 0
          0 0 0 0 0 0
          0 0 0 0 0 0
          0 0 0 0 0 0
          0 0 0 0 0 0
          0 0 0 0 0 0
          0 0 0 0 0 0
          0 0 0 0 0 0
          0 0 0 0 0 0
          0 0 0 0 0 0
          0 0 0 0 0 0
          0 0 0 0 0 0
          0 0 0 0 0 0
          0 0 0 0 0 0
          0 0 0 0 0 0
          0 0 0 0 0 0
          0 0 0 0 0 0
          0 0 0 0 0 0
          0 0 0 0 0 0
          0 0 0 0 0 0
          0 0 0 0 0 0
          0 0 0 0 0 0
          0 0 0 0 0 0
          0 0 0 0 0 0
          0 0 0 0 0 0
          0 0 0 0 0 0
          0 0 0 0 0 0
          0 0 0 0 0 0
          0 0 0 0 0 0
          0 0 0 0 0 0
          0 0 0 0 0 0
          0 0 0 0 0 0
          0 0 0 0 0 0
          0 0 0 0 0 0
          0 0 0 0 0 0
          0 0 0 0 0 0
          0 0 0 0 0 0
          0 0 0 0 0 0
          0 0 0 0 0 0
          0 0 0 0 0 0
          0 0 0 0 0 0
          0 0 0 0 0 0
          0 0 0 0 0 0
          0 0 0 0 0 0
          0 0 0 0 0 0
          0 0 0 0 0 0
          0 0 0 0 0 0
          0 0 0 0 0 0
          0 0 0 0 0 0
          0 0 0 0 0 0
          0 0 0 0 0 0
          0 0 0 0 0 0
          0 0 0 0 0 0
          0 0 0 0 0 0
          0 0 0 0 0 0
          0 0 0 0 0 0
          0
        </DataArray>
        <DataArray type="Float64" Name="gradient_error" format="ascii" RangeMin="2.1486713508584836e-10" RangeMax="0.000001384517313995799">
          3.13328656778806e-7 7.290626163776275e-8 4.220496208495494e-9 8.145123949330123e-9 8.666270991808236e-7 4.6810519745628827e-8
          2.513411564044369e-9 2.6469197673663187e-8 4.6193317103656306e-8 2.2139174005894636e-7 9.619402707751756e-7 1.059503764156931e-7
          2.5594349411288416e-7 4.807306252112548e-7 4.445101744355834e-8 3.748761208807155e-8 8.242550995418441e-8 3.3361195019790524e-7
          2.640654793259653e-7 0.000001056003383448799 1.5733609886765713e-8 3.3975337423275075e-7 2.715421575782659e-7 8.767467206777272e-7
          5.328795854859106e-7 1.4738427944270508e-7 1.4024949651764902e-7 0.0000010807603468124116 9.022088367210604e-7 9.501797167481795e-8
          4.5396630792564965e-7 4.5411225559284435e-7 7.913328453162621e-7 0.0000011280601923023474 5.85057522915493e-7 7.386322168556416e-7
          0.0000011891688671619769 2.4444108130037264e-7 3.766902367472659e-7 4.1604002168756775e-7 3.7353624956247937e-7 6.040583451354462e-7
          8.153467696202784e-7 3.381261279111871e-7 2.1409848106303083e-7 6.768081141669947e-7 0.0000012509478861770602 4.216532390436726e-7
          6.966024894663358e-7 7.041470335285059e-8 1.2898609029074654e-7 1.4647670510139303e-7 2.0504707468488617e-9 3.5563484764820574e-9
          4.324095935891389e-9 1.0117698478836054e-8 1.5944133126289443e-9 1.2432408946463432e-9 2.642568819192503e-9 6.597721124933916e-9
          1.667904848119005e-8 8.920684766637416e-10 4.6228401172178367e-8 7.892605165357948e-8 1.261386248431331e-7 1.0952772870555548e-8
          9.82765250289738e-9 1.9059636349670027e-8 1.7335119803268672e-7 8.702532135239213e-9 3.2807428619242586e-7 3.090631756296333e-7
          2.9580885775667257e-7 2.8089105752797956e-7 3.291043938886648e-7 3.574388471119439e-7 3.078567027561237e-7 3.5190942563942513e-7
          3.9819426848319976e-7 4.24681123644896e-7 2.7765834712911964e-7 3.385483700387972e-7 3.126442097130028e-7 3.897428015745838e-7
          2.614080951184948e-7 3.277926888839578e-7 2.7861079126149526e-7 4.002772215996693e-7 3.6197662544024315e-7 2.9586145810118015e-7
          2.6854364364864335e-7 2.562694615333148e-7 2.689225084586542e-7 2.577977358461141e-7 3.157592074941234e-7 2.1779964125130456e-7
          2.590144684000567e-7 3.546629381784187e-7 5.930065682624286e-8 2.3105432491039412e-8 1.5771086578701973e-8 3.759856515150242e-8
          2.9942369385801683e-9 3.0907475049433297e-9 4.9657006954115926e-8 4.195409701262204e-8 6.301215880935953e-8 1.0496171545782301e-7
          8.536550054567566e-8 6.831346865881025e-8 8.53149397159949e-8 1.4588249213027423e-8 5.698232067128448e-8 4.202691276774224e-8
          3.425118707112815e-8 5.1261436771944845e-8 6.566816397416678e-8 2.7071504864200002e-8 5.871362087320256e-9 6.948342831599895e-9
          3.670008764864875e-8 2.4860149861673796e-8 4.276823770248419e-9 8.025323575879534e-9 1.3020212074698846e-8 1.1561219874432343e-7
          1.5170829388613175e-7 1.7185417530836687e-7 2.1500910556301579e-7 3.1959370549729446e-8 3.520617383506813e-8 5.57987888724668e-8
          2.2809615187241026e-7 2.7830991723989977e-7 3.845297712040681e-8 0.0000012790278012746876 0.0000010791208814544124 7.295052876316973e-7
          0.0000011188989300127596 0.0000013159717204518617 0.0000012318190977251057 0.0000010766104549846263 5.893236639942258e-7 7.861500056534639e-7
          7.439969829178584e-7 0.0000013529156396290358 0.000001384517313995799 0.0000011542882382288338 9.82976347312702e-7 1.440985621437591e-7
          1.3631053245174962e-7 1.5289026558856746e-7 2.0129037094100367e-7 2.0172322093488804e-7 1.836759391855431e-7 1.8305580517854039e-7
          1.1061588235585569e-7 2.013170364845179e-7 1.8267485397229166e-7 1.2852250275974015e-7 1.656286574361982e-7 1.648212394160771e-7
          1.6403267146006538e-7 2.9011491340324176e-7 2.7849444645436884e-7 2.438853801422055e-7 2.3838111251199786e-7 2.493089279817822e-7
          2.631283881331337e-7 2.407372308779005e-7 2.6687397950549596e-7 2.769478482844852e-7 2.4309334924380315e-7 2.0850294256032264e-7
          2.477623298118985e-7 2.3758908161359548e-7 2.8702171706347445e-7 2.104875179406253e-7 2.0395179799913797e-7 2.4257657038192064e-7
          2.357798706906052e-7 2.1835447724146594e-7 2.53416337038932e-7 1.6810412462757273e-7 1.938297010214697e-7 2.0327180821073787e-7
          1.785150497352886e-7 2.7466562282321603e-7 2.676079433820724e-7 2.8847819683639815e-7 2.1955527741536665e-7 9.265356175810972e-8
          9.330961077301879e-8 1.9817646435231928e-7 1.7776412741213893e-7 7.490220242672027e-8 9.396565978792785e-8 1.5735179047195855e-7
          5.312598214351604e-8 5.446532884304456e-8 5.236918567863722e-8 2.176094921881227e-7 2.5892099152461095e-7 1.428288204132946e-7
          1.647791405875992e-7 3.002324908610992e-7 1.8672946076190379e-7 6.96773927034001e-8 7.54621976013707e-8 7.299233118144243e-8
          6.927357518704119e-8 7.21874919336587e-8 7.474575052111946e-8 7.189959957534044e-8 7.941380770920397e-8 7.725970109867794e-8
          6.607996596598747e-8 7.254475326662692e-8 7.942287369321954e-8 7.974486414861709e-8 8.006883396312852e-8 5.814505259317379e-8
          6.348523679006602e-8 5.894578796756382e-8 7.102573266401918e-8 5.8575288472533945e-8 6.490022183190122e-8 5.4044093642654343e-8
          5.981653161870048e-8 7.525699564072799e-8 7.044317795921362e-8 6.344967438547004e-8 6.550979216410855e-8 7.309772699678203e-8
          6.295187012038445e-8 6.696355988130563e-8 7.154650487823421e-8 8.054715849634359e-8 5.916323727346065e-8 6.622308408124965e-8
          7.996618963369654e-8 7.659148389011617e-8 7.455742372941536e-8 7.995692343915223e-8 8.212782388803499e-8 7.929078065854559e-8
          8.496681168588249e-8 8.328417499341057e-8 3.743752739418654e-8 4.5176389417413696e-8 5.3659986747439185e-8 6.320405862382926e-8
          2.969866537095938e-8 4.411591487104911e-8 2.5941358973671714e-8 3.944659705182925e-8 4.717481086900898e-8 3.171838323464953e-8
          6.792354221330593e-9 2.1831966638474754e-8 2.9277127583091526e-9 4.050221415865171e-9 3.687157905561891e-8 5.172730073421191e-9
          2.0963674015307677e-7 2.7933513485370936e-7 1.0499828382819517e-7 3.4903352955434197e-7 1.837433169447772e-7 2.5209827286032244e-7
          6.805326753523997e-8 7.95630094120668e-8 3.2045322877586767e-7 9.107275128889363e-8 1.33187777810094e-8 1.28481864422503e-8
          4.9788156350579266e-8 1.2580191850116072e-8 2.3484683383362395e-7 1.9458365214587204e-7 8.279674999364386e-10 1.5717507565867357e-9
          3.5423547035175414e-9 4.019632877003354e-10 4.921595666426707e-9 2.315534013237033e-9 2.1486713508584836e-10 7.959997110379142e-8
          2.250082932489506e-8 8.687930311340525e-8 4.073172185192086e-8 5.924667587059965e-9 1.9131652363992093e-7 1.1297154103540448e-7
          5.896261437894666e-8 1.8028016474509134e-8 1.242484533041266e-8 6.821674186316186e-9 3.353890307005754e-8 5.054441609014025e-8
          1.8903794232357188e-7 1.6762697320482628e-7 1.2388843818360363e-7 1.9221128462927523e-7 1.648028476859588e-7 1.6936374806596202e-7
          1.4842852261756854e-7 3.676425116718949e-8 1.3859746777053783e-7 1.1968963200377334e-7 9.768333680611211e-8 8.602567966048881e-8
          1.6667675219853124e-7 2.2261436782675317e-7 2.5666294054447987e-7 1.4454373452250994e-7 2.6762171638889685e-7 3.0392661670628535e-7
          7.670519904617693e-8 8.816380884943108e-8 8.598418643910426e-8 7.919181454425935e-8 9.37483748859273e-8 9.468969770302219e-8
          9.321509686591795e-8 5.956623101505087e-8 6.804937091176648e-8 6.151967676379171e-8 8.362288114938768e-8 7.772332215294723e-8
          8.540048935741663e-8 9.580829091644576e-8 6.463023412577143e-8 7.668475714082047e-8 9.4316065800589e-8 9.352551278384756e-8
          8.851210029668963e-8 9.633777407740187e-8 1.5540244431258533e-7 1.302909094729393e-7 1.4936842669375667e-7 1.2508533413472377e-7
          7.583268853098555e-8
        </DataArray>
        <DataArray type="Float64" Name="gradient_matprop_error" format="ascii" RangeMin="0" RangeMax="0">
          0 0 0 0 0 0
          0 0 0 0 0 0
          0 0 0 0 0 0
          0 0 0 0 0 0
          0 0 0 0 0 0
          0 0 0 0 0 0
          0 0 0 0 0 0
          0 0 0 0 0 0
          0 0 0 0 0 0
          0 0 0 0 0 0
          0 0 0 0 0 0
          0 0 0 0 0 0
          0 0 0 0 0 0
          0 0 0 0 0 0
          0 0 0 0 0 0
          0 0 0 0 0 0
          0 0 0 0 0 0
          0 0 0 0 0 0
          0 0 0 0 0 0
          0 0 0 0 0 0
          0 0 0 0 0 0
          0 0 0 0 0 0
          0 0 0 0 0 0
          0 0 0 0 0 0
          0 0 0 0 0 0
          0 0 0 0 0 0
          0 0 0 0 0 0
          0 0 0 0 0 0
          0 0 0 0 0 0
          0 0 0 0 0 0
          0 0 0 0 0 0
          0 0 0 0 0 0
          0 0 0 0 0 0
          0 0 0 0 0 0
          0 0 0 0 0 0
          0 0 0 0 0 0
          0 0 0 0 0 0
          0 0 0 0 0 0
          0 0 0 0 0 0
          0 0 0 0 0 0
          0 0 0 0 0 0
          0 0 0 0 0 0
          0 0 0 0 0 0
          0 0 0 0 0 0
          0 0 0 0 0 0
          0 0 0 0 0 0
          0 0 0 0 0 0
          0 0 0 0 0 0
          0 0 0 0 0 0
          0 0 0 0 0 0
          0 0 0 0 0 0
          0 0 0 0 0 0
          0 0 0 0 0 0
          0 0 0 0 0 0
          0 0 0 0 0 0
          0 0 0 0 0 0
          0 0 0 0 0 0
          0
        </DataArray>
        <DataArray type="Float64" Name="initial_marker" format="ascii" RangeMin="0" RangeMax="2">
          0 0 0 0 0 0
          0 0 0 0 0 0
          0 0 0 0 0 2
          0 0 0 0 0 0
          0 0 0 0 0 0
          0 0 0 0 0 0
          0 0 1 0.25 0 0
          0 0 1 0 0 1
          0 0 0 0 0 0
          0 0 0 0 0 0
          0 0 0 0 0 0
          0 0 0 0 0.5 0.25
          0 0.5 1.5 1 0.25 0.75
          2 1.75 0 0.25 0 0.75
          2 1.5 0.5 2 0.5 0.5
          0.5 2 2 0.3333333333333333 0.75 2
          2 1 0 0 0 0
          0 0 0 0 0 0
          0 0 0 0 0 0
          0 0 0 0 0 0
          0 0 0 0 0 0
          0 0 0 0 0 0
          0 0 0 0 0 0
          0 0 0 0 0 0
          0 0 0 0 0 0
          0 0 0 0 0 0
          0 0 0 0 0 0
          0 0 0 0 0 0
          0 0 0 0 0 0
          0 0 0 0 0 0
          0 0 0 0 0 0
          0 0 0 0 0 0
          0 0 0 0 0 0
          0 0 0 0 0 0
          0 0 0 0 1 1
          1 2 1 0.5 1.5 1.25
          0 1 2 2 2 0
          0.5 0 1.5 0 0.5 0
          0 1.5 1 2 2 2
          2 2 2 2 2 2
          2 2 2 2 2 2
          2 2 0 0 0 0
          0 0 0 0 0 0
          0 0 0 0 0 0
          0 0 0 0 0 0
          0 0 0 0 0 0
          0 0 0 0 0 0
          0 0 0 0 0 0
          0 0 0 0 0 0
          0 0 0 0 0 0
          0 0 0 1 0.25 0
          0 0 0 0 0 0
          0 0.5 0 0 1 0
          1.5 2 1.75 1.25 2 2
          2 0 0.5 0 1.5 2
          2 2 2 2 2 2
          2 2 0 0 0 0
          0
        </DataArray>
        <DataArray type="Float64" Name="markers_norefine" format="ascii" RangeMin="0" RangeMax="0">
          0 0 0 0 0 0
          0 0 0 0 0 0
          0 0 0 0 0 0
          0 0 0 0 0 0
          0 0 0 0 0 0
          0 0 0 0 0 0
          0 0 0 0 0 0
          0 0 0 0 0 0
          0 0 0 0 0 0
          0 0 0 0 0 0
          0 0 0 0 0 0
          0 0 0 0 0 0
          0 0 0 0 0 0
          0 0 0 0 0 0
          0 0 0 0 0 0
          0 0 0 0 0 0
          0 0 0 0 0 0
          0 0 0 0 0 0
          0 0 0 0 0 0
          0 0 0 0 0 0
          0 0 0 0 0 0
          0 0 0 0 0 0
          0 0 0 0 0 0
          0 0 0 0 0 0
          0 0 0 0 0 0
          0 0 0 0 0 0
          0 0 0 0 0 0
          0 0 0 0 0 0
          0 0 0 0 0 0
          0 0 0 0 0 0
          0 0 0 0 0 0
          0 0 0 0 0 0
          0 0 0 0 0 0
          0 0 0 0 0 0
          0 0 0 0 0 0
          0 0 0 0 0 0
          0 0 0 0 0 0
          0 0 0 0 0 0
          0 0 0 0 0 0
          0 0 0 0 0 0
          0 0 0 0 0 0
          0 0 0 0 0 0
          0 0 0 0 0 0
          0 0 0 0 0 0
          0 0 0 0 0 0
          0 0 0 0 0 0
          0 0 0 0 0 0
          0 0 0 0 0 0
          0 0 0 0 0 0
          0 0 0 0 0 0
          0 0 0 0 0 0
          0 0 0 0 0 0
          0 0 0 0 0 0
          0 0 0 0 0 0
          0 0 0 0 0 0
          0 0 0 0 0 0
          0 0 0 0 0 0
          0
        </DataArray>
        <DataArray type="Float64" Name="markers_mustrefine" format="ascii" RangeMin="0" RangeMax="2">
          0 0 0 0 0 0
          0 0 0 0 0 0
          0 0 0 0 0 2
          0 0 0 0 0 0
          0 0 0 0 0 0
          0 0 0 0 0 0
          0 0 1 0.25 0 0
          0 0 1 0 0 1
          0 0 0 0 0 0
          0 0 0 0 0 0
          0 0 0 0 0 0
          0 0 0 0 0.5 0.25
          0 0.5 1.5 1 0.25 0.75
          2 1.75 0 0.25 0 0.75
          2 1.5 0.5 2 0.5 0.5
          0.5 2 2 0.3333333333333333 0.75 2
          2 1 0 0 0 0
          0 0 0 0 0 0
          0 0 0 0 0 0
          0 0 0 0 0 0
          0 0 0 0 0 0
          0 0 0 0 0 0
          0 0 0 0 0 0
          0 0 0 0 0 0
          0 0 0 0 0 0
          0 0 0 0 0 0
          0 0 0 0 0 0
          0 0 0 0 0 0
          0 0 0 0 0 0
          0 0 0 0 0 0
          0 0 0 0 0 0
          0 0 0 0 0 0
          0 0 0 0 0 0
          0 0 0 0 0 0
          0 0 0 0 1 1
          1 2 1 0.5 1.5 1.25
          0 1 2 2 2 0
          0.5 0 1.5 0 0.5 0
          0 1.5 1 2 2 2
          2 2 2 2 2 2
          2 2 2 2 2 2
          2 2 0 0 0 0
          0 0 0 0 0 0
          0 0 0 0 0 0
          0 0 0 0 0 0
          0 0 0 0 0 0
          0 0 0 0 0 0
          0 0 0 0 0 0
          0 0 0 0 0 0
          0 0 0 0 0 0
          0 0 0 1 0.25 0
          0 0 0 0 0 0
          0 0.5 0 0 1 0
          1.5 2 1.75 1.25 2 2
          2 0 0.5 0 1.5 2
          2 2 2 2 2 2
          2 2 0 0 0 0
          0
        </DataArray>
        <DataArray type="Float64" Name="gradient_marker" format="ascii" RangeMin="0" RangeMax="1">
          1 1 1 1 1 1
          1 1 1 1 1 1
          1 1 1 1 1 1
          1 1 1 1 1 1
          1 1 1 1 1 1
          1 1 1 1 1 1
          1 1 1 1 1 1
          1 1 1 1 1 1
          1 0.75 0.75 0.8333333333333334 1 1
          1 1 1 1 1 1
          1 1 1 1 1 1
          1 1 1 1 1 1
          1 1 1 1 1 1
          1 1 1 1 1 1
          1 1 1 1 1 0.75
          0.75 0.5 0.5 0.8333333333333334 0.75 0.5
          0.75 0.75 1 1 1 1
          1 1 1 1 1 1
          1 1 1 1 1 1
          1 1 1 1 1 1
          1 1 1 1 1 1
          1 1 1 1 1 1
          1 1 1 1 1 1
          1 1 1 1 1 1
          1 1 1 1 1 1
          1 1 1 1 1 1
          1 1 1 1 1 1
          1 1 1 1 1 1
          1 1 1 1 1 1
          1 1 1 1 1 1
          1 1 1 1 1 1
          1 1 1 1 1 1
          1 1 1 0.5 1 1
          0 0 0 1 1 1
          1 1 1 0 0 0
          0 0 0 0 0.25 0.25
          0 0.25 0.5 0.5 0.5 0
          0 0 0 0 0.125 0
          0 0.375 0.25 0 0 0.25
          0 0.25 0.375 0.625 0 0.25
          0.75 0.25 0 0.5 0.625 0.5
          0.75 0.5 0 0 0.125 0.25
          0 0 0 0 0 0
          1 1 1 1 1 1
          1 1 1 1 1 1
          1 1 1 1 1 1
          0.875 1 0.75 0.875 1 1
          1 1 1 1 1 1
          1 0.75 1 1 1 1
          1 1 1 1 0.5 0.625
          0.75 0.75 0.6666666666666666 0.75 0.5 0.5
          0.5 0 0.5 0.5 0.375 0.3333333333333333
          0.8333333333333334 0.75 1 1 1 1
          0.25 0.75 0.625 0.5 1 1
          1 0 0.25 0 0.75 0.5
          0.75 1 0 0.5 1 1
          1 1 0.625 0.625 0.625 0.5
          0.5
        </DataArray>
        <DataArray type="Float64" Name="gradient_matprop_marker" format="ascii" RangeMin="0" RangeMax="0">
          0 0 0 0 0 0
          0 0 0 0 0 0
          0 0 0 0 0 0
          0 0 0 0 0 0
          0 0 0 0 0 0
          0 0 0 0 0 0
          0 0 0 0 0 0
          0 0 0 0 0 0
          0 0 0 0 0 0
          0 0 0 0 0 0
          0 0 0 0 0 0
          0 0 0 0 0 0
          0 0 0 0 0 0
          0 0 0 0 0 0
          0 0 0 0 0 0
          0 0 0 0 0 0
          0 0 0 0 0 0
          0 0 0 0 0 0
          0 0 0 0 0 0
          0 0 0 0 0 0
          0 0 0 0 0 0
          0 0 0 0 0 0
          0 0 0 0 0 0
          0 0 0 0 0 0
          0 0 0 0 0 0
          0 0 0 0 0 0
          0 0 0 0 0 0
          0 0 0 0 0 0
          0 0 0 0 0 0
          0 0 0 0 0 0
          0 0 0 0 0 0
          0 0 0 0 0 0
          0 0 0 0 0 0
          0 0 0 0 0 0
          0 0 0 0 0 0
          0 0 0 0 0 0
          0 0 0 0 0 0
          0 0 0 0 0 0
          0 0 0 0 0 0
          0 0 0 0 0 0
          0 0 0 0 0 0
          0 0 0 0 0 0
          0 0 0 0 0 0
          0 0 0 0 0 0
          0 0 0 0 0 0
          0 0 0 0 0 0
          0 0 0 0 0 0
          0 0 0 0 0 0
          0 0 0 0 0 0
          0 0 0 0 0 0
          0 0 0 0 0 0
          0 0 0 0 0 0
          0 0 0 0 0 0
          0 0 0 0 0 0
          0 0 0 0 0 0
          0 0 0 0 0 0
          0 0 0 0 0 0
          0
        </DataArray>
        <DataArray type="Float64" Name="combo" format="ascii" RangeMin="0" RangeMax="1">
          1 1 1 1 1 1
          1 1 1 1 1 1
          1 1 1 1 1 1
          1 1 1 1 1 1
          1 1 1 1 1 1
          1 1 1 1 1 1
          1 1 1 1 1 1
          1 1 1 1 1 1
          1 0.75 0.75 0.8333333333333334 1 1
          1 1 1 1 1 1
          1 1 1 1 1 1
          1 1 1 1 1 1
          1 1 1 1 1 1
          1 1 1 1 1 1
          1 1 1 1 1 0.75
          0.75 0.5 0.5 0.8333333333333334 0.75 0.5
          0.75 0.75 1 1 1 1
          1 1 1 1 1 1
          1 1 1 1 1 1
          1 1 1 1 1 1
          1 1 1 1 1 1
          1 1 1 1 1 1
          1 1 1 1 1 1
          1 1 1 1 1 1
          1 1 1 1 1 1
          1 1 1 1 1 1
          1 1 1 1 1 1
          1 1 1 1 1 1
          1 1 1 1 1 1
          1 1 1 1 1 1
          1 1 1 1 1 1
          1 1 1 1 1 1
          1 1 1 0.5 1 1
          0 0 0 1 1 1
          1 1 1 0 0 0
          0 0 0 0 0.25 0.25
          0 0.25 0.5 0.5 0.5 0
          0 0 0 0 0.125 0
          0 0.375 0.25 0 0 0.25
          0 0.25 0.375 0.625 0 0.25
          0.75 0.25 0 0.5 0.625 0.5
          0.75 0.5 0 0 0.125 0.25
          0 0 0 0 0 0
          1 1 1 1 1 1
          1 1 1 1 1 1
          1 1 1 1 1 1
          0.875 1 0.75 0.875 1 1
          1 1 1 1 1 1
          1 0.75 1 1 1 1
          1 1 1 1 0.5 0.625
          0.75 0.75 0.6666666666666666 0.75 0.5 0.5
          0.5 0 0.5 0.5 0.375 0.3333333333333333
          0.8333333333333334 0.75 1 1 1 1
          0.25 0.75 0.625 0.5 1 1
          1 0 0.25 0 0.75 0.5
          0.75 1 0 0.5 1 1
          1 1 0.625 0.625 0.625 0.5
          0.5
        </DataArray>
        <DataArray type="Float64" Name="dHdT" format="ascii" RangeMin="25.80294264871879" RangeMax="40.677461491219475">
          25.87888419558263 25.825637466361506 25.81299432558382 25.813611696150918 35.75875618448303 25.866955421475836
          25.813358314470342 25.809487219799102 25.819240270884556 25.856437526731522 27.38331506752831 26.413727674594675
          26.12412825500642 26.33372854239281 25.820808377911636 25.82701910962955 25.845701143019994 37.753444913354386
          27.067577894818804 28.112296024968856 25.830235699010853 25.89650297632346 25.870504884287996 27.43367661183624
          26.466800073058554 25.84200470237849 25.874249821212274 32.389104831645795 28.11042711512139 25.924294121353796
          27.003143513424995 26.72126170490806 27.31679447652293 31.204293018048787 32.0621071204251 29.48637616941006
          29.541686702322004 26.334190849968515 32.42408840322739 29.43220171207446 26.3677725843374 27.050188361527084
          27.412001606837183 26.58013671877921 38.74571611123547 33.25661012609855 31.943369280698647 33.850427727899465
          27.704267311847836 26.175715297037154 26.128176690357392 26.02650487950373 25.813757386091417 25.81406102623266
          25.814304203734924 25.815453032847127 25.81352445682903 25.813506753886386 25.813507569853765 25.81485102137843
          25.816845039461597 25.813489050943744 25.87716787649959 25.92353353623039 25.99035445621407 25.829605926781795
          25.82928664566738 25.842376291527174 26.057175376197748 25.82896736455297 32.48007876067343 31.655586139737558
          32.25755501007504 36.80378662756033 36.73106915588372 35.58932795712862 35.49631285304524 31.606043211749846
          36.505028619301726 35.50374139694376 30.404119423760573 32.51269348140793 32.98601102171028 32.5071072310916
          38.29895155046714 37.20365109809512 37.32174507346637 36.91309068805293 33.856889910464716 32.18098638653508
          31.167271313697174 36.81493323182451 36.3956395808845 29.672496351640103 32.397816839811185 37.10223848903979
          36.93464978145662 34.01048552632923 25.80294264871879 25.80922022092999 25.810718854797447 25.8070568480432
          25.81240824705357 25.81263887164979 25.839683328413628 25.838711156765836 25.855666693080952 26.00215996700793
          25.956007108644364 25.93006355591622 25.967333174563226 25.81921894235928 25.88850588373349 25.874039641726263
          25.83773898511804 25.90412000318808 25.932506382118518 25.859573399719032 25.81276689277268 25.816621922249567
          25.85183372573554 25.843162053908852 25.815990592428122 25.82047695172645 25.83449038208217 25.981565903643343
          26.046025648843084 26.06977026697517 26.15457491082056 25.857902547658377 25.865752307920268 25.897845852873548
          26.157974630307002 26.263124172798044 25.873602068182162 28.644024551406666 27.98271711027996 27.451861053529473
          30.484949300959187 30.921919731933414 29.6607179251794 29.423241069128835 26.81585236272671 27.469618808449844
          27.505415927262337 33.199814912460155 31.338718740078853 30.856195262032884 28.123385254172984 27.095150774163418
          26.995562198507145 27.110278835278194 28.558008494869917 28.446060767104985 28.165864830910074 28.270591300127553
          26.79326005169198 28.22822554625394 27.955477184678553 26.895973622850875 27.885668894715163 27.98317410538519
          27.68272882310316 34.29897363364506 33.17290310820829 32.84934735154749 35.924663283106256 36.35298330110926
          35.02645490669045 34.6490742218316 32.046832582771515 33.699926512271645 33.37348516055694 38.406992968573455
          36.88000670517261 36.4488010921157 35.353020441771775 28.518356706490806 28.590498213493145 29.192178710894346
          29.252939438378984 28.340936994928263 29.043764106588668 27.48654217930326 27.80655721734635 27.925523968687415
          27.57576792557992 29.866000715297886 29.91538066326482 29.74659121824907 28.126572255389434 26.66503364584731
          26.61171569523391 27.992430436109807 27.725575825705956 26.42027653310908 26.558397744620514 27.45872121530211
          26.269927125042727 26.23860119288495 26.16206241167711 28.10357462732822 28.82540152668324 27.07147133602092
          27.332774282970394 29.54722842603826 27.59407722991987 34.32217943381069 36.36543157937183 36.06331887696216
          34.951313976564414 37.4442486025534 34.82735812979323 34.29137721152937 36.28518076978595 35.97376571462149
          32.83945441502198 34.857248904225266 37.208170704130325 37.34271693242015 37.235835007048564 31.064791946172825
          32.87548954956182 31.609557320547296 35.80433471192349 30.969599692751444 32.79325988595162 30.015686848724428
          31.534372622909757 35.721539236140515 34.44867161889389 36.660441194326026 36.8343895582677 37.43448764953466
          36.58474023154223 36.86492535724716 36.93296828047759 37.358701706627684 37.056512716012335 36.83665691382849
          37.12077679258681 37.163778752285545 36.46692012771116 37.405075233674935 37.06620006090315 36.416007912258934
          37.306241728677065 36.98773098382517 26.044493946936214 26.091931393756234 26.272132558039207 26.356935992224358
          25.99705650011619 26.187329123854056 25.97213833124538 26.102644132802098 26.15911446221554 26.046173803388655
          25.81523453953848 25.81831885674744 25.81367130284673 25.813246421180523 25.8214031739564 25.81282153951432
          26.17431629481586 26.316201140440903 25.98310326365563 26.458085986065953 26.111401267399316 26.23855960500013
          25.912507478498462 25.937397711525964 26.36571794260094 25.962287944553466 25.815967455281545 25.815303993424614
          25.875524834140876 25.81822221475413 28.340647260807277 26.32926753013169 25.813667665814467 25.81386457355873
          25.813382247990795 25.813464253627394 25.818817549098007 25.814061481303 25.813493684950174 25.92072657843098
          25.84559153509979 26.069435551412084 25.868303452591018 25.8229745671103 26.690191562227774 25.96428528036236
          25.89101537008224 25.829402356732515 25.825663587690393 25.821924818648267 25.97569126626617 25.948302853704405
          27.703640783159706 27.44932781049073 26.98159573262556 31.833733898071635 30.575886881648536 27.353620737302943
          27.123057161863127 26.092456816269927 26.95988890385666 26.7778286809935 26.66705728484981 26.506673786860045
          27.40795884899237 32.13895851493414 28.512164095598475 27.056527299255542 33.982620185509944 29.223360213054637
          34.178381641620646 36.108077376319244 35.78456295546653 34.66055649617093 37.22507268852976 37.24476752465691
          37.01873818686771 30.762278158422774 32.608661765465015 31.357259073201988 35.541565075439124 38.81608419042014
          38.170645557809024 37.50326141345525 40.677461491219475 39.24250033561665 37.616764770092246 36.87036494752676
          36.25941399334092 37.11264511668254 27.969129111664117 26.96304008843895 27.390341629502974 26.80532040770427
          26.408024776891644
        </DataArray>
        <DataArray type="Float64" Name="dk/dtemperature" format="ascii" RangeMin="0.00566988124460913" RangeMax="0.015804580349343195">
          0.01574193165303992 0.015804580349343192 0.015804580349343192 0.015804580349343192 0.008209746828818608 0.015804580349343192
          0.015804580349343192 0.015804580349343192 0.015804580349343192 0.015773256001191557 0.014135203059823935 0.015186897730935272
          0.01550844405172074 0.01526980202005562 0.015804580349343192 0.015804580349343192 0.015804580349343192 0.00700550083664977
          0.014351330179034989 0.013436251560030482 0.015804580349343192 0.01574193165303992 0.015773256001191557 0.013977068317877425