<?xml version="1.0"?>
<VTKFile type="UnstructuredGrid" version="0.1" byte_order="LittleEndian" header_type="UInt32" compressor="vtkZLibDataCompressor">
  <UnstructuredGrid>
    <Piece NumberOfPoints="1024" NumberOfCells="704">
      <PointData>
        <DataArray type="Int32" Name="libmesh_node_id" format="ascii" RangeMin="1446" RangeMax="8134">
          1446 1447 1448 1449 1456 1457
          2108 2109 2110 2111 2112 2113
          2114 2115 2116 2117 2118 2119
          2120 2121 2136 2137 2143 2146
          2147 2148 2149 2150 2151 2153
          2154 2155 2166 2170 3252 3253
          3254 3257 3260 3262 3263 3264
          3265 3266 3267 3268 3269 3270
          3271 3272 3273 3274 3275 3278
          3279 3282 3284 3286 3287 3288
          3289 3290 3291 3292 3293 3294
          3295 3296 3297 3298 3299 3303
          3304 3324 3325 3328 3329 3333
          3346 3347 3350 3352 3354 3355
          3356 3357 3358 3359 3361 3362
          3363 3366 3367 3369 3372 3374
          3375 3376 3377 3378 3379 3380
          3381 3382 3383 3385 3387 3389
          3391 3392 3393 3394 3395 3396
          3397 3403 3408 3409 3410 3411
          3412 3413 3414 3415 3416 3417
          3419 3421 3423 3425 3426 3427
          3428 3429 3430 3431 3454 3458
          3488 3492 3501 3503 3505 3507
          3508 3509 3511 3512 3513 3516
          3517 3522 3524 3525 3531 3535
          3537 3539 3541 3542 3543 3545
          3546 3547 3549 3553 3555 3559
          4262 4267 4385 6006 6007 6008
          6011 6014 6028 6029 6032 6034
          6036 6037 6038 6039 6040 6041
          6042 6043 6044 6045 6046 6047
          6048 6049 6050 6051 6052 6053
          6054 6055 6056 6057 6058 6059
          6060 6061 6062 6063 6064 6065
          6066 6067 6068 6069 6070 6071
          6072 6073 6074 6075 6076 6077
          6078 6079 6080 6081 6082 6083
          6096 6097 6100 6102 6116 6117
          6120 6122 6124 6125 6126 6127
          6128 6129 6130 6131 6132 6133
          6134 6135 6136 6137 6138 6139
          6140 6141 6142 6143 6144 6145
          6146 6147 6148 6149 6150 6151
          6152 6153 6154 6155 6156 6157
          6158 6159 6160 6161 6162 6163
          6164 6165 6166 6167 6168 6169
          6170 6171 6172 6173 6174 6175
          6177 6192 6193 6194 6195 6196
          6197 6198 6199 6201 6260 6261
          6262 6263 6264 6265 6266 6267
          6269 6280 6281 6282 6283 6284
          6285 6286 6287 6288 6289 6342
          6343 6346 6348 6350 6351 6352
          6353 6354 6355 6356 6357 6358
          6359 6360 6361 6362 6363 6364
          6365 6366 6367 6368 6369 6382
          6383 6385 6388 6398 6400 6402
          6416 6417 6419 6422 6432 6434
          6436 6438 6439 6440 6441 6442
          6443 6444 6445 6446 6447 6448
          6449 6450 6451 6452 6453 6454
          6455 6456 6457 6458 6459 6460
          6461 6462 6463 6464 6465 6466
          6467 6468 6469 6470 6471 6472
          6473 6474 6475 6476 6477 6478
          6479 6480 6481 6482 6483 6484
          6485 6486 6487 6488 6489 6490
          6491 6492 6493 6494 6495 6496
          6497 6498 6499 6500 6501 6502
          6503 6504 6505 6514 6516 6518
          6528 6530 6532 6542 6544 6546
          6556 6558 6560 6562 6563 6564
          6565 6566 6567 6568 6569 6570
          6571 6572 6573 6574 6575 6576
          6577 6578 6579 6580 6581 6582
          6583 6584 6585 6586 6587 6588
          6589 6590 6591 6592 6593 6594
          6595 6596 6597 6598 6599 6600
          6601 6602 6603 6604 6605 6606
          6607 6608 6609 6610 6611 6612
          6613 6614 6615 6616 6617 6646
          6648 6650 6680 6682 6684 6686
          6687 6688 6689 6690 6691 6692
          6693 6694 6695 6696 6697 6698
          6699 6700 6701 6702 6703 6704
          6705 6706 6707 6708 6709 6710
          6711 6712 6713 6714 6715 6716
          6717 6718 6719 6720 6721 6722
          6723 6724 6725 6726 6727 6728
          6729 6730 6731 6732 6733 6734
          6735 6736 6737 6738 6739 6740
          6741 6742 6743 6744 6745 6746
          6747 6748 6749 6750 6751 6752
          6753 6762 6764 6766 6776 6778
          6780 6790 6792 6794 6804 6806
          6808 6810 6811 6812 6813 6814
          6815 6816 6817 6818 6819 6820
          6821 6822 6823 6824 6825 6826
          6827 6828 6829 6830 6831 6832
          6833 6834 6835 6836 6837 6838
          6839 6840 6841 6842 6843 6844
          6845 6846 6847 6848 6849 6850
          6851 6852 6853 6854 6855 6856
          6857 6858 6859 6860 6861 6862
          6863 6864 6865 6866 6867 6870
          6872 6873 6875 6886 6888 6890
          6892 6900 6901 6904 6906 6907
          6909 6920 6922 6924 6926 7002
          7004 7006 7008 7016 7017 7018
          7019 7020 7021 7022 7030 7032
          7034 7036 7044 7045 7046 7047
          7048 7049 7050 7117 7118 7121
          7123 7124 7126 7137 7139 7141
          7143 7151 7152 7155 7157 7158
          7160 7171 7173 7175 7177 7253
          7255 7257 7259 7267 7268 7269
          7270 7271 7272 7273 7281 7283
          7285 7287 7295 7296 7297 7298
          7299 7300 7301 7373 7375 7377
          7391 7392 7395 7397 7407 7409
          7411 7421 7423 7425 7427 7428
          7429 7430 7431 7432 7433 7434
          7435 7436 7437 7438 7439 7440
          7441 7442 7443 7444 7445 7446
          7447 7448 7449 7450 7451 7452
          7453 7454 7455 7456 7458 7459
          7460 7461 7462 7463 7464 7465
          7466 7467 7468 7469 7470 7471
          7472 7473 7474 7475 7476 7477
          7478 7479 7480 7481 7482 7483
          7484 7486 7487 7488 7501 7502
          7505 7507 7537 7539 7541 7557
          7558 7559 7560 7561 7562 7563
          7564 7565 7566 7567 7568 7571
          7572 7574 7576 7587 7588 7589
          7590 7591 7592 7593 7594 7596
          7598 7600 7626 7628 7630 7640
          7642 7644 7654 7656 7658 7668
          7670 7672 7674 7675 7676 7677
          7678 7679 7680 7681 7682 7683
          7684 7685 7686 7687 7688 7689
          7690 7691 7692 7693 7694 7695
          7696 7697 7699 7700 7701 7702
          7703 7704 7705 7706 7707 7708
          7709 7710 7711 7712 7713 7714
          7715 7716 7717 7718 7719 7720
          7721 7722 7723 7724 7725 7727
          7728 7729 7738 7740 7742 7766
          7768 7770 7786 7787 7788 7789
          7790 7791 7792 7793 7795 7797
          7799 7814 7815 7816 7817 7818
          7819 7820 7821 7823 7825 7827
          7842 7843 7846 7847 7849 7851
          7862 7863 7869 7882 7884 7886
          7888 7896 7900 8086 8088 8090
          8092 8100 8104 8114 8116 8118
          8120 8128 8132 2138 2139 3360
          2144 4269 3526 4386 4389 4390
          3562 3566 7457 3510 7485 2167
          7569 7570 7573 7575 3527 7595
          7597 7599 3532 7698 3544 7726
          2171 7794 7796 7798 3556 7822
          7824 7826 3560 7844 7845 7848
          7850 3563 7864 7865 7866 7867
          7868 7870 7871 3567 7883 7885
          7887 3569 7897 7898 7899 7901
          7902 3571 8087 8089 8091 3602
          8101 8102 8103 8105 8106 3604
          8115 8117 8119 3606 8129 8130
          8131 8133 8134 3608
        </DataArray>
        <DataArray type="Float64" Name="bounds" format="ascii" RangeMin="0" RangeMax="0">
          0 0 0 0 0 0
          0 0 0 0 0 0
          0 0 0 0 0 0
          0 0 0 0 0 0
          0 0 0 0 0 0
          0 0 0 0 0 0
          0 0 0 0 0 0
          0 0 0 0 0 0
          0 0 0 0 0 0
          0 0 0 0 0 0
          0 0 0 0 0 0
          0 0 0 0 0 0
          0 0 0 0 0 0
          0 0 0 0 0 0
          0 0 0 0 0 0
          0 0 0 0 0 0
          0 0 0 0 0 0
          0 0 0 0 0 0
          0 0 0 0 0 0
          0 0 0 0 0 0
          0 0 0 0 0 0
          0 0 0 0 0 0
          0 0 0 0 0 0
          0 0 0 0 0 0
          0 0 0 0 0 0
          0 0 0 0 0 0
          0 0 0 0 0 0
          0 0 0 0 0 0
          0 0 0 0 0 0
          0 0 0 0 0 0
          0 0 0 0 0 0
          0 0 0 0 0 0
          0 0 0 0 0 0
          0 0 0 0 0 0
          0 0 0 0 0 0
          0 0 0 0 0 0
          0 0 0 0 0 0
          0 0 0 0 0 0
          0 0 0 0 0 0
          0 0 0 0 0 0
          0 0 0 0 0 0
          0 0 0 0 0 0
          0 0 0 0 0 0
          0 0 0 0 0 0
          0 0 0 0 0 0
          0 0 0 0 0 0
          0 0 0 0 0 0
          0 0 0 0 0 0
          0 0 0 0 0 0
          0 0 0 0 0 0
          0 0 0 0 0 0
          0 0 0 0 0 0
          0 0 0 0 0 0
          0 0 0 0 0 0
          0 0 0 0 0 0
          0 0 0 0 0 0
          0 0 0 0 0 0
          0 0 0 0 0 0
          0 0 0 0 0 0
          0 0 0 0 0 0
          0 0 0 0 0 0
          0 0 0 0 0 0
          0 0 0 0 0 0
          0 0 0 0 0 0
          0 0 0 0 0 0
          0 0 0 0 0 0
          0 0 0 0 0 0
          0 0 0 0 0 0
          0 0 0 0 0 0
          0 0 0 0 0 0
          0 0 0 0 0 0
          0 0 0 0 0 0
          0 0 0 0 0 0
          0 0 0 0 0 0
          0 0 0 0 0 0
          0 0 0 0 0 0
          0 0 0 0 0 0
          0 0 0 0 0 0
          0 0 0 0 0 0
          0 0 0 0 0 0
          0 0 0 0 0 0
          0 0 0 0 0 0
          0 0 0 0 0 0
          0 0 0 0 0 0
          0 0 0 0 0 0
          0 0 0 0 0 0
          0 0 0 0 0 0
          0 0 0 0 0 0
          0 0 0 0 0 0
          0 0 0 0 0 0
          0 0 0 0 0 0
          0 0 0 0 0 0
          0 0 0 0 0 0
          0 0 0 0 0 0
          0 0 0 0 0 0
          0 0 0 0 0 0
          0 0 0 0 0 0
          0 0 0 0 0 0
          0 0 0 0 0 0
          0 0 0 0 0 0
          0 0 0 0 0 0
          0 0 0 0 0 0
          0 0 0 0 0 0
          0 0 0 0 0 0
          0 0 0 0 0 0
          0 0 0 0 0 0
          0 0 0 0 0 0
          0 0 0 0 0 0
          0 0 0 0 0 0
          0 0 0 0 0 0
          0 0 0 0 0 0
          0 0 0 0 0 0
          0 0 0 0 0 0
          0 0 0 0 0 0
          0 0 0 0 0 0
          0 0 0 0 0 0
          0 0 0 0 0 0
          0 0 0 0 0 0
          0 0 0 0 0 0
          0 0 0 0 0 0
          0 0 0 0 0 0
          0 0 0 0 0 0
          0 0 0 0 0 0
          0 0 0 0 0 0
          0 0 0 0 0 0
          0 0 0 0 0 0
          0 0 0 0 0 0
          0 0 0 0 0 0
          0 0 0 0 0 0
          0 0 0 0 0 0
          0 0 0 0 0 0
          0 0 0 0 0 0
          0 0 0 0 0 0
          0 0 0 0 0 0
          0 0 0 0 0 0
          0 0 0 0 0 0
          0 0 0 0 0 0
          0 0 0 0 0 0
          0 0 0 0 0 0
          0 0 0 0 0 0
          0 0 0 0 0 0
          0 0 0 0 0 0
          0 0 0 0 0 0
          0 0 0 0 0 0
          0 0 0 0 0 0
          0 0 0 0 0 0
          0 0 0 0 0 0
          0 0 0 0 0 0
          0 0 0 0 0 0
          0 0 0 0 0 0
          0 0 0 0 0 0
          0 0 0 0 0 0
          0 0 0 0 0 0
          0 0 0 0 0 0
          0 0 0 0 0 0
          0 0 0 0 0 0
          0 0 0 0 0 0
          0 0 0 0 0 0
          0 0 0 0 0 0
          0 0 0 0 0 0
          0 0 0 0 0 0
          0 0 0 0 0 0
          0 0 0 0 0 0
          0 0 0 0 0 0
          0 0 0 0 0 0
          0 0 0 0 0 0
          0 0 0 0 0 0
          0 0 0 0 0 0
          0 0 0 0 0 0
          0 0 0 0 0 0
          0 0 0 0
        </DataArray>
        <DataArray type="Float64" Name="gradient_error" format="ascii" RangeMin="1.1234600097262519e-11" RangeMax="7.2514024910219495e-9">
          1.0687667680258926e-10 7.839817901266144e-11 1.3541261790694528e-10 6.535800076067539e-11 3.5307903077452284e-9 2.6069244840434185e-9
          4.0861827946017983e-10 3.621776016984391e-10 3.3255325255404024e-10 2.8900769796215196e-10 1.2017076946153882e-10 1.1259474062808777e-10
          9.761996299261697e-11 2.53699249012931e-10 1.9244065800992122e-10 6.390679364912187e-11 3.288070970575207e-10 2.6378347945262655e-10
          1.0736033050658424e-10 1.3655067900102518e-10 1.4826572679379371e-10 1.0471396800918028e-10 1.4066593817945767e-10 4.520171161123971e-9
          3.510251671174533e-9 2.6616683757153713e-9 2.040245455183609e-9 1.6700201809776067e-9 8.957517074296974e-10 5.140511555238747e-9
          4.487175920501954e-9 4.1819069937859065e-9 4.700849807509417e-10 1.2499064134331277e-9 2.4563877091667095e-10 1.7468472267545073e-10
          1.6693870979336525e-10 1.4586905441047671e-10 3.1116291874511466e-10 1.5196231789967058e-10 1.4547680175675294e-10 1.049154841118916e-10
          1.0019957753345386e-10 8.568324955626338e-11 6.207255714070514e-11 5.925550448443401e-11 1.2755225883914088e-10 8.732713233518507e-11
          5.157701874150936e-11 2.1518635814301062e-10 2.0329015323636663e-10 1.277635308814902e-10 1.7146957742542303e-10 1.7493690667359473e-10
          1.170091786491398e-10 8.67040728561928e-11 2.0050473965800755e-10 1.0299860293805572e-10 6.979859637574244e-11 6.038672458135981e-11
          4.1145114838325545e-11 7.594527985391349e-11 5.1211919621945825e-11 4.3866465998507134e-11 1.2927076734665978e-10 8.036268991509461e-11
          8.699621332629874e-11 5.1336862865794094e-11 4.912087522458861e-11 3.571915453642365e-11 3.4090349981944344e-11 4.3083569979543566e-11
          2.968867439524981e-11 3.4506283232323115e-11 2.3630774714412696e-11 2.3815530597337386e-11 3.9137492458256424e-11 5.1333910194673823e-11
          9.005908163875939e-11 1.2295127714642038e-10 1.405135758933251e-10 1.3982875793526721e-10 5.025118695613575e-11 7.251939321135247e-11
          2.7817301840846887e-11 5.630218336589808e-11 3.296388386394632e-11 8.276223220527153e-11 8.666846703939998e-11 6.54919673330183e-11
          8.564675712659237e-11 1.3664817486503107e-9 1.2892591614679876e-9 1.0819077498286637e-9 4.244321634372504e-9 9.833951078355482e-10
          9.249431499803027e-10 6.722386671006237e-10 6.303568632658925e-10 7.690474676588412e-10 5.195387911358551e-10 3.5494884051862837e-9
          3.3235059967639026e-9 2.490454118374804e-9 2.73472494776942e-9 8.062469150328908e-10 5.328301688404635e-10 2.5705546422616884e-9
          5.644837565154097e-10 3.763092818627445e-10 3.658283050541561e-10 2.3996744555856606e-10 1.9843450369501085e-9 1.4551032540674496e-9
          1.2561338260278144e-9 6.8562515781565095e-9 6.8453079062458075e-9 6.66835898857627e-9 5.928797028392216e-9 5.626902247734198e-9
          5.9040475667443216e-9 4.691537844309626e-9 3.1978897333561483e-9 3.737936806070892e-9 4.0685278521906794e-9 4.956319553792881e-9
          5.406868382732272e-9 3.5147537247776804e-9 5.622309828490519e-9 4.3984528995358825e-9 3.3922702802002963e-9 2.811097298167086e-9
          2.152957648635658e-9 4.83625632155749e-9 3.740271727563119e-9 3.3492278822478646e-9 1.4979428275156683e-10 6.022361781674479e-10
          1.5579516943828606e-9 1.9392771682975584e-9 3.12733601824408e-10 1.6427240888556394e-10 9.48001226545254e-10 2.1005400615211258e-10
          1.354712717910482e-10 1.0783153474998233e-10 6.884844204069855e-10 4.75387295781881e-10 3.289816028122619e-10 7.734455032970705e-11
          7.799126512364503e-11 2.0717773898284264e-10 5.918119540608284e-11 6.169685744497286e-11 1.4003056016305862e-10 2.004481164287041e-9
          9.775141053414828e-10 2.4892735356944675e-9 1.5587864798372278e-9 1.148724758514785e-9 7.249101383061356e-10 1.9784381685598657e-9
          1.491946562507723e-9 9.466100810372062e-10 4.086161416516117e-10 5.208615985847797e-10 2.8908121999426154e-10 3.749521115241728e-10
          8.366557793974541e-11 4.730785000747377e-11 1.558701088170456e-11 9.168211341380825e-11 1.5064677195033495e-10 1.486658518838159e-10
          1.4291076506507592e-10 3.243038115512807e-10 8.286920182013145e-11 1.3386138385356904e-10 1.2216824421287687e-10 2.9044976863439726e-10
          7.352413183226639e-11 7.256475879609169e-11 1.202977654958655e-10 1.1869556764847674e-10 5.710879825807085e-11 9.543196559619145e-11
          9.414863275635303e-11 6.980739831639909e-11 1.1404042904499073e-10 9.041968279885934e-11 2.670875567631649e-10 2.633671965762313e-10
          2.121475447425425e-10 2.525194603852462e-10 4.4975425969263305e-11 4.43816610965036e-11 7.495196621708516e-11 7.39360249663224e-11
          3.414786109060119e-11 5.828377883652421e-11 5.748834734982236e-11 4.267282283937366e-11 7.098403958203188e-11 5.517763237076317e-11
          1.716385452097184e-10 1.6918540580511223e-10 1.3345752134015231e-10 1.6203891797728777e-10 6.550824465078459e-11 1.0672391874882397e-10
          5.151328208266505e-11 8.456092045969851e-11 5.994172288107644e-11 9.728359781908342e-11 7.700621697129616e-11 2.3544057986639944e-10
          1.8935653717376228e-10 2.134872407179546e-10 4.0010554175304144e-11 6.634749507781614e-11 3.0773217466704895e-11 5.1549671029727e-11
          3.6549035904907154e-11 6.036292740412906e-11 4.6860377053298444e-11 1.5080579853952004e-10 1.188190473552311e-10 1.3640117901332022e-10
          6.782466560869575e-11 1.0865692784272391e-10 9.416497120532034e-11 2.331165751357153e-10 5.024156767042291e-11 7.954495897733531e-11
          6.559485333851832e-11 1.6784143103988625e-10 5.351089631710944e-11 8.639536863709657e-11 4.200958851893079e-11 6.83012204046245e-11
          4.657508818020537e-11 7.473955361465567e-11 5.900848020266615e-11 1.8829171153011626e-10 1.5097435526161004e-10 1.6156427454111525e-10
          3.2525375421370885e-11 5.346064867918465e-11 2.493429291125606e-11 4.144284940545122e-11 2.843732642999308e-11 4.615365237736868e-11
          3.577532999756365e-11 1.1991912580933284e-10 9.426220539202313e-11 1.0245651544272651e-10 3.958982620777431e-11 6.300300129449367e-11
          3.1295420389209284e-11 4.9671911132695835e-11 3.3268120513937634e-11 5.1840429755227216e-11 4.078341894930816e-11 1.3486888508560385e-10
          1.0761950381482281e-10 1.0939166277894354e-10 2.4842096533730658e-11 3.8767176163832365e-11 1.9862288785308248e-11 2.992882275593324e-11
          2.174635206794119e-11 3.163225526617676e-11 2.6056521449434656e-11 8.505558840297903e-11 6.636305771937382e-11 6.83628981598949e-11
          2.648301182630431e-11 2.613045931973613e-11 4.4912703719918015e-11 4.4296061539330405e-11 1.9832598879299584e-11 3.426344554836221e-11
          3.37903250071311e-11 2.5116076005201747e-11 4.250490545488738e-11 3.241658168977586e-11 1.0562359876839391e-10 1.040849357843148e-10
          9.960553326616044e-11 2.3538700624648606e-11 3.969375263257957e-11 1.785976829360722e-11 3.0261681534744195e-11 2.1473897700930206e-11
          3.606083766171867e-11 2.7479489380241406e-11 9.257332741875601e-11 8.357106586467869e-11 1.9056367749083612e-11 3.186570062703612e-11
          1.4469828618840723e-11 2.4271160699675434e-11 1.6779160983538537e-11 2.7486681143675363e-11 2.0914632191247903e-11 7.328703162345416e-11
          6.235960053373416e-11 1.5654923096701127e-11 2.2972372729289925e-11 1.1983083622037046e-11 1.7502309983613862e-11 1.5539620374693656e-11
          2.063822281599121e-11 1.5766102379436626e-11 5.11624116290023e-11 3.911856772645387e-11 4.7483783228227855e-11 3.68953328588014e-11
          5.252808347652531e-11 4.6189972474021047e-11 1.0725785292491085e-10 2.8993052684391602e-11 4.137559325458603e-11 2.3042413566134534e-11
          3.2502762595945234e-11 2.762476569679978e-11 3.628111320317437e-11 2.8503331258183195e-11 8.566599527621078e-11 6.793792348113525e-11
          7.524277183270526e-11 1.8972704675036162e-11 2.518394364565023e-11 1.752742122027324e-11 2.1913428811841252e-11 1.7678283350197402e-11
          2.2172861589113677e-11 1.947514007956436e-11 5.314297919723612e-11 4.811858190288627e-11 4.682732547116646e-11 6.881597589369276e-10
          6.783989678072979e-10 6.499299983788877e-10 1.3467747066944212e-9 6.05089010146011e-10 5.474264707779905e-10 1.198586615156282e-9
          2.5529564117833313e-9 2.514892120089142e-9 2.4044211450808667e-9 4.449721508441496e-9 2.2318339601278106e-9 2.0116036961154444e-9
          3.9216597588306835e-9 5.717914442265328e-10 5.635032931952519e-10 4.703005905451649e-10 4.6334482898057934e-10 5.393443207858553e-10
          4.4308978156474346e-10 1.1660086621468114e-9 1.1487337378409897e-9 9.684590084359137e-10 1.098378951800586e-9 3.822782941791257e-10
          3.765248174152796e-10 3.068647992003396e-10 3.0217284616926385e-10 3.597796952560904e-10 2.8852839990191617e-10 8.187146721567345e-10
          8.059620730123154e-10 6.615202388934667e-10 7.688565199168984e-10 5.013433785072172e-10 4.112820285838779e-10 4.5258730074640793e-10
          3.7056067157751645e-10 1.019145526186169e-9 8.565752650431235e-10 9.174405423169802e-10 3.335190022315998e-10 2.671588706450432e-10
          2.9996998010986035e-10 2.3990757557995215e-10 7.106784032354726e-10 5.815963333051438e-10 6.36401180396695e-10 2.23347390822379e-9
          2.1998603995874023e-9 1.934013219586086e-9 1.9042970249591166e-9 2.1020783094492122e-9 1.8177829799453882e-9 4.028822451072747e-9
          3.964410778182798e-9 3.491536553508265e-9 3.777035475697956e-9 1.653936089399284e-9 1.6278558685634605e-9 1.3948621441561846e-9
          1.3721967700908504e-9 1.5518655348713591e-9 1.3062551776303507e-9 3.0905809826633314e-9 3.0396149747884303e-9 2.6177503718151128e-9
          2.892392900472306e-9 1.9486759248520313e-9 1.68183706021335e-9 1.7520187425600108e-9 1.507432839983991e-9 3.4840891887727816e-9
          3.0626217257140286e-9 3.1136477039685876e-9 1.4324918550178567e-9 1.2028992691204567e-9 1.27974764034889e-9 1.0711092431751844e-9
          2.6642737145399797e-9 2.2921539727838808e-9 2.3764464249782097e-9 4.812655496118551e-10 4.1117647092072203e-10 9.480206036811034e-10
          3.4144047470486843e-10 2.756436202064349e-10 6.653525846419164e-10 1.7596955553531728e-9 1.492486794403357e-9 3.0474034417525638e-9
          1.2264832716929883e-9 9.762723349401582e-10 2.1055907896575985e-9 3.9681666257096646e-10 3.241146215720524e-10 3.379626325735433e-10
          2.752941074597014e-10 8.011012516237253e-10 6.69262208550447e-10 6.783906399726488e-10 2.6180186360691587e-10 2.0897478052793112e-10
          2.2181993009265918e-10 1.766517969459729e-10 5.520478657189561e-10 4.493293224955405e-10 4.639034458213611e-10 2.796632986731499e-10
          2.2717090369111851e-10 2.2490340928411298e-10 1.8214190012626472e-10 5.570774663516059e-10 4.61487423849802e-10 4.437076242932196e-10
          1.827698013004849e-10 1.4539185939067088e-10 1.463821628399469e-10 1.1634598844095642e-10 3.777148537286709e-10 3.052510344722192e-10
          2.981197820112094e-10 1.526608783393776e-9 1.3080763137384889e-9 1.2882269062563504e-9 1.0983791453868392e-9 2.6996491022862064e-9
          2.367297382276275e-9 2.271511442008275e-9 1.1059277112437629e-9 9.218960565796722e-10 9.241313618513477e-10 7.667076780743592e-10
          2.051521039769086e-9 1.754297922368624e-9 1.7112638082976079e-9 1.0523647337303751e-9 8.921669120155402e-10 8.319932768778997e-10
          7.008352067609847e-10 1.8509399062518544e-9 1.6072628394139143e-9 1.4573287650850538e-9 7.464778186424906e-10 6.159983539677393e-10
          5.828245424089416e-10 4.782119707026117e-10 1.3770920253848374e-9 1.1632086369325344e-9 1.0682980283505854e-9 6.1504141744768965e-9
          5.540877326259797e-9 7.2514024910219495e-9 5.896129000642746e-9 6.098324676163142e-9 4.6275885893873105e-9 6.389766947827442e-9
          6.298622158024683e-9 5.7889890415464445e-9 5.699362727804059e-9 6.028308278581504e-9 5.435643405934634e-9 7.230386827018586e-9
          7.1949755453570275e-9 6.806371983092545e-9 7.077345101398312e-9 5.149827461954944e-9 5.065421992338704e-9 4.503243484435479e-9
          4.4261307737394265e-9 4.8184750173336696e-9 4.20268625113505e-9 6.445729641305289e-9 6.390215128749038e-9 5.854707954451837e-9
          6.209180469703297e-9 5.590633998968535e-9 5.014970465004183e-9 5.010762727875594e-9 4.469526609855885e-9 6.834836668886704e-9
          6.382270964617625e-9 6.404046723738994e-9 4.429260809293116e-9 3.855954573495073e-9 3.9340300714339945e-9 3.421607375103864e-9
          5.865177437211835e-9 5.235305394585354e-9 5.330968487679328e-9 5.220829474969838e-9 5.273554079283617e-9 4.932522151976893e-9
          5.009893897346279e-9 5.421816850157807e-9 5.229592018003739e-9 3.6141839556520544e-9 3.692931720768677e-9 3.3279552458761695e-9
          3.930810999158144e-9 4.884842830881745e-9 4.9700421230494e-9 4.917560956077669e-9 4.972010709108396e-9 5.183346387954135e-9
          5.073507105019947e-9 3.19337017662496e-9 3.3732248268600405e-9 3.6909788588237784e-9 3.8612909110156195e-9 5.660198713696735e-9
          5.506217290702943e-9 5.87551453937277e-9 5.656474001021372e-9 4.4026196974717946e-9 4.364573262748364e-9 5.019147672381624e-9
          5.376641855751495e-9 5.071875776126675e-9 5.343346750030949e-9 4.8368282509540135e-9 4.454640773514851e-9 4.412353607308025e-9
          4.837931158615632e-9 4.818225153477616e-9 4.0416224739638114e-9 6.237941581430345e-9 3.2837516007454478e-9 2.5940894509621586e-9
          4.44848875501366e-9 6.137693912292399e-9 5.785419608749248e-9 5.610285127547379e-9 5.025437524661582e-9 4.0546210303951955e-9
          5.088526973187898e-9 4.3324699879054776e-9 3.848482240016932e-9 3.6200555444211708e-9 3.2096172391990626e-9 5.7551438410149016e-9
          5.219820272448065e-9 4.916832069695308e-9 3.381190021268329e-9 2.9398567803550242e-9 2.816647535942416e-9 2.4441306467557266e-9
          4.638886808540979e-9 4.052853654712014e-9 3.8823820004675454e-9 2.9351548742247796e-9 2.596527369921008e-9 2.3087788410996743e-9
          2.0309920729478274e-9 4.006039933927325e-9 3.569267817260867e-9 3.1584598423709093e-9 2.2705179537243636e-9 1.9595434882061166e-9
          1.7635372366758293e-9 1.5098609119769845e-9 3.1498888564096553e-9 2.753337945376458e-9 2.4754281577010182e-9 5.837090264622583e-9
          5.465585211684209e-9 5.373356638621469e-9 4.870680943785251e-9 5.416879425032793e-9 5.172401189240891e-9 5.285510610359477e-9
          4.96326407557875e-9 4.365247234721173e-9 4.312142843225626e-9 3.761867670601169e-9 4.774013585655807e-9 4.228414900330845e-9
          4.293341780490359e-9 4.5507535665286375e-9 4.057808954371124e-9 3.647026626594619e-9 3.253156264609891e-9 4.624436739462322e-9
          4.12412151319495e-9 3.758041257652876e-9 3.579484232011624e-9 3.136200479119312e-9 2.879750966976448e-9 2.5254707862698637e-9
          3.6316892192995734e-9 3.1779423690930654e-9 2.9660902438213282e-9 2.4319159188170413e-10 2.3942203217068223e-10 2.2846578418203853e-10
          5.440918089592723e-10 5.352279656788911e-10 5.094884955132255e-10 2.1132724090831058e-10 1.8951040258236187e-10 4.692964975012155e-10
          4.182817774147112e-10 1.1589880474762965e-9 1.1395915963215136e-9 1.0832255563272402e-9 2.267116617624005e-9 2.2292553846199256e-9
          2.119249652563006e-9 9.951343985031416e-10 8.833012143639132e-10 1.9470765091158554e-9 1.727385551214771e-9 1.6479440836058444e-10
          1.3901504565351012e-10 3.607741327926888e-10 3.012222462624758e-10 1.1412382392571318e-10 8.847526980873115e-11 9.101633628813589e-11
          7.028938644037004e-11 2.435341580884977e-10 1.9179289755659397e-10 1.9078712907868383e-10 7.572864780128579e-10 6.269136212554969e-10
          1.4781314156780575e-9 1.218891790619349e-9 5.01139656580804e-10 4.018639224313671e-10 3.870128175993225e-10 3.088894376173221e-10
          9.679762473648251e-10 7.931080888689271e-10 7.40059139662613e-10 3.8760382767813265e-9 3.809173896714099e-9 3.6161317519999905e-9
          5.239585256461087e-9 5.158647831585015e-9 4.919166037036184e-9 3.3180962876274125e-9 2.9452524552710665e-9 4.538189898148739e-9
          4.0508279086201955e-9 4.68866493786691e-9 4.692548222232119e-9 4.660285965432416e-9 3.6842735400004903e-9 3.7695009232994574e-9
          3.941092414030793e-9 4.511058409136655e-9 4.20462396810174e-9 4.032809012622418e-9 3.935891252031956e-9 2.5281741548052705e-9
          2.0933353326062143e-9 3.5036644470407283e-9 2.9387197539861167e-9 1.6666643004971623e-9 1.3954707019099834e-9 1.2734175899828682e-9
          1.0571665550769828e-9 2.3794685764791497e-9 2.027470663855924e-9 1.8459574242178653e-9 3.764901725015443e-9 3.258979515387257e-9
          3.6432745116234445e-9 3.232294448305417e-9 2.7301634598985613e-9 2.351726897979563e-9 2.1871786776968916e-9 1.865482178724847e-9
          2.77018951704341e-9 2.3951146845886833e-9 2.265286195002415e-9 2.1682448900980264e-10 1.6579940730617213e-10 4.141672218093008e-10
          8.415527055471692e-11 1.231556704154261e-10 8.933000161586477e-11 2.2965219493743414e-10 7.525495625057896e-10 5.619149828380119e-10
          1.2801619193590936e-9 4.068957385807003e-10 2.862963589425369e-10 6.78466103381906e-10 1.7618285336968e-10 1.4215226023449292e-10
          1.341387292934382e-10 1.0777437813093557e-10 3.4291200612049363e-10 2.8131159953939205e-10 2.5738411396379697e-10 1.1383331003436652e-10
          9.012050379684707e-11 8.587860840657182e-11 6.768291868031909e-11 2.282268814587591e-10 1.8298238614569532e-10 1.6964528483926608e-10
          6.713363521873922e-11 9.917802455221662e-11 5.319127286114762e-11 7.934352503241877e-11 4.892811353490477e-11 7.162101574770265e-11
          5.708908683937104e-11 1.8786492641940575e-10 1.5251589445038333e-10 1.3356072427015166e-10 4.18784735818985e-11 6.295595144769092e-11
          3.267731010719652e-11 4.946384187297836e-11 3.0379259603513225e-11 4.5105890411178764e-11 1.2260865786803904e-10 9.751175531790022e-11
          8.625958363106124e-11 6.365509738079168e-10 5.325448067613935e-10 4.716117391644854e-10 3.918158935279647e-10 1.1076214871714484e-9
          9.468381633886729e-10 8.125633169594969e-10 4.4008252674443486e-10 3.5900405543461943e-10 3.2174583215255043e-10 2.609683132915134e-10
          7.987487417829032e-10 6.645041293647808e-10 5.759449477029514e-10 3.388409922398272e-10 2.795657161232442e-10 2.3660207778887767e-10
          1.938939011618977e-10 5.75894393197332e-10 4.836069145185856e-10 3.951862743121332e-10 2.281454131136168e-10 1.8401677326737284e-10
          1.5726588434875847e-10 4.012201695250669e-10 3.286542869745612e-10 2.7077675147182797e-10 4.427800348575896e-11 6.345021831232255e-11