<?xml version="1.0"?>
<VTKFile type="UnstructuredGrid" version="0.1" byte_order="LittleEndian" header_type="UInt32" compressor="vtkZLibDataCompressor">
  <UnstructuredGrid>
    <Piece NumberOfPoints="419" NumberOfCells="210">
      <PointData>
        <DataArray type="Int32" Name="libmesh_node_id" format="ascii" RangeMin="0" RangeMax="3742">
          0 1 2 3 4 5
          6 7 8 9 10 11
          12 13 14 15 16 17
          18 19 20 21 22 23
          24 25 26 27 28 29
          30 31 32 33 34 35
          36 37 38 39 40 41
          42 43 44 45 46 47
          48 49 50 51 52 53
          54 55 56 57 58 59
          60 61 62 63 64 65
          66 67 68 69 70 71
          72 73 74 75 76 77
          78 79 80 81 82 83
          84 85 86 87 88 89
          90 91 92 93 94 95
          96 97 98 99 100 101
          102 103 104 105 106 107
          108 109 110 111 112 113
          114 115 116 117 118 119
          120 121 122 123 124 125
          126 127 128 129 130 131
          132 133 134 135 136 137
          138 139 140 141 142 143
          144 145 146 147 148 149
          150 151 152 153 154 155
          156 157 158 159 160 161
          162 163 164 165 166 167
          168 169 170 171 172 173
          174 175 176 177 178 179
          180 181 182 183 184 185
          200 201 202 203 204 205
          206 213 214 215 216 217
          218 219 220 221 240 241
          242 252 253 254 255 256
          257 276 277 278 288 289
          290 291 292 293 312 313
          314 3315 3316 3317 3318 3319
          3320 3321 3322 3323 3324 3325
          3326 3327 3328 3329 3330 3331
          3332 3333 3334 3335 3336 3337
          3338 3339 3340 3341 3342 3343
          3344 3345 3346 3347 3348 3349
          3350 3351 3355 3356 3358 3359
          3361 3385 3386 3387 3388 3389
          3390 3391 3392 3393 3394 3395
          3396 3397 3398 3399 3400 3401
          3402 3403 3404 3405 3406 3407
          3408 3535 3536 3537 3538 3539
          3540 3541 3542 3543 3544 3545
          3546 3547 3548 3549 3550 3551
          3552 3553 3554 3555 3556 3557
          3558 3559 3560 3561 3562 3563
          3564 3565 3566 3567 3568 3569
          3570 3571 3572 3573 3574 3575
          3576 3577 3578 3579 3580 3581
          3582 3583 3584 3585 3589 3590
          3592 3593 3595 3727 3728 3729
          3730 3731 3732 3733 3734 3735
          3736 3737 3738 3739 3740 3741
          3742 186 187 188 189 190
          191 192 193 194 195 196
          197 198 199 207 208 209
          210 211 212 222 223 234
          236 237 235 238 239 243
          233 249 248 250 251 258
          259 279 3352 3353 3354 3357
          3586 3587 3588 3591 294 3594
          3360 3516 3518 3523 295 3526
          315 3649 3651 3656 3659
        </DataArray>
        <DataArray type="Float64" Name="bounds" format="ascii" RangeMin="0" RangeMax="0">
          0 0 0 0 0 0
          0 0 0 0 0 0
          0 0 0 0 0 0
          0 0 0 0 0 0
          0 0 0 0 0 0
          0 0 0 0 0 0
          0 0 0 0 0 0
          0 0 0 0 0 0
          0 0 0 0 0 0
          0 0 0 0 0 0
          0 0 0 0 0 0
          0 0 0 0 0 0
          0 0 0 0 0 0
          0 0 0 0 0 0
          0 0 0 0 0 0
          0 0 0 0 0 0
          0 0 0 0 0 0
          0 0 0 0 0 0
          0 0 0 0 0 0
          0 0 0 0 0 0
          0 0 0 0 0 0
          0 0 0 0 0 0
          0 0 0 0 0 0
          0 0 0 0 0 0
          0 0 0 0 0 0
          0 0 0 0 0 0
          0 0 0 0 0 0
          0 0 0 0 0 0
          0 0 0 0 0 0
          0 0 0 0 0 0
          0 0 0 0 0 0
          0 0 0 0 0 0
          0 0 0 0 0 0
          0 0 0 0 0 0
          0 0 0 0 0 0
          0 0 0 0 0 0
          0 0 0 0 0 0
          0 0 0 0 0 0
          0 0 0 0 0 0
          0 0 0 0 0 0
          0 0 0 0 0 0
          0 0 0 0 0 0
          0 0 0 0 0 0
          0 0 0 0 0 0
          0 0 0 0 0 0
          0 0 0 0 0 0
          0 0 0 0 0 0
          0 0 0 0 0 0
          0 0 0 0 0 0
          0 0 0 0 0 0
          0 0 0 0 0 0
          0 0 0 0 0 0
          0 0 0 0 0 0
          0 0 0 0 0 0
          0 0 0 0 0 0
          0 0 0 0 0 0
          0 0 0 0 0 0
          0 0 0 0 0 0
          0 0 0 0 0 0
          0 0 0 0 0 0
          0 0 0 0 0 0
          0 0 0 0 0 0
          0 0 0 0 0 0
          0 0 0 0 0 0
          0 0 0 0 0 0
          0 0 0 0 0 0
          0 0 0 0 0 0
          0 0 0 0 0 0
          0 0 0 0 0 0
          0 0 0 0 0
        </DataArray>
        <DataArray type="Float64" Name="gradient_error" format="ascii" RangeMin="7.661924638040593e-11" RangeMax="0.0000013149715420852679">
          8.953602717675198e-11 9.592737231415953e-11 8.994935638403905e-11 8.667637863861155e-11 8.393030637077368e-11 9.751164802662692e-11
          9.298425181872029e-11 8.634855798876133e-11 1.0995745599682523e-10 9.722027061432356e-11 1.2585893274023917e-10 1.0670224899581377e-10
          1.0956502661930121e-10 9.73190732952361e-11 1.2982392394726397e-10 1.0818385181747454e-10 9.013595572613944e-11 8.777345671743493e-11
          1.1173825854488696e-10 9.88377396010181e-11 8.144845952465394e-11 8.354985156765043e-11 9.764147384204802e-11 9.156255976608848e-11
          8.53906940024186e-11 8.557408419454034e-11 8.716066691514558e-11 8.62167375585773e-11 8.617321551311461e-11 8.591504909944004e-11
          8.437445113829906e-11 8.491279402084004e-11 8.562064311645175e-11 8.559578171746399e-11 8.549296434544437e-11 8.556069717068495e-11
          8.555000476346882e-11 8.556105515135604e-11 8.566862108271504e-11 8.56501215435268e-11 8.558757360060907e-11 8.558888096086223e-11
          8.559748849176145e-11 8.559534559974347e-11 8.5592514592244e-11 8.559255605241835e-11 8.558669237182277e-11 8.558693790713625e-11
          8.397134045391856e-11 8.381673010047113e-11 8.845685561081372e-11 8.876680960674895e-11 8.44830852318219e-11 8.754556525138837e-11
          8.507311997117099e-11 8.654377968768512e-11 8.541095770873041e-11 8.593722065714928e-11 8.565124361064694e-11 8.548364569012891e-11
          8.575747438666209e-11 8.527280820200901e-11 8.565688268576549e-11 8.545113690338103e-11 8.557092031847624e-11 8.562842999592555e-11
          8.557210553924327e-11 8.563162200433856e-11 8.559018832111536e-11 8.559320270772552e-11 8.559259751259268e-11 8.558718344244973e-11
          4.190933528814365e-10 4.756509019403219e-10 2.8457244739254213e-10 2.56221758364051e-10 5.783099276695476e-10 3.3663331207252244e-10
          5.026846363719887e-10 2.988507547002697e-10 2.6678739423579807e-10 1.7929630902024033e-10 1.3056178071180986e-10 1.1034072648130349e-10
          1.0110579914611321e-10 9.513957604203544e-11 9.047980137169471e-11 8.867522158585668e-11 8.620792862097033e-11 8.588464151718159e-11
          8.533372237901153e-11 8.539174138825563e-11 8.55445673132412e-11 8.556423731286766e-11 8.558290130312402e-11 8.559612719729064e-11
          9.34939928447624e-11 9.335016384666551e-11 9.495669647549739e-11 9.501687302855085e-11 9.180522380468255e-11 9.011967225079709e-11
          8.917335293795768e-11 8.687064180001866e-11 8.556135441339285e-11 8.544976039749972e-11 8.558390731249412e-11 8.560935309145723e-11
          2.688958086673947e-9 2.8126836518257723e-9 1.5841923909332212e-9 1.5319239312336778e-9 2.952292854112766e-9 1.633237206005876e-9
          2.2758471337573496e-9 1.2657803697541052e-9 1.0350749638008436e-9 6.100625865188504e-10 3.7923059211688075e-10 2.591901877415346e-10
          1.729954079313908e-10 1.4277403276649008e-10 7.661924638040593e-11 8.42500830377646e-11 8.287099162096386e-11 8.468607960913124e-11
          8.625442405242326e-11 8.622850609831574e-11 8.573005041530992e-11 8.573314720484228e-11 8.56165261708311e-11 8.562696031417473e-11
          3.5570113004066977e-10 3.748897757934085e-10 3.1418155789898613e-10 2.5571360575086097e-10 1.8505020923685687e-10 1.3914978336618843e-10
          1.1255265760158933e-10 9.188091969512329e-11 8.650116759729858e-11 8.62025881442082e-11 8.573624399437463e-11 8.563739445751836e-11
          1.7150949121329065e-8 1.691266488285266e-8 9.831351723487089e-9 1.0071244239474543e-8 1.5695211403387616e-8 8.947502855463324e-9
          1.1110197440791353e-8 6.336541645745902e-9 4.5917086843727315e-9 2.7824300214528343e-9 1.3501162735461272e-9 9.755222066390344e-10
          6.513978234791604e-10 5.156640678332879e-10 2.1293177258075136e-10 2.0444381956630497e-10 1.1429904453440939e-10 1.0877600941027242e-10
          8.405533135213498e-11 8.445763023639971e-11 8.383203064758734e-11 8.482173285846468e-11 8.39156919260301e-11 8.499956216144939e-11
          2.750038564121522e-9 2.9915393576200196e-9 2.1997943075390313e-9 1.562885850700451e-9 9.73151358532938e-10 6.009281397319413e-10
          3.7993031218741547e-10 1.959558665518586e-10 1.0325297428613543e-10 8.485992912066446e-11 8.581143506934203e-11 8.608343239686869e-11
          1.051248116229141e-7 9.991803251491556e-8 5.980022560021472e-8 6.341887398304848e-8 8.497930657062834e-8 5.00128850685816e-8
          8.620952533226234e-11 9.067898756804859e-11 8.856990800673336e-11 9.180279036744347e-11 1.9682418685513897e-8 2.171293634318283e-8
          1.504646356653486e-8 9.651408165767278e-11 9.51484498038348e-11 9.503567272815357e-11 6.342544063311781e-7 5.890261225584642e-7
          3.5918487854668214e-7 3.894397099270521e-7 4.724094333022233e-7 2.834384706658297e-7 1.293436345349003e-7 1.446250135229261e-7
          9.446750802943613e-8 0.0000010864314949930875 0.0000010770784906136503 5.51553248936462e-7 5.789133097248167e-7 0.0000010273120921444548
          4.80041542748062e-7 1.301688570557279e-7 1.476704185231241e-7 9.230345119554346e-8 9.354648995723628e-7 5.703604596207105e-7
          7.650278983619273e-7 7.344771858778732e-7 1.1331788487668078e-7 8.119342580734834e-7 3.435376659760218e-8 4.5661321317152185e-8
          1.4732834730123005e-8 0.000001104674225903903 9.268145754783665e-7 9.141870545699256e-7 0.0000010101924279762506 0.0000010400291898527512
          9.798407643792245e-7 9.571141807291424e-7 9.53849873067407e-7 8.644577314435825e-7 9.082665572969547e-7 4.883326833636322e-7
          6.162664573063677e-7 6.11378535021814e-7 6.261988229646385e-7 9.753841538015998e-7 0.0000010328669532800824 0.0000010000413068883591
          8.643509319236954e-7 7.442002312491032e-7 0.0000011953776416284206 9.8416932540097e-7 6.870751889554516e-7 8.396013823622521e-7
          0.0000010176195769888456 7.310623634883991e-7 8.825441574698482e-7 4.843376138627589e-7 6.359415748697979e-7 6.449902793397142e-7
          1.0026861669341621e-7 6.949129907575331e-7 7.48891253774971e-7 7.875455358768366e-7 0.0000013149715420852679 0.000001046833460988
          7.79269970359224e-7 7.710238802338526e-7 4.6364913217086987e-7 4.923496333304761e-7 1.310453855990991e-7 5.064097706083312e-7
          5.295296825449095e-7 1.3479543072627396e-7 1.386480078281628e-7 1.7754914165497035e-7 1.8182349863121722e-7 1.2503047186374662e-7
          1.6683326735765433e-7 4.1880419778113774e-8 4.2217707602903133e-8 4.492586070084018e-8 3.524316426360087e-8 2.2030285258366677e-7
          2.2499898943427165e-7 2.0863606285156204e-7 4.2554995427692486e-8 1.1231063175883678e-7 1.5270852544636963e-7 9.80054820669191e-8
          1.360169156987906e-7 2.8907044965675098e-8 2.6444485236878376e-8 1.8313558674223627e-8 1.931064191339024e-7 1.7402834933066212e-7
          2.398192550808165e-8 1.597167610453438e-7 1.5764961459044937e-7 1.4495246749299254e-7 1.3708388167903027e-7 1.35902754249488e-7
          1.4644307719072683e-7 1.4078697265596246e-7 1.7798972796780014e-7 1.3952067648794928e-7 1.583034737875332e-7 1.5558246813555494e-7
          1.569834001319657e-7 1.4449006363289464e-7 1.7708627108711713e-7 1.1208874745363219e-7 1.3523653979100432e-7 1.366214778189324e-7
          1.3861721960726627e-7 1.5838433212837643e-7 1.9397551619086684e-7 1.924034231287307e-7 1.497473960951595e-7 1.7061013405186767e-7
          2.0662715819070976e-7 1.6108968878608223e-7 1.8345251414806917e-7 1.9083133006659458e-7 1.9147287200857586e-7 2.0581533951005612e-7
          1.0551927599945216e-7 1.4881684497500466e-7 1.6027787010542856e-7 1.9211441395055711e-7 2.2521564869724893e-7 2.2245906076454308e-7
          1.7336735553062306e-7 1.9769226081299939e-7 2.3995172790758166e-7 1.8730689211613963e-7 2.1236824645351614e-7 2.197024728318373e-7
          2.2201716609537577e-7 2.2322868993618428e-7 1.2151906236399717e-7 1.729254608614557e-7 1.8478476499945064e-7 2.2433185935891422e-7
          2.646183165284808e-7 2.596185507268607e-7 2.036300338271518e-7 2.2750884415063194e-7 2.196935982252654e-7 2.2876631819594706e-7
          1.4264175112582278e-7 1.953991375744031e-7 2.3783903816662874e-7 8.239274563991778e-8 1.198343772828168e-7 1.618260682882767e-8
          1.3029999420467014e-8 1.572760089257158e-7 9.877392012106356e-9 1.6224879156531293e-7 1.5795711455074655e-7 1.7997367436940783e-7
          1.7653759012529008e-7 1.3972917160533575e-7 1.5380236682103358e-7 1.5824831202381263e-7 1.9769855717350274e-7 1.951180656998336e-7
          1.6787556203673139e-7 5.624338710822599e-8 3.314514061871495e-8 2.1582395147049338e-8 1.3753379512267343e-8 4.976067674865922e-9
          4.181805654027523e-9 2.7010183349032145e-9 2.3214485568392646e-9 9.325250874593784e-10 8.947203036817061e-10 2.8124216018844013e-10
          2.673616009151994e-10 7.828021008844408e-11 8.739714587305842e-11 1.0046894129203924e-8 5.924363877485343e-9 3.3875436331891253e-9
          1.9418787787753143e-9 8.569155199040338e-10 2.5348104164195865e-10 2.2851083578945078e-7 1.4038830196007686e-7 8.086478316654043e-11
          1.1185991887181322e-10 1.0934622358629308e-10 1.1723956924286757e-10 1.0664110670280068e-10 1.0480975617110454e-10 5.808686017549345e-8
          6.866016349403768e-10 1.5168816824405245e-10 1.0761896181079498e-9 1.0683252830077296e-10 1.0297840563940838e-10 5.777837045238657e-7
          3.344669774924662e-7 5.548372313211231e-8 5.268299584051307e-7 5.323141131326094e-7 4.962971854739675e-7 3.224453413047711e-7
          2.5163013648128756e-7 2.1939640886384463e-7 2.438927842670582e-7 2.4612142751029783e-7 1.56515567438781e-7 2.094409752536413e-7
          2.5502158477876923e-7 6.686477480140803e-8 1.0684512913350982e-7 1.256506981107064e-8 2.2011168980046558e-7 1.468254834656116e-7
          1.2958989247047813e-8 1.6874438335478995e-7 1.8617423877884314e-7 1.4849478220736246e-7 2.0360409420289634e-7
        </DataArray>
        <DataArray type="Float64" Name="gradient_matprop_error" format="ascii" RangeMin="0" RangeMax="0">
          0 0 0 0 0 0
          0 0 0 0 0 0
          0 0 0 0 0 0
          0 0 0 0 0 0
          0 0 0 0 0 0
          0 0 0 0 0 0
          0 0 0 0 0 0
          0 0 0 0 0 0
          0 0 0 0 0 0
          0 0 0 0 0 0
          0 0 0 0 0 0
          0 0 0 0 0 0
          0 0 0 0 0 0
          0 0 0 0 0 0
          0 0 0 0 0 0
          0 0 0 0 0 0
          0 0 0 0 0 0
          0 0 0 0 0 0
          0 0 0 0 0 0
          0 0 0 0 0 0
          0 0 0 0 0 0
          0 0 0 0 0 0
          0 0 0 0 0 0
          0 0 0 0 0 0
          0 0 0 0 0 0
          0 0 0 0 0 0
          0 0 0 0 0 0
          0 0 0 0 0 0
          0 0 0 0 0 0
          0 0 0 0 0 0
          0 0 0 0 0 0
          0 0 0 0 0 0
          0 0 0 0 0 0
          0 0 0 0 0 0
          0 0 0 0 0 0
          0 0 0 0 0 0
          0 0 0 0 0 0
          0 0 0 0 0 0
          0 0 0 0 0 0
          0 0 0 0 0 0
          0 0 0 0 0 0
          0 0 0 0 0 0
          0 0 0 0 0 0
          0 0 0 0 0 0
          0 0 0 0 0 0
          0 0 0 0 0 0
          0 0 0 0 0 0
          0 0 0 0 0 0
          0 0 0 0 0 0
          0 0 0 0 0 0
          0 0 0 0 0 0
          0 0 0 0 0 0
          0 0 0 0 0 0
          0 0 0 0 0 0
          0 0 0 0 0 0
          0 0 0 0 0 0
          0 0 0 0 0 0
          0 0 0 0 0 0
          0 0 0 0 0 0
          0 0 0 0 0 0
          0 0 0 0 0 0
          0 0 0 0 0 0
          0 0 0 0 0 0
          0 0 0 0 0 0
          0 0 0 0 0 0
          0 0 0 0 0 0
          0 0 0 0 0 0
          0 0 0 0 0 0
          0 0 0 0 0 0
          0 0 0 0 0
        </DataArray>
        <DataArray type="Float64" Name="initial_marker" format="ascii" RangeMin="0" RangeMax="0">
          0 0 0 0 0 0
          0 0 0 0 0 0
          0 0 0 0 0 0
          0 0 0 0 0 0
          0 0 0 0 0 0
          0 0 0 0 0 0
          0 0 0 0 0 0
          0 0 0 0 0 0
          0 0 0 0 0 0
          0 0 0 0 0 0
          0 0 0 0 0 0
          0 0 0 0 0 0
          0 0 0 0 0 0
          0 0 0 0 0 0
          0 0 0 0 0 0
          0 0 0 0 0 0
          0 0 0 0 0 0
          0 0 0 0 0 0
          0 0 0 0 0 0
          0 0 0 0 0 0
          0 0 0 0 0 0
          0 0 0 0 0 0
          0 0 0 0 0 0
          0 0 0 0 0 0
          0 0 0 0 0 0
          0 0 0 0 0 0
          0 0 0 0 0 0
          0 0 0 0 0 0
          0 0 0 0 0 0
          0 0 0 0 0 0
          0 0 0 0 0 0
          0 0 0 0 0 0
          0 0 0 0 0 0
          0 0 0 0 0 0
          0 0 0 0 0 0
          0 0 0 0 0 0
          0 0 0 0 0 0
          0 0 0 0 0 0
          0 0 0 0 0 0
          0 0 0 0 0 0
          0 0 0 0 0 0
          0 0 0 0 0 0
          0 0 0 0 0 0
          0 0 0 0 0 0
          0 0 0 0 0 0
          0 0 0 0 0 0
          0 0 0 0 0 0
          0 0 0 0 0 0
          0 0 0 0 0 0
          0 0 0 0 0 0
          0 0 0 0 0 0
          0 0 0 0 0 0
          0 0 0 0 0 0
          0 0 0 0 0 0
          0 0 0 0 0 0
          0 0 0 0 0 0
          0 0 0 0 0 0
          0 0 0 0 0 0
          0 0 0 0 0 0
          0 0 0 0 0 0
          0 0 0 0 0 0
          0 0 0 0 0 0
          0 0 0 0 0 0
          0 0 0 0 0 0
          0 0 0 0 0 0
          0 0 0 0 0 0
          0 0 0 0 0 0
          0 0 0 0 0 0
          0 0 0 0 0 0
          0 0 0 0 0
        </DataArray>
        <DataArray type="Float64" Name="markers_norefine" format="ascii" RangeMin="0" RangeMax="0">
          0 0 0 0 0 0
          0 0 0 0 0 0
          0 0 0 0 0 0
          0 0 0 0 0 0
          0 0 0 0 0 0
          0 0 0 0 0 0
          0 0 0 0 0 0
          0 0 0 0 0 0
          0 0 0 0 0 0
          0 0 0 0 0 0
          0 0 0 0 0 0
          0 0 0 0 0 0
          0 0 0 0 0 0
          0 0 0 0 0 0
          0 0 0 0 0 0
          0 0 0 0 0 0
          0 0 0 0 0 0
          0 0 0 0 0 0
          0 0 0 0 0 0
          0 0 0 0 0 0
          0 0 0 0 0 0
          0 0 0 0 0 0
          0 0 0 0 0 0
          0 0 0 0 0 0
          0 0 0 0 0 0
          0 0 0 0 0 0
          0 0 0 0 0 0
          0 0 0 0 0 0
          0 0 0 0 0 0
          0 0 0 0 0 0
          0 0 0 0 0 0
          0 0 0 0 0 0
          0 0 0 0 0 0
          0 0 0 0 0 0
          0 0 0 0 0 0
          0 0 0 0 0 0
          0 0 0 0 0 0
          0 0 0 0 0 0
          0 0 0 0 0 0
          0 0 0 0 0 0
          0 0 0 0 0 0
          0 0 0 0 0 0
          0 0 0 0 0 0
          0 0 0 0 0 0
          0 0 0 0 0 0
          0 0 0 0 0 0
          0 0 0 0 0 0
          0 0 0 0 0 0
          0 0 0 0 0 0
          0 0 0 0 0 0
          0 0 0 0 0 0
          0 0 0 0 0 0
          0 0 0 0 0 0
          0 0 0 0 0 0
          0 0 0 0 0 0
          0 0 0 0 0 0
          0 0 0 0 0 0
          0 0 0 0 0 0
          0 0 0 0 0 0
          0 0 0 0 0 0
          0 0 0 0 0 0
          0 0 0 0 0 0
          0 0 0 0 0 0
          0 0 0 0 0 0
          0 0 0 0 0 0
          0 0 0 0 0 0
          0 0 0 0 0 0
          0 0 0 0 0 0
          0 0 0 0 0 0
          0 0 0 0 0
        </DataArray>
        <DataArray type="Float64" Name="markers_mustrefine" format="ascii" RangeMin="0" RangeMax="0">
          0 0 0 0 0 0
          0 0 0 0 0 0
          0 0 0 0 0 0
          0 0 0 0 0 0
          0 0 0 0 0 0
          0 0 0 0 0 0
          0 0 0 0 0 0
          0 0 0 0 0 0
          0 0 0 0 0 0
          0 0 0 0 0 0
          0 0 0 0 0 0
          0 0 0 0 0 0
          0 0 0 0 0 0
          0 0 0 0 0 0
          0 0 0 0 0 0
          0 0 0 0 0 0
          0 0 0 0 0 0
          0 0 0 0 0 0
          0 0 0 0 0 0
          0 0 0 0 0 0
          0 0 0 0 0 0
          0 0 0 0 0 0
          0 0 0 0 0 0
          0 0 0 0 0 0
          0 0 0 0 0 0
          0 0 0 0 0 0
          0 0 0 0 0 0
          0 0 0 0 0 0
          0 0 0 0 0 0
          0 0 0 0 0 0
          0 0 0 0 0 0
          0 0 0 0 0 0
          0 0 0 0 0 0
          0 0 0 0 0 0
          0 0 0 0 0 0
          0 0 0 0 0 0
          0 0 0 0 0 0
          0 0 0 0 0 0
          0 0 0 0 0 0
          0 0 0 0 0 0
          0 0 0 0 0 0
          0 0 0 0 0 0
          0 0 0 0 0 0
          0 0 0 0 0 0
          0 0 0 0 0 0
          0 0 0 0 0 0
          0 0 0 0 0 0
          0 0 0 0 0 0
          0 0 0 0 0 0
          0 0 0 0 0 0
          0 0 0 0 0 0
          0 0 0 0 0 0
          0 0 0 0 0 0
          0 0 0 0 0 0
          0 0 0 0 0 0
          0 0 0 0 0 0
          0 0 0 0 0 0
          0 0 0 0 0 0
          0 0 0 0 0 0
          0 0 0 0 0 0
          0 0 0 0 0 0
          0 0 0 0 0 0
          0 0 0 0 0 0
          0 0 0 0 0 0
          0 0 0 0 0 0
          0 0 0 0 0 0
          0 0 0 0 0 0
          0 0 0 0 0 0
          0 0 0 0 0 0
          0 0 0 0 0
        </DataArray>
        <DataArray type="Float64" Name="gradient_marker" format="ascii" RangeMin="1" RangeMax="1">
          1 1 1 1 1 1
          1 1 1 1 1 1
          1 1 1 1 1 1
          1 1 1 1 1 1
          1 1 1 1 1 1
          1 1 1 1 1 1
          1 1 1 1 1 1
          1 1 1 1 1 1
          1 1 1 1 1 1
          1 1 1 1 1 1
          1 1 1 1 1 1
          1 1 1 1 1 1
          1 1 1 1 1 1
          1 1 1 1 1 1
          1 1 1 1 1 1
          1 1 1 1 1 1
          1 1 1 1 1 1
          1 1 1 1 1 1
          1 1 1 1 1 1
          1 1 1 1 1 1
          1 1 1 1 1 1
          1 1 1 1 1 1
          1 1 1 1 1 1
          1 1 1 1 1 1
          1 1 1 1 1 1
          1 1 1 1 1 1
          1 1 1 1 1 1
          1 1 1 1 1 1
          1 1 1 1 1 1
          1 1 1 1 1 1
          1 1 1 1 1 1
          1 1 1 1 1 1
          1 1 1 1 1 1
          1 1 1 1 1 1
          1 1 1 1 1 1
          1 1 1 1 1 1
          1 1 1 1 1 1
          1 1 1 1 1 1
          1 1 1 1 1 1
          1 1 1 1 1 1
          1 1 1 1 1 1
          1 1 1 1 1 1
          1 1 1 1 1 1
          1 1 1 1 1 1
          1 1 1 1 1 1
          1 1 1 1 1 1
          1 1 1 1 1 1
          1 1 1 1 1 1
          1 1 1 1 1 1
          1 1 1 1 1 1
          1 1 1 1 1 1
          1 1 1 1 1 1
          1 1 1 1 1 1
          1 1 1 1 1 1
          1 1 1 1 1 1
          1 1 1 1 1 1
          1 1 1 1 1 1
          1 1 1 1 1 1
          1 1 1 1 1 1
          1 1 1 1 1 1
          1 1 1 1 1 1
          1 1 1 1 1 1
          1 1 1 1 1 1
          1 1 1 1 1 1
          1 1 1 1 1 1
          1 1 1 1 1 1
          1 1 1 1 1 1
          1 1 1 1 1 1
          1 1 1 1 1 1
          1 1 1 1 1
        </DataArray>
        <DataArray type="Float64" Name="gradient_matprop_marker" format="ascii" RangeMin="0" RangeMax="0">
          0 0 0 0 0 0
          0 0 0 0 0 0
          0 0 0 0 0 0
          0 0 0 0 0 0
          0 0 0 0 0 0
          0 0 0 0 0 0
          0 0 0 0 0 0
          0 0 0 0 0 0
          0 0 0 0 0 0
          0 0 0 0 0 0
          0 0 0 0 0 0
          0 0 0 0 0 0
          0 0 0 0 0 0
          0 0 0 0 0 0
          0 0 0 0 0 0
          0 0 0 0 0 0
          0 0 0 0 0 0
          0 0 0 0 0 0
          0 0 0 0 0 0
          0 0 0 0 0 0
          0 0 0 0 0 0
          0 0 0 0 0 0
          0 0 0 0 0 0
          0 0 0 0 0 0
          0 0 0 0 0 0
          0 0 0 0 0 0
          0 0 0 0 0 0
          0 0 0 0 0 0
          0 0 0 0 0 0
          0 0 0 0 0 0
          0 0 0 0 0 0
          0 0 0 0 0 0
          0 0 0 0 0 0
          0 0 0 0 0 0
          0 0 0 0 0 0
          0 0 0 0 0 0
          0 0 0 0 0 0
          0 0 0 0 0 0
          0 0 0 0 0 0
          0 0 0 0 0 0
          0 0 0 0 0 0
          0 0 0 0 0 0
          0 0 0 0 0 0
          0 0 0 0 0 0
          0 0 0 0 0 0
          0 0 0 0 0 0
          0 0 0 0 0 0
          0 0 0 0 0 0
          0 0 0 0 0 0
          0 0 0 0 0 0
          0 0 0 0 0 0
          0 0 0 0 0 0
          0 0 0 0 0 0
          0 0 0 0 0 0
          0 0 0 0 0 0
          0 0 0 0 0 0
          0 0 0 0 0 0
          0 0 0 0 0 0
          0 0 0 0 0 0
          0 0 0 0 0 0
          0 0 0 0 0 0
          0 0 0 0 0 0
          0 0 0 0 0 0
          0 0 0 0 0 0
          0 0 0 0 0 0
          0 0 0 0 0 0
          0 0 0 0 0 0
          0 0 0 0 0 0
          0 0 0 0 0 0
          0 0 0 0 0
        </DataArray>
        <DataArray type="Float64" Name="combo" format="ascii" RangeMin="1" RangeMax="1">
          1 1 1 1 1 1
          1 1 1 1 1 1
          1 1 1 1 1 1
          1 1 1 1 1 1
          1 1 1 1 1 1
          1 1 1 1 1 1
          1 1 1 1 1 1
          1 1 1 1 1 1
          1 1 1 1 1 1
          1 1 1 1 1 1
          1 1 1 1 1 1
          1 1 1 1 1 1
          1 1 1 1 1 1
          1 1 1 1 1 1
          1 1 1 1 1 1
          1 1 1 1 1 1
          1 1 1 1 1 1
          1 1 1 1 1 1
          1 1 1 1 1 1
          1 1 1 1 1 1
          1 1 1 1 1 1
          1 1 1 1 1 1
          1 1 1 1 1 1
          1 1 1 1 1 1
          1 1 1 1 1 1
          1 1 1 1 1 1
          1 1 1 1 1 1
          1 1 1 1 1 1
          1 1 1 1 1 1
          1 1 1 1 1 1
          1 1 1 1 1 1
          1 1 1 1 1 1
          1 1 1 1 1 1
          1 1 1 1 1 1
          1 1 1 1 1 1
          1 1 1 1 1 1
          1 1 1 1 1 1
          1 1 1 1 1 1
          1 1 1 1 1 1
          1 1 1 1 1 1
          1 1 1 1 1 1
          1 1 1 1 1 1
          1 1 1 1 1 1
          1 1 1 1 1 1
          1 1 1 1 1 1
          1 1 1 1 1 1
          1 1 1 1 1 1
          1 1 1 1 1 1
          1 1 1 1 1 1
          1 1 1 1 1 1
          1 1 1 1 1 1
          1 1 1 1 1 1
          1 1 1 1 1 1
          1 1 1 1 1 1
          1 1 1 1 1 1
          1 1 1 1 1 1
          1 1 1 1 1 1
          1 1 1 1 1 1
          1 1 1 1 1 1
          1 1 1 1 1 1
          1 1 1 1 1 1
          1 1 1 1 1 1
          1 1 1 1 1 1
          1 1 1 1 1 1
          1 1 1 1 1 1
          1 1 1 1 1 1
          1 1 1 1 1 1
          1 1 1 1 1 1
          1 1 1 1 1 1
          1 1 1 1 1
        </DataArray>
        <DataArray type="Float64" Name="dHdT" format="ascii" RangeMin="25.804569883928586" RangeMax="28.997253472822774">
          25.81146477670258 25.811465534591953 25.811464797497347 25.81146440679391 25.81147310619137 25.811472500291302
          25.811474533400954 25.811474846578495 25.811467197182203 25.81146566595642 25.81147135915934 25.81147393039556
          25.811466966424668 25.811465592447462 25.811472497752334 25.811474465581878 25.81146452369007 25.81146439500144
          25.811475823966024 25.811476112452855 25.81146363765334 25.811463968899467 25.811477082855845 25.81147672915057
          25.811464248560533 25.811464281976086 25.81147646666573 25.81147641590416 25.811464374905253 25.811464338387985
          25.811476306662733 25.811476345607865 25.811464297010694 25.811464293500826 25.81147638844606 25.811476394547668
          25.811464287056303 25.811464288618154 25.811476403640036 25.811476402579125 25.81146429237232 25.811464292557222
          25.811476398911083 25.81147639879285 25.811464293071193 25.811464293077055 25.811476398083336 25.811476398123933
          25.81146406040274 25.811464036885244 25.8114765665106 25.811476586965618 25.811464134730635 25.81147650163178
          25.811464218470256 25.811476433411414 25.81146426631281 25.81147640093969 25.811464300145598 25.811476375445288
          25.81146431539164 25.811476365142592 25.81146430187072 25.811476384552993 25.81146428999096 25.811476400649273
          25.811464290180005 25.811476401518206 25.811464292742123 25.811476398674625 25.811464293082917 25.81147639816453
          25.811525421229582 25.81152683463169 25.811513788282255 25.811513086856518 25.811528717337637 25.81151475264783
          25.81152066062261 25.81151074895622 25.81150441191553 25.811502606271272 25.811498058751443 25.811499433052923
          25.81150035198617 25.81150057520535 25.811501016864142 25.811500853031536 25.811500667578947 25.81150063740099
          25.811500589276555 25.811500593729512 25.811500604498875 25.811500606857052 25.811500607571016 25.811500609516614
          25.811500741932825 25.811500752483454 25.811500787958025 25.811500837289827 25.811500800627023 25.81150080735441
          25.811500798424532 25.811500689198937 25.811500607223028 25.811500598182473 25.811500609215237 25.811500611462215
          25.81135824314334 25.811360115026876 25.811438602423962 25.81143720346744 25.81137100120901 25.81144496690803
          25.811422623470992 25.81147170391945 25.811500546120854 25.811511470519186 25.811532255546133 25.811527739867092
          25.81152525704259 25.811524481149544 25.811522940983778 25.81152365185452 25.81152444703281 25.81152462151085
          25.811524856065446 25.811524864801058 25.81152482874802 25.811524834324402 25.811524821263454 25.81152482655929
          25.811517089821052 25.811516163791545 25.811518932607044 25.8115207843679 25.811522394917517 25.811523224188054
          25.81152370525651 25.81152436272527 25.811524795988884 25.811524873536676 25.811524839900784 25.811524831855124
          25.81260627967855 25.81255328639068 25.81209434611531 25.81212616698938 25.812402078219268 25.812007187902363
          25.812086236525758 25.811837739575164 25.811702178724744 25.8116369376002 25.811538842417956 25.811550337134353
          25.811552701673357 25.81155458929472 25.81155843807158 25.811555306965456 25.811551227152005 25.81155045016527
          25.81154893288322 25.811548994229405 25.811548809218692 25.811548953596454 25.81154879707627 25.811548956068023
          25.811635405839933 25.81164605430021 25.811612297585455 25.811589242624564 25.811571696475653 25.811561831850746
          25.811556476916074 25.811552175859333 25.81154967317854 25.81154905557559 25.811549097974222 25.811549115059776
          25.80505715121346 25.805539335124873 25.808182689175407 25.807894786084738 25.806769973895086 25.808901719448045