<?xml version="1.0"?>
<VTKFile type="UnstructuredGrid" version="0.1" byte_order="LittleEndian" header_type="UInt32" compressor="vtkZLibDataCompressor">
  <UnstructuredGrid>
    <Piece NumberOfPoints="392" NumberOfCells="212">
      <PointData>
        <DataArray type="Int32" Name="libmesh_node_id" format="ascii" RangeMin="355" RangeMax="2741">
          407 417 509 632 633 636
          638 642 645 647 650 654
          656 658 1234 1235 1236 1237
          1238 1239 1240 1241 1242 1257
          1258 1262 1273 1274 1275 1276
          1277 1278 1279 1301 1302 1303
          1304 1305 1306 1307 1308 1309
          1310 1315 1499 1500 1501 1502
          1503 1504 1505 1506 1510 1511
          1553 1557 1578 1580 1581 1582
          1583 1584 1585 1589 1590 2317
          2321 2322 2323 2324 2325 2326
          2327 2328 2329 2330 2332 2334
          2336 2338 2339 2340 2341 2342
          2343 2344 2347 2348 2351 2353
          2355 2356 2357 2358 2359 2360
          2361 2362 2363 2364 2365 2366
          2369 2370 2372 2374 2385 2387
          2389 2391 2399 2400 2403 2404
          2406 2408 2445 2452 2475 2476
          2479 2482 2483 2486 2513 2543
          2547 2555 2556 2557 2558 2559
          2560 2561 2562 2563 2564 2565
          2566 2567 2568 2569 2570 2571
          2572 2573 2574 2575 2576 2577
          2578 2579 2580 2581 2582 2583
          2584 2585 2586 2587 2588 2589
          2590 2591 2592 2593 2594 2595
          2596 2597 2598 2599 2600 2601
          2602 2603 2604 2605 2606 2607
          2608 2609 2610 2611 2613 2615
          2617 2625 2627 2629 2631 2639
          2641 2643 2645 2653 2655 2657
          2659 2693 2694 2697 2699 2701
          2702 2703 2704 2705 2706 2707
          2708 2709 2710 2712 2714 2716
          2718 2719 2720 2721 2722 2723
          2724 2725 2726 2727 2728 2729
          2730 2731 2732 2734 2735 2737
          2739 2741 412 413 505 503
          355 510 641 649 653 651
          652 655 657 873 880 886
          405 875 882 887 878 883
          408 885 888 1233 1243 1247
          1244 1248 1311 1312 1316 1313
          1314 1317 1318 1320 1462 1457
          1464 410 1507 1508 1249 1509
          1512 1252 1565 1547 1566 1579
          1554 1567 1212 626 1163 1575
          1576 1586 1587 1577 1588 1591
          1226 1245 2189 2313 2181 2190
          2314 2191 1213 2194 2319 1214
          2218 2224 2225 1218 2228 628
          2261 2262 2367 2263 2368 2371
          2266 1227 2373 2299 2300 2386
          2388 2303 1232 2390 1250 2401
          2402 2405 2407 2439 2440 2442
          2441 2443 2444 2446 2448 2450
          2447 2449 2451 2473 2474 2477
          2478 2480 2481 2484 2485 2507
          2509 2511 2508 2510 2512 1267
          2541 2542 2544 2545 2546 1272
          2612 2614 2616 1280 2626 2628
          2630 1282 2640 2642 2644 1284
          2654 2656 2658 1286 2733 2736
          2738 2740
        </DataArray>
        <DataArray type="Float64" Name="bounds" format="ascii" RangeMin="0" RangeMax="0">
          0 0 0 0 0 0
          0 0 0 0 0 0
          0 0 0 0 0 0
          0 0 0 0 0 0
          0 0 0 0 0 0
          0 0 0 0 0 0
          0 0 0 0 0 0
          0 0 0 0 0 0
          0 0 0 0 0 0
          0 0 0 0 0 0
          0 0 0 0 0 0
          0 0 0 0 0 0
          0 0 0 0 0 0
          0 0 0 0 0 0
          0 0 0 0 0 0
          0 0 0 0 0 0
          0 0 0 0 0 0
          0 0 0 0 0 0
          0 0 0 0 0 0
          0 0 0 0 0 0
          0 0 0 0 0 0
          0 0 0 0 0 0
          0 0 0 0 0 0
          0 0 0 0 0 0
          0 0 0 0 0 0
          0 0 0 0 0 0
          0 0 0 0 0 0
          0 0 0 0 0 0
          0 0 0 0 0 0
          0 0 0 0 0 0
          0 0 0 0 0 0
          0 0 0 0 0 0
          0 0 0 0 0 0
          0 0 0 0 0 0
          0 0 0 0 0 0
          0 0 0 0 0 0
          0 0 0 0 0 0
          0 0 0 0 0 0
          0 0 0 0 0 0
          0 0 0 0 0 0
          0 0 0 0 0 0
          0 0 0 0 0 0
          0 0 0 0 0 0
          0 0 0 0 0 0
          0 0 0 0 0 0
          0 0 0 0 0 0
          0 0 0 0 0 0
          0 0 0 0 0 0
          0 0 0 0 0 0
          0 0 0 0 0 0
          0 0 0 0 0 0
          0 0 0 0 0 0
          0 0 0 0 0 0
          0 0 0 0 0 0
          0 0 0 0 0 0
          0 0 0 0 0 0
          0 0 0 0 0 0
          0 0 0 0 0 0
          0 0 0 0 0 0
          0 0 0 0 0 0
          0 0 0 0 0 0
          0 0 0 0 0 0
          0 0 0 0 0 0
          0 0 0 0 0 0
          0 0 0 0 0 0
          0 0
        </DataArray>
        <DataArray type="Float64" Name="gradient_error" format="ascii" RangeMin="1.3603765281599818e-10" RangeMax="2.487382530001661e-8">
          6.9456574729665496e-9 1.268864180966224e-8 7.364595387254996e-9 2.1160559931347022e-9 1.085034771428095e-9 1.1404428967677959e-8
          1.2507823930313715e-9 6.94207258554888e-9 9.876102868209404e-9 8.819208965762227e-9 2.392265505733746e-9 3.7343696483484935e-9
          3.0573891490094897e-9 4.575973447552731e-9 2.2993391761139457e-9 1.390479314246776e-9 1.2153774627857688e-9 2.9590502636357524e-9
          3.0692605583578937e-9 1.5927342222643361e-9 3.175132262927083e-9 1.8027129790191819e-9 2.0695758207184926e-9 1.3952046166422106e-8
          9.053866099770174e-9 1.7354046753709245e-8 5.762545134521141e-9 3.4502199298804116e-9 1.9074527833720386e-9 1.0428814442891581e-9
          7.089017129880205e-9 4.334486472893296e-9 2.2630188722514703e-9 2.275484919470247e-9 1.724979182656593e-9 1.1711764020557911e-9
          8.86885258482349e-10 2.041667656790183e-9 2.709895721703561e-9 1.3948641373214425e-9 1.915789728898517e-9 9.87682960390355e-10
          2.979547962659248e-9 4.940129919259468e-10 1.6577343475233422e-9 2.3412230395623605e-9 8.704300774732823e-10 1.2159408578256837e-9
          1.1080772173090863e-9 1.3755845250707894e-9 7.201580953317352e-10 4.250916624813653e-10 2.8965544469111296e-10 3.496722055081489e-10
          1.948456607588482e-9 2.5300689196315976e-9 1.0516257749806654e-9 5.632112896371825e-10 9.512101161622298e-10 9.052700596381505e-10
          1.3750403249146148e-9 7.287032092221966e-10 2.790610197171024e-10 2.391441250203457e-10 3.5550543214180016e-10 9.215699225649928e-10
          5.91179099630367e-10 8.047100527454937e-10 4.217081821523697e-10 5.786544448684266e-10 5.179431725707328e-10 6.713524288303228e-10
          4.813399063238145e-10 1.411819822733534e-9 1.02922865665044e-9 1.0804039555261988e-9 3.132901658590489e-9 2.0950273639543015e-9
          4.885960041157373e-9 2.3951587435975466e-9 1.7741775833839543e-9 1.5761008092810341e-9 1.152836521885775e-9 3.814720382672698e-9
          2.876374846429583e-9 2.4308079951275315e-9 1.0526100008089129e-9 1.3306884857936755e-9 1.0255026586987199e-9 1.9601264699553824e-9
          7.69964509037318e-10 9.839315930828777e-10 5.529107136202133e-10 7.110609378581385e-10 6.064655071519852e-10 7.495609427777506e-10
          5.37742560093141e-10 1.4715518714361018e-9 1.0748460700862453e-9 9.536922463878523e-10 2.939305961495975e-10 4.0561871636983943e-10
          2.570962094834334e-10 3.366276981156707e-10 7.285156613037242e-10 5.503742118306953e-10 1.2712022271710662e-9 8.179384626594158e-10
          2.0906536947453657e-9 1.2929129431202294e-9 3.8688595593349314e-10 4.999983478321341e-10 3.0176389801839227e-10 3.760707980574817e-10
          7.625548864271654e-10 4.827135034770972e-10 1.6530774097511662e-8 1.1419125187910633e-8 1.936612293585574e-8 1.647699216038535e-8
          2.0320064291037338e-8 1.3539675692943532e-8 1.079838846471427e-8 1.4280641483315609e-8 6.912497737799941e-9 8.33147143119195e-9
          8.830486784563754e-9 8.600107562262279e-9 7.0727081771790674e-9 5.572067818053087e-9 4.468847895865469e-9 1.1163676228198692e-8
          9.295617759330818e-9 7.084042542386888e-9 5.628329600024415e-9 4.317335927102035e-9 3.4757367110011763e-9 2.612557407509381e-9
          7.50270973939968e-9 5.8380448320507284e-9 4.539284625858164e-9 3.435772437498909e-9 2.6810295465496833e-9 2.0193664819265126e-9
          1.5357773153709636e-9 4.275141083607402e-9 3.3763346019160372e-9 2.4863705798827514e-9 2.038046258938077e-9 1.50376231724541e-9
          1.1429020623354265e-9 8.292575664531819e-10 2.5921901453221976e-9 1.927968381488538e-9 1.4300812614777256e-9 1.3087386192175446e-8
          1.0953110768984346e-8 8.201576560689709e-9 6.730494495557835e-9 1.3796828050779264e-8 1.1560879864247123e-8 8.613333214496628e-9
          8.907252709757369e-9 6.99637729006412e-9 5.345832790530453e-9 4.092996605190102e-9 9.421223223007453e-9 7.4240856384232045e-9
          5.646930288909596e-9 4.891945460989109e-9 3.892740786730503e-9 2.809116244132031e-9 2.16801908848966e-9 5.118401739137725e-9
          4.083385493595972e-9 2.926339729549751e-9 3.0076281685376917e-9 2.2480106354451204e-9 1.6327778815389655e-9 1.1949910026200137e-9
          3.161763498563374e-9 2.3671281643275574e-9 1.7069871844133125e-9 3.1841853662352084e-9 1.8935614223397126e-9 4.361946905840328e-9
          2.5241089666479685e-9 1.0774263932517137e-9 5.834381501927399e-10 1.3898726694648017e-9 7.377087275894357e-10 5.27522307258951e-9
          3.013528467122854e-9 5.6162956448028155e-9 3.1985311603354816e-9 1.6234459926129464e-9 8.47988511084567e-10 1.710000399676161e-9
          8.885544612083826e-10 7.720614957319048e-10 8.718780036800708e-10 6.504322200847151e-10 1.051631327827983e-9 5.591930560823221e-10
          6.346804568240766e-10 3.99383615288572e-10 4.536709737318862e-10 4.380145611244603e-10 4.665383641813882e-10 3.3121600692757175e-10
          7.703623158542392e-10 5.521937656769589e-10 5.330493415163959e-10 1.177840324985193e-9 8.217825380589828e-10 1.2241125059426568e-9
          8.655724950305332e-10 6.218137288338891e-10 5.934326262418445e-10 4.21410361718094e-10 9.005882159184187e-10 6.471982584890608e-10
          6.158287366892134e-10 2.766523052889056e-10 3.1476940451785547e-10 2.2999004344038334e-10 2.5755739144743036e-10 2.19206247100228e-10
          2.3636991463270184e-10 2.0232111856609896e-10 3.853518035724542e-10 2.7192696233560817e-10 4.3638212252333703e-10 2.979522655355661e-10
          4.54947141648571e-10 3.0558418856509154e-10 7.828807285517136e-9 1.6104407032234251e-9 1.5653045582914936e-9 5.4970148229293085e-9
          2.3458954858203837e-9 2.0697274457845028e-9 6.202359218544523e-9 2.1394698260562168e-9 2.0691782537158785e-9 5.96066172778245e-10
          6.068863975345577e-10 9.870830982402262e-10 7.404651580350559e-10 5.84244817249858e-9 2.329075887732903e-9 1.4447222696801273e-9
          4.753273931213842e-9 4.222553529252635e-9 1.53715586020798e-9 1.8011294986420654e-9 5.1733731556491035e-9 6.390603650910374e-10
          9.735045401912396e-10 4.0787452247190604e-10 5.024737923376091e-10 2.6785283839378174e-9 6.746144996636945e-10 7.503031342748221e-10
          5.880651869690647e-10 7.703543899825765e-10 6.877049189597907e-10 5.5060214947605e-10 6.544898890767869e-10 4.4269990056927836e-10
          4.430392733385736e-10 2.8322763614493685e-10 4.708109659645177e-10 7.306427606268649e-10 1.6541354094010435e-9 4.637723333758175e-9
          5.054631623267328e-10 5.071100718016046e-10 5.887012159876539e-10 2.0342344051363204e-10 3.461378515903469e-10 2.746067369084958e-10
          1.7133081829057357e-10 6.417298456703803e-10 1.386899975762503e-9 4.9521542052197675e-9 2.733874221034899e-9 1.818237331781032e-9
          3.335415312777952e-9 1.4269468656692728e-9 2.558772516952337e-9 1.3261500354905329e-9 4.9133302296615016e-9 3.7133630550589194e-10
          6.989989436386449e-10 4.6530493646157065e-10 1.3603765281599818e-10 3.1840301377210027e-10 2.1717675235861653e-10 1.7203395947925523e-10
          6.427796005549869e-10 3.029291749686235e-10 7.584531886353364e-10 8.156937933283908e-10 1.4585631259301492e-9 1.0814111406089336e-9
          1.096307383667752e-9 7.821423124218708e-10 2.5836125258925373e-9 1.9575561631480015e-9 1.8851633591457054e-9 1.439356456152353e-9
          4.39192575254992e-9 3.408247278313752e-9 2.5564820835387697e-9 7.055750932553277e-9 5.610084129978518e-9 4.3000420134239955e-9
          3.791344559626351e-10 5.501879321258786e-10 2.0140137571726402e-10 3.7687580764993795e-10 2.780832428590591e-10 2.3143147344089315e-10
          1.025812130499926e-9 7.080996905757054e-10 5.010692294253627e-10 1.8502991338317574e-9 1.291464807215124e-9 8.808746972090002e-10
          5.631495232273275e-10 3.169624712249562e-9 2.2438569557602604e-9 1.4636774003100815e-9 8.960063178595571e-10 2.656838128402835e-10
          3.428713741615801e-10 2.5759598973111573e-10 5.23856148253014e-10 1.6933245222127474e-8 1.4304213525054464e-8 1.0459300246655813e-8
          1.2514057843709002e-8 2.203680139376073e-8 1.9016807385535416e-8 1.170468786990378e-8 8.476978705146409e-9 1.5753832720030636e-8
          9.27724511981513e-9 6.6302872786733815e-9 1.2595118080743881e-8 2.4491452668769023e-8 2.169813840190154e-8 2.487382530001661e-8
          2.2317130294091728e-8 1.8283126963675584e-8 1.4706698477172573e-8 1.898330974131229e-8 1.5330659483227582e-8 7.082817070455129e-9
          4.980786703663038e-9 9.758173489187766e-9 5.176082467195391e-9 3.5827139533351653e-9 7.271132526596148e-9 5.0493230023930135e-9
          1.1466255300869398e-8 8.664195266258534e-9 6.157438872054586e-9 1.1970558529525623e-8 9.092347835299094e-9 6.555529963713093e-9
          2.25485118038675e-9 1.322380717510976e-9 3.1222628717160694e-9 1.7753822403431958e-9 7.449310231797388e-10 4.5952788635388885e-10
          9.661659739584367e-10 6.145916793972697e-10 3.805554263994953e-9 2.130746104149293e-9 4.063306390279233e-9 2.265911310040695e-9
          1.1311172191649226e-9 5.79984291957894e-10 1.1921111757492981e-9 6.119978997509344e-10 2.836959624709843e-10 2.9763985423329673e-10
          2.10934573675289e-10 3.1229813448735576e-10
        </DataArray>
        <DataArray type="Float64" Name="gradient_matprop_error" format="ascii" RangeMin="0" RangeMax="0">
          0 0 0 0 0 0
          0 0 0 0 0 0
          0 0 0 0 0 0
          0 0 0 0 0 0
          0 0 0 0 0 0
          0 0 0 0 0 0
          0 0 0 0 0 0
          0 0 0 0 0 0
          0 0 0 0 0 0
          0 0 0 0 0 0
          0 0 0 0 0 0
          0 0 0 0 0 0
          0 0 0 0 0 0
          0 0 0 0 0 0
          0 0 0 0 0 0
          0 0 0 0 0 0
          0 0 0 0 0 0
          0 0 0 0 0 0
          0 0 0 0 0 0
          0 0 0 0 0 0
          0 0 0 0 0 0
          0 0 0 0 0 0
          0 0 0 0 0 0
          0 0 0 0 0 0
          0 0 0 0 0 0
          0 0 0 0 0 0
          0 0 0 0 0 0
          0 0 0 0 0 0
          0 0 0 0 0 0
          0 0 0 0 0 0
          0 0 0 0 0 0
          0 0 0 0 0 0
          0 0 0 0 0 0
          0 0 0 0 0 0
          0 0 0 0 0 0
          0 0 0 0 0 0
          0 0 0 0 0 0
          0 0 0 0 0 0
          0 0 0 0 0 0
          0 0 0 0 0 0
          0 0 0 0 0 0
          0 0 0 0 0 0
          0 0 0 0 0 0
          0 0 0 0 0 0
          0 0 0 0 0 0
          0 0 0 0 0 0
          0 0 0 0 0 0
          0 0 0 0 0 0
          0 0 0 0 0 0
          0 0 0 0 0 0
          0 0 0 0 0 0
          0 0 0 0 0 0
          0 0 0 0 0 0
          0 0 0 0 0 0
          0 0 0 0 0 0
          0 0 0 0 0 0
          0 0 0 0 0 0
          0 0 0 0 0 0
          0 0 0 0 0 0
          0 0 0 0 0 0
          0 0 0 0 0 0
          0 0 0 0 0 0
          0 0 0 0 0 0
          0 0 0 0 0 0
          0 0 0 0 0 0
          0 0
        </DataArray>
        <DataArray type="Float64" Name="initial_marker" format="ascii" RangeMin="0" RangeMax="2">
          0 0 0 0 1 2
          2 0 0 0 0 0
          0 0 1.5 0 1.5 0
          0 0 2 2 1.25 2
          2 2 2 2 2 2
          2 2 2 0 0 0
          0 0 0 0 0 0
          0 0 0 0 0 0
          0 0 0 0 0 0
          0 0 0 0 0 0
          0 0 0 0 0 1
          0 1 0 1 0 1
          1 2 2 2 2 2
          2 2 2 2 2 2
          2 2 1 1.5 1 2
          1 1.5 1 1.5 0 1
          1 2 2 1.3333333333333333 0 1
          0 1 2 2 2 2
          2 2 1 1.5 0 1
          2 1.3333333333333333 2 2 2 2
          2 2 2 2 2 2
          2 2 2 2 2 2
          2 2 2 2 2 2
          2 2 2 2 2 2
          1.75 2 2 2 2 2
          1.5 1.5 2 2 2 2
          2 2 2 2 2 2
          2 2 2 2 2 2
          2 2 2 2 2 2
          2 2 2 2 2 2
          2 2 2 2 2 2
          2 2 1.5 2 2 2
          2 2 2 2 2 2
          2 0.5 0.75 0 1 0
          0.5 0 0.5 0 0 0
          1 1 0 1 0 1
          1 1 0 0 1 1
          0 0 0.5 0 0.5 0
          0 0 1 0 1 0
          1 0 0 0 0 0
          0 0 0 0 0 0
          0 0 0 0 0 0
          0 0 0 0 0 0
          0 0 0 0 0 0
          1.25 0 0 0 0 0
          0 0 0 0 0 0
          0 0 0 0 0 0
          0 0.75 0 0 0 0
          0 0 0.75 0.5 0 0
          0 0 0 0 0 0
          0.25 0 1 0.5 1.75 1.5
          1.25 1.5 2 2 2 2
          2 2 2 2 2 2
          1 1.5 0 1.25 0.75 0.5
          2 2 1.75 2 2 2
          2 2 2 2 2 1
          1.25 0.5 1.75 2 2 2
          2 2 2 2 2 2
          2 2 2 2 2 2
          2 2 2 2 2 2
          2 2 2 2 2 2
          2 2 2 2 2 2
          2 2 2 2 2 1.6666666666666667
          2 1.75 2 2 2 2
          2 2 2 2 1 1
          0 1
        </DataArray>
        <DataArray type="Float64" Name="markers_norefine" format="ascii" RangeMin="0" RangeMax="0.5">
          0 0 0 0 0 0
          0 0 0 0 0 0
          0 0 0 0 0 0
          0 0 0 0 0 0
          0 0 0 0 0 0
          0 0 0 0 0 0
          0 0 0 0 0 0
          0 0 0 0 0 0
          0 0 0 0 0 0
          0 0 0 0 0 0
          0 0 0 0 0 0
          0 0 0 0 0 0
          0 0 0 0 0 0
          0 0 0 0 0 0
          0 0 0 0 0 0
          0 0 0 0 0 0
          0 0 0 0 0 0
          0 0 0 0 0 0
          0 0 0 0 0 0
          0 0 0 0 0 0
          0 0 0 0 0 0
          0 0 0 0 0 0
          0 0 0 0 0 0
          0 0 0 0 0 0
          0 0 0 0 0 0
          0 0 0 0 0 0
          0 0 0 0 0 0
          0 0 0 0 0 0
          0 0 0 0 0 0
          0 0 0 0 0 0
          0 0 0 0 0 0
          0 0 0 0 0 0
          0 0 0 0 0 0
          0 0 0 0 0 0
          0 0 0 0 0 0
          0 0 0 0 0 0
          0 0 0 0 0 0
          0 0 0 0 0 0
          0 0 0 0 0 0
          0 0 0 0 0 0
          0 0 0 0 0 0
          0 0 0 0 0 0
          0 0 0 0 0 0
          0 0 0 0 0 0
          0 0 0 0 0 0
          0 0 0 0 0 0
          0 0 0 0 0 0
          0 0 0 0 0 0
          0 0 0 0 0 0
          0 0 0 0 0 0
          0 0 0 0 0 0
          0 0 0 0 0 0
          0 0 0 0 0 0
          0 0 0 0 0 0
          0 0 0 0 0 0
          0 0 0 0 0 0
          0 0 0 0 0 0
          0 0 0 0 0 0
          0 0 0 0.25 0 0.5
          0 0 0 0 0 0
          0 0 0 0 0 0
          0 0 0 0 0 0
          0 0 0 0 0 0
          0 0 0 0 0 0
          0 0 0 0 0 0
          0 0
        </DataArray>
        <DataArray type="Float64" Name="markers_mustrefine" format="ascii" RangeMin="0" RangeMax="2">
          0 0 0 0 1 2
          2 0 0 0 0 0
          0 0 1.5 0 1.5 0
          0 0 2 2 1.25 2
          2 2 2 2 2 2
          2 2 2 0 0 0
          0 0 0 0 0 0
          0 0 0 0 0 0
          0 0 0 0 0 0
          0 0 0 0 0 0
          0 0 0 0 0 1
          0 1 0 1 0 1
          1 2 2 2 2 2
          2 2 2 2 2 2
          2 2 1 1.5 1 2
          1 1.5 1 1.5 0 1
          1 2 2 1.3333333333333333 0 1
          0 1 2 2 2 2
          2 2 1 1.5 0 1
          2 1.3333333333333333 2 2 2 2
          2 2 2 2 2 2
          2 2 2 2 2 2
          2 2 2 2 2 2
          2 2 2 2 2 2
          1.75 2 2 2 2 2
          1.5 1.5 2 2 2 2
          2 2 2 2 2 2
          2 2 2 2 2 2
          2 2 2 2 2 2
          2 2 2 2 2 2
          2 2 2 2 2 2
          2 2 1.5 2 2 2
          2 2 2 2 2 2
          2 0.5 0.75 0 1 0
          0.5 0 0.5 0 0 0
          1 1 0 1 0 1
          1 1 0 0 1 1
          0 0 0.5 0 0.5 0
          0 0 1 0 1 0
          1 0 0 0 0 0
          0 0 0 0 0 0
          0 0 0 0 0 0
          0 0 0 0 0 0
          0 0 0 0 0 0
          1.25 0 0 0 0 0
          0 0 0 0 0 0
          0 0 0 0 0 0
          0 0.75 0 0 0 0
          0 0 0.75 0.5 0 0
          0 0 0 0 0 0
          0.25 0 1 0.5 1.75 1.5
          1.25 1.5 2 2 2 2
          2 2 2 2 2 2
          1 1.5 0 1.25 0.75 0.5
          2 2 1.75 2 2 2
          2 2 2 2 2 1
          1.25 0.5 1.75 2 2 2
          2 2 2 2 2 2
          2 2 2 2 2 2
          2 2 2 2 2 2
          2 2 2 2 2 2
          2 2 2 2 2 2
          2 2 2 2 2 1.6666666666666667
          2 1.75 2 2 2 2
          2 2 2 2 1 1
          0 1
        </DataArray>
        <DataArray type="Float64" Name="gradient_marker" format="ascii" RangeMin="0.5" RangeMax="1">
          0.875 0.75 1 1 1 1
          1 0.75 0.5 0.75 1 1
          1 1 1 1 1 1
          1 1 1 1 1 1
          1 1 1 1 1 1
          1 1 1 1 1 1
          1 1 1 1 1 1
          1 1 1 1 1 1
          1 1 1 1 1 1
          1 1 1 1 1 1
          1 1 1 1 1 1
          1 1 1 1 1 1
          1 1 1 1 1 1
          1 1 1 1 1 1
          1 1 1 1 1 1
          1 1 1 1 1 1
          1 1 1 1 1 1
          1 1 1 1 1 1
          1 1 1 1 1 1
          1 1 1 1 1 1
          1 1 1 1 1 1
          1 1 1 1 1 1
          1 1 1 1 1 1
          1 1 1 1 1 1
          1 1 1 1 1 1
          1 1 1 1 1 1
          1 1 1 1 1 1
          1 1 1 1 1 1
          1 1 1 1 1 1
          1 1 1 1 1 1
          1 1 1 1 1 1
          1 1 1 1 1 1
          1 1 1 1 1 1
          1 1 1 1 1 1
          1 1 1 1 1 1
          1 1 1 1 1 1
          1 1 1 1 1 1
          1 1 1 1 1 1
          1 1 1 1 1 1
          1 1 0.75 1 1 1
          1 1 0.625 1 1 1
          1 1 1 0.5 1 1
          0.75 0.75 1 1 0.625 1
          1 1 1 1 1 1
          1 1 1 1 1 1
          1 1 1 1 1 0.5
          1 1 1 1 1 1
          1 1 1 1 1 1
          1 1 1 1 1 1
          1 1 1 1 1 1
          1 1 1 1 1 1
          1 1 1 1 1 1
          1 1 1 1 1 1
          1 1 1 1 1 1
          1 1 1 1 1 1
          1 1 1 1 1 1
          1 1 1 1 1 1
          1 1 1 1 1 1
          1 1 1 1 1 1
          1 1 1 1 1 1
          1 1 1 1 1 1
          1 1 1 1 1 1
          1 1 1 1 1 1
          1 1 1 1 1 1
          1 1 1 1 1 1
          1 1
        </DataArray>
        <DataArray type="Float64" Name="gradient_matprop_marker" format="ascii" RangeMin="0" RangeMax="0">
          0 0 0 0 0 0
          0 0 0 0 0 0
          0 0 0 0 0 0
          0 0 0 0 0 0
          0 0 0 0 0 0
          0 0 0 0 0 0
          0 0 0 0 0 0
          0 0 0 0 0 0
          0 0 0 0 0 0
          0 0 0 0 0 0
          0 0 0 0 0 0
          0 0 0 0 0 0
          0 0 0 0 0 0
          0 0 0 0 0 0
          0 0 0 0 0 0
          0 0 0 0 0 0
          0 0 0 0 0 0
          0 0 0 0 0 0
          0 0 0 0 0 0
          0 0 0 0 0 0
          0 0 0 0 0 0
          0 0 0 0 0 0
          0 0 0 0 0 0
          0 0 0 0 0 0
          0 0 0 0 0 0
          0 0 0 0 0 0
          0 0 0 0 0 0
          0 0 0 0 0 0
          0 0 0 0 0 0
          0 0 0 0 0 0
          0 0 0 0 0 0
          0 0 0 0 0 0
          0 0 0 0 0 0
          0 0 0 0 0 0
          0 0 0 0 0 0
          0 0 0 0 0 0
          0 0 0 0 0 0
          0 0 0 0 0 0
          0 0 0 0 0 0
          0 0 0 0 0 0
          0 0 0 0 0 0
          0 0 0 0 0 0
          0 0 0 0 0 0
          0 0 0 0 0 0
          0 0 0 0 0 0
          0 0 0 0 0 0
          0 0 0 0 0 0
          0 0 0 0 0 0
          0 0 0 0 0 0
          0 0 0 0 0 0
          0 0 0 0 0 0
          0 0 0 0 0 0
          0 0 0 0 0 0
          0 0 0 0 0 0
          0 0 0 0 0 0
          0 0 0 0 0 0
          0 0 0 0 0 0
          0 0 0 0 0 0
          0 0 0 0 0 0
          0 0 0 0 0 0
          0 0 0 0 0 0
          0 0 0 0 0 0
          0 0 0 0 0 0
          0 0 0 0 0 0
          0 0 0 0 0 0
          0 0
        </DataArray>
        <DataArray type="Float64" Name="combo" format="ascii" RangeMin="0.5" RangeMax="1.25">
          0.875 0.75 1 1 1 1
          1 0.75 0.5 0.75 1 1
          1 1 1 1 1 1
          1 1 1 1 1 1
          1 1 1 1 1 1
          1 1 1 1 1 1
          1 1 1 1 1 1
          1 1 1 1 1 1
          1 1 1 1 1 1
          1 1 1 1 1 1
          1 1 1 1 1 1
          1 1 1 1 1 1
          1 1 1 1 1 1
          1 1 1 1 1 1
          1 1 1 1 1 1
          1 1 1 1 1 1
          1 1 1 1 1 1
          1 1 1 1 1 1
          1 1 1 1 1 1
          1 1 1 1 1 1
          1 1 1 1 1 1
          1 1 1 1 1 1
          1 1 1 1 1 1
          1 1 1 1 1 1
          1 1 1 1 1 1
          1 1 1 1 1 1
          1 1 1 1 1 1
          1 1 1 1 1 1
          1 1 1 1 1 1
          1 1 1 1 1 1
          1 1 1 1 1 1
          1 1 1 1 1 1
          1 1 1 1 1 1
          1 1 1 1 1 1
          1 1 1 1 1 1
          1 1 1 1 1 1
          1 1 1 1 1 1
          1 1 1 1 1 1
          1 1 1 1 1 1
          1 1 0.75 1 1 1
          1 1 0.625 1 1 1
          1 1 1 0.5 1 1
          0.75 0.75 1 1 0.625 1
          1 1 1 1 1 1
          1 1 1 1 1 1
          1 1 1 1 1 0.5
          1 1 1 1 1 1
          1 1 1 1 1 1
          1 1 1 1 1 1
          1 1 1 1 1 1
          1 1 1 1 1 1
          1 1 1 1 1 1
          1 1 1 1 1 1
          1 1 1 1 1 1
          1 1 1 1 1 1
          1 1 1 1 1 1
          1 1 1 1 1 1
          1 1 1 1 1 1
          1 1 1 1.125 1 1.25
          1 1 1 1 1 1
          1 1 1 1 1 1
          1 1 1 1 1 1
          1 1 1 1 1 1
          1 1 1 1 1 1
          1 1 1 1 1 1
          1 1
        </DataArray>
        <DataArray type="Float64" Name="dHdT" format="ascii" RangeMin="25.815194067030085" RangeMax="42.78856555527568">
          26.108252189472488 25.89190367367502 25.826823411399914 25.898146905175714 26.06354388136613 31.83794110937335
          26.306583848178388 26.004814612836718 25.921575625578154 26.072715481978364 25.87300522550973 25.854988715467268
          25.893517377694366 25.86421888666414 26.359477857849832 25.936645026989538 26.095156741310355 26.00811824904496
          26.088313619065108 25.95370529647217 27.11001610770826 26.507471686516205 26.302221548795902 33.234216232375175
          29.93745709579593 35.32721570523313 28.250474361563533 27.13790925417656 26.606202471071587 26.226991444336505
          28.941609768270336 27.508769833155398 26.749394088288554 26.024759181140674 26.08114030523482 25.921057368715736
          25.948886125057065 25.963840031466198 26.00771008786957 25.9128548037758 26.113390394481065 25.96583145532572
          26.027165632245538 25.851317922486864 25.934187859114953 25.972659420241683 25.87689495122281 25.895865177704835
          25.899086153602077 25.919255836520435 25.869348774501702 25.84489408132653 25.836949808288715 25.841523915779668
          25.952828477384404 25.99743291419999 25.892092885203226 25.855434111182486 25.878843368678677 25.881097662169708
          25.915646335603743 25.867200475141367 25.834535505307187 25.831972416695976 25.83994956342187 26.236576886573168
          26.080775572470515 26.16623051612916 26.001759348803404 26.062865679584608 26.048785542876224 26.11821090969085
          26.02853726264228 26.393549911968094 26.227678339620827 26.272218903487314 27.09471904804353 26.682363519578153
          27.838303273172677 26.76180326942335 26.498413975437145 26.450937425627547 26.270075573318916 27.32189482097851
          26.911190940897306 26.77381114720979 26.285410604216416 26.38884330408498 26.269462432327405 26.62611211781826
          26.154381568971978 26.23116054817544 26.05460644187569 26.109916478222438 26.08823664373137 26.142246685559947
          26.045581189102954 26.40849832811915 26.238637247575088 26.220480720722836 25.943229411488055 25.985444458751974
          25.92792617927995 25.961684252638847 26.101133726599254 26.038720201805216 26.294145999345847 26.131310121717476
          26.59026849917003 26.3007720374909 25.97974127627223 26.018317682184897 25.94735259788051 25.97340840777641
          26.108691478839948 26.01135370410019 34.75483547538806 31.5394100645815 36.169084276433324 34.81416675470683
          36.657583899075654 33.16556532935841 31.28026215581429 33.76207513423166 28.669738393340616 29.57624351824674
          29.968103401766022 29.92426640981344 28.902361135947174 28.24304543658582 27.654772155906166 31.64422767238895
          30.236845166877604 29.034449453954668 28.103700556588485 27.480594189416813 27.184733488950442 26.81068335317615
          29.056991979584126 28.154947540115803 27.629900116623205 27.271728726834613 26.91008214008199 26.6940593535144
          26.466206830451963 27.64361330573673 27.196621776294077 26.876603732538513 26.62265945541843 26.3956541377141
          26.28825877260598 26.150389389034537 26.83951283322103 26.5556031195364 26.393301222519753 32.98230922538477
          31.42543328326341 29.70586527981786 28.744668340441766 33.44966738981551 31.898795965124165 29.977834196310425
          29.93089184985902 28.75196133781996 27.994588754569413 27.404115155520245 30.29960338646808 28.998277374445777
          28.13858659365059 27.9298201935051 27.41710043637576 27.011890226183443 26.710538480287916 28.039100193240113
          27.50117336864437 27.06229815889054 27.00633882188521 26.67913647557314 26.471954064545212 26.284882203626665
          27.069913759305823 26.72632700692068 26.50123051187289 26.997825365641745 26.518534687476883 27.47264441535895
          26.753468966709356 26.220005069453386 26.045526964140972 26.334495030377717 26.099697343925683 27.884177913000627
          26.943809785984577 28.05186477973587 27.018468042248408 26.42340081971393 26.141364152433663 26.457332847996874
          26.15708909798376 26.171794219089087 26.20669660220271 26.111050765473546 26.27342272810449 26.07022143892535
          26.095838875144654 25.99389445567756 26.012071272436184 26.009725498439163 26.025792053170186 25.962850688786368
          26.14509687466301 26.047322501151772 26.057277582933445 26.323787666387336 26.18758744465095 26.34232886188204
          26.18255545095944 26.074608902325835 26.081635883514434 26.00232274234649 26.196373463956824 26.084820891542932
          26.090575209063182 25.937420251169037 25.949912158954735 25.913841421091043 25.923877876712353 25.908720123036666