<?xml version="1.0"?>
<VTKFile type="UnstructuredGrid" version="0.1" byte_order="LittleEndian" header_type="UInt32" compressor="vtkZLibDataCompressor">
  <UnstructuredGrid>
    <Piece NumberOfPoints="405" NumberOfCells="212">
      <PointData>
        <DataArray type="Int32" Name="libmesh_node_id" format="ascii" RangeMin="345" RangeMax="2717">
          415 612 614 618 619 620
          622 623 624 639 640 643
          644 646 648 869 870 871
          872 876 877 1130 1131 1132
          1136 1144 1145 1150 1151 1152
          1153 1154 1155 1156 1157 1158
          1159 1160 1161 1162 1164 1165
          1166 1167 1168 1169 1170 1176
          1185 1186 1190 1191 1192 1193
          1194 1195 1196 1197 1198 1199
          1200 1201 1202 1203 1204 1287
          1288 1289 1290 1291 1292 1293
          1294 1295 1296 1297 1298 1299
          1300 1454 1455 1458 1459 1489
          1490 1491 1492 1493 1494 1495
          1496 1497 1498 1537 1545 1546
          1548 1549 1550 1551 1552 1555
          1556 1892 1898 1899 1903 1922
          1928 1932 1933 1934 1935 1936
          1937 1938 1941 1942 1943 1944
          1946 1947 1948 1949 1950 1951
          1952 1953 1954 1955 1956 1957
          1958 1959 1960 1961 1962 1963
          1964 1965 1966 1967 1968 1969
          1970 2059 2060 2061 2062 2063
          2064 2065 2066 2068 2070 2072
          2093 2094 2095 2096 2097 2098
          2099 2100 2102 2103 2104 2106
          2107 2108 2109 2110 2111 2112
          2113 2114 2115 2116 2117 2118
          2119 2120 2121 2122 2123 2124
          2125 2126 2127 2128 2129 2130
          2131 2132 2133 2134 2135 2136
          2137 2138 2139 2140 2141 2142
          2143 2144 2145 2146 2315 2316
          2320 2331 2333 2335 2337 2345
          2346 2349 2350 2352 2354 2667
          2668 2669 2670 2671 2672 2673
          2674 2675 2676 2677 2678 2679
          2680 2681 2682 2683 2684 2685
          2686 2687 2688 2689 2690 2691
          2692 2695 2696 2698 2700 2711
          2713 2715 2717 346 411 502
          492 399 412 503 493 354
          417 509 500 396 603 582
          604 607 641 642 645 402
          609 647 770 777 778 771
          345 404 405 394 783 774
          863 864 865 868 873 875
          878 577 1081 1064 1082 1085
          579 1087 1163 407 1117 1119
          1121 1233 1237 1234 1238 1301
          1305 1302 1306 1308 1310 1449
          1450 1456 1457 1453 1460 1499
          1500 1503 1504 1242 1553 1547
          1554 1557 615 1939 1900 1940
          1146 1945 1929 617 2067 2069
          2071 2101 2105 2311 2312 2313
          2314 2317 2318 2319 2184 2217
          1213 2218 2332 2334 2221 1218
          2336 1240 2347 2348 2351 2353
          2439 2441 2443 2445 2473 2475
          2477 2479 2555 2442 2556 2557
          2558 2559 2561 2569 2570 2571
          2572 2573 2575 2583 2585 2587
          2589 2597 2599 2601 2603 2693
          2694 2697 1275 2699 2600 2712
          2714 1279 2716
        </DataArray>
        <DataArray type="Float64" Name="bounds" format="ascii" RangeMin="0" RangeMax="0">
          0 0 0 0 0 0
          0 0 0 0 0 0
          0 0 0 0 0 0
          0 0 0 0 0 0
          0 0 0 0 0 0
          0 0 0 0 0 0
          0 0 0 0 0 0
          0 0 0 0 0 0
          0 0 0 0 0 0
          0 0 0 0 0 0
          0 0 0 0 0 0
          0 0 0 0 0 0
          0 0 0 0 0 0
          0 0 0 0 0 0
          0 0 0 0 0 0
          0 0 0 0 0 0
          0 0 0 0 0 0
          0 0 0 0 0 0
          0 0 0 0 0 0
          0 0 0 0 0 0
          0 0 0 0 0 0
          0 0 0 0 0 0
          0 0 0 0 0 0
          0 0 0 0 0 0
          0 0 0 0 0 0
          0 0 0 0 0 0
          0 0 0 0 0 0
          0 0 0 0 0 0
          0 0 0 0 0 0
          0 0 0 0 0 0
          0 0 0 0 0 0
          0 0 0 0 0 0
          0 0 0 0 0 0
          0 0 0 0 0 0
          0 0 0 0 0 0
          0 0 0 0 0 0
          0 0 0 0 0 0
          0 0 0 0 0 0
          0 0 0 0 0 0
          0 0 0 0 0 0
          0 0 0 0 0 0
          0 0 0 0 0 0
          0 0 0 0 0 0
          0 0 0 0 0 0
          0 0 0 0 0 0
          0 0 0 0 0 0
          0 0 0 0 0 0
          0 0 0 0 0 0
          0 0 0 0 0 0
          0 0 0 0 0 0
          0 0 0 0 0 0
          0 0 0 0 0 0
          0 0 0 0 0 0
          0 0 0 0 0 0
          0 0 0 0 0 0
          0 0 0 0 0 0
          0 0 0 0 0 0
          0 0 0 0 0 0
          0 0 0 0 0 0
          0 0 0 0 0 0
          0 0 0 0 0 0
          0 0 0 0 0 0
          0 0 0 0 0 0
          0 0 0 0 0 0
          0 0 0 0 0 0
          0 0 0 0 0 0
          0 0 0 0 0 0
          0 0 0
        </DataArray>
        <DataArray type="Float64" Name="gradient_error" format="ascii" RangeMin="6.504322200847151e-10" RangeMax="1.6254790674497692e-7">
          3.7062211602932986e-9 5.1878010900833806e-8 7.966785069574604e-8 3.948786413930399e-8 6.892952967949702e-8 3.7290660717316024e-9
          9.581684340870088e-8 2.2888276566633567e-8 9.499640415382455e-8 2.7806949301584793e-8 5.341189732373037e-8 1.2159015451387719e-8
          2.0252696774683865e-8 6.745928864968873e-8 2.365270153317935e-8 1.3333319973108766e-8 1.187510151056943e-8 4.498986757741767e-8
          3.721649629412927e-8 8.116826349562e-9 2.235305344230263e-8 4.636985386509466e-8 7.181217449986782e-8 6.32154156547441e-8
          8.656460830782161e-8 1.5050711270370112e-8 3.2015640558160366e-8 4.3456427440841675e-8 3.159292502303547e-8 4.592858057546077e-8
          2.0304736580369562e-8 3.90601186669845e-8 2.467791826421816e-8 3.3722020095758e-8 2.2821497995549563e-8 7.995422453175902e-8
          7.190223264126704e-8 5.5488723538576055e-8 1.1285409193579293e-8 2.0562512397234964e-8 4.107278296730144e-9 9.174245255225169e-9
          1.3144435495172291e-8 5.6692267866677904e-9 3.68739615102502e-8 5.023008585001046e-9 1.816651271010963e-8 8.509598796526434e-8
          5.169531709824855e-8 1.8956523507577128e-8 5.960323803700453e-8 1.12567062270849e-7 1.0520337713983423e-7 7.612353540078562e-8
          5.250574820674364e-8 1.25489911606066e-7 1.1894063994008893e-7 8.403574565171697e-8 5.537955816764411e-8 8.493268895713694e-9
          2.3662300510996485e-8 3.1844556865362437e-9 6.345078565488173e-8 1.0209082722906528e-8 2.643346918923843e-8 1.4922775466180784e-8
          1.957604319127455e-8 1.5596438144988886e-8 2.1855772809561924e-8 1.0353216495741285e-8 1.2175719273344544e-8 4.330811285832623e-9
          3.3487868489123222e-9 8.484142838716042e-9 1.1378359610243613e-8 5.35049403199299e-9 1.3575135723804621e-8 3.712470766207399e-9
          1.2719937296695412e-8 4.055177485033234e-9 1.016915875929532e-8 2.2935853189725627e-9 4.8794621027798086e-9 7.504633541874391e-9
          1.0026935450624389e-8 7.56971830449424e-9 5.750208248120683e-9 7.86782512481851e-9 3.065207207692201e-9 4.377723064136901e-9
          4.1103704641569694e-9 5.520937108898619e-9 2.6228143964927212e-9 1.046555169400793e-8 5.778963277383163e-9 8.401687734067536e-9
          5.718812873109749e-9 7.534624916094823e-9 5.850397455755966e-9 4.1357304943482784e-9 5.923222747614965e-9 3.2798001614073337e-9
          4.57619464545507e-9 3.7355477971678735e-9 2.6375882811430817e-9 3.2971508607456525e-9 5.295740704559754e-9 8.733851703781446e-9
          8.020279560380472e-9 1.1676897709075374e-8 2.5067869098680575e-9 2.9668579815502274e-9 2.556177122149035e-9 4.626870606828019e-9
          2.1024456364808407e-9 2.590594428138254e-9 1.8445322248075348e-9 2.228654900189958e-9 1.6473785543093634e-9 4.088013635925863e-9
          3.3261467291752578e-9 6.782908803143981e-9 4.988258388759086e-9 9.519902641250806e-9 6.130456874213557e-9 4.9577075223786285e-9
          4.436225144139156e-9 3.4680465307003745e-9 8.755024140681779e-9 7.332270358394652e-9 6.195370208699037e-9 2.95265377917642e-9
          3.50278290784674e-9 2.968567558525315e-9 4.700949821185848e-9 2.5475643556497577e-9 3.062706076273403e-9 1.862635215488985e-9
          2.3042518066211816e-9 2.1251229983459303e-9 2.529471247512447e-9 1.8191625832311359e-9 4.188060774789684e-9 3.272809924458182e-9
          3.0136931858294874e-9 2.396065677699004e-8 2.292265944903999e-8 2.166210582395406e-8 1.8499839099645087e-8 2.7478656401294154e-8
          2.724083715091074e-8 2.6467053814763356e-8 2.1440599419378067e-8 1.639052597695539e-8 2.6300045472824182e-8 2.0773402200597783e-8
          2.772676996660951e-8 2.7910322177731093e-8 2.8917596884021184e-8 2.5857565615023588e-8 2.7184194856484746e-8 2.7418612077628896e-8
          2.9146307576645985e-8 2.7528643806634875e-8 2.3689481223837108e-8 2.1935593240647928e-8 2.7241036274378523e-8 2.4665205734228334e-8
          1.304068381352645e-8 9.073930532245861e-9 1.5972548589496717e-8 1.2000174167413798e-8 1.0169012062338098e-8 8.251575207849273e-9
          6.788998080202351e-9 1.4981413920469016e-8 1.3050542541620025e-8 1.01109460577658e-8 6.009545119189902e-9 3.9501596788245074e-9
          7.06958632606139e-9 5.408375437900911e-9 4.3243057602720085e-9 3.455611263649643e-9 2.6221508241416433e-9 6.460953180612665e-9
          5.302618246313299e-9 4.1231197054986815e-9 1.837428232085778e-8 1.2537743448047501e-8 1.9584035253137735e-8 1.7319497474062682e-8
          1.5217501324726413e-8 1.1540316982215334e-8 9.748226573229443e-9 1.833009685702243e-8 1.600346350577417e-8 1.2160770829501157e-8
          7.820044905845096e-9 5.155967121637084e-9 8.171019792092577e-9 7.216306243825234e-9 6.015701548520247e-9 4.567679538306945e-9
          3.5685202838381003e-9 7.529183249544643e-9 6.275026673794927e-9 4.7467121625110616e-9 9.698531613380198e-10 1.232425985839103e-9
          1.9199181305848658e-9 3.984112681275896e-9 2.7162962228722725e-9 6.062975235011659e-9 4.033042556626264e-9 1.4012350639988621e-9
          1.7571791000789679e-9 1.1241410854633783e-9 1.3679882143501896e-9 2.5499375133912906e-9 1.709201489613556e-9 2.1217293923975076e-9
          2.3925997581890187e-9 2.059908870325559e-9 2.80113282089202e-9 1.8783590190306902e-9 2.1019102511558367e-9 1.406823159834088e-9
          1.5719504625007251e-9 1.5900765149033392e-9 1.7227527774495855e-9 1.1966362931542644e-9 2.4669869400174754e-9 1.865998904790296e-9
          1.9702360467979925e-9 3.0406989366708494e-9 2.610486734499427e-9 3.142602355538188e-9 2.6999728135497683e-9 2.068596346023255e-9
          2.1571813332090006e-9 1.4838037579754457e-9 2.79143323034557e-9 2.1422726476332802e-9 2.229319612817848e-9 1.0399236083715924e-9
          1.1712179022331374e-9 8.32301521071607e-10 8.837384583487048e-10 1.404439732665372e-9 1.0018566803998384e-9 1.565643460183761e-9
          1.1085660184859535e-9 1.62491965113146e-9 1.148594071798033e-9 1.3656581860021708e-8 3.801673264736979e-9 3.6294342586036222e-9
          1.033759564208329e-8 2.5390672581736746e-8 7.828807285517136e-9 5.4970148229293085e-9 1.5558118825189768e-8 4.06812852690377e-8
          1.268864180966224e-8 7.364595387254996e-9 2.0778642008296246e-8 8.183337321025164e-8 5.699592281428722e-8 1.2467264472400467e-7
          1.1171936539239997e-7 3.537476312335087e-8 6.202359218544523e-9 6.94207258554888e-9 9.876102868209404e-9 1.6254790674497692e-7
          1.3821271969532205e-7 8.819208965762227e-9 1.1511658957645805e-8 3.9669841949483484e-9 3.1507182977464994e-9 9.22795349804363e-9
          2.3320959708106916e-8 7.029363573835489e-9 4.753273931213842e-9 1.5942572259322262e-8 2.3344524005446503e-9 6.9442480384414576e-9
          2.1540554610289228e-8 9.724560844865481e-8 8.14949893907969e-8 4.653961533258615e-8 5.84244817249858e-9 4.222553529252635e-9
          5.1733731556491035e-9 9.710101510811155e-8 3.6950212119940466e-8 7.691767728971176e-8 5.13838830923783e-8 3.895050335645746e-8
          8.80149540761594e-8 8.401384153541647e-8 4.9133302296615016e-9 6.9456574729665496e-9 1.1337511230819744e-7 8.207447104797448e-8
          1.2454009561037809e-7 2.6785283839378174e-9 2.9590502636357524e-9 2.2993391761139457e-9 3.0692605583578937e-9 2.275484919470247e-9
          2.041667656790183e-9 1.724979182656593e-9 2.709895721703561e-9 1.915789728898517e-9 2.979547962659248e-9 7.439277798478679e-9
          1.8102556168787588e-8 1.8928882584718324e-9 4.637723333758175e-9 8.87025200534187e-9 2.2677409851300225e-9 1.6577343475233422e-9
          2.3412230395623605e-9 1.1080772173090863e-9 1.3755845250707894e-9 2.0695758207184926e-9 1.948456607588482e-9 4.9521542052197675e-9
          3.335415312777952e-9 2.5300689196315976e-9 4.572372878986252e-9 1.4713663913995684e-9 2.5188077621720537e-9 1.934446287736855e-9
          4.1970564576376374e-9 3.1584393485784495e-9 6.683294267119974e-9 1.0158981088047836e-8 1.939577250330127e-8 1.4540552183409257e-8
          2.4543763984356048e-8 2.645568066601528e-8 2.649362256029477e-8 1.0968512445364394e-9 1.4594321319846013e-9 8.156937933283908e-10
          1.096307383667752e-9 9.215699225649928e-10 2.4575474568300196e-9 1.8851633591457054e-9 3.3226523773917694e-9 5.487117584863651e-9
          2.5836125258925373e-9 4.39192575254992e-9 3.132901658590489e-9 2.0950273639543015e-9 8.585426473011686e-9 7.055750932553277e-9
          4.885960041157373e-9 3.175132262927083e-9 1.0526100008089129e-9 1.3306884857936755e-9 1.0255026586987199e-9 1.9601264699553824e-9
          1.6933245222127474e-8 1.2514057843709002e-8 2.203680139376073e-8 1.6530774097511662e-8 2.4491452668769023e-8 1.936612293585574e-8
          2.487382530001661e-8 2.0320064291037338e-8 8.600107562262279e-9 1.0459300246655813e-8 7.0727081771790674e-9 5.572067818053087e-9
          4.468847895865469e-9 1.1163676228198692e-8 7.084042542386888e-9 3.435772437498909e-9 2.6810295465496833e-9 2.0193664819265126e-9
          1.5357773153709636e-9 4.275141083607402e-9 2.4863705798827514e-9 1.3087386192175446e-8 8.201576560689709e-9 1.3796828050779264e-8
          8.613333214496628e-9 4.891945460989109e-9 2.809116244132031e-9 5.118401739137725e-9 2.926339729549751e-9 7.720614957319048e-10
          8.718780036800708e-10 6.504322200847151e-10 1.9074527833720386e-9 1.051631327827983e-9 2.16801908848966e-9 1.177840324985193e-9
          8.217825380589828e-10 2.2630188722514703e-9 1.2241125059426568e-9
        </DataArray>
        <DataArray type="Float64" Name="gradient_matprop_error" format="ascii" RangeMin="0" RangeMax="0">
          0 0 0 0 0 0
          0 0 0 0 0 0
          0 0 0 0 0 0
          0 0 0 0 0 0
          0 0 0 0 0 0
          0 0 0 0 0 0
          0 0 0 0 0 0
          0 0 0 0 0 0
          0 0 0 0 0 0
          0 0 0 0 0 0
          0 0 0 0 0 0
          0 0 0 0 0 0
          0 0 0 0 0 0
          0 0 0 0 0 0
          0 0 0 0 0 0
          0 0 0 0 0 0
          0 0 0 0 0 0
          0 0 0 0 0 0
          0 0 0 0 0 0
          0 0 0 0 0 0
          0 0 0 0 0 0
          0 0 0 0 0 0
          0 0 0 0 0 0
          0 0 0 0 0 0
          0 0 0 0 0 0
          0 0 0 0 0 0
          0 0 0 0 0 0
          0 0 0 0 0 0
          0 0 0 0 0 0
          0 0 0 0 0 0
          0 0 0 0 0 0
          0 0 0 0 0 0
          0 0 0 0 0 0
          0 0 0 0 0 0
          0 0 0 0 0 0
          0 0 0 0 0 0
          0 0 0 0 0 0
          0 0 0 0 0 0
          0 0 0 0 0 0
          0 0 0 0 0 0
          0 0 0 0 0 0
          0 0 0 0 0 0
          0 0 0 0 0 0
          0 0 0 0 0 0
          0 0 0 0 0 0
          0 0 0 0 0 0
          0 0 0 0 0 0
          0 0 0 0 0 0
          0 0 0 0 0 0
          0 0 0 0 0 0
          0 0 0 0 0 0
          0 0 0 0 0 0
          0 0 0 0 0 0
          0 0 0 0 0 0
          0 0 0 0 0 0
          0 0 0 0 0 0
          0 0 0 0 0 0
          0 0 0 0 0 0
          0 0 0 0 0 0
          0 0 0 0 0 0
          0 0 0 0 0 0
          0 0 0 0 0 0
          0 0 0 0 0 0
          0 0 0 0 0 0
          0 0 0 0 0 0
          0 0 0 0 0 0
          0 0 0 0 0 0
          0 0 0
        </DataArray>
        <DataArray type="Float64" Name="initial_marker" format="ascii" RangeMin="0" RangeMax="2">
          2 1 2 0 1.5 1.5
          2 2 2 0 0.25 0
          0 0.5 0 0 0 0
          0 0 0 2 2 2
          2 1 2 2 1 1.5
          0.6666666666666666 1.5 0 1 0.6666666666666666 2
          2 2 0.25 1.5 1.5 0
          0.25 0 2 2 1.5 2
          2 2 2 2 2 2
          2 2 2 2 2 2
          2 2 2 2 2 0.5
          1 0 1 0.25 0.5 0
          0 0 0 0 0.5 0
          0 0 0 0 0 0
          0 0 0 0 0 0
          0 0 0 0 0 0
          0 0 0 0 0 0
          0 2 2 2 2 2
          2 2 1 1.5 1 2
          1 1.5 0 1 1 2
          2 2 2 2 2 2
          2 2 2 2 2 1
          1.5 1 2 1 1.5 1
          1.5 0 1 1 2 2
          2 2 2 2 2 2
          2 2 2 2 2 2
          2 2 2 2 2 2
          2 2 2 2 2 2
          2 2 2 2 2 2
          2 2 2 2 2 2
          2 2 2 2 2 2
          2 2 2 2 2 2
          2 2 2 2 2 2
          2 2 2 2 2 2
          2 2 2 2 0 1
          2 2 2 2 2 1
          1.5 0 1 2 2 1
          1 0 1 1 1 1
          1 0 0 0 1 1
          0 1 0 1 1 1
          0 0 1 1 0 1
          1 0 0 1 0 1
          0 1 0 0 0 0
          0 0 0 0 0 0
          0 0 0 0 0 1.5
          0.5 0 0 0 0 2
          1 0 0 0 0 0
          0 0 0 0 0 0
          0 0 0 0 0 0
          0 1 1 2 1.5 1
          2 2 0 0 2 2
          2 0 0 1.5 0 0
          0 0 0 0 0 0
          0 0 0 0 0 0
          0 0 0 1.25 0 0
          0 0 1 1 2 1.5
          2 2 2 2 2 2
          2 2 2 1 1.5 0.5
          1.25 1 2 2 2 2
          2 2 2 2 2 2
          2 2 1 1.5 1 2
          2 2 2 2 2 2
          2 2 2 2 2 2
          2 2 2 2 2 2
          1.75 2 2 2 2 2
          2 2 2 2 2 0.5
          0.75 0 2 1 2 1
          0 2 1
        </DataArray>
        <DataArray type="Float64" Name="markers_norefine" format="ascii" RangeMin="0" RangeMax="2">
          0 0 0 0 0 0
          1 0 0 0 0 0
          0 0 0 0 0 0
          0 0 0 0 0 0
          0 0 0 0 0 0
          0 0 0 0 0 0
          0 0 0 0 0 0
          0 0 0 0 0 0.5
          0 0 0.5 0 0 0
          0 0 0 0 0 0
          0 0 0 0 0 0
          0 0 0 0 0 0
          0 0 0 0 0 0
          0 0 0 0 0 0
          0 0 0 0 0 0
          0 0 0 0 0 0
          0 0 0 0 0 0
          0 0 0 0 0 0
          0 0 0 0 0 0
          0 0 0 0 0 0
          0 0 0 0 0 0
          0 0 0 0 0 0
          0 0 0 0 0 0
          0 0 0 0 0 0
          0 0.25 0 0 0 1
          0.5 0.5 0 0 0.5 0
          1.75 1.25 1.5 0.3333333333333333 2 1.5
          2 1 0 0 1 0
          0 0 0 0 0 0
          0 0 0 0 0 0
          0 0 0 0 0 0
          0 0 0 0 0 0
          0 0 0 0 0 0
          0 0 0 0 0 0
          0 0 0 0 0 0
          0 0 0 0 0 0
          0 0 0 0 0 0
          0 0 0 0 0 0
          0 0 0 0 0 0
          0 0 0 0 0 0
          0 0 0 0 0 0
          0 0 0 0 0 0
          0 0 0 0 0 0
          0 0 0 0 0 0
          0 0 0 0 0 0
          0 0 0 0 0 0
          0 0 0 0 0 0
          0 0 0 0 0 0
          0 0 0 0 0 0
          0 0 0 0 0 0
          0 0 0 0 0 0
          0 0 0 0 0 0
          0 0 0 0 0 0
          0 0 0 0 0 0
          0 0 0 0 0 0
          0 0 0 0 0 0
          0 0 0 0 0 0
          0.25 0.75 1 0 0 0
          0 0 0 0 0 0
          0 0 0 0 0 0
          0 0 0 0 0 0
          0 0 0 0 0.25 0
          0.5 0 0 0 0 0
          0 0 0 0 0 0
          0 0 0 0 0 0
          0 0 0 0 0 0
          0 0 0 0 0 0
          0 0 0
        </DataArray>
        <DataArray type="Float64" Name="markers_mustrefine" format="ascii" RangeMin="0" RangeMax="2">
          2 1 2 0 1.5 1.5
          2 2 2 0 0.25 0
          0 0.5 0 0 0 0
          0 0 0 2 2 2
          2 1 2 2 1 1.5
          0.6666666666666666 1.5 0 1 0.6666666666666666 2
          2 2 0.25 1.5 1.5 0
          0.25 0 2 2 1.5 2
          2 2 2 2 2 2
          2 2 2 2 2 2
          2 2 2 2 2 0.5
          1 0 1 0.25 0.5 0
          0 0 0 0 0.5 0
          0 0 0 0 0 0
          0 0 0 0 0 0
          0 0 0 0 0 0
          0 0 0 0 0 0
          0 2 2 2 2 2
          2 2 1 1.5 1 2
          1 1.5 0 1 1 2
          2 2 2 2 2 2
          2 2 2 2 2 1
          1.5 1 2 1 1.5 1
          1.5 0 1 1 2 2
          2 2 2 2 2 2
          2 2 2 2 2 2
          2 2 2 2 2 2
          2 2 2 2 2 2
          2 2 2 2 2 2
          2 2 2 2 2 2
          2 2 2 2 2 2
          2 2 2 2 2 2
          2 2 2 2 2 2
          2 2 2 2 2 2
          2 2 2 2 0 1
          2 2 2 2 2 1
          1.5 0 1 2 2 1
          1 0 1 1 1 1
          1 0 0 0 1 1
          0 1 0 1 1 1
          0 0 1 1 0 1
          1 0 0 1 0 1
          0 1 0 0 0 0
          0 0 0 0 0 0
          0 0 0 0 0 1.5
          0.5 0 0 0 0 2
          1 0 0 0 0 0
          0 0 0 0 0 0
          0 0 0 0 0 0
          0 1 1 2 1.5 1
          2 2 0 0 2 2
          2 0 0 1.5 0 0
          0 0 0 0 0 0
          0 0 0 0 0 0
          0 0 0 1.25 0 0
          0 0 1 1 2 1.5
          2 2 2 2 2 2
          2 2 2 1 1.5 0.5
          1.25 1 2 2 2 2
          2 2 2 2 2 2
          2 2 1 1.5 1 2
          2 2 2 2 2 2
          2 2 2 2 2 2
          2 2 2 2 2 2
          1.75 2 2 2 2 2
          2 2 2 2 2 0.5
          0.75 0 2 1 2 1
          0 2 1
        </DataArray>
        <DataArray type="Float64" Name="gradient_marker" format="ascii" RangeMin="0" RangeMax="1">
          1 0.25 0.75 0.25 0.375 1
          0.5 1 0.75 0.125 0.25 0
          0 0.25 0 0 0 0.25
          0.25 0 0.125 0.25 0.625 0.5
          0.75 0.5 0.75 0.875 0 0.25
          0 0.25 0 0 0 0.75
          0.625 0.5 0.5 0.625 1 0.5
          0.5 1 0.75 1 0.5 0.5
          0.75 1 0.75 1 0.875 1
          0.5 1 1 1 0.875 1
          0.625 1 1 1 0.75 0
          0 0 0 0.5 0.5 1
          1 0.5 0.5 1 0.5 1
          0.5 0 0 0 0 0
          0 0 0.5 0.5 1 1
          0.5 0.5 1 0 0.5 0.5
          0 0 0 0.5 0.5 0.5
          0.5 1 1 1 1 1
          1 1 1 1 1 1
          1 1 1 1 1 1
          1 1 1 1 1 1
          1 1 1 1 1 1
          1 1 1 1 1 1
          1 1 1 1 1 1
          1 0 0.5 0 0.6666666666666666 0
          0.5 0 1 1 1 1
          0 0.5 0 0.6666666666666666 0 0.5
          0 1 1 1 1 1
          1 1 1 1 1 1
          1 1 1 1 1 1
          1 1 1 1 1 1
          1 1 1 1 1 1
          1 1 1 1 1 1
          1 1 1 1 1 1
          1 1 1 1 1 1
          1 1 1 1 1 1
          1 1 1 1 1 1
          1 1 1 1 1 1
          1 1 1 1 1 1
          1 1 1 1 1 1
          1 1 1 1 1 1
          1 1 1 1 1 1
          1 1 1 0.75 0.8333333333333334 1
          1 0.5 0.75 1 1 0.5
          0.75 1 1 0.5 0.25 0.75
          0.5 0 0.625 0.75 0.5 1
          0.5 0.75 1 1 1 1
          0.5 0.75 0.75 0.5 1 1
          0 0.5 0.5 0.25 0.5 0.75
          0.625 0.75 0 0.75 0.25 0
          0.75 0.75 1 0.875 1 1
          1 1 1 1 1 1
          1 1 1 1 1 0
          0 0.5 0.5 0 0.5 1
          1 1 1 1 1 1
          1 1 1 1 1 1
          1 1 1 1 1 1
          1 1 1 1 1 1
          1 1 1 1 1 1
          1 1 1 1 1 1
          1 1 1 1 1 1
          1 1 1 1 1 1
          1 1 1 1 1 1
          1 1 1 1 1 1
          1 1 1 1 1 1
          1 1 1 1 1 1
          1 1 1 1 1 1
          1 1 1
        </DataArray>
        <DataArray type="Float64" Name="gradient_matprop_marker" format="ascii" RangeMin="0" RangeMax="0">
          0 0 0 0 0 0
          0 0 0 0 0 0
          0 0 0 0 0 0
          0 0 0 0 0 0
          0 0 0 0 0 0
          0 0 0 0 0 0
          0 0 0 0 0 0
          0 0 0 0 0 0
          0 0 0 0 0 0
          0 0 0 0 0 0
          0 0 0 0 0 0
          0 0 0 0 0 0
          0 0 0 0 0 0
          0 0 0 0 0 0
          0 0 0 0 0 0
          0 0 0 0 0 0
          0 0 0 0 0 0
          0 0 0 0 0 0
          0 0 0 0 0 0
          0 0 0 0 0 0
          0 0 0 0 0 0
          0 0 0 0 0 0
          0 0 0 0 0 0
          0 0 0 0 0 0
          0 0 0 0 0 0
          0 0 0 0 0 0
          0 0 0 0 0 0
          0 0 0 0 0 0
          0 0 0 0 0 0
          0 0 0 0 0 0
          0 0 0 0 0 0
          0 0 0 0 0 0
          0 0 0 0 0 0
          0 0 0 0 0 0
          0 0 0 0 0 0
          0 0 0 0 0 0
          0 0 0 0 0 0
          0 0 0 0 0 0
          0 0 0 0 0 0
          0 0 0 0 0 0
          0 0 0 0 0 0
          0 0 0 0 0 0
          0 0 0 0 0 0
          0 0 0 0 0 0
          0 0 0 0 0 0
          0 0 0 0 0 0
          0 0 0 0 0 0
          0 0 0 0 0 0
          0 0 0 0 0 0
          0 0 0 0 0 0
          0 0 0 0 0 0
          0 0 0 0 0 0
          0 0 0 0 0 0
          0 0 0 0 0 0
          0 0 0 0 0 0
          0 0 0 0 0 0
          0 0 0 0 0 0
          0 0 0 0 0 0
          0 0 0 0 0 0
          0 0 0 0 0 0
          0 0 0 0 0 0
          0 0 0 0 0 0
          0 0 0 0 0 0
          0 0 0 0 0 0
          0 0 0 0 0 0
          0 0 0 0 0 0
          0 0 0 0 0 0
          0 0 0
        </DataArray>
        <DataArray type="Float64" Name="combo" format="ascii" RangeMin="0" RangeMax="2">
          1 0.25 0.75 0.25 0.375 1
          1.5 1 0.75 0.125 0.25 0
          0 0.25 0 0 0 0.25
          0.25 0 0.125 0.25 0.625 0.5
          0.75 0.5 0.75 0.875 0 0.25
          0 0.25 0 0 0 0.75
          0.625 0.5 0.5 0.625 1 0.5
          0.5 1 0.75 1 0.5 1
          0.75 1 1.25 1 0.875 1
          0.5 1 1 1 0.875 1
          0.625 1 1 1 0.75 0
          0 0 0 0.5 0.5 1
          1 0.5 0.5 1 0.5 1
          0.5 0 0 0 0 0
          0 0 0.5 0.5 1 1
          0.5 0.5 1 0 0.5 0.5
          0 0 0 0.5 0.5 0.5
          0.5 1 1 1 1 1
          1 1 1 1 1 1
          1 1 1 1 1 1
          1 1 1 1 1 1
          1 1 1 1 1 1
          1 1 1 1 1 1
          1 1 1 1 1 1
          1 0.25 0.5 0 0.6666666666666666 1
          0.875 0.5 1 1 1.25 1
          1.75 1.5 1.5 1 2 1.75
          2 1.5 1 1 1.5 1
          1 1 1 1 1 1
          1 1 1 1 1 1
          1 1 1 1 1 1
          1 1 1 1 1 1
          1 1 1 1 1 1
          1 1 1 1 1 1
          1 1 1 1 1 1
          1 1 1 1 1 1
          1 1 1 1 1 1
          1 1 1 1 1 1
          1 1 1 1 1 1
          1 1 1 1 1 1
          1 1 1 1 1 1
          1 1 1 1 1 1
          1 1 1 0.75 0.8333333333333334 1
          1 0.5 0.75 1 1 0.5
          0.75 1 1 0.5 0.25 0.75
          0.5 0 0.625 0.75 0.5 1
          0.5 0.75 1 1 1 1
          0.5 0.75 0.75 0.5 1 1
          0 0.5 0.5 0.25 0.5 0.75
          0.625 0.75 0 0.75 0.25 0
          0.75 0.75 1 0.875 1 1
          1 1 1 1 1 1
          1 1 1 1 1 0
          0 0.5 0.5 0 0.5 1
          1 1 1 1 1 1
          1 1 1 1 1 1
          1 1 1 1 1 1
          1.125 1.375 1.5 1 1 1
          1 1 1 1 1 1
          1 1 1 1 1 1
          1 1 1 1 1 1
          1 1 1 1 1.125 1
          1.25 1 1 1 1 1
          1 1 1 1 1 1
          1 1 1 1 1 1
          1 1 1 1 1 1
          1 1 1 1 1 1
          1 1 1
        </DataArray>
        <DataArray type="Float64" Name="dHdT" format="ascii" RangeMin="25.816833750287444" RangeMax="53.765632784908114">
          27.460989723148337 27.80079468080227 34.46662170981845 26.6080463482707 28.458721292357524 26.705794477557475
          47.0463031059917 38.85363513941475 30.24607624761818 26.124387595422323 26.505740435299245 25.94676812905039
          26.039541806819482 26.732032103737392 26.08335776007798 25.97048655834955 25.950916389499987 26.409209067614974
          26.289933931167553 25.905028231213294 26.065771459367145 29.63899468527412 31.802292612961914 30.74347819314701
          35.59870744532344 27.15115310986542 29.422574331489436 33.62273535618992 28.23576533548261 29.669972949484006
          27.255247543660403 28.79895303447734 27.621469407362014 28.491448028996402 27.449089398595177 32.79350252646476
          31.393011265130678 30.66110587305335 26.673677015494498 27.823518477378332 26.800512958649882 26.422023828535945
          26.805388172099654 26.320933868989076 29.970331933339818 28.068290560987492 27.633550083558703 41.82754381561118
          39.068682291282286 36.14059941628677 44.27208804554826 36.13637822716406 34.51637527647181 32.86526484496878
          30.27574175267527 37.78993196488399 36.21847263286709 33.76974459446164 32.87481791024087 30.0529752829783
          28.618368372718763 27.224590497853182 34.3137108011898 31.321874883025487 29.07463256508969 26.82984828028222
          27.166193265117727 26.62118449755514 27.320789095790175 26.594072964578167 26.859310571425908 26.206559404874472
          26.31032125579284 26.3067909048558 26.443810673049647 26.16722702003829 26.977749121691378 26.36701083302134
          26.50352817004079 25.860972204154766 25.921454302084292 25.84323416653337 25.87052228553658 26.294350378903776
          26.471224752511468 26.24870037346701 26.192935914080362 26.329941112948603 26.030899768771857 26.10513256146367
          26.075641053124123 26.152564843388607 26.003546570843586 26.532474850279634 26.145894915018214 26.379919761574847
          26.13549926818443 26.324459490812963 26.215551662563605 26.063080565622396 26.215286324700454 26.020468180127175
          26.132193536170817 27.54642434965671 26.965332626892817 27.326034610229918 28.298971662614683 30.55250360574613
          29.965708262831864 32.61919759255908 26.88402476660239 27.185241684818592 27.009696751589956 27.962137075092798
          26.743451855373774 27.009004038526026 26.636241588213267 26.857309205216445 26.590894891640914 27.691574502713237
          27.33483399792347 29.164999937744504 28.150968267607304 31.08683039014049 28.752952017804237 28.04252232952858
          27.857533297611564 27.35164842784039 30.438983328181898 29.320457209125077 28.790786809254435 27.1479244496556
          27.419804519502385 27.11530887840155 28.01573227889299 26.976088511782226 27.21254003472735 26.67772861271478
          26.85546708858102 26.768812529845334 26.944742444382374 26.65086599293619 27.737546961141486 27.258039708213524
          27.18941540886979 41.160882011767086 39.49003481513024 38.55508651567165 36.624188479453 48.35907412550312
          45.81496845469255 44.12433812388761 37.91579550841816 35.29529431709277 42.98515857259762 37.60018819430064
          52.86763208824383 51.645610606668626 50.533298133128795 44.23376522084633 53.765632784908114 53.76290013241555
          52.905588118887394 48.804690148238535 40.288348358603265 37.94220593688375 51.28182385878734 41.74872357167399
          33.50661495857468 30.639578091877134 35.36936186570634 32.68367100338105 31.179033062454145 30.029774068877643