<?xml version="1.0"?>
<VTKFile type="UnstructuredGrid" version="0.1" byte_order="LittleEndian" header_type="UInt32" compressor="vtkZLibDataCompressor">
  <UnstructuredGrid>
    <Piece NumberOfPoints="358" NumberOfCells="202">
      <PointData>
        <DataArray type="Int32" Name="libmesh_node_id" format="ascii" RangeMin="304" RangeMax="3172">
          304 420 428 630 631 637
          659 661 662 664 669 670
          1231 1265 1266 1268 1271 1321
          1322 1323 1324 1325 1326 1327
          1331 1332 1333 1334 1335 1336
          1337 1338 1339 1340 1341 1345
          1346 1347 1348 1369 1370 1371
          1372 1373 1374 1375 1376 1377
          1378 1379 1380 1381 1382 1383
          1385 1386 1387 1388 1389 1390
          1393 1394 1594 1595 1597 1598
          1604 1605 2289 2290 2292 2295
          2305 2309 2497 2498 2499 2500
          2501 2502 2503 2504 2505 2506
          2515 2517 2519 2531 2532 2533
          2534 2535 2536 2537 2538 2539
          2540 2549 2551 2553 2623 2647
          2651 2756 2757 2758 2761 2762
          2763 2764 2765 2766 2767 2768
          2769 2770 2771 2772 2773 2774
          2775 2776 2777 2778 2779 2788
          2797 2798 2800 2801 2802 2803
          2804 2805 2806 2807 2808 2809
          2810 2811 2812 2813 2814 2815
          2816 2817 2818 2819 2820 2821
          2824 2825 2826 2827 2828 2831
          2832 2833 2834 2835 2836 2837
          2838 2839 2840 2841 2842 2843
          2844 2845 2846 2847 2848 2849
          2850 2851 2852 2853 2854 2855
          2856 2857 2858 2859 2860 2861
          2862 2863 2864 2865 2866 2867
          2868 2869 2870 2871 2872 2873
          2874 2875 2879 2880 2881 2882
          2883 2885 2889 2890 2949 2950
          2951 2952 2953 2954 2955 2956
          2957 2958 2959 2960 2961 2962
          2963 2964 2965 2966 2967 2968
          2969 2970 2971 2972 2973 2974
          2975 2976 2977 2978 2979 2980
          2981 2982 2983 2984 2985 2986
          2987 2988 2989 2990 2991 2992
          2993 2994 2995 2996 2997 2998
          2999 3000 3001 3002 3003 3004
          3005 3006 3007 3008 3009 3010
          3011 3012 3013 3014 3015 3016
          3017 3018 3019 3020 3021 3022
          3023 3024 3025 3026 3027 3028
          3029 3030 3031 3032 3033 3034
          3035 3036 3037 3038 3039 3040
          3041 3042 3043 3044 3045 3048
          3049 3051 3052 3053 3054 3055
          3056 3057 3058 3059 3060 3061
          3062 3063 3064 3065 3066 3067
          3068 3069 3070 3071 3072 3073
          3074 3075 3076 3077 3078 3079
          3082 3083 3089 3090 3096 3097
          3098 3116 3117 3119 3120 3121
          3123 3124 3125 3126 3127 3128
          3129 3148 3168 3172
        </DataArray>
        <DataArray type="Float64" Name="bounds" format="ascii" RangeMin="0" RangeMax="0">
          0 0 0 0 0 0
          0 0 0 0 0 0
          0 0 0 0 0 0
          0 0 0 0 0 0
          0 0 0 0 0 0
          0 0 0 0 0 0
          0 0 0 0 0 0
          0 0 0 0 0 0
          0 0 0 0 0 0
          0 0 0 0 0 0
          0 0 0 0 0 0
          0 0 0 0 0 0
          0 0 0 0 0 0
          0 0 0 0 0 0
          0 0 0 0 0 0
          0 0 0 0 0 0
          0 0 0 0 0 0
          0 0 0 0 0 0
          0 0 0 0 0 0
          0 0 0 0 0 0
          0 0 0 0 0 0
          0 0 0 0 0 0
          0 0 0 0 0 0
          0 0 0 0 0 0
          0 0 0 0 0 0
          0 0 0 0 0 0
          0 0 0 0 0 0
          0 0 0 0 0 0
          0 0 0 0 0 0
          0 0 0 0 0 0
          0 0 0 0 0 0
          0 0 0 0 0 0
          0 0 0 0 0 0
          0 0 0 0 0 0
          0 0 0 0 0 0
          0 0 0 0 0 0
          0 0 0 0 0 0
          0 0 0 0 0 0
          0 0 0 0 0 0
          0 0 0 0 0 0
          0 0 0 0 0 0
          0 0 0 0 0 0
          0 0 0 0 0 0
          0 0 0 0 0 0
          0 0 0 0 0 0
          0 0 0 0 0 0
          0 0 0 0 0 0
          0 0 0 0 0 0
          0 0 0 0 0 0
          0 0 0 0 0 0
          0 0 0 0 0 0
          0 0 0 0 0 0
          0 0 0 0 0 0
          0 0 0 0 0 0
          0 0 0 0 0 0
          0 0 0 0 0 0
          0 0 0 0 0 0
          0 0 0 0 0 0
          0 0 0 0 0 0
          0 0 0 0
        </DataArray>
        <DataArray type="Float64" Name="gradient_error" format="ascii" RangeMin="7.308663108235047e-12" RangeMax="8.483054297438923e-9">
          6.150273575481781e-9 2.861480483195144e-11 6.532708620327485e-11 2.30630210150825e-9 9.962305344186266e-10 3.111339058285631e-9
          6.42147824629406e-11 2.889025745663975e-10 1.2481876152462241e-10 2.002026009870075e-11 9.623010846833156e-10 3.944185524923811e-10
          1.8602975117887362e-9 5.525729896717258e-9 4.561907997440121e-9 2.3365271369254835e-9 5.641115131368263e-9 1.7301037769241804e-10
          1.5609797039584494e-10 2.242672761729662e-10 1.9004150561096341e-10 7.096418634984869e-11 7.557539710359132e-11 7.550399114686514e-11
          8.864277742989348e-10 7.117314264031979e-10 2.3235988808240523e-10 3.7876833656388044e-10 3.258845574200214e-11 4.43823608915352e-11
          3.218360748856466e-11 4.177765822648678e-11 2.5701893355219883e-11 1.9894335187102972e-11 1.7995864614326413e-11 8.121286823967664e-11
          6.576165019486457e-11 1.6398314562978507e-11 3.617553158720189e-11 2.2654723972006524e-9 1.8221534303711505e-9 7.527002108534794e-10
          5.972961552103111e-10 8.979811796971134e-10 2.9178455684326014e-10 2.7442472274490207e-9 2.362640834138404e-9 7.962253164188664e-10
          1.2116919025176005e-9 2.0816520300788894e-10 1.6470496919759567e-10 4.909404280843873e-11 3.904316599704624e-11 8.154192204879681e-11
          2.7402307272863126e-10 2.2195438688197787e-10 5.249600627631771e-11 1.093764536307648e-10 2.9611940093315715e-10 9.814881824199578e-11
          3.810193831177291e-10 1.2562591037801054e-10 1.891487644210659e-10 1.7321253301893098e-10 7.447202286269033e-11 6.746673020263853e-11
          2.6672907103605413e-11 2.493637303599643e-11 1.1905509653916862e-9 1.1342511289139974e-9 9.82237639313804e-10 2.18536994626764e-9
          7.767810971698375e-10 1.4273219799747215e-9 5.835555619164374e-9 5.542744805986963e-9 3.955088363309516e-9 3.746453564786636e-9
          4.731230001750187e-9 3.1747569012778916e-9 7.914447527928257e-9 7.608480110149814e-9 5.283551408821761e-9 6.657222512081928e-9
          2.397646124068251e-9 1.6220397123752583e-9 3.4819106376781226e-9 8.483054297438923e-9 8.37795212329753e-9 6.155932732734343e-9
          6.012098373063433e-9 7.734168238447453e-9 5.417071748163225e-9 8.283464346129705e-9 8.336197784796838e-9 6.092860312162861e-9
          7.968298805533423e-9 4.273457964012806e-9 2.9013178377145748e-9 4.541704906452486e-9 1.4037310252066657e-9 1.7289809773027555e-9
          1.8537017390623037e-9 6.95257138075237e-11 1.097388827061937e-10 1.0583913891278898e-10 9.526621274607776e-11 3.688343604380392e-10
          3.537096607105537e-10 2.1513968552965035e-10 3.122420491981956e-10 4.2799591952003854e-11 4.1642952836912136e-11 6.513231452790577e-11
          6.276782074357925e-11 2.511550564681388e-11 3.789707353477696e-11 3.6214024270628054e-11 3.8304282795790727e-11 5.638010935440668e-11
          3.58045909672047e-11 1.3210264739733122e-10 1.2682606170721364e-10 7.204385250085604e-11 1.122659674539038e-10 1.5460656233747158e-10
          9.093256053469144e-11 6.086732040758321e-11 7.49198267415347e-10 7.13580400897995e-10 4.54070870762443e-10 4.325721126641651e-10
          6.175050964254862e-10 3.7447390533932554e-10 1.4614658443016028e-9 1.3835574158917324e-9 8.388347726657871e-10 1.1749740207626422e-9
          2.654892896266198e-10 2.5322336941406734e-10 1.5008199880429968e-10 1.432138697672159e-10 2.1982042939404773e-10 1.244568001473084e-10
          5.15963189965008e-10 4.882539733100435e-10 2.7347676080194495e-10 4.143489828013771e-10 4.884179368993652e-10 2.964469719118649e-10
          8.988990134278023e-10 5.440827970002066e-10 6.258271413490464e-10 1.7406401727765788e-10 9.861896904187507e-11 3.170705253691758e-10
          1.7825418476451102e-10 2.2121888611725844e-10 1.4535460130640383e-11 1.4934946353615672e-11 2.123242692546751e-11 2.0562620742843518e-11
          1.1532756263261567e-11 1.5069388824424632e-11 1.5260496888458304e-11 1.5334432576590963e-11 1.9892814560219532e-11 1.5451604952491972e-11
          4.212035726997949e-11 3.994477568238442e-11 2.5443389673811963e-11 3.931246731386486e-11 8.238423629635805e-11 7.845227405941392e-11
          4.3559600465363364e-11 4.1499044211713145e-11 6.791356338318418e-11 3.6008054130189674e-11 1.558785895543054e-10 1.4766059738806076e-10
          7.699762991559265e-11 1.2574918476303348e-10 1.5064167016417844e-11 1.4436485839483912e-11 2.2083178986279493e-11 2.109024610842835e-11
          7.308663108235047e-12 1.0995816735585757e-11 1.052774421938725e-11 1.2756937598812504e-11 1.8420035695823336e-11 9.27225081340549e-12
          4.0945666626176555e-11 3.887016805293916e-11 1.9037129622640434e-11 3.332241474716356e-11 3.755287580132142e-11 5.382870897026179e-11
          2.0233389155079862e-11 2.8701013300781626e-11 9.686013625631054e-11 5.0945046487641103e-11 6.824563538183933e-11 1.0500543901337137e-11
          1.485266913785341e-11 7.504722872404989e-12 2.604838277109283e-11 1.2860572501439589e-11 2.5441998678491497e-9 2.4048798329473363e-9
          1.556405231988626e-9 1.469043793331992e-9 2.0267357503232207e-9 1.2336514412749696e-9 3.638188601521974e-9 3.4641425073722066e-9
          2.149890395003217e-9 2.959854035665393e-9 9.082590827282054e-10 8.56572240671285e-10 5.071793146265185e-10 4.781912309901485e-10
          7.18052831878293e-10 4.0078705106126694e-10 1.3383645709903674e-9 1.2669172734090448e-9 7.113093030564942e-10 1.0676373695856234e-9
          1.5202733035020804e-9 9.218463688180283e-10 1.0224330011298829e-9 6.185141456542229e-10 2.2311583538280015e-9 1.3614438551522812e-9
          1.4810865263837427e-9 5.359584352396198e-10 2.995072573162756e-10 3.5989371588403986e-10 2.0184438469761559e-10 7.933767759936716e-10
          4.428246085154991e-10 5.220778519500567e-10 4.175218669458532e-9 4.044154815142221e-9 2.664006070493444e-9 2.563129768718136e-9
          3.577328695310835e-9 2.233573284979421e-9 4.242398467493182e-9 4.1555999015708184e-9 2.663914207049331e-9 3.7573434151521625e-9
          1.6046423813478846e-9 1.5356665760083086e-9 9.158410104865367e-10 8.729021670317327e-10 1.322626312071772e-9 7.453278153739212e-10
          1.6713857278038137e-9 1.6108224439849634e-9 9.22267245754046e-10 1.4069504429194391e-9 2.767905895941131e-9 1.70230165660121e-9
          1.8495873811036863e-9 1.1252105003888971e-9 2.9558172053086427e-9 1.8247170543096376e-9 1.988409690578593e-9 9.97050314837602e-10
          5.579003442133368e-10 6.550224710817261e-10 3.658592031275827e-10 1.0716685116038958e-9 6.00711403522489e-10 7.060025863120494e-10
          2.7177465503779134e-10 2.5629693464127093e-10 1.4010360925903535e-10 1.3221066213456878e-10 2.150639967603596e-10 1.1121238814656518e-10
          4.043696423446795e-10 3.817593078959474e-10 1.9645347646592113e-10 3.200486297384317e-10 6.965788891173387e-11 6.580032636718752e-11
          3.3495635057878165e-11 3.168255626955529e-11 5.553839552763465e-11 2.6854597711267616e-11 1.0298310718920025e-10 9.720526382683307e-11
          4.6367008643028096e-11 8.162178111219334e-11 1.6123706519331938e-10 8.3808839509223e-11 1.0929655669742516e-10 5.7254374310716484e-11
          2.373624588024814e-10 1.224796272273967e-10 1.570354443793967e-10 4.2165455209267934e-11 2.0551746552648918e-11 6.09805629403382e-11
          2.937329089772594e-11 4.972253057485861e-10 4.725076403223632e-10 2.577568592653511e-10 2.444435299686382e-10 4.010671972588444e-10
          2.0673576305594943e-10 5.259606095478366e-10 5.019746312453822e-10 2.6073329411292234e-10 4.297507831029728e-10 1.280036905832224e-10
          1.2124133307477098e-10 6.10856216592608e-11 5.782346903911016e-11 1.0237674863537427e-10 4.8835911912750903e-11 1.3656780231530004e-10
          1.2967646150174533e-10 6.195059941653328e-11 1.1002503040013822e-10 2.9911175258529536e-10 1.5406010074121056e-10 1.9643943408142949e-10
          1.0159380239533248e-10 3.2235698757884777e-10 1.6605717051727492e-10 2.1169035946759564e-10 7.643034373838912e-11 3.6630220297440504e-11
          8.233850084682172e-11 3.9417764641554207e-11 8.833454023474269e-10 5.341667643833706e-10 3.110840286994265e-10 1.7487134579409807e-10
          1.732704847482322e-10 1.0906869988912512e-9 6.600540135897677e-10 3.5742641184769237e-10 1.1706260923618024e-9 7.087512766089513e-10
          3.840957498741589e-10 2.1547347099482854e-10 2.0875634221664088e-10 1.1802783482425956e-10 4.123961719269321e-10 2.3121685373280873e-10
          2.2240471895150568e-10 9.527079419977698e-11 1.170148708191622e-10 1.2544184573888576e-10
        </DataArray>
        <DataArray type="Float64" Name="gradient_matprop_error" format="ascii" RangeMin="0" RangeMax="0">
          0 0 0 0 0 0
          0 0 0 0 0 0
          0 0 0 0 0 0
          0 0 0 0 0 0
          0 0 0 0 0 0
          0 0 0 0 0 0
          0 0 0 0 0 0
          0 0 0 0 0 0
          0 0 0 0 0 0
          0 0 0 0 0 0
          0 0 0 0 0 0
          0 0 0 0 0 0
          0 0 0 0 0 0
          0 0 0 0 0 0
          0 0 0 0 0 0
          0 0 0 0 0 0
          0 0 0 0 0 0
          0 0 0 0 0 0
          0 0 0 0 0 0
          0 0 0 0 0 0
          0 0 0 0 0 0
          0 0 0 0 0 0
          0 0 0 0 0 0
          0 0 0 0 0 0
          0 0 0 0 0 0
          0 0 0 0 0 0
          0 0 0 0 0 0
          0 0 0 0 0 0
          0 0 0 0 0 0
          0 0 0 0 0 0
          0 0 0 0 0 0
          0 0 0 0 0 0
          0 0 0 0 0 0
          0 0 0 0 0 0
          0 0 0 0 0 0
          0 0 0 0 0 0
          0 0 0 0 0 0
          0 0 0 0 0 0
          0 0 0 0 0 0
          0 0 0 0 0 0
          0 0 0 0 0 0
          0 0 0 0 0 0
          0 0 0 0 0 0
          0 0 0 0 0 0
          0 0 0 0 0 0
          0 0 0 0 0 0
          0 0 0 0 0 0
          0 0 0 0 0 0
          0 0 0 0 0 0
          0 0 0 0 0 0
          0 0 0 0 0 0
          0 0 0 0 0 0
          0 0 0 0 0 0
          0 0 0 0 0 0
          0 0 0 0 0 0
          0 0 0 0 0 0
          0 0 0 0 0 0
          0 0 0 0 0 0
          0 0 0 0 0 0
          0 0 0 0
        </DataArray>
        <DataArray type="Float64" Name="initial_marker" format="ascii" RangeMin="0" RangeMax="2">
          2 0 2 2 2 2
          0 2 2 2 2 2
          2 2 2 2 2 0
          0 2 2 0 2 1.75
          2 2 2 2 0 0
          1 1 0 0.5 0 2
          2 2 2 2 2 2
          2 2 2 2 2 2
          2 2 2 2 2 2
          2 2 2 2 2 2
          2 2 0 0 0 0
          0 0 2 2 2 2
          2 2 2 2 2 2
          2 2 2 2 2 2
          2 2 2 2 2 2
          2 2 2 2 2 2
          2 2 2 2 2 2
          2 0 1 1 1 2
          2 2 2 0 0 1
          1 0 1 1 0 1
          1 2 2 2 2 2
          1.75 1.6666666666666667 2 2 2 2
          2 2 2 2 2 2
          2 2 2 2 2 2
          2 2 2 2 2 2
          2 2 2 2 2 2
          2 2 0 0 0.5 0.5
          0 0 0 0 0.5 0
          1.5 1.5 1.3333333333333333 1.6666666666666667 2 2
          2 2 2 2 2 2
          2 2 2 1.5 2 1.75
          0.5 1.5 1.25 1 1.5 1
          2 2 2 2 2 2
          1.5 1.75 2 2 2 0.5
          1.25 0.75 2 1.75 2 2
          2 2 2 2 2 2
          2 2 2 2 2 2
          2 2 2 2 2 2
          2 2 2 2 2 2
          2 2 2 2 2 2
          2 2 2 2 2 2
          2 2 2 2 2 2
          2 2 2 2 2 2
          2 2 2 2 2 2
          2 2 2 2 2 2
          2 2 2 2 2 2
          2 2 2 2 2 2
          2 2 2 2 2 2
          2 2 2 2 2 2
          2 2 2 2 2 2
          2 2 2 2 2 2
          2 2 2 2 2 2
          2 2 2 2 2 2
          2 2 2 2 2 2
          2 2 2 2 2 2
          2 2 2 2 2 2
          2 2 2 2 2 2
          2 2 2 2 2 2
          2 2 2 2 2 2
          2 2 2 2
        </DataArray>
        <DataArray type="Float64" Name="markers_norefine" format="ascii" RangeMin="0" RangeMax="0">
          0 0 0 0 0 0
          0 0 0 0 0 0
          0 0 0 0 0 0
          0 0 0 0 0 0
          0 0 0 0 0 0
          0 0 0 0 0 0
          0 0 0 0 0 0
          0 0 0 0 0 0
          0 0 0 0 0 0
          0 0 0 0 0 0
          0 0 0 0 0 0
          0 0 0 0 0 0
          0 0 0 0 0 0
          0 0 0 0 0 0
          0 0 0 0 0 0
          0 0 0 0 0 0
          0 0 0 0 0 0
          0 0 0 0 0 0
          0 0 0 0 0 0
          0 0 0 0 0 0
          0 0 0 0 0 0
          0 0 0 0 0 0
          0 0 0 0 0 0
          0 0 0 0 0 0
          0 0 0 0 0 0
          0 0 0 0 0 0
          0 0 0 0 0 0
          0 0 0 0 0 0
          0 0 0 0 0 0
          0 0 0 0 0 0
          0 0 0 0 0 0
          0 0 0 0 0 0
          0 0 0 0 0 0
          0 0 0 0 0 0
          0 0 0 0 0 0
          0 0 0 0 0 0
          0 0 0 0 0 0
          0 0 0 0 0 0
          0 0 0 0 0 0
          0 0 0 0 0 0
          0 0 0 0 0 0
          0 0 0 0 0 0
          0 0 0 0 0 0
          0 0 0 0 0 0
          0 0 0 0 0 0
          0 0 0 0 0 0
          0 0 0 0 0 0
          0 0 0 0 0 0
          0 0 0 0 0 0
          0 0 0 0 0 0
          0 0 0 0 0 0
          0 0 0 0 0 0
          0 0 0 0 0 0
          0 0 0 0 0 0
          0 0 0 0 0 0
          0 0 0 0 0 0
          0 0 0 0 0 0
          0 0 0 0 0 0
          0 0 0 0 0 0
          0 0 0 0
        </DataArray>
        <DataArray type="Float64" Name="markers_mustrefine" format="ascii" RangeMin="0" RangeMax="2">
          2 0 2 2 2 2
          0 2 2 2 2 2
          2 2 2 2 2 0
          0 2 2 0 2 1.75
          2 2 2 2 0 0
          1 1 0 0.5 0 2
          2 2 2 2 2 2
          2 2 2 2 2 2
          2 2 2 2 2 2
          2 2 2 2 2 2
          2 2 0 0 0 0
          0 0 2 2 2 2
          2 2 2 2 2 2
          2 2 2 2 2 2
          2 2 2 2 2 2
          2 2 2 2 2 2
          2 2 2 2 2 2
          2 0 1 1 1 2
          2 2 2 0 0 1
          1 0 1 1 0 1
          1 2 2 2 2 2
          1.75 1.6666666666666667 2 2 2 2
          2 2 2 2 2 2
          2 2 2 2 2 2
          2 2 2 2 2 2
          2 2 2 2 2 2
          2 2 0 0 0.5 0.5
          0 0 0 0 0.5 0
          1.5 1.5 1.3333333333333333 1.6666666666666667 2 2
          2 2 2 2 2 2
          2 2 2 1.5 2 1.75
          0.5 1.5 1.25 1 1.5 1
          2 2 2 2 2 2
          1.5 1.75 2 2 2 0.5
          1.25 0.75 2 1.75 2 2
          2 2 2 2 2 2
          2 2 2 2 2 2
          2 2 2 2 2 2
          2 2 2 2 2 2
          2 2 2 2 2 2
          2 2 2 2 2 2
          2 2 2 2 2 2
          2 2 2 2 2 2
          2 2 2 2 2 2
          2 2 2 2 2 2
          2 2 2 2 2 2
          2 2 2 2 2 2
          2 2 2 2 2 2
          2 2 2 2 2 2
          2 2 2 2 2 2
          2 2 2 2 2 2
          2 2 2 2 2 2
          2 2 2 2 2 2
          2 2 2 2 2 2
          2 2 2 2 2 2
          2 2 2 2 2 2
          2 2 2 2 2 2
          2 2 2 2 2 2
          2 2 2 2 2 2
          2 2 2 2
        </DataArray>
        <DataArray type="Float64" Name="gradient_marker" format="ascii" RangeMin="1" RangeMax="1">
          1 1 1 1 1 1
          1 1 1 1 1 1
          1 1 1 1 1 1
          1 1 1 1 1 1
          1 1 1 1 1 1
          1 1 1 1 1 1
          1 1 1 1 1 1
          1 1 1 1 1 1
          1 1 1 1 1 1
          1 1 1 1 1 1
          1 1 1 1 1 1
          1 1 1 1 1 1
          1 1 1 1 1 1
          1 1 1 1 1 1
          1 1 1 1 1 1
          1 1 1 1 1 1
          1 1 1 1 1 1
          1 1 1 1 1 1
          1 1 1 1 1 1
          1 1 1 1 1 1
          1 1 1 1 1 1
          1 1 1 1 1 1
          1 1 1 1 1 1
          1 1 1 1 1 1
          1 1 1 1 1 1
          1 1 1 1 1 1
          1 1 1 1 1 1
          1 1 1 1 1 1
          1 1 1 1 1 1
          1 1 1 1 1 1
          1 1 1 1 1 1
          1 1 1 1 1 1
          1 1 1 1 1 1
          1 1 1 1 1 1
          1 1 1 1 1 1
          1 1 1 1 1 1
          1 1 1 1 1 1
          1 1 1 1 1 1
          1 1 1 1 1 1
          1 1 1 1 1 1
          1 1 1 1 1 1
          1 1 1 1 1 1
          1 1 1 1 1 1
          1 1 1 1 1 1
          1 1 1 1 1 1
          1 1 1 1 1 1
          1 1 1 1 1 1
          1 1 1 1 1 1
          1 1 1 1 1 1
          1 1 1 1 1 1
          1 1 1 1 1 1
          1 1 1 1 1 1
          1 1 1 1 1 1
          1 1 1 1 1 1
          1 1 1 1 1 1
          1 1 1 1 1 1
          1 1 1 1 1 1
          1 1 1 1 1 1
          1 1 1 1 1 1
          1 1 1 1
        </DataArray>
        <DataArray type="Float64" Name="gradient_matprop_marker" format="ascii" RangeMin="0" RangeMax="0">
          0 0 0 0 0 0
          0 0 0 0 0 0
          0 0 0 0 0 0
          0 0 0 0 0 0
          0 0 0 0 0 0
          0 0 0 0 0 0
          0 0 0 0 0 0
          0 0 0 0 0 0
          0 0 0 0 0 0
          0 0 0 0 0 0
          0 0 0 0 0 0
          0 0 0 0 0 0
          0 0 0 0 0 0
          0 0 0 0 0 0
          0 0 0 0 0 0
          0 0 0 0 0 0
          0 0 0 0 0 0
          0 0 0 0 0 0
          0 0 0 0 0 0
          0 0 0 0 0 0
          0 0 0 0 0 0
          0 0 0 0 0 0
          0 0 0 0 0 0
          0 0 0 0 0 0
          0 0 0 0 0 0
          0 0 0 0 0 0
          0 0 0 0 0 0
          0 0 0 0 0 0
          0 0 0 0 0 0
          0 0 0 0 0 0
          0 0 0 0 0 0
          0 0 0 0 0 0
          0 0 0 0 0 0
          0 0 0 0 0 0
          0 0 0 0 0 0
          0 0 0 0 0 0
          0 0 0 0 0 0
          0 0 0 0 0 0
          0 0 0 0 0 0
          0 0 0 0 0 0
          0 0 0 0 0 0
          0 0 0 0 0 0
          0 0 0 0 0 0
          0 0 0 0 0 0
          0 0 0 0 0 0
          0 0 0 0 0 0
          0 0 0 0 0 0
          0 0 0 0 0 0
          0 0 0 0 0 0
          0 0 0 0 0 0
          0 0 0 0 0 0
          0 0 0 0 0 0
          0 0 0 0 0 0
          0 0 0 0 0 0
          0 0 0 0 0 0
          0 0 0 0 0 0
          0 0 0 0 0 0
          0 0 0 0 0 0
          0 0 0 0 0 0
          0 0 0 0
        </DataArray>
        <DataArray type="Float64" Name="combo" format="ascii" RangeMin="1" RangeMax="1">
          1 1 1 1 1 1
          1 1 1 1 1 1
          1 1 1 1 1 1
          1 1 1 1 1 1
          1 1 1 1 1 1
          1 1 1 1 1 1
          1 1 1 1 1 1
          1 1 1 1 1 1
          1 1 1 1 1 1
          1 1 1 1 1 1
          1 1 1 1 1 1
          1 1 1 1 1 1
          1 1 1 1 1 1
          1 1 1 1 1 1
          1 1 1 1 1 1
          1 1 1 1 1 1
          1 1 1 1 1 1
          1 1 1 1 1 1
          1 1 1 1 1 1
          1 1 1 1 1 1
          1 1 1 1 1 1
          1 1 1 1 1 1
          1 1 1 1 1 1
          1 1 1 1 1 1
          1 1 1 1 1 1
          1 1 1 1 1 1
          1 1 1 1 1 1
          1 1 1 1 1 1
          1 1 1 1 1 1
          1 1 1 1 1 1
          1 1 1 1 1 1
          1 1 1 1 1 1
          1 1 1 1 1 1
          1 1 1 1 1 1
          1 1 1 1 1 1
          1 1 1 1 1 1
          1 1 1 1 1 1
          1 1 1 1 1 1
          1 1 1 1 1 1
          1 1 1 1 1 1
          1 1 1 1 1 1
          1 1 1 1 1 1
          1 1 1 1 1 1
          1 1 1 1 1 1
          1 1 1 1 1 1
          1 1 1 1 1 1
          1 1 1 1 1 1
          1 1 1 1 1 1
          1 1 1 1 1 1
          1 1 1 1 1 1
          1 1 1 1 1 1
          1 1 1 1 1 1
          1 1 1 1 1 1
          1 1 1 1 1 1
          1 1 1 1 1 1
          1 1 1 1 1 1
          1 1 1 1 1 1
          1 1 1 1 1 1
          1 1 1 1 1 1
          1 1 1 1
        </DataArray>
        <DataArray type="Float64" Name="dHdT" format="ascii" RangeMin="25.813136103033784" RangeMax="32.56099596630575">
          29.811640355713216 25.813136103033784 25.83737430595889 26.639509006974595 26.161912604693047 26.99641955152142
          25.820443374480597 25.90969367944087 25.85418219280178 25.818418047384974 26.26238194799108 25.95050236456109
          26.470810091516253 28.341047537827222 27.688565192320393 26.654033237667143 28.670335535725616 25.835305100176093
          25.83283318662277 25.891566581251467 25.87949694890139 25.819719573281432 25.838358682939546 25.83394191875913
          26.120496926617296 26.057071194786026 25.890021612884865 25.941618681915575 25.814843398405536 25.815103558014798
          25.819402998536518 25.818687996693097 25.813414263542132 25.814161077033084 25.813945171132758 25.8389083442631
          25.833731377805776 25.817246928357484 25.824168915646105 26.743578558875804 26.509704537610638 26.104966307212422
          26.031126079268667 26.125702503578264 25.910935993446667 27.243686428033563 26.85950052609973 26.14124962179415
          26.253949044095208 25.88859276349459 25.869846412839138 25.82912446161334 25.825129125795137 25.83908913381871
          25.928277890702432 25.89753699811687 25.830958525108933 25.84923641052027 25.91494410484223 25.845728165831297
          25.944494802858436 25.85487985694556 25.82454474455251 25.823550859250723 25.817009431804266 25.816673678228163
          25.813844857424314 25.813810871836804 26.23617291679166 26.21578581705039 26.161074233785527 26.592882138345356
          26.08786756842481 26.31381735244122 28.194584945863085 28.035040955303757 27.336497487317438 27.237952814036536
          27.63005943052516 26.984315447804878 29.879665642656718 29.55734448029466 28.1551636356806 28.768585392344722
          26.67013958048724 26.382338053485718 27.13528431065815 31.714103011072364 31.184417467100086 29.36176029910581
          29.076133475827657 29.92875175030243 28.37428619081942 32.56099596630575 31.927799117008515 29.479930527154963
          30.44425416349486 27.570214211482174 26.896754097295272 27.753644755054864 26.307886116506232 26.430656498369043
          26.479768988545295 25.840730820056194 25.85378891601944 25.852352318869738 25.848399407103088 25.94437367359435
          25.93893525600234 25.888314067987803 25.924139408409065 25.829758102950066 25.82923219294643 25.836763822357785
          25.835919147138032 25.82216479011126 25.826298215727505 25.82589358294395 25.827761300351952 25.833597677282285
          25.825951445704277 25.858467201052747 25.8565559128893 25.837320583116643 25.85140296560924 25.867349220697726
          25.84454651489161 25.83359122767011 26.075247033381395 26.062474076299814 25.96930588568285 25.961636337404325
          26.028287051053933 25.941253679930117 26.32764549604736 26.298539452656264 26.102971337761552 26.22214362860795
          25.902766270490673 25.898400440322305 25.86276837582234 25.860361345479568 25.886763811828857 25.853952040725865
          25.98896194726654 25.978965049124444 25.90426350903182 25.952738142608574 25.98269457214942 25.914196704113973
          26.12377820490265 25.99817863285934 26.028771871491557 25.87136345898505 25.845522484576 25.919176944370932
          25.871747787096822 25.887054005373553 25.817912051460432 25.817879640148064 25.820002237848293 25.81990509950982
          25.816305585858807 25.81768145590045 25.817678936053234 25.817847228835692 25.819807961171353 25.817676416206016
          25.82646395251095 25.826016068872185 25.820791559186432 25.82599441572424 25.839493108623294 25.838252828943073
          25.826448316293362 25.825836690988524 25.83492857880685 25.82418348799806 25.864138352918904 25.861303467796976
          25.83748430547703 25.853854359692907 25.817277051531583 25.81709870125452 25.819412881058188 25.81910754449262
          25.814609945865616 25.815664426248787 25.815516310402877 25.81661144725374 25.818283796792063 25.81511739225186
          25.8254105928264 25.824722057011734 25.81809674696418 25.82290181999445 25.825388607100752 25.830494870125584
          25.81937341746996 25.821935719356382 25.844265550608615 25.82887690793571 25.83500994375256 25.815919702792492
          25.817156831925622 25.814573209820225 25.820523597130535 25.81612918106261 26.7608199376935 26.700070064257392
          26.3813340367826 26.34462125662215 26.54291507105255 26.249907164670415 27.36911397977928 27.258098888757996
          26.677660701684637 26.9762394903471 26.13866156512691 26.11753361320845 25.99108810486925 25.97955796443672
          26.063033773785758 25.949838561142244 26.34700693784795 26.309085374013062 26.084178772566414 26.212342751786238
          26.347014204745847 26.132004570753885 26.16667824578235 26.02372227376808 26.636492724787928 26.306049350515927
          26.336845651513173 25.995388892553414 25.913087939738087 25.933642348566288 25.879564841804974 26.095061600133324
          25.967070624994847 25.99162350842837 27.96556621972576 27.8011309752391 27.09387353000584 26.997927017468747
          27.389803358907947 26.755565418144737 28.222207552556164 28.034140867745243 27.134450825805743 27.565915861523575
          26.547949805666732 26.49295281645502 26.215252864590276 26.1850219334449 26.353698636081536 26.10849266541424
          26.633652651999665 26.57116716924759 26.227979133069248 26.413458777596812 26.904685346149172 26.466605600305883
          26.488251171064498 26.21668786197388 27.017118625189852 26.533570194757182 26.550233919749388 26.187341232518097
          26.017244710986493 26.043569597350498 25.938976966602567 26.225910860014995 26.03827806973897 26.064887283480964
          25.906208869371586 25.900251526534944 25.85979353319482 25.85684158191835 25.884891765989796 25.84921190560292
          25.964887993678776 25.95411416031632 25.883306884578875 25.92673642961104 25.835376174421217 25.833970738776923
          25.8229940547782 25.822351064635036 25.830327193859148 25.820678466083944 25.848929838689664 25.846444669877748
          25.828003365894595 25.840097836443746 25.865828104159185 25.83969700296571 25.84832406165251 25.830906748017938
          25.89372239876252 25.85354286438772 25.86464738851105 25.825754622126585 25.81856372925739 25.832368536855
          25.82160475796453 26.022127332453124 26.006282868649176 25.916397471384467 25.908711935669757 25.966510442122953
          25.889312863545015 26.046770446914906 26.028637613155016 25.919536841385636 25.98337271839845 25.861896417995812
          25.858308568890884 25.834921644788814 25.833316778693238 25.84922822693275 25.829239978019174 25.867413032386715
          25.86334154928738 25.835558135879133 25.853067675037785 25.919489390983788 25.866229944768868 25.87914675218522