<?xml version="1.0"?>
<VTKFile type="UnstructuredGrid" version="0.1" byte_order="LittleEndian" header_type="UInt32" compressor="vtkZLibDataCompressor">
  <UnstructuredGrid>
    <Piece NumberOfPoints="571" NumberOfCells="267">
      <PointData>
        <DataArray type="Int32" Name="libmesh_node_id" format="ascii" RangeMin="12" RangeMax="4429">
          16 17 18 19 20 21
          22 23 24 25 26 27
          28 29 30 31 32 33
          34 35 36 37 38 39
          40 41 42 43 44 45
          46 47 48 49 50 51
          52 53 54 55 56 57
          58 59 68 69 70 71
          72 73 74 75 76 77
          78 79 80 81 82 83
          84 85 86 87 88 89
          98 99 100 101 102 103
          104 105 106 107 108 109
          110 111 112 113 114 115
          116 117 118 119 124 125
          126 127 128 129 130 131
          132 133 134 143 144 145
          146 147 148 149 150 151
          152 153 154 155 156 157
          158 159 160 161 162 163
          164 169 170 171 172 173
          174 175 176 177 178 179
          188 189 190 191 192 193
          194 195 196 197 198 199
          200 201 202 203 204 205
          206 207 208 209 214 215
          216 217 218 219 220 221
          222 223 224 237 238 239
          240 241 242 243 244 245
          246 247 248 249 250 251
          252 253 254 261 262 263
          264 265 266 267 268 269
          282 284 286 288 289 290
          291 292 293 294 295 296
          297 298 299 309 310 311
          312 313 314 333 334 339
          340 341 342 343 344 354
          355 356 357 358 359 384
          385 386 387 388 389 399
          400 401 402 403 404 424
          425 428 431 438 439 445
          583 584 587 588 589 590
          591 592 595 596 597 601
          603 604 606 610 611 613
          615 616 617 620 621 623
          624 625 626 627 629 630
          637 638 644 774 775 776
          777 781 782 784 785 787
          802 804 808 809 812 815
          1008 1009 1010 1015 1018 1022
          1023 1024 1025 1026 1027 1028
          1029 1030 1031 1032 1033 1034
          1035 1036 1039 1040 1041 1042
          1043 1046 1047 1048 1049 1050
          1051 1096 1097 1100 1103 1106
          1107 1110 1113 1115 1116 1117
          1120 1121 1122 1123 1124 1125
          1126 1127 1133 1200 1201 1202
          1203 1207 1208 1260 1261 1267
          4406 4407 4413 4416 4424 4425
          4428 12 13 14 15 66
          67 96 97 123 141 142
          168 186 187 213 231 233
          234 232 235 236 259 258
          260 280 283 281 285 287
          306 305 307 308 337 338
          332 353 336 383 412 414
          427 432 418 430 433 441
          446 442 444 447 503 514
          520 505 516 521 508 456
          457 585 586 458 461 593
          594 464 598 599 600 602
          605 377 437 607 608 398
          609 612 614 618 619 459
          460 622 465 628 631 632
          633 634 639 635 636 640
          422 526 641 642 643 504
          764 765 766 515 778 779
          780 769 783 376 772 523
          786 511 524 803 805 806
          807 810 811 813 814 1011
          1012 1013 1014 1016 1017 1019
          1020 1021 331 1037 1038 335
          1044 1045 452 453 1069 1070
          1098 1099 1071 1101 1102 1104
          1075 1105 413 513 1108 1109
          1111 1112 1114 528 531 534
          1118 1119 541 440 545 542
          548 1128 1129 1130 1131 1132
          1134 1135 555 556 562 1178
          1179 1180 1204 1205 1206 1183
          1209 1254 1255 1262 1263 1256
          1264 1265 1266 1268 1259 1269
          4408 4409 4410 4411 4412 4414
          4415 4417 4418 4419 4426 4427
          4429
        </DataArray>
        <DataArray type="Float64" Name="bounds" format="ascii" RangeMin="0" RangeMax="0">
          0 0 0 0 0 0
          0 0 0 0 0 0
          0 0 0 0 0 0
          0 0 0 0 0 0
          0 0 0 0 0 0
          0 0 0 0 0 0
          0 0 0 0 0 0
          0 0 0 0 0 0
          0 0 0 0 0 0
          0 0 0 0 0 0
          0 0 0 0 0 0
          0 0 0 0 0 0
          0 0 0 0 0 0
          0 0 0 0 0 0
          0 0 0 0 0 0
          0 0 0 0 0 0
          0 0 0 0 0 0
          0 0 0 0 0 0
          0 0 0 0 0 0
          0 0 0 0 0 0
          0 0 0 0 0 0
          0 0 0 0 0 0
          0 0 0 0 0 0
          0 0 0 0 0 0
          0 0 0 0 0 0
          0 0 0 0 0 0
          0 0 0 0 0 0
          0 0 0 0 0 0
          0 0 0 0 0 0
          0 0 0 0 0 0
          0 0 0 0 0 0
          0 0 0 0 0 0
          0 0 0 0 0 0
          0 0 0 0 0 0
          0 0 0 0 0 0
          0 0 0 0 0 0
          0 0 0 0 0 0
          0 0 0 0 0 0
          0 0 0 0 0 0
          0 0 0 0 0 0
          0 0 0 0 0 0
          0 0 0 0 0 0
          0 0 0 0 0 0
          0 0 0 0 0 0
          0 0 0 0 0 0
          0 0 0 0 0 0
          0 0 0 0 0 0
          0 0 0 0 0 0
          0 0 0 0 0 0
          0 0 0 0 0 0
          0 0 0 0 0 0
          0 0 0 0 0 0
          0 0 0 0 0 0
          0 0 0 0 0 0
          0 0 0 0 0 0
          0 0 0 0 0 0
          0 0 0 0 0 0
          0 0 0 0 0 0
          0 0 0 0 0 0
          0 0 0 0 0 0
          0 0 0 0 0 0
          0 0 0 0 0 0
          0 0 0 0 0 0
          0 0 0 0 0 0
          0 0 0 0 0 0
          0 0 0 0 0 0
          0 0 0 0 0 0
          0 0 0 0 0 0
          0 0 0 0 0 0
          0 0 0 0 0 0
          0 0 0 0 0 0
          0 0 0 0 0 0
          0 0 0 0 0 0
          0 0 0 0 0 0
          0 0 0 0 0 0
          0 0 0 0 0 0
          0 0 0 0 0 0
          0 0 0 0 0 0
          0 0 0 0 0 0
          0 0 0 0 0 0
          0 0 0 0 0 0
          0 0 0 0 0 0
          0 0 0 0 0 0
          0 0 0 0 0 0
          0 0 0 0 0 0
          0 0 0 0 0 0
          0 0 0 0 0 0
          0 0 0 0 0 0
          0 0 0 0 0 0
          0 0 0 0 0 0
          0 0 0 0 0 0
          0 0 0 0 0 0
          0 0 0 0 0 0
          0 0 0 0 0 0
          0 0 0 0 0 0
          0
        </DataArray>
        <DataArray type="Float64" Name="gradient_error" format="ascii" RangeMin="1.835927367157181e-13" RangeMax="3.4919627871495227e-7">
          2.2106683952400994e-11 1.2208960786663398e-11 5.5075385106549184e-11 2.976684655905196e-11 4.9738202249139846e-12 3.5920930910995124e-12
          1.0929089898688374e-11 7.60522320699515e-12 3.796490867294291e-12 2.9976995949994175e-12 1.0666449985056552e-11 7.428078302588227e-12
          4.397909157353145e-12 3.239845446269406e-12 1.3541065055601625e-11 8.349933668671e-12 3.6201656665563166e-12 2.829054280458072e-12
          8.049979692469488e-12 5.277242473999645e-12 2.3419931932439947e-12 2.2010693067565506e-12 2.555602530816718e-12 2.406971098475096e-12
          2.101423668044187e-12 2.0907013104006947e-12 2.068258445286715e-12 2.0836012364712846e-12 2.0900311757293338e-12 2.0873066460536247e-12
          2.0694635768271054e-12 2.0748897494467843e-12 2.0842175208859356e-12 2.0838724895447314e-12 2.0800728927610316e-12 2.080881827257017e-12
          2.0829119614715475e-12 2.082933613018608e-12 2.0827244853381215e-12 2.0827264072739067e-12 2.082769763157111e-12 2.082820877444972e-12
          2.083039216606121e-12 2.0829641689892766e-12 2.311237620925802e-12 4.4583080115547275e-12 2.2103659572850395e-12 4.281356515301924e-12
          2.198908322704545e-12 4.1897066201199026e-12 2.0817817351856672e-12 3.158802281740376e-12 2.037942894359827e-12 2.504505255529803e-12
          2.060145420269106e-12 2.2583396661334745e-12 2.0799789527572026e-12 2.0989440276558546e-12 2.0845821163779156e-12 2.080315922066463e-12
          2.0835274582035272e-12 2.081690761753003e-12 2.0829552645656682e-12 2.082728329209691e-12 2.0828719917328334e-12 2.0828891213724323e-12
          2.2798419889087407e-10 1.2216489879436077e-10 4.518890927160506e-11 3.03723233742936e-11 4.1502063014049754e-11 2.8058784551504476e-11
          5.298686254942182e-11 3.091123338205926e-11 2.8881213689212438e-11 1.6893998687135035e-11 5.1696021849719124e-12 4.15058641239921e-12
          2.2874440203870057e-12 2.2094363139567436e-12 2.1292626638706896e-12 2.1084103098448355e-12 2.0931221025137464e-12 2.089908132915704e-12
          2.0842000688213453e-12 2.0839407071890963e-12 2.083066230730449e-12 2.0831299622485922e-12 1.6345598697847465e-11 1.5555737476982152e-11
          1.461550608895919e-11 8.835604214696706e-12 4.906783685057628e-12 3.1315706398265094e-12 2.131428607526482e-12 2.0875579558189814e-12
          2.0866941633176622e-12 2.0836813455568472e-12 2.0831936937667355e-12 9.340616191404784e-10 5.025184510377805e-10 1.9401103991290167e-10
          1.3088002226747631e-10 1.6907806487888312e-10 1.155194532402787e-10 2.1261147335956504e-10 1.2461615691636248e-10 1.1284716860273889e-10
          6.581119314555214e-11 1.6066969302887983e-11 1.2710775441749761e-11 3.408451986599628e-12 3.300087628761613e-12 2.0581346685982312e-12
          2.0818864553383576e-12 2.048652916744039e-12 2.0606454716399386e-12 2.0753334327250973e-12 2.0771584834630928e-12 2.078933807709754e-12
          2.079548936231402e-12 7.097528293508247e-11 6.7749004622051e-11 6.196084160167427e-11 3.6620840473159846e-11 1.8775217688365402e-11
          9.35458158061154e-12 3.191723270923598e-12 2.105638242078484e-12 2.072638026535838e-12 2.0789835342010883e-12 2.08016406475305e-12
          3.82754883217722e-9 2.070222167285947e-9 8.311693870795339e-10 5.654875532058368e-10 6.913361862289865e-10 4.799604174336914e-10
          8.550796428742052e-10 5.076740895660228e-10 4.4341143299754593e-10 2.6279352143644757e-10 5.619613860669948e-11 4.738849041306363e-11
          9.939427516937999e-12 9.557162293832317e-12 2.929454356565914e-12 2.669869046416391e-12 2.202797968665883e-12 2.151406808912918e-12
          2.128230365760953e-12 2.112840075188556e-12 2.12014810277146e-12 2.1084486042886002e-12 3.1289550239467437e-10 2.9980571933213963e-10
          2.685846486383961e-10 1.602685362578406e-10 8.217560987534926e-11 3.858084221942778e-11 9.174897070726636e-12 2.4102837362668682e-12
          2.1000156491599533e-12 2.0974497846161588e-12 2.0967491058057402e-12 2.8422518751366184e-9 2.0045079292302884e-9 3.4532539621713984e-9
          2.0778885868155807e-9 1.7512753757716734e-9 1.0563030624167944e-9 2.0135957632505443e-10 1.8426701067793722e-10 3.8868924416492776e-11
          3.939087054906024e-11 7.226634878576421e-12 6.688163575942636e-12 2.245856949059892e-12 2.209149821244818e-12 1.954444542332681e-12
          1.952170122581836e-12 1.934293535023862e-12 1.9282095900963815e-12 1.166763983323958e-9 7.025232114597625e-10 3.613307490619156e-10
          1.6717444503081998e-10 3.9912816681627706e-11 6.14969227330885e-12 2.1724426934297443e-12 1.9498957028309905e-12 1.922125645168901e-12
          8.287727482702342e-9 1.0328976234005873e-8 2.1407700402125523e-9 3.0297373891291433e-10 3.9488555206946677e-10 4.94316498134563e-11
          8.91777639945951e-11 6.695538350399252e-12 1.0021288171778788e-11 2.2851944105132487e-12 2.1175393535991678e-12 1.3454191036509531e-12
          1.310812074375792e-12 1.2890564421501216e-12 1.248536379520908e-12 5.145984756095967e-10 1.2647658676526185e-10 1.330670488057285e-11
          1.9498842966850873e-12 1.2762050451006313e-12 1.2080163168916946e-12 3.0742643252614894e-9 1.3216548006822207e-9 1.5866440045890053e-12
          1.4755051178673733e-12 8.044794304758701e-13 6.937319036293796e-13 6.794489465589778e-13 5.855798922125144e-13 4.6220400461987946e-10
          1.0431525418109757e-10 9.438529288175163e-12 1.4218247613580659e-12 5.829843767828892e-13 4.91710837866051e-13 4.841781854574417e-13
          8.132385755786825e-13 6.353527438054888e-13 5.134545073709321e-13 4.841196973362585e-13 3.895544054979762e-13 4.117374734148006e-10
          1.5110399407407313e-11 1.6367964756330677e-12 1.1404768096243694e-12 3.9155627093637535e-13 2.9498911365969387e-13 3.733716613966609e-9
          3.182125963766667e-9 2.402338667850087e-9 2.6225616856859483e-9 9.976204360019818e-10 1.0635187849388303e-9 9.542588273183736e-10
          9.910242607857263e-13 8.093400078127185e-13 4.505112333731201e-13 3.7359943721896723e-13 3.170519850444191e-13 6.276557548397107e-13
          5.704948864000471e-13 2.60504532869871e-13 1.835927367157181e-13 5.133340179603836e-13 4.122646135121721e-10 3.580207273591314e-10
          1.9557143146035546e-10 4.553231519633646e-10 2.8951914642585927e-10 7.150748724663737e-10 2.2134011185581887e-10 5.4048619869817e-11
          9.396824784190002e-11 1.0149844835339793e-10 1.825103594511482e-11 1.0902864886489587e-10 1.0099327254899493e-11 3.0833480637999065e-12
          2.3431341470232596e-12 3.968266040763597e-12 3.0989240405472063e-12 1.6986424741599873e-12 1.6029202302466129e-12 2.2295820403308163e-12
          1.915101439209228e-9 7.3355721662210974e-9 1.2756042893232968e-8 2.9389989225911064e-7 2.764312415367875e-7 2.909472702914695e-7
          3.159445105226939e-7 2.510985905101847e-7 3.0583514973400357e-7 2.2948936574091036e-7 2.841707356987998e-7 3.2246930659162067e-7
          1.8481133181016423e-7 2.1317952910793115e-7 1.3425207371870304e-7 1.5563050950177355e-7 2.415477264056981e-7 1.7700894528484403e-7
          6.517684973744759e-9 4.310196494811634e-9 9.52130029010039e-9 1.1587736818053223e-9 2.1027080158785084e-9 6.804432192499532e-10
          5.140616492134121e-10 1.8335487696501213e-9 1.4730504409072497e-9 2.632555459013197e-10 8.568011227314709e-10 7.826876855738296e-10
          3.4768007917687115e-10 1.112552112164378e-9 7.085742484161882e-10 1.3821597918454338e-10 1.4277583077507292e-10 4.276643195289983e-10
          4.2816873273573145e-10 3.917448808332062e-11 1.473356823656025e-10 4.286731459424647e-10 1.2238642802878078e-10 5.0723343361934865e-12
          5.8664145918794755e-12 1.9386896681932833e-12 3.707786264683566e-12 4.2382141499423845e-12 6.6604948475654645e-12 1.981424315878568e-11
          4.768642035201204e-12 6.843940165270025e-9 4.455788148561125e-9 3.491950590702726e-9 2.0676361318522237e-9 4.725217225615713e-9
          4.3599853317509946e-9 4.466010382961271e-9 3.994753437886275e-9 1.4498003458317694e-8 2.965359692534648e-9 2.7706442508283477e-9
          1.1505130929634973e-9 4.054334288554709e-9 3.795124403052151e-9 2.5759288091220475e-9 8.717116938948134e-9 3.5359145175495944e-9
          3.4162672000274826e-10 3.1190225560575e-10 2.821777912087517e-10 7.747003718639939e-8 7.906924549876157e-8 1.5643232343129606e-7
          1.421067216128743e-7 8.066845381112376e-8 1.2778111979445254e-7 4.122172552106475e-9 3.752766959920487e-9 3.383361367734499e-9
          6.837679081625546e-9 6.393717175662485e-9 8.904217080049963e-9 5.949755269699425e-9 1.7502782787234643e-8 1.1391169864784875e-8
          5.279556942335106e-9 3.953731775708845e-11 2.1072629083808444e-11 1.0164708193614559e-10 5.362925397801886e-11 2.6079404105284378e-12
          5.611426019892132e-12 4.2319606266332964e-10 2.222515876177743e-10 2.1307112572218986e-11 1.7407902452047019e-9 9.145991866813227e-10
          8.840812815794337e-11 7.169042972374037e-9 3.769895837389217e-9 3.7074870240439756e-10 2.9585461222139924e-8 1.570116749057917e-8
          8.542088664693357e-9 1.557551948998687e-8 3.555777669497144e-9 2.441544217605239e-9 1.3830098388075468e-9 1.5655777578338187e-9
          1.327310765713334e-9 5.850966921469969e-9 4.934364687254578e-9 4.9763959849246365e-9 4.142342714607876e-9 1.7467317796837965e-9
          4.677719986513786e-9 4.1618747658914855e-9 3.5540792919527085e-9 1.6793203286811324e-9 4.78437909986635e-12 7.594024159159401e-12
          6.464166147887059e-9 1.5367182973598152e-9 2.4783744887518487e-10 3.275307152467375e-12 7.466690115487311e-9 1.7635783845350892e-7
          2.160292803105229e-8 2.4528978069745253e-9 6.8874768427505185e-9 6.317707225992717e-8 1.3745505859281996e-9 1.3971578766107637e-8
          7.260854948780318e-10 2.4854504533164094e-10 3.0463383271124727e-10 1.82602727469562e-10 1.8457717439180673e-7 1.0874667160040386e-7
          1.252608290081924e-7 3.252961613957065e-7 2.786942817720342e-7 1.8192497822753037e-7 2.739629818547114e-7 5.326280829512289e-12
          2.728478352076983e-12 7.640879603720837e-13 6.672914233860654e-13 3.795467294738232e-12 4.1304901091144986e-12 5.37151659958441e-13
          5.252428389594123e-13 2.872333592228496e-12 9.317816563478466e-10 8.813907333083538e-10 2.2893682264001887e-9 6.353923694494594e-10
          5.819291493777476e-10 8.258251858030567e-9 6.992323129268801e-9 1.3505168531045352e-9 3.646954796452531e-9 8.600441474016817e-10
          9.127640115397875e-10 2.628050979849202e-10 5.1485192223201374e-11 3.0427008411402157e-10 4.892176457658574e-11 4.370851737615796e-11
          3.045637007033755e-11 9.093516072717986e-12 9.789346966344437e-12 8.08770489053648e-12 3.3918382417293265e-8 4.803112840815374e-8
          7.597279587321833e-8 9.764063087626506e-8 6.27975043184516e-9 2.172418351549273e-8 5.3557042280560144e-8 6.917029453522174e-9
          2.3077971992101221e-7 1.9932442850903613e-7 1.180272093291434e-7 1.472501333443764e-7 8.538990104562757e-8 2.764244395835655e-7
          2.6144326460686255e-7 2.6210897971512203e-7 2.88085611044841e-7 3.123273611112813e-7 2.9199737896951114e-7 3.2492482024285847e-7
          3.4740966019153664e-7 2.8619687261041746e-7 3.267468008918136e-7 2.005786805130975e-7 2.543044257021991e-7 2.64974065459642e-7
          3.199718373359462e-7 2.9862030448613e-7 3.4919627871495227e-7 1.8224678683907478e-7 2.0771145579573458e-7 1.5146650295494138e-7
          2.1800990998981562e-7 1.5709140874519427e-7 1.5242071833621898e-7 2.3317612475239435e-7 2.493867147353362e-7 4.385894651200071e-8
          1.7551996482060932e-8 1.2024372195710022e-8 2.8160352974479234e-8 3.6382107660824547e-9 3.139107805065107e-9 6.496747909359113e-9
          1.2461759436957759e-8 2.6400048440477596e-9 7.633967595595171e-9 1.1531640523085348e-10 1.1885141662981713e-10 1.2572974526716335e-10
          1.741234467789094e-11 1.8613293918338312e-11 1.814615726631491e-11 3.859048764519901e-11 6.012680292316032e-9 3.34322440098655e-8
          2.3069008324689697e-8 1.6445284660678397e-8 2.0842891290731577e-8 1.572844569628979e-8 1.3403321013682868e-8 9.821560996667095e-9
          8.253538571597648e-9 1.1078196331075948e-8 7.074801574152313e-8 5.4668606038514586e-8 1.585362454315122e-8 1.5318948804919253e-8
          1.5034659880095465e-8 1.476633166920658e-8 1.4784273066687284e-8 6.244679675518664e-8 7.416312563224244e-8 6.357864219179132e-8
          9.300858435072828e-9 9.008987687010481e-9 9.765862365493886e-9 5.472543428591647e-9 1.6105176872170388e-8 4.0797243616760806e-8
          4.540032778335726e-8 1.1668864416840729e-9 1.0905901168294907e-9 7.02115259593093e-11 2.0604845621799938e-10 2.2538852518680187e-10
          1.0142937919749083e-9 2.4472859415560435e-10 2.481581904392867e-9 4.170168803506508e-9 4.3701866220395354e-9 8.513152594584415e-8
          1.5665902893182827e-7 1.430756293860431e-7 7.105627419003339e-8 1.549111413947037e-7 1.4010177454096428e-7 1.2949222984025797e-7
          1.0959230222976334e-7 4.676967794785337e-9 3.472978138405292e-8 2.1146265486242166e-8 1.485983930224792e-8 2.6679038346254402e-8
          2.6601504261878354e-9 8.83200266103146e-9 6.23141534388896e-9 8.573413118253674e-9 1.8628295308455887e-8 2.7352611473958144e-9
          5.87813893973748e-9 2.7851978049796997e-8 3.289870218505681e-8 2.8494958175069168e-8 2.6899217069457957e-8 4.511274726816e-8
          3.331633149659964e-8 2.4091214165081523e-8 2.594645608911892e-8 2.1519915725039285e-8 5.538469567609289e-8 3.666498176860376e-8
          1.7945267861114634e-8
        </DataArray>
        <DataArray type="Float64" Name="gradient_matprop_error" format="ascii" RangeMin="0" RangeMax="0">
          0 0 0 0 0 0
          0 0 0 0 0 0
          0 0 0 0 0 0
          0 0 0 0 0 0
          0 0 0 0 0 0
          0 0 0 0 0 0
          0 0 0 0 0 0
          0 0 0 0 0 0
          0 0 0 0 0 0
          0 0 0 0 0 0
          0 0 0 0 0 0
          0 0 0 0 0 0
          0 0 0 0 0 0
          0 0 0 0 0 0
          0 0 0 0 0 0
          0 0 0 0 0 0
          0 0 0 0 0 0
          0 0 0 0 0 0
          0 0 0 0 0 0
          0 0 0 0 0 0
          0 0 0 0 0 0
          0 0 0 0 0 0
          0 0 0 0 0 0
          0 0 0 0 0 0
          0 0 0 0 0 0
          0 0 0 0 0 0
          0 0 0 0 0 0
          0 0 0 0 0 0
          0 0 0 0 0 0
          0 0 0 0 0 0
          0 0 0 0 0 0
          0 0 0 0 0 0
          0 0 0 0 0 0
          0 0 0 0 0 0
          0 0 0 0 0 0
          0 0 0 0 0 0
          0 0 0 0 0 0
          0 0 0 0 0 0
          0 0 0 0 0 0
          0 0 0 0 0 0
          0 0 0 0 0 0
          0 0 0 0 0 0
          0 0 0 0 0 0
          0 0 0 0 0 0
          0 0 0 0 0 0
          0 0 0 0 0 0
          0 0 0 0 0 0
          0 0 0 0 0 0
          0 0 0 0 0 0
          0 0 0 0 0 0
          0 0 0 0 0 0
          0 0 0 0 0 0
          0 0 0 0 0 0
          0 0 0 0 0 0
          0 0 0 0 0 0
          0 0 0 0 0 0
          0 0 0 0 0 0
          0 0 0 0 0 0
          0 0 0 0 0 0
          0 0 0 0 0 0
          0 0 0 0 0 0
          0 0 0 0 0 0
          0 0 0 0 0 0
          0 0 0 0 0 0
          0 0 0 0 0 0
          0 0 0 0 0 0
          0 0 0 0 0 0
          0 0 0 0 0 0
          0 0 0 0 0 0
          0 0 0 0 0 0
          0 0 0 0 0 0
          0 0 0 0 0 0
          0 0 0 0 0 0
          0 0 0 0 0 0
          0 0 0 0 0 0
          0 0 0 0 0 0
          0 0 0 0 0 0
          0 0 0 0 0 0
          0 0 0 0 0 0
          0 0 0 0 0 0
          0 0 0 0 0 0
          0 0 0 0 0 0
          0 0 0 0 0 0
          0 0 0 0 0 0
          0 0 0 0 0 0
          0 0 0 0 0 0
          0 0 0 0 0 0
          0 0 0 0 0 0
          0 0 0 0 0 0
          0 0 0 0 0 0
          0 0 0 0 0 0
          0 0 0 0 0 0
          0 0 0 0 0 0
          0 0 0 0 0 0
          0 0 0 0 0 0
          0
        </DataArray>
        <DataArray type="Float64" Name="initial_marker" format="ascii" RangeMin="0" RangeMax="2">
          0 0 0 0 0 0
          0 0 0 0 0 0
          0 0 0 0 0 0
          0 0 0 0 0 0
          0 0 0 0 0 0
          0 0 0 0 0 0
          0 0 0 0 0 0
          0 0 0 0 0 0
          0 0 0 0 0 0
          0 0 0 0 0 0
          0 0 0 0 0 0
          0 0 0 0 0 0
          0 0 0 0 0 0
          0 0 0 0 0 0
          0 0 0 0 0 0
          0 0 0 0 0 0
          0 0 0 0 0 0
          0 0 0 0 0 0
          0 0 0 0 0 0
          0 0 0 0 0 0
          0 0 0 0 0 0
          0 0 0 0 0 0
          0 0 0 0 0 0
          0 0 0 0 0 0
          0 0 0 0 0 0
          0 0 0 0 0 0
          0 0 0 0 0 0
          0 0 0 0 0 0
          0 0 0 0 0 0
          0 0 0 0 0 0
          0 0 0 0 0 0
          0 0 0 0 0 0
          0 0 0 0 0 0
          0 0 0 0 0 0
          0 0 0 0 0 0
          0 0 0 0 0 0
          0 0 0 0 0 0
          0 0 0 0 0 0
          0 0 0 0 0 0
          0 0 0 0 0 0
          0 0 0 0 0 0
          0 0 0 0 0 0
          0 0 0 0 0 0
          0 0 0 0 0 0
          0 0 0 0 0 0
          0 0 0 0 0 0
          0 0 0 1 1 2
          2 0.6666666666666666 1.5 2 2 2
          0 0.5 0 0 1 0
          0 0 0 0 0 0
          0 0 0 0 0 0
          0 0 0 0 0 0
          0 0 0 0 0 0
          0 0 0 0 0 0
          0 0 0 0 0 0
          0 0 0 0 0 0
          0 0 0 0 0 0
          0 0 0 0 0 0
          0 0 0 0 0 0
          0 0 0 0 0 0
          0 0 0 0 0 0
          0 0 0 0 0 0
          0 0 0 0 0 0
          0 0 0 0 0 0
          0 0 0 0 0 0
          0 0 0 0 0 0
          0 0 0 0 0 0
          0 0 0 0 0 0
          0 0 0 0 0 0
          0 0.5 0.5 0 0 0
          0 0 0 0 0 0
          0 0 0 0 0 0
          0 0 0 0 0 0
          0 0 0 0 0 0
          0 0 0 0 0 0
          0 0 0 0 0 0
          0 0 0 0 0 1
          1 2 2 1 1 2
          2 1.25 1.5 2 2 2
          2 1.5 2 0 0.25 0
          0.5 0 0 0.5 1 0
          0 0 0 0 0 0
          0 0 0 0 0 0
          0 0 0 0 0 0
          0 0 0 0 0 0
          0 0 0 0 0 0
          0 0 0 0 0 0
          0 0 0 0 0 0
          0 0 0 0 0 0
          0 0 0 0 0 0
          0 0 0 0 0 0
          0 0 0 0 0 0
          0 0 0 0 0 0
          0 0 0 0 0 0
          0 0 0 0 0 0
          0
        </DataArray>
        <DataArray type="Float64" Name="markers_norefine" format="ascii" RangeMin="0" RangeMax="0">
          0 0 0 0 0 0
          0 0 0 0 0 0
          0 0 0 0 0 0
          0 0 0 0 0 0
          0 0 0 0 0 0
          0 0 0 0 0 0
          0 0 0 0 0 0
          0 0 0 0 0 0
          0 0 0 0 0 0
          0 0 0 0 0 0
          0 0 0 0 0 0
          0 0 0 0 0 0
          0 0 0 0 0 0
          0 0 0 0 0 0
          0 0 0 0 0 0
          0 0 0 0 0 0
          0 0 0 0 0 0
          0 0 0 0 0 0
          0 0 0 0 0 0
          0 0 0 0 0 0
          0 0 0 0 0 0
          0 0 0 0 0 0
          0 0 0 0 0 0
          0 0 0 0 0 0
          0 0 0 0 0 0
          0 0 0 0 0 0
          0 0 0 0 0 0
          0 0 0 0 0 0
          0 0 0 0 0 0
          0 0 0 0 0 0
          0 0 0 0 0 0
          0 0 0 0 0 0
          0 0 0 0 0 0
          0 0 0 0 0 0
          0 0 0 0 0 0
          0 0 0 0 0 0
          0 0 0 0 0 0
          0 0 0 0 0 0
          0 0 0 0 0 0
          0 0 0 0 0 0
          0 0 0 0 0 0
          0 0 0 0 0 0
          0 0 0 0 0 0
          0 0 0 0 0 0
          0 0 0 0 0 0
          0 0 0 0 0 0
          0 0 0 0 0 0
          0 0 0 0 0 0
          0 0 0 0 0 0
          0 0 0 0 0 0
          0 0 0 0 0 0
          0 0 0 0 0 0
          0 0 0 0 0 0
          0 0 0 0 0 0
          0 0 0 0 0 0
          0 0 0 0 0 0
          0 0 0 0 0 0
          0 0 0 0 0 0
          0 0 0 0 0 0
          0 0 0 0 0 0
          0 0 0 0 0 0
          0 0 0 0 0 0
          0 0 0 0 0 0
          0 0 0 0 0 0
          0 0 0 0 0 0
          0 0 0 0 0 0
          0 0 0 0 0 0
          0 0 0 0 0 0
          0 0 0 0 0 0
          0 0 0 0 0 0
          0 0 0 0 0 0
          0 0 0 0 0 0
          0 0 0 0 0 0
          0 0 0 0 0 0
          0 0 0 0 0 0
          0 0 0 0 0 0
          0 0 0 0 0 0
          0 0 0 0 0 0
          0 0 0 0 0 0
          0 0 0 0 0 0
          0 0 0 0 0 0
          0 0 0 0 0 0
          0 0 0 0 0 0
          0 0 0 0 0 0
          0 0 0 0 0 0
          0 0 0 0 0 0
          0 0 0 0 0 0
          0 0 0 0 0 0
          0 0 0 0 0 0
          0 0 0 0 0 0
          0 0 0 0 0 0
          0 0 0 0 0 0
          0 0 0 0 0 0
          0 0 0 0 0 0
          0 0 0 0 0 0
          0
        </DataArray>
        <DataArray type="Float64" Name="markers_mustrefine" format="ascii" RangeMin="0" RangeMax="2">
          0 0 0 0 0 0
          0 0 0 0 0 0
          0 0 0 0 0 0
          0 0 0 0 0 0
          0 0 0 0 0 0
          0 0 0 0 0 0
          0 0 0 0 0 0
          0 0 0 0 0 0
          0 0 0 0 0 0
          0 0 0 0 0 0
          0 0 0 0 0 0
          0 0 0 0 0 0
          0 0 0 0 0 0
          0 0 0 0 0 0
          0 0 0 0 0 0
          0 0 0 0 0 0
          0 0 0 0 0 0
          0 0 0 0 0 0
          0 0 0 0 0 0
          0 0 0 0 0 0
          0 0 0 0 0 0
          0 0 0 0 0 0
          0 0 0 0 0 0
          0 0 0 0 0 0
          0 0 0 0 0 0
          0 0 0 0 0 0
          0 0 0 0 0 0
          0 0 0 0 0 0
          0 0 0 0 0 0
          0 0 0 0 0 0
          0 0 0 0 0 0
          0 0 0 0 0 0
          0 0 0 0 0 0
          0 0 0 0 0 0
          0 0 0 0 0 0
          0 0 0 0 0 0
          0 0 0 0 0 0
          0 0 0 0 0 0
          0 0 0 0 0 0
          0 0 0 0 0 0
          0 0 0 0 0 0
          0 0 0 0 0 0
          0 0 0 0 0 0
          0 0 0 0 0 0
          0 0 0 0 0 0
          0 0 0 0 0 0
          0 0 0 1 1 2
          2 0.6666666666666666 1.5 2 2 2
          0 0.5 0 0 1 0
          0 0 0 0 0 0
          0 0 0 0 0 0
          0 0 0 0 0 0
          0 0 0 0 0 0
          0 0 0 0 0 0
          0 0 0 0 0 0
          0 0 0 0 0 0
          0 0 0 0 0 0
          0 0 0 0 0 0
          0 0 0 0 0 0
          0 0 0 0 0 0
          0 0 0 0 0 0
          0 0 0 0 0 0
          0 0 0 0 0 0
          0 0 0 0 0 0
          0 0 0 0 0 0
          0 0 0 0 0 0
          0 0 0 0 0 0
          0 0 0 0 0 0
          0 0 0 0 0 0
          0 0.5 0.5 0 0 0
          0 0 0 0 0 0
          0 0 0 0 0 0
          0 0 0 0 0 0
          0 0 0 0 0 0
          0 0 0 0 0 0
          0 0 0 0 0 0
          0 0 0 0 0 1
          1 2 2 1 1 2
          2 1.25 1.5 2 2 2
          2 1.5 2 0 0.25 0
          0.5 0 0 0.5 1 0
          0 0 0 0 0 0
          0 0 0 0 0 0
          0 0 0 0 0 0
          0 0 0 0 0 0
          0 0 0 0 0 0
          0 0 0 0 0 0
          0 0 0 0 0 0
          0 0 0 0 0 0
          0 0 0 0 0 0
          0 0 0 0 0 0
          0 0 0 0 0 0
          0 0 0 0 0 0
          0 0 0 0 0 0
          0 0 0 0 0 0
          0
        </DataArray>
        <DataArray type="Float64" Name="gradient_marker" format="ascii" RangeMin="0" RangeMax="1">
          1 1 1 1 1 1
          1 1 1 1 1 1
          1 1 1 1 1 1
          1 1 1 1 1 1
          1 1 1 1 1 1
          1 1 1 1 1 1
          1 1 1 1 1 1
          1 1 1 1 1 1
          1 1 1 1 1 1
          1 1 1 1 1 1
          1 1 1 1 1 1
          1 1 1 1 1 1
          1 1 1 1 1 1
          1 1 1 1 1 1
          1 1 1 1 1 1
          1 1 1 1 1 1
          1 1 1 1 1 1
          1 1 1 1 1 1
          1 1 1 1 1 1
          1 1 1 1 1 1
          1 1 1 1 1 1
          1 1 1 1 1 1
          1 1 1 1 1 1
          1 1 1 1 1 1
          1 1 1 1 1 1
          1 1 1 1 1 1
          1 1 1 1 1 1
          1 1 1 1 1 1
          1 1 1 1 1 1
          1 1 1 1 1 1
          1 1 1 1 1 1
          1 1 1 1 1 1
          1 1 1 1 1 1
          1 1 1 1 1 1
          1 1 1 1 1 1
          1 1 1 1 1 1
          1 1 1 1 1 1
          1 1 1 1 1 1
          1 1 1 1 1 1
          1 1 1 1 1 1
          1 1 1 1 1 1
          1 1 1 1 1 1
          1 1 1 1 1 1
          1 1 1 1 1 1
          1 1 1 1 1 1
          1 1 1 1 1 1
          1 1 1 1 1 1
          1 1 1 1 1 1
          1 1 1 1 1 1
          1 1 1 1 1 1
          1 1 1 1 1 1
          1 1 1 1 1 1
          1 1 1 1 1 1
          1 1 1 1 1 1
          1 1 1 1 1 1
          1 1 1 1 1 1
          1 1 1 1 1 1
          1 1 1 0.5 0.75 0.75
          0.875 1 1 0 0 0
          1 1 1 1 1 1
          1 1 1 1 1 1