<?xml version="1.0"?>
<VTKFile type="UnstructuredGrid" version="0.1" byte_order="LittleEndian" header_type="UInt32" compressor="vtkZLibDataCompressor">
  <UnstructuredGrid>
    <Piece NumberOfPoints="481" NumberOfCells="264">
      <PointData>
        <DataArray type="Int32" Name="libmesh_node_id" format="ascii" RangeMin="441" RangeMax="4371">
          441 444 449 450 545 547
          550 556 559 561 562 563
          564 567 568 657 658 663
          665 666 667 668 672 673
          914 915 918 920 943 944
          945 949 950 951 952 953
          954 955 956 957 958 959
          960 961 962 963 964 965
          966 967 968 969 999 1003
          1005 1007 1129 1132 1134 1135
          1269 1277 1278 1279 1280 1281
          1282 1283 1284 1285 1286 1287
          1288 1289 1678 1746 1747 1748
          1749 1750 1752 1753 1754 1755
          1757 1758 1759 1760 1761 1762
          1763 1785 1786 1787 1789 1790
          1791 1792 1793 1794 1795 1796
          1797 1798 1799 1800 1801 1802
          1803 1804 1805 1806 1807 1808
          1809 1810 1811 1812 1813 1814
          1815 1816 1817 1818 1819 1820
          1821 1822 1823 1824 1825 1826
          1827 1828 1829 1830 1831 1832
          1833 1834 1835 1836 1837 1838
          1986 1987 1990 1991 1993 1995
          2070 2071 2072 2073 2074 2075
          2076 2077 2078 2079 2080 2081
          2082 2083 2084 2085 2086 2087
          2088 2089 2090 2091 2092 2093
          2094 2095 2096 2097 2098 2099
          2100 2101 2102 2103 2104 2105
          2106 2107 3174 3180 3181 3182
          3185 3187 3191 3192 3195 3196
          3197 3198 3199 3200 3201 3202
          3203 3204 3205 3206 3207 3208
          3209 3214 3215 3219 3229 3232
          3233 3236 3239 3240 3243 3244
          3245 3246 3247 3248 3249 3250
          3251 3252 3253 3254 3255 3256
          3257 3258 3259 3260 3261 3262
          3263 3401 3407 3408 3411 3412
          3413 3414 3415 3416 3417 3418
          3419 3420 3421 3431 3432 3435
          3436 3437 3438 3439 3440 3441
          3442 3443 3444 3445 3448 3449
          3452 3455 3456 3459 3460 3461
          3462 3463 3464 3465 3466 3467
          3468 3469 3470 3471 3472 3473
          3476 3477 3480 3483 3484 3487
          3488 3489 3490 3491 3492 3493
          3494 3495 3496 3497 3498 3499
          3500 3501 3502 3503 3504 3505
          3506 3507 3508 3509 3510 3511
          3512 3513 3514 3515 3516 3517
          3518 3519 3520 3521 3522 3523
          3524 3525 3526 3527 3528 3529
          3530 3531 3532 3533 3534 3535
          3536 3537 3538 3539 3540 3541
          3542 3543 3544 3545 3546 3547
          3548 3549 3550 3551 3552 3553
          3554 3555 3556 3557 3558 3559
          3560 3561 3562 3563 3564 3565
          3566 3567 3568 3569 3570 3571
          3572 3573 3574 3575 3576 3577
          3578 3579 3580 3581 3582 3583
          3584 3585 3586 3587 3588 3589
          3590 3591 3592 3593 3594 3595
          3596 3597 3598 3599 3600 3775
          3777 3968 3970 3972 3974 3996
          3998 4000 4002 4345 4346 4349
          4350 4352 4354 4365 4367 4369
          4371 558 929 930 931 935
          566 1676 1744 1677 1745 1680
          1751 1710 1784 1712 1714 1788
          3172 3176 3173 3177 3178 3179
          3175 3183 3184 3186 3189 3190
          3188 3193 3194 3210 3211 3217
          3230 3234 3400 3405 3406 3403
          3409 3410 3423 3429 3425 3430
          3427 3433 3434 3446 3450 3474
          3478
        </DataArray>
        <DataArray type="Float64" Name="bounds" format="ascii" RangeMin="0" RangeMax="0">
          0 0 0 0 0 0
          0 0 0 0 0 0
          0 0 0 0 0 0
          0 0 0 0 0 0
          0 0 0 0 0 0
          0 0 0 0 0 0
          0 0 0 0 0 0
          0 0 0 0 0 0
          0 0 0 0 0 0
          0 0 0 0 0 0
          0 0 0 0 0 0
          0 0 0 0 0 0
          0 0 0 0 0 0
          0 0 0 0 0 0
          0 0 0 0 0 0
          0 0 0 0 0 0
          0 0 0 0 0 0
          0 0 0 0 0 0
          0 0 0 0 0 0
          0 0 0 0 0 0
          0 0 0 0 0 0
          0 0 0 0 0 0
          0 0 0 0 0 0
          0 0 0 0 0 0
          0 0 0 0 0 0
          0 0 0 0 0 0
          0 0 0 0 0 0
          0 0 0 0 0 0
          0 0 0 0 0 0
          0 0 0 0 0 0
          0 0 0 0 0 0
          0 0 0 0 0 0
          0 0 0 0 0 0
          0 0 0 0 0 0
          0 0 0 0 0 0
          0 0 0 0 0 0
          0 0 0 0 0 0
          0 0 0 0 0 0
          0 0 0 0 0 0
          0 0 0 0 0 0
          0 0 0 0 0 0
          0 0 0 0 0 0
          0 0 0 0 0 0
          0 0 0 0 0 0
          0 0 0 0 0 0
          0 0 0 0 0 0
          0 0 0 0 0 0
          0 0 0 0 0 0
          0 0 0 0 0 0
          0 0 0 0 0 0
          0 0 0 0 0 0
          0 0 0 0 0 0
          0 0 0 0 0 0
          0 0 0 0 0 0
          0 0 0 0 0 0
          0 0 0 0 0 0
          0 0 0 0 0 0
          0 0 0 0 0 0
          0 0 0 0 0 0
          0 0 0 0 0 0
          0 0 0 0 0 0
          0 0 0 0 0 0
          0 0 0 0 0 0
          0 0 0 0 0 0
          0 0 0 0 0 0
          0 0 0 0 0 0
          0 0 0 0 0 0
          0 0 0 0 0 0
          0 0 0 0 0 0
          0 0 0 0 0 0
          0 0 0 0 0 0
          0 0 0 0 0 0
          0 0 0 0 0 0
          0 0 0 0 0 0
          0 0 0 0 0 0
          0 0 0 0 0 0
          0 0 0 0 0 0
          0 0 0 0 0 0
          0 0 0 0 0 0
          0 0 0 0 0 0
          0
        </DataArray>
        <DataArray type="Float64" Name="gradient_error" format="ascii" RangeMin="3.9392068349832657e-11" RangeMax="1.6811507506755257e-7">
          1.3971578766107637e-8 3.0463383271124727e-10 1.1114992069069493e-8 7.621586071147289e-11 1.6105176872170388e-8 5.4443780515196657e-8
          1.643272963824797e-8 4.170168803506508e-9 2.3218314638138208e-10 1.6878706591038818e-10 4.3701866220395354e-9 4.080647846579761e-9
          1.7724642956833466e-10 8.141926266792564e-10 1.9291429667748662e-9 9.917738646206594e-10 1.9208249278588895e-9 2.8498759910971196e-9
          5.379483167804181e-10 6.663420152029728e-10 1.4723989087117424e-10 9.595299976515214e-11 8.059123313658921e-10 4.3795901233495133e-11
          6.279149977279034e-8 1.077318971958596e-7 1.4498592044460272e-8 1.5267229461892887e-7 9.913497141976248e-10 9.035859602599369e-10
          2.7657003602861585e-10 3.0813687838129643e-9 3.727293817385107e-8 7.104500579984703e-8 9.486408220937678e-9 2.8213990339488605e-8
          6.7576637914806654e-9 7.107896830153228e-9 1.9490426013802916e-9 1.04817073425843e-7 4.334486901226727e-8 7.458129868825793e-9
          6.460763109887964e-10 9.035518018521874e-10 1.7170382179066024e-10 1.8795747334279582e-10 5.405738322783653e-10 3.711644369973586e-10
          1.49700743058818e-10 3.3371106072239533e-10 2.4712794752737173e-10 9.767026286502203e-11 4.900903703600133e-11 7.056558400756325e-11
          7.621975141490096e-11 9.198262578558481e-11 1.0905901168294907e-9 2.2538852518680187e-10 1.0142937919749083e-9 2.4472859415560435e-10
          2.7352611473958144e-9 6.482786282121497e-10 5.553043787361271e-10 1.0967823414765367e-10 4.75568474444714e-10 6.898380060926777e-10
          4.660541412374709e-10 2.9830622487763803e-10 4.471883737438222e-10 6.856124535788364e-11 1.20452172466702e-10 1.9010365757430972e-10
          2.938225503531419e-10 7.340087371139265e-11 1.0084938168437737e-8 7.909116648844705e-10 1.098146858463226e-9 3.090073094842448e-9
          5.778429215034199e-9 8.823644631765274e-10 3.1324817305607383e-9 1.2077112397984759e-8 2.850113747355403e-10 4.3474245529665925e-10
          1.8611690973477494e-10 3.6016488782129223e-10 3.737509634498334e-10 2.211462449591747e-10 1.6795159323726942e-9 8.110363902773137e-10
          4.793904245352531e-10 8.674281470045984e-9 2.2207202332394658e-8 2.2356283098419686e-9 1.2065402540040376e-8 2.766481345901189e-8
          5.316124786382739e-9 2.802125996866978e-9 1.1770990419863153e-9 5.615063280282582e-10 7.685357665957652e-9 4.2045304536356e-9
          1.6744108711764847e-9 2.274475925211821e-9 3.400929386833691e-9 2.3812200285348358e-9 6.978601546238789e-9 1.2099218355258692e-8
          4.731487970770479e-9 1.476861646649537e-8 1.5506036259779712e-9 2.077301896732239e-9 5.443459369126743e-10 4.789810300512818e-10
          9.431982314018809e-10 1.5527484276553806e-9 4.831496882266194e-10 4.0525668030331894e-9 6.805407584453522e-10 2.3526632137439882e-9
          1.779002958287539e-10 2.3261991532928207e-10 6.74481404362854e-11 1.640684167229101e-10 9.210539949462377e-11 1.668299758338198e-10
          6.662304486865665e-11 3.30896664902631e-10 2.0939146854627166e-10 3.113363531752409e-10 6.719303553564606e-9 7.456340178477118e-10
          2.841065474451576e-9 6.219346588692759e-10 7.990384144936207e-9 5.8169063562341e-10 3.2471619497064683e-9 3.695723608382467e-10
          2.2088115441628505e-10 2.900868557322423e-10 2.341808137185508e-10 3.726620549580891e-10 2.8059124791727765e-10 2.3314845565587095e-10
          8.905497653653488e-11 9.30981146828385e-11 7.305936950697831e-11 1.3554453057364306e-10 1.1805509593467273e-10 1.6649243375596017e-10
          1.3593639204727713e-10 1.6950469991562927e-10 1.381799479832277e-10 2.030730077839814e-10 9.183714398295602e-11 1.0784691156908201e-10
          4.7737895918634904e-11 4.618912322253472e-11 7.943277980106984e-11 8.973919011579969e-11 4.1298432248371676e-11 1.2385667915520796e-10
          4.464035052643454e-11 1.0004560043052954e-10 3.6567873060446404e-10 3.943435354058722e-10 1.716004285963445e-10 4.2300834020728026e-10
          3.385548004948192e-10 3.789527141315045e-10 2.214321166443132e-10 2.5151333778544976e-10 1.899153228886641e-10 1.3241980761927936e-10
          8.024135212829183e-11 4.193506277681898e-10 2.815945589265864e-10 7.492429234989464e-11 9.590917180658466e-11 9.708908680412587e-11
          6.03849807097174e-11 5.4713390894489084e-11 6.397960136306237e-11 5.331779298210103e-11 3.9392068349832657e-11 9.826900180166705e-11
          4.904180107926076e-11 4.265598460113968e-11 7.456194864744585e-10 4.5975169385787713e-10 5.960434123777123e-10 3.496516674699493e-10
          1.2840572578666789e-9 2.62473698517885e-9 2.1945215680684023e-9 1.50284545155699e-9 4.2763260676522645e-9 1.2749507791154608e-9
          1.676480422366154e-9 9.963129543893892e-10 2.9737825947070835e-9 9.824982427777747e-10 1.3626416898791512e-9 5.637515547963622e-10
          8.768361453192482e-10 5.799096213873414e-10 7.91693324412399e-10 4.814288131740242e-10 2.504478321782044e-9 1.7423760554271594e-9
          1.3917140942275282e-9 1.3667692916306485e-10 2.095008330499982e-10 5.136400411286401e-10 2.328706106948784e-10 1.0578354632741424e-9
          7.407945772224168e-10 2.3120421930383728e-9 5.093160128645832e-10 3.4115382856349623e-10 1.1861518287367047e-9 3.662261758495137e-10
          5.955126560565724e-10 2.4651570498599784e-10 4.0816591973698885e-10 2.044193792169977e-10 3.1242395703632364e-10 2.411380942347379e-10
          1.243184667661854e-9 8.80708559889294e-10 6.175825205630573e-10 1.6445000596494003e-10 2.7526172043912584e-10 1.0740711934388027e-10
          1.8180327771531713e-10 1.184497138194335e-10 1.8685052580248957e-10 1.217870834234504e-10 6.087097456444074e-10 4.092679216205739e-10
          3.415860395702503e-10 8.373600545778593e-9 7.3763791407590015e-9 5.673983591415106e-9 1.0596882544890076e-8 4.807878320903167e-9
          2.7151996555695665e-9 6.6081685391215115e-9 4.155434769495198e-9 3.0573118914930006e-9 2.2451026610980263e-9 1.5196087734960085e-9
          5.902827567087012e-9 4.609560769105838e-9 3.155346680916177e-9 1.3195544692238973e-8 1.1128661172980861e-8 1.4226555255696828e-8
          8.281243572453176e-9 4.666988665966255e-9 9.092351584672344e-9 7.4351418086941064e-9 5.900142746375195e-9 3.9613268275271445e-9
          2.8408586694329608e-9 8.109326515621024e-9 6.400956362512531e-9 4.322214454400388e-9 4.375899400426008e-9 3.284094329015862e-9
          6.90425406510435e-9 2.3806649984869777e-9 1.6624753931309876e-9 3.939423369009921e-9 2.2687143262255076e-9 1.6535169079671273e-9
          1.0828572414910493e-9 7.648890726538746e-10 3.5284696265843245e-9 2.626587621426673e-9 1.6353386942837207e-9 1.1698111283518689e-9
          8.00709824789205e-10 5.278055135340991e-10 3.5480648193872485e-10 1.8906737346655252e-9 1.3125662599241267e-9 8.254652287096749e-10
          8.991300339747645e-9 7.0275669239780264e-9 9.788180197385647e-9 5.285369282862104e-9 3.807209355517404e-9 5.810548626213698e-9
          4.602976105607061e-9 3.4741048036112936e-9 2.1060006068110206e-9 1.5327176356352341e-9 5.02487141143641e-9 3.810467195012888e-9
          2.2923018017662335e-9 2.528077959276266e-9 1.7707458265555028e-9 1.0836095018274386e-9 7.416406334562826e-10 2.7830846495497177e-9
          1.9554423756867683e-9 1.1871461828411234e-9 4.101874398539693e-10 5.252114528373814e-10 4.170696665466442e-10 8.43903885526735e-10
          3.1881310381273664e-10 4.1820324480209284e-10 1.8072057360460638e-10 2.514506164193628e-10 2.481524474993643e-10 3.139352793895575e-10
          1.7047566512166114e-10 6.896205199968163e-10 4.4148521867116857e-10 5.01021534197357e-10 1.1360419263762512e-10 1.5894632782650688e-10
          9.320600583754148e-11 1.2618645958109237e-10 8.543398962827015e-11 1.1213216023863981e-10 9.411388246642813e-11 2.8939765140067535e-10
          2.215807935932802e-10 1.8648150323713196e-10 1.2720097636924236e-9 1.0065810091266584e-9 1.6764137870823186e-9 1.061507098414509e-9
          7.130042048038388e-10 7.65015914736753e-10 4.376972974145438e-10 1.4386956284659276e-9 1.0182934124421586e-9 8.369556224189908e-10
          2.0109489109290213e-9 1.1109328699227061e-9 2.165517469845576e-9 1.7512153684431916e-9 1.2717533505045919e-9 8.772930600235687e-10
          5.376344919374763e-10 1.886406022581363e-9 1.3721385076243263e-9 9.530061225979227e-10 4.5133506131158113e-10 4.994629413014259e-10
          4.1388857178736116e-10 5.475908212912706e-10 3.715010708871141e-10 4.0152213126528685e-10 2.3094998532497165e-10 2.4272077617635154e-10
          3.0152074800585784e-10 3.07059997179552e-10 1.619665591508698e-10 4.3154319164345964e-10 2.5449156702773133e-10 3.1259924635324616e-10
          4.858248402416511e-10 3.333645643884391e-10 2.959453967176479e-10 2.0231430498398764e-10 7.114871776195162e-10 4.968288437404333e-10
          3.3966568364216667e-10 1.6869966923070272e-10 2.2517143891916925e-10 1.1085201334643058e-10 1.4869858937610294e-10 1.1102510986624772e-10
          1.3628575205290294e-10 8.853035728159846e-11 3.3947731924000765e-10 2.2571167943296182e-10 1.9344584645563138e-10 9.004505065883029e-10
          6.347289041046722e-10 3.6173539246090153e-10 2.939118025949731e-10 9.750694986349134e-10 6.897415157777576e-10 3.9285131836357363e-10
          4.35688505959283e-10 2.906429212789389e-10 2.460394077963052e-10 1.5940971583475083e-10 4.740655820461864e-10 3.164076490977295e-10
          2.667335169209058e-10 1.4201071217623117e-10 1.5020449641596785e-10 1.1378853416516612e-10 1.1854876170838057e-10 1.11155309850936e-10
          1.0763378030074633e-10 9.156586487149593e-11 1.5839828065570455e-10 1.2330898925159506e-10 1.0411225075055665e-10 2.674824352020778e-10
          1.4634102845280917e-10 5.299963379912548e-10 2.3184425146004958e-10 8.779930793938857e-10 3.6987098399379055e-10 1.1926386314423263e-9
          4.908239544058572e-10 1.3202642787623291e-9 5.397040923370172e-10 7.140396246654026e-11 9.609103984183095e-11 4.647728247422794e-11
          5.6747306369254686e-11 1.4652158361524788e-10 8.050260782319522e-11 1.8915668766937782e-10 1.0221121231755633e-10 2.0604832532538153e-10
          1.1043453925300362e-10 4.490144350541322e-8 7.562472257755609e-8 1.2900872398791135e-7 7.848310538485383e-8 1.6811507506755257e-7
          9.065507760208108e-8 7.733942308061505e-9 4.48810043340517e-9 2.1547408769964125e-8 1.17769924179415e-8 7.774164691629868e-8
          3.2258277046917336e-8 8.073893634057572e-8 4.117625662747706e-8 5.5748911902871444e-8 6.060596474811163e-8 3.380097064099805e-8
          6.995905912278303e-10 5.101992001781076e-10 8.744148294794036e-10 6.972658816527433e-10 2.5060964174874876e-10 4.1577368532197915e-10
          2.0374598641671584e-9 1.6259576108483835e-9 1.0140199290553544e-9 3.896022491644749e-9 3.3381549648261082e-9 2.402729461966037e-9
          7.68958933829231e-9 6.763295183956937e-9 5.1731762442705634e-9 1.4855410245791372e-10 2.577717208848461e-10 6.854469156493745e-10
          1.7425484691598301e-9 3.956629110500123e-9 1.3258236461372971e-8 1.19246152250526e-8 9.5662589105319e-9 2.1017518293291228e-8
          1.7563617005331422e-8 1.4754665541331115e-8 2.5560999830129785e-8 2.2244965307956848e-8 1.6708284719908606e-8 1.885512354739312e-8
          2.7547551504746472e-8 2.399406395852501e-8 2.0345438139363252e-8 7.618250185660016e-9 1.2019177985939078e-8 1.5504559703963945e-8
          1.677519803270221e-8
        </DataArray>
        <DataArray type="Float64" Name="gradient_matprop_error" format="ascii" RangeMin="0" RangeMax="0">
          0 0 0 0 0 0
          0 0 0 0 0 0
          0 0 0 0 0 0
          0 0 0 0 0 0
          0 0 0 0 0 0
          0 0 0 0 0 0
          0 0 0 0 0 0
          0 0 0 0 0 0
          0 0 0 0 0 0
          0 0 0 0 0 0
          0 0 0 0 0 0
          0 0 0 0 0 0
          0 0 0 0 0 0
          0 0 0 0 0 0
          0 0 0 0 0 0
          0 0 0 0 0 0
          0 0 0 0 0 0
          0 0 0 0 0 0
          0 0 0 0 0 0
          0 0 0 0 0 0
          0 0 0 0 0 0
          0 0 0 0 0 0
          0 0 0 0 0 0
          0 0 0 0 0 0
          0 0 0 0 0 0
          0 0 0 0 0 0
          0 0 0 0 0 0
          0 0 0 0 0 0
          0 0 0 0 0 0
          0 0 0 0 0 0
          0 0 0 0 0 0
          0 0 0 0 0 0
          0 0 0 0 0 0
          0 0 0 0 0 0
          0 0 0 0 0 0
          0 0 0 0 0 0
          0 0 0 0 0 0
          0 0 0 0 0 0
          0 0 0 0 0 0
          0 0 0 0 0 0
          0 0 0 0 0 0
          0 0 0 0 0 0
          0 0 0 0 0 0
          0 0 0 0 0 0
          0 0 0 0 0 0
          0 0 0 0 0 0
          0 0 0 0 0 0
          0 0 0 0 0 0
          0 0 0 0 0 0
          0 0 0 0 0 0
          0 0 0 0 0 0
          0 0 0 0 0 0
          0 0 0 0 0 0
          0 0 0 0 0 0
          0 0 0 0 0 0
          0 0 0 0 0 0
          0 0 0 0 0 0
          0 0 0 0 0 0
          0 0 0 0 0 0
          0 0 0 0 0 0
          0 0 0 0 0 0
          0 0 0 0 0 0
          0 0 0 0 0 0
          0 0 0 0 0 0
          0 0 0 0 0 0
          0 0 0 0 0 0
          0 0 0 0 0 0
          0 0 0 0 0 0
          0 0 0 0 0 0
          0 0 0 0 0 0
          0 0 0 0 0 0
          0 0 0 0 0 0
          0 0 0 0 0 0
          0 0 0 0 0 0
          0 0 0 0 0 0
          0 0 0 0 0 0
          0 0 0 0 0 0
          0 0 0 0 0 0
          0 0 0 0 0 0
          0 0 0 0 0 0
          0
        </DataArray>
        <DataArray type="Float64" Name="initial_marker" format="ascii" RangeMin="0" RangeMax="2">
          0 0 0 0 0 0.5
          0 0 0 0 0 0
          0 2 0 0 0 0
          0 0 0 0 0 0
          1 1 0 1 0 2
          1.5 2 1 1 0.3333333333333333 0.5
          0 0 0 1 1 0
          0 0 0 0 0 0
          0 0 0 0 0 0
          0 0 0 0 0 0
          0 0 0 0 0 0
          0 0 0 0 0 0
          0 0 1 0 1.25 0
          0.75 0 2 2 0 1
          1 0 0 0 2 2
          1.75 2 2 2 2 2
          2 2 2 2 2 2
          2 0 0.5 0 1 1.5
          0.5 2 0 0.25 0 0
          0 0 0 0.75 0.5 0
          0 0 0 0 0 0
          0 0 0 0 1.5 1.25
          0.25 0 2 2 0.5 1
          1 0 0 1 1 0
          0 0.75 0 0 1 0
          0 0 0 0 0 0
          0 0 0 0 0 0
          0 0 0 0 0 0
          0 0 0 0 0 0
          0 0 0 0 0 0
          0 0 0 0 0 0
          0 0 1 0 1 0.5
          2 2 2 2 2 2
          2 1.5 2 1.5 1.75 1
          1.5 0.5 1.25 1 2 2
          2 0 0 1.3333333333333333 1.3333333333333333 2
          2 2 2 2 2 1
          1.5 1 1.5 0 1 1
          2 2 2 1 1.5 1
          1.5 0 1 1 2 2
          2 2 2 2 2 2
          2 2 2 2 2 2
          2 2 2 2 2 2
          2 2 2 2 2 2
          2 2 2 2 2 2
          2 2 2 2 2 2
          2 2 2 2 2 2
          2 2 2 2 2 2
          2 2 2 2 2 2
          2 2 2 2 2 2
          2 2 2 2 2 2
          2 2 0 0.5 0 1.5
          0 0.5 0 0.5 0 0
          0 1.5 1.5 1 0 0.5
          0 0.5 0 0 0 1.25
          1 0.5 2 2 2 2
          2 2 2 2 2 2
          2 2 2 2 2 2
          1.75 2 2 2 1 1
          0 1 1 1 0.5 0.75
          0 0 0 1 1 0
          1.75 1.5 1.5 1 2 2
          1.3333333333333333 1 1.5 1 1.5 0
          1 1 2 2 2 2
          2 1.25 1.3333333333333333 2 2 1.5
          2 2 2 2 2 2
          2 0 0.25 0 0 0
          0 0 0.5 0 0 2
          2 2 2 2 2 2
          2 2 2 1 1.5 0
          1 2 2 2 2 2
          2 0.5 1 2 2 2
          2 0.5 0.25 1.5 1.5 2
          2 2 2 2 2 2
          0 0 1 1 0 0.75
          2 2 1.75 2 2 2
          2 2 2 0 0.5 1.5
          2 2 2 2 2 2
          2 2 2 2 2 2
          2 2 2 2 2 2
          2
        </DataArray>
        <DataArray type="Float64" Name="markers_norefine" format="ascii" RangeMin="0" RangeMax="0">
          0 0 0 0 0 0
          0 0 0 0 0 0
          0 0 0 0 0 0
          0 0 0 0 0 0
          0 0 0 0 0 0
          0 0 0 0 0 0
          0 0 0 0 0 0
          0 0 0 0 0 0
          0 0 0 0 0 0
          0 0 0 0 0 0
          0 0 0 0 0 0
          0 0 0 0 0 0
          0 0 0 0 0 0
          0 0 0 0 0 0
          0 0 0 0 0 0
          0 0 0 0 0 0
          0 0 0 0 0 0
          0 0 0 0 0 0
          0 0 0 0 0 0
          0 0 0 0 0 0
          0 0 0 0 0 0
          0 0 0 0 0 0
          0 0 0 0 0 0
          0 0 0 0 0 0
          0 0 0 0 0 0
          0 0 0 0 0 0
          0 0 0 0 0 0
          0 0 0 0 0 0
          0 0 0 0 0 0
          0 0 0 0 0 0
          0 0 0 0 0 0
          0 0 0 0 0 0
          0 0 0 0 0 0
          0 0 0 0 0 0
          0 0 0 0 0 0
          0 0 0 0 0 0
          0 0 0 0 0 0
          0 0 0 0 0 0
          0 0 0 0 0 0
          0 0 0 0 0 0
          0 0 0 0 0 0
          0 0 0 0 0 0
          0 0 0 0 0 0
          0 0 0 0 0 0
          0 0 0 0 0 0
          0 0 0 0 0 0
          0 0 0 0 0 0
          0 0 0 0 0 0
          0 0 0 0 0 0
          0 0 0 0 0 0
          0 0 0 0 0 0
          0 0 0 0 0 0
          0 0 0 0 0 0
          0 0 0 0 0 0
          0 0 0 0 0 0
          0 0 0 0 0 0
          0 0 0 0 0 0
          0 0 0 0 0 0
          0 0 0 0 0 0
          0 0 0 0 0 0
          0 0 0 0 0 0
          0 0 0 0 0 0
          0 0 0 0 0 0
          0 0 0 0 0 0
          0 0 0 0 0 0
          0 0 0 0 0 0
          0 0 0 0 0 0
          0 0 0 0 0 0
          0 0 0 0 0 0
          0 0 0 0 0 0
          0 0 0 0 0 0
          0 0 0 0 0 0
          0 0 0 0 0 0
          0 0 0 0 0 0
          0 0 0 0 0 0
          0 0 0 0 0 0
          0 0 0 0 0 0
          0 0 0 0 0 0
          0 0 0 0 0 0
          0 0 0 0 0 0
          0
        </DataArray>
        <DataArray type="Float64" Name="markers_mustrefine" format="ascii" RangeMin="0" RangeMax="2">
          0 0 0 0 0 0.5
          0 0 0 0 0 0
          0 2 0 0 0 0
          0 0 0 0 0 0
          1 1 0 1 0 2
          1.5 2 1 1 0.3333333333333333 0.5
          0 0 0 1 1 0
          0 0 0 0 0 0
          0 0 0 0 0 0
          0 0 0 0 0 0
          0 0 0 0 0 0
          0 0 0 0 0 0
          0 0 1 0 1.25 0
          0.75 0 2 2 0 1
          1 0 0 0 2 2
          1.75 2 2 2 2 2
          2 2 2 2 2 2
          2 0 0.5 0 1 1.5
          0.5 2 0 0.25 0 0
          0 0 0 0.75 0.5 0
          0 0 0 0 0 0
          0 0 0 0 1.5 1.25
          0.25 0 2 2 0.5 1
          1 0 0 1 1 0
          0 0.75 0 0 1 0
          0 0 0 0 0 0
          0 0 0 0 0 0
          0 0 0 0 0 0
          0 0 0 0 0 0
          0 0 0 0 0 0
          0 0 0 0 0 0
          0 0 1 0 1 0.5
          2 2 2 2 2 2
          2 1.5 2 1.5 1.75 1
          1.5 0.5 1.25 1 2 2
          2 0 0 1.3333333333333333 1.3333333333333333 2
          2 2 2 2 2 1
          1.5 1 1.5 0 1 1
          2 2 2 1 1.5 1
          1.5 0 1 1 2 2
          2 2 2 2 2 2
          2 2 2 2 2 2
          2 2 2 2 2 2
          2 2 2 2 2 2
          2 2 2 2 2 2
          2 2 2 2 2 2
          2 2 2 2 2 2
          2 2 2 2 2 2
          2 2 2 2 2 2
          2 2 2 2 2 2
          2 2 2 2 2 2
          2 2 0 0.5 0 1.5
          0 0.5 0 0.5 0 0
          0 1.5 1.5 1 0 0.5
          0 0.5 0 0 0 1.25
          1 0.5 2 2 2 2
          2 2 2 2 2 2
          2 2 2 2 2 2
          1.75 2 2 2 1 1
          0 1 1 1 0.5 0.75
          0 0 0 1 1 0
          1.75 1.5 1.5 1 2 2
          1.3333333333333333 1 1.5 1 1.5 0
          1 1 2 2 2 2
          2 1.25 1.3333333333333333 2 2 1.5
          2 2 2 2 2 2
          2 0 0.25 0 0 0
          0 0 0.5 0 0 2
          2 2 2 2 2 2
          2 2 2 1 1.5 0
          1 2 2 2 2 2
          2 0.5 1 2 2 2
          2 0.5 0.25 1.5 1.5 2
          2 2 2 2 2 2
          0 0 1 1 0 0.75
          2 2 1.75 2 2 2
          2 2 2 0 0.5 1.5
          2 2 2 2 2 2
          2 2 2 2 2 2
          2 2 2 2 2 2
          2
        </DataArray>
        <DataArray type="Float64" Name="gradient_marker" format="ascii" RangeMin="0" RangeMax="1">
          1 1 0.5 1 0.75 0.5
          0.75 0.875 1 1 1 0.875
          1 1 0.5 1 1 1
          1 1 1 1 1 1
          0.5 0.5 0 0.5 1 1
          1 1 0.25 0.375 0.5 0.25
          0 0 0.5 0.5 0.25 0
          1 1 1 1 1 1
          1 1 1 1 1 1
          1 1 1 1 1 1
          0.5 1 1 1 1 1
          1 1 1 1 1 1
          1 1 0 1 1 0.5
          0.5 1 1 0.5 1 1
          1 1 1 1 1 1
          1 1 0.625 1 1 0.75
          1 1 1 1 1 1
          1 0 0 0 0 0
          0 0 0.5 0.5 1 1
          0.5 0.5 1 0.5 1 0.5
          1 1 1 1 1 1
          1 1 1 1 0.5 1
          0.5 1 0.5 1 0.5 1
          1 1 1 1 1 1
          1 1 1 1 1 1
          1 1 1 1 1 1
          1 1 1 1 1 1
          1 1 0 0 0 0
          0.5 0.5 1 1 0.5 0.5
          1 0.5 1 0.5 1 1
          1 1 1 1 1 1
          1 1 1 1 1 1
          1 1 1 1 1 1
          1 1 1 1 1 1
          1 1 1 1 1 1
          1 1 1 1 1 1
          1 1 1 1 1 1
          1 1 1 1 1 1
          1 1 1 1 1 1
          1 1 1 1 1 1
          1 1 1 1 1 1
          1 1 1 1 1 1
          1 1 1 1 1 1
          1 1 1 1 1 1
          1 1 1 1 1 1
          1 1 1 1 1 1
          1 1 1 1 1 1
          1 1 1 1 1 1
          1 1 1 1 1 1
          1 1 1 1 1 1
          1 1 1 1 1 1
          1 1 1 1 1 1
          1 1 1 1 1 1
          1 1 1 1 1 1
          1 1 1 1 1 1
          1 1 1 1 1 1
          1 1 1 1 1 1
          1 1 1 1 1 1
          1 1 1 1 1 1
          1 1 1 1 1 1
          1 1 1 1 1 1
          1 1 1 1 1 1
          1 1 1 1 1 1
          1 1 1 1 1 1
          1 1 1 1 1 1
          1 1 1 1 1 1
          1 1 1 1 1 1
          1 1 1 1 1 1
          1 1 1 1 1 1
          1 1 1 1 1 1
          1 1 1 1 1 1
          1 0.375 0.3333333333333333 0.75 0.25 1
          0.75 0 0.5 0 0.5 0.3333333333333333
          0.625 0.5 0.75 0.3333333333333333 0.5 0.75
          1 1 1 1 1 1
          1 1 1 1 1 1
          1 1 1 1 1 1
          1 1 1 1 1 0.6666666666666666
          1 1 0.5 1 0.6666666666666666 1
          0.5 1 1 1 1 1
          1
        </DataArray>
        <DataArray type="Float64" Name="gradient_matprop_marker" format="ascii" RangeMin="0" RangeMax="0">
          0 0 0 0 0 0
          0 0 0 0 0 0
          0 0 0 0 0 0
          0 0 0 0 0 0
          0 0 0 0 0 0
          0 0 0 0 0 0
          0 0 0 0 0 0
          0 0 0 0 0 0
          0 0 0 0 0 0
          0 0 0 0 0 0
          0 0 0 0 0 0
          0 0 0 0 0 0
          0 0 0 0 0 0
          0 0 0 0 0 0
          0 0 0 0 0 0
          0 0 0 0 0 0
          0 0 0 0 0 0
          0 0 0 0 0 0
          0 0 0 0 0 0
          0 0 0 0 0 0
          0 0 0 0 0 0
          0 0 0 0 0 0
          0 0 0 0 0 0
          0 0 0 0 0 0
          0 0 0 0 0 0
          0 0 0 0 0 0
          0 0 0 0 0 0
          0 0 0 0 0 0
          0 0 0 0 0 0
          0 0 0 0 0 0
          0 0 0 0 0 0
          0 0 0 0 0 0
          0 0 0 0 0 0
          0 0 0 0 0 0
          0 0 0 0 0 0
          0 0 0 0 0 0
          0 0 0 0 0 0
          0 0 0 0 0 0
          0 0 0 0 0 0
          0 0 0 0 0 0
          0 0 0 0 0 0
          0 0 0 0 0 0
          0 0 0 0 0 0
          0 0 0 0 0 0
          0 0 0 0 0 0
          0 0 0 0 0 0
          0 0 0 0 0 0
          0 0 0 0 0 0
          0 0 0 0 0 0
          0 0 0 0 0 0
          0 0 0 0 0 0
          0 0 0 0 0 0
          0 0 0 0 0 0
          0 0 0 0 0 0
          0 0 0 0 0 0
          0 0 0 0 0 0
          0 0 0 0 0 0
          0 0 0 0 0 0
          0 0 0 0 0 0
          0 0 0 0 0 0
          0 0 0 0 0 0
          0 0 0 0 0 0
          0 0 0 0 0 0
          0 0 0 0 0 0
          0 0 0 0 0 0
          0 0 0 0 0 0
          0 0 0 0 0 0
          0 0 0 0 0 0
          0 0 0 0 0 0
          0 0 0 0 0 0
          0 0 0 0 0 0
          0 0 0 0 0 0
          0 0 0 0 0 0
          0 0 0 0 0 0
          0 0 0 0 0 0
          0 0 0 0 0 0
          0 0 0 0 0 0
          0 0 0 0 0 0
          0 0 0 0 0 0
          0 0 0 0 0 0
          0
        </DataArray>
        <DataArray type="Float64" Name="combo" format="ascii" RangeMin="0" RangeMax="1">
          1 1 0.5 1 0.75 0.5
          0.75 0.875 1 1 1 0.875
          1 1 0.5 1 1 1
          1 1 1 1 1 1
          0.5 0.5 0 0.5 1 1
          1 1 0.25 0.375 0.5 0.25
          0 0 0.5 0.5 0.25 0
          1 1 1 1 1 1
          1 1 1 1 1 1
          1 1 1 1 1 1
          0.5 1 1 1 1 1
          1 1 1 1 1 1
          1 1 0 1 1 0.5
          0.5 1 1 0.5 1 1
          1 1 1 1 1 1
          1 1 0.625 1 1 0.75
          1 1 1 1 1 1
          1 0 0 0 0 0
          0 0 0.5 0.5 1 1
          0.5 0.5 1 0.5 1 0.5
          1 1 1 1 1 1
          1 1 1 1 0.5 1
          0.5 1 0.5 1 0.5 1
          1 1 1 1 1 1
          1 1 1 1 1 1
          1 1 1 1 1 1
          1 1 1 1 1 1
          1 1 0 0 0 0
          0.5 0.5 1 1 0.5 0.5
          1 0.5 1 0.5 1 1
          1 1 1 1 1 1
          1 1 1 1 1 1
          1 1 1 1 1 1
          1 1 1 1 1 1
          1 1 1 1 1 1
          1 1 1 1 1 1
          1 1 1 1 1 1
          1 1 1 1 1 1