<?xml version="1.0"?>
<VTKFile type="UnstructuredGrid" version="0.1" byte_order="LittleEndian" header_type="UInt32" compressor="vtkZLibDataCompressor">
  <UnstructuredGrid>
    <Piece NumberOfPoints="468" NumberOfCells="272">
      <PointData>
        <DataArray type="Int32" Name="libmesh_node_id" format="ascii" RangeMin="380" RangeMax="4001">
          380 443 555 560 940 941
          942 948 1128 1131 1264 1268
          1270 1271 1272 1273 1274 1275
          1276 1730 1731 1732 1733 1734
          1735 1736 1737 1738 1739 1740
          1741 1742 1743 1756 1774 1775
          1776 1777 1778 1779 1780 1781
          1782 1783 1839 1840 1841 1842
          1846 1847 1852 1867 1868 1871
          1872 1874 1891 1896 1907 1911
          2139 2143 2144 2145 2146 2147
          2150 2153 2156 2157 2158 2159
          2160 2161 2162 2163 2164 2165
          2166 2167 2168 2169 2170 2171
          2172 2173 2174 2175 2176 2177
          2178 2179 2182 2183 2188 2201
          2205 3094 3095 3096 3099 3102
          3104 3105 3106 3107 3108 3109
          3110 3111 3112 3113 3114 3115
          3116 3117 3120 3121 3124 3126
          3128 3129 3130 3131 3132 3133
          3134 3135 3136 3137 3140 3141
          3143 3146 3148 3149 3150 3151
          3152 3153 3154 3155 3156 3157
          3159 3161 3163 3165 3166 3167
          3168 3169 3170 3171 3212 3213
          3216 3218 3220 3221 3222 3223
          3224 3225 3226 3227 3228 3231
          3235 3237 3238 3241 3242 3334
          3335 3337 3340 3342 3343 3344
          3345 3346 3347 3348 3349 3350
          3351 3353 3355 3357 3359 3360
          3361 3362 3363 3364 3365 3368
          3369 3371 3374 3376 3377 3378
          3379 3380 3381 3382 3383 3384
          3385 3387 3389 3391 3393 3394
          3395 3396 3397 3398 3399 3447
          3451 3453 3454 3457 3458 3475
          3479 3481 3482 3485 3486 3601
          3602 3603 3604 3605 3606 3607
          3608 3609 3610 3611 3612 3613
          3614 3629 3630 3631 3632 3633
          3634 3635 3636 3637 3638 3649
          3650 3651 3652 3653 3654 3655
          3656 3658 3669 3670 3671 3672
          3673 3675 3741 3742 3743 3744
          3745 3746 3747 3748 3749 3750
          3751 3752 3753 3754 3755 3756
          3757 3768 3769 3770 3771 3776
          3818 3819 3822 3824 3825 3827
          3838 3840 3841 3842 3844 3852
          3853 3856 3858 3859 3861 3872
          3874 3875 3876 3878 3954 3955
          3956 3957 3958 3959 3960 3969
          3973 3982 3983 3984 3985 3986
          3987 3988 3997 4001 1132 1129
          559 556 1263 1266 1269 923
          926 558 929 1265 1277 1278
          1279 1754 561 1758 1755 1757
          1760 1759 2140 2148 2149 2141
          2151 2152 2154 2142 2155 936
          1720 937 1723 1744 1676 1746
          1748 943 3090 3091 3092 3093
          3097 3098 3100 3101 3103 3118
          3119 3122 3123 3125 3127 3138
          3139 3142 3144 3145 3147 3158
          3160 3162 3164 3210 3211 3214
          3215 3217 3219 3229 3230 3233
          3232 3234 1761 3236 3239 3240
          3243 1762 3332 3333 3336 3338
          3339 3341 3352 3354 3356 3358
          3366 3367 3370 3372 3373 3375
          3386 3388 3390 3392 3446 3449
          3448 3450 1791 3452 3455 3456
          3459 1792 3474 3477 3476 3478
          1795 3480 3483 3484 3487 1796
          3256 3257 3775 3262 3968 3468
          3972 3472 3996 3496 4000 3500
        </DataArray>
        <DataArray type="Float64" Name="bounds" format="ascii" RangeMin="0" RangeMax="0">
          0 0 0 0 0 0
          0 0 0 0 0 0
          0 0 0 0 0 0
          0 0 0 0 0 0
          0 0 0 0 0 0
          0 0 0 0 0 0
          0 0 0 0 0 0
          0 0 0 0 0 0
          0 0 0 0 0 0
          0 0 0 0 0 0
          0 0 0 0 0 0
          0 0 0 0 0 0
          0 0 0 0 0 0
          0 0 0 0 0 0
          0 0 0 0 0 0
          0 0 0 0 0 0
          0 0 0 0 0 0
          0 0 0 0 0 0
          0 0 0 0 0 0
          0 0 0 0 0 0
          0 0 0 0 0 0
          0 0 0 0 0 0
          0 0 0 0 0 0
          0 0 0 0 0 0
          0 0 0 0 0 0
          0 0 0 0 0 0
          0 0 0 0 0 0
          0 0 0 0 0 0
          0 0 0 0 0 0
          0 0 0 0 0 0
          0 0 0 0 0 0
          0 0 0 0 0 0
          0 0 0 0 0 0
          0 0 0 0 0 0
          0 0 0 0 0 0
          0 0 0 0 0 0
          0 0 0 0 0 0
          0 0 0 0 0 0
          0 0 0 0 0 0
          0 0 0 0 0 0
          0 0 0 0 0 0
          0 0 0 0 0 0
          0 0 0 0 0 0
          0 0 0 0 0 0
          0 0 0 0 0 0
          0 0 0 0 0 0
          0 0 0 0 0 0
          0 0 0 0 0 0
          0 0 0 0 0 0
          0 0 0 0 0 0
          0 0 0 0 0 0
          0 0 0 0 0 0
          0 0 0 0 0 0
          0 0 0 0 0 0
          0 0 0 0 0 0
          0 0 0 0 0 0
          0 0 0 0 0 0
          0 0 0 0 0 0
          0 0 0 0 0 0
          0 0 0 0 0 0
          0 0 0 0 0 0
          0 0 0 0 0 0
          0 0 0 0 0 0
          0 0 0 0 0 0
          0 0 0 0 0 0
          0 0 0 0 0 0
          0 0 0 0 0 0
          0 0 0 0 0 0
          0 0 0 0 0 0
          0 0 0 0 0 0
          0 0 0 0 0 0
          0 0 0 0 0 0
          0 0 0 0 0 0
          0 0 0 0 0 0
          0 0 0 0 0 0
          0 0 0 0 0 0
          0 0 0 0 0 0
          0 0 0 0 0 0
        </DataArray>
        <DataArray type="Float64" Name="gradient_error" format="ascii" RangeMin="1.3129282589643704e-11" RangeMax="7.562472257755609e-8">
          1.6503960873860314e-8 2.1273371206290783e-10 2.481581904392867e-9 1.295612439086849e-10 8.178513494771549e-11 5.74050702524095e-9
          2.4122984851648466e-9 1.2010798120371774e-8 1.1668864416840729e-9 2.0604845621799938e-10 2.6601504261878354e-9 8.573413118253674e-9
          9.53558043697438e-10 9.218032539703854e-10 5.587382339041077e-10 5.322701207651115e-10 7.566727582756973e-11 4.6824374504522185e-11
          4.642682726755524e-11 3.1750508697841693e-10 2.8546448159175246e-10 1.4139933600083856e-9 1.1825411011136697e-9 1.1553330817616816e-10
          6.57534042907136e-10 5.462700598757771e-10 2.0675305029358323e-10 6.963528065916674e-10 3.150477644430345e-10 1.0377250191183981e-8
          8.530397623547925e-9 4.643654705682744e-9 4.670758166439913e-9 1.1408121356530029e-10 2.727476236211816e-8 2.469681354125265e-8
          1.7874698070784203e-8 1.5294999107345444e-8 1.4876031564461348e-8 8.620119863024392e-9 1.800051384709479e-8 2.42201170075235e-8
          1.7697379906306733e-8 2.016448195644819e-8 5.145799870927563e-11 4.5526914083134856e-11 2.7079543851572757e-10 2.2389459045543625e-10
          4.8903779720672085e-11 1.407381659493705e-10 1.0604672649095224e-9 6.100728646635735e-11 9.019595182614289e-11 5.750992987406208e-11
          9.17822566452427e-11 3.424738618391121e-10 4.210419968004039e-9 6.179947732633492e-9 1.249530487575232e-9 1.9231987398300445e-9
          1.0348718776381477e-9 6.381640511034818e-10 9.73254148766177e-10 6.491774368036206e-10 7.888481981913161e-10 6.441206790568058e-10
          1.4736239564276567e-10 5.429195191527098e-10 4.0657510309244085e-11 3.4884127256815e-11 2.345979229446925e-10 2.1326617093249606e-10
          2.1135800606925993e-11 9.714518244810838e-11 8.81456678545952e-11 2.150780954554405e-11 1.5813521218325784e-10 6.501836069455224e-11
          4.4418665142033907e-10 7.014226142091906e-10 1.4236413218854576e-10 2.8688838253133253e-10 3.0192742445755426e-10 4.780022173665795e-10
          2.0969621740347308e-10 3.038867242260136e-11 1.035744054233793e-10 1.9060673850863214e-11 4.3164254768949834e-11 4.687246995850054e-11
          8.281280540054255e-11 3.543794140987723e-11 3.9288953056295616e-11 3.518074245893647e-11 2.4878103161785987e-11 1.5906478525819176e-11
          1.3129282589643704e-11 1.9942244488945062e-10 4.439826296643545e-10 4.2686198236834123e-10 3.792704446577075e-10 1.3520194444311067e-9
          1.3567531343652298e-10 1.309825275983621e-10 2.9699458876574685e-10 2.853500609920275e-10 8.44889366200015e-11 1.9467298383169708e-10
          1.8693663431990208e-10 1.1757637167378803e-10 2.5300764912782197e-10 1.6554416875230635e-10 9.780470581031618e-10 9.34309130873769e-10
          6.27712077800736e-10 8.148977080432937e-10 1.5027990397310466e-10 3.118381954209816e-10 2.380628460368983e-10 9.474100892961846e-10
          9.829345899266745e-11 2.0724619466239346e-10 6.388164944405505e-11 1.3532835524312702e-10 7.738774672791142e-11 1.5736157803243733e-10
          1.0232840438043852e-10 6.497331494068188e-10 4.3386909568336986e-10 4.742984529789226e-10 4.163557480232719e-9 3.968386152478124e-9
          3.4333138997270958e-9 9.882951460112449e-9 3.0168630216374537e-9 2.8694354523258397e-9 2.1014787531040727e-9 1.9953875573823745e-9
          2.467916924424373e-9 1.7086348104493707e-9 7.863270270671515e-9 7.476606462048082e-9 5.446879154489733e-9 6.418560454320521e-9
          2.6931474380636195e-9 1.917184525198766e-9 6.654449694724866e-9 1.9192061989720693e-9 1.320676597271915e-9 1.352078910288226e-9
          9.232434720494341e-10 4.954863663245712e-9 3.542094933027853e-9 3.4238061451533515e-9 9.579725048503313e-11 1.6883874484633055e-10
          1.3642863421774065e-10 4.681790789389143e-10 6.19214485198798e-11 1.106202705451539e-10 4.053061822372233e-11 7.169468032514436e-11
          5.679131998189683e-11 8.870000931288435e-11 5.7501209679160146e-11 3.1621779328675656e-10 2.0890373565452097e-10 1.244661043488019e-9
          2.945195812210777e-9 8.672652495601192e-10 5.867975969564563e-10 2.119569665137032e-9 1.4712362324311818e-9 2.0435136442828607e-8
          1.9525494266645204e-8 1.695853219203817e-8 2.6763413271368768e-8 1.5926229129324593e-8 1.5182759755155178e-8 1.1942532588913751e-8
          1.137709697383639e-8 1.3119192403796402e-8 9.805862121439722e-9 2.284957866407943e-8 2.217905316270965e-8 1.7238754606924578e-8
          1.994806503320166e-8 1.3290155157642506e-8 9.35587243384757e-9 2.0480428171302576e-8 1.021423015559335e-8 7.57587583418622e-9
          7.103993614772122e-9 5.182197337484819e-9 1.6130418649166104e-8 1.221815386742729e-8 1.1529826197728376e-8 2.3126822203320593e-8
          2.4260027594584266e-8 2.5838334607540688e-8 2.0165349195437776e-8 2.1140580015674595e-8 2.1819042868321094e-8 1.8329813491760386e-8
          1.840644288452709e-8 2.2157855392831083e-8 1.7691528266040968e-8 1.7243866211660043e-8 1.9002256234726927e-8 1.7220547485081426e-8
          2.1515321977554634e-8 2.429876072423034e-8 1.8873635453516885e-8 2.4872947216094543e-8 1.9685521532703644e-8 1.5102329946205875e-8
          1.4779055501686723e-8 1.11704559225104e-8 2.048408378123298e-8 1.5816304024093192e-8 1.585172987110981e-8 5.879582504818496e-9
          9.480951236465483e-9 4.370941493258783e-9 3.118491584904008e-9 7.2246692181358735e-9 5.283668139435375e-9 1.2352094633110474e-8
          1.3405904346811265e-8 9.530868524682511e-9 7.085284202755216e-9 1.037655627445393e-8 7.75638929661577e-9 5.553912450179461e-11
          5.3537625944479724e-11 1.246388747986186e-10 1.1960438886361948e-10 3.3474031588410084e-11 7.77889997126125e-11 7.45630968299811e-11
          4.834501305282542e-11 1.0586185247529148e-10 6.598907757001985e-11 4.2864622400283253e-10 4.089417410913326e-10 2.582034701826134e-10
          3.5519472760750655e-10 4.183591334929134e-11 8.636814724037033e-11 2.8235738972331313e-11 5.3701317441925963e-11 3.489302629715054e-11
          6.487809840955204e-11 4.491271574276494e-11 2.8132426694049276e-10 1.7648475277951942e-10 2.0312483643097376e-10 1.4077084575348256e-9
          1.335353588403806e-9 9.075537347899147e-10 8.602708525702136e-10 1.1400002450517895e-9 7.327579027300666e-10 4.008101230853337e-9
          3.793206314034191e-9 3.2109298396004303e-9 8.772280686984876e-10 5.621813243013663e-10 6.100844910131757e-10 3.896031753437741e-10
          2.4247687915960263e-9 1.632318469037389e-9 2.8061103745114116e-11 4.533506469902568e-11 2.4006097659191677e-11 3.4956825097226264e-11
          2.4854082876023845e-11 3.649642503772533e-11 2.869885034848163e-11 1.3385091439238019e-10 1.0159918319309449e-10 9.818408314993974e-11
          3.852237871151641e-10 2.4470947224023593e-10 2.2219238427077307e-10 1.4034539716896114e-10 9.836450129125254e-10 6.334157757027263e-10
          5.361305189554389e-10 6.879768785598268e-11 1.1737152847153835e-10 4.312483981540537e-11 7.387365956968161e-11 1.6965995313240337e-10
          8.673796644626502e-9 8.247905490568945e-9 7.059550704573361e-9 1.3186908574873366e-8 1.2704312322941577e-8 1.1240688888435128e-8
          5.379624626304571e-9 3.6121989192142195e-9 2.4025975233006133e-9 8.913817667734316e-9 6.177538293868141e-9 1.4041750343792484e-8
          1.3943585972633807e-8 1.3168719676697093e-8 1.3192937457543997e-8 1.3426440498861672e-8 1.3286293033256116e-8 1.1159335768966829e-8
          8.155391321623995e-9 5.667490806848158e-9 1.1723455856529553e-8 8.824249435551727e-9 2.1323403090653405e-9 1.3968352125638817e-9
          1.1170919530264331e-9 7.222151094550368e-10 3.690327837040759e-9 2.4588712073291496e-9 1.911168733080444e-9 3.390495509920502e-10
          5.65875413159403e-10 5.026133592361963e-9 3.3922609033419978e-9 2.6239349222923355e-9 1.7296839427751493e-9 5.534356874046545e-9
          3.7535922117064684e-9 2.908633273982122e-9 7.725779412058215e-10 8.568067311360885e-10 2.2538852518680187e-10 1.0905901168294907e-9
          2.3218314638138208e-10 4.170168803506508e-9 1.485983930224792e-8 6.23141534388896e-9 2.7352611473958144e-9 6.233294430191174e-8
          4.710812991026423e-8 4.490144350541322e-8 7.562472257755609e-8 8.83200266103146e-9 6.482786282121497e-10 5.553043787361271e-10
          1.0967823414765367e-10 2.850113747355403e-10 1.6878706591038818e-10 3.6016488782129223e-10 4.3474245529665925e-10 1.8611690973477494e-10
          2.211462449591747e-10 3.737509634498334e-10 2.0306436013063434e-9 1.3763447453308637e-9 1.2341548416716393e-9 1.7904712436443746e-9
          5.267757382123713e-10 4.896747785889515e-10 1.0084039745321082e-9 1.4238148733555695e-9 4.083271833123618e-10 6.744527597405332e-10
          6.227728055981412e-10 4.859841148438175e-10 5.622064465564117e-9 4.48810043340517e-9 7.733942308061505e-9 7.909116648844705e-10
          3.090073094842448e-9 9.913497141976248e-10 3.0858605239320624e-10 2.983634802479326e-10 6.561289716823675e-10 6.314661299254799e-10
          2.695232714662127e-10 5.630626030856414e-10 1.9985651171327834e-9 1.913728808315431e-9 1.680617708948027e-9 2.2826728452375028e-10
          4.660559798259025e-10 1.8303010498524839e-10 3.5941632518440436e-10 1.3551822975282642e-9 1.0055747203601739e-9 5.544884921231154e-9
          5.295270317882712e-9 4.6101039597177365e-9 1.326635659809567e-8 1.2649391779497995e-8 1.0961456384405274e-8 3.6554559496732732e-9
          2.638861799835796e-9 8.62012748334996e-9 6.1412305437375e-9 1.4855410245791372e-10 2.577717208848461e-10 1.3667692916306485e-10
          2.095008330499982e-10 6.854469156493745e-10 5.136400411286401e-10 2.328706106948784e-10 1.7425484691598301e-9 7.407945772224168e-10
          1.0578354632741424e-9 3.956629110500123e-9 1.6795159323726942e-9 2.3120421930383728e-9 5.093160128645832e-10 3.4115382856349623e-10
          1.1861518287367047e-9 8.110363902773137e-10 2.514090722646642e-8 2.411601741028906e-8 2.114215283436537e-8 3.154350910055366e-8
          3.116767870345086e-8 2.9358315984133976e-8 1.6739438049304785e-8 1.1908909023846557e-8 2.500581588889367e-8 1.8551433354582326e-8
          2.620705021154573e-8 2.7334819586844852e-8 2.932446575953356e-8 2.1172494977893924e-8 2.2995184827107706e-8 2.7009266886963843e-8
          2.861667689054296e-8 2.316884319548672e-8 2.87647351146263e-8 2.4572553346361706e-8 7.618250185660016e-9 3.284094329015862e-9
          4.375899400426008e-9 1.2019177985939078e-8 5.316124786382739e-9 6.90425406510435e-9 2.3806649984869777e-9 1.6624753931309876e-9
          3.939423369009921e-9 2.802125996866978e-9 1.5504559703963945e-8 7.0275669239780264e-9 8.991300339747645e-9 1.677519803270221e-8
          7.685357665957652e-9 9.788180197385647e-9 5.285369282862104e-9 3.807209355517404e-9 5.810548626213698e-9 4.2045304536356e-9
          1.0740711934388027e-10 1.8180327771531713e-10 2.674824352020778e-10 4.092679216205739e-10 5.299963379912548e-10 8.00709824789205e-10
          8.779930793938857e-10 1.3125662599241267e-9 1.1926386314423263e-9 1.7707458265555028e-9 1.3202642787623291e-9 1.9554423756867683e-9
        </DataArray>
        <DataArray type="Float64" Name="gradient_matprop_error" format="ascii" RangeMin="0" RangeMax="0">
          0 0 0 0 0 0
          0 0 0 0 0 0
          0 0 0 0 0 0
          0 0 0 0 0 0
          0 0 0 0 0 0
          0 0 0 0 0 0
          0 0 0 0 0 0
          0 0 0 0 0 0
          0 0 0 0 0 0
          0 0 0 0 0 0
          0 0 0 0 0 0
          0 0 0 0 0 0
          0 0 0 0 0 0
          0 0 0 0 0 0
          0 0 0 0 0 0
          0 0 0 0 0 0
          0 0 0 0 0 0
          0 0 0 0 0 0
          0 0 0 0 0 0
          0 0 0 0 0 0
          0 0 0 0 0 0
          0 0 0 0 0 0
          0 0 0 0 0 0
          0 0 0 0 0 0
          0 0 0 0 0 0
          0 0 0 0 0 0
          0 0 0 0 0 0
          0 0 0 0 0 0
          0 0 0 0 0 0
          0 0 0 0 0 0
          0 0 0 0 0 0
          0 0 0 0 0 0
          0 0 0 0 0 0
          0 0 0 0 0 0
          0 0 0 0 0 0
          0 0 0 0 0 0
          0 0 0 0 0 0
          0 0 0 0 0 0
          0 0 0 0 0 0
          0 0 0 0 0 0
          0 0 0 0 0 0
          0 0 0 0 0 0
          0 0 0 0 0 0
          0 0 0 0 0 0
          0 0 0 0 0 0
          0 0 0 0 0 0
          0 0 0 0 0 0
          0 0 0 0 0 0
          0 0 0 0 0 0
          0 0 0 0 0 0
          0 0 0 0 0 0
          0 0 0 0 0 0
          0 0 0 0 0 0
          0 0 0 0 0 0
          0 0 0 0 0 0
          0 0 0 0 0 0
          0 0 0 0 0 0
          0 0 0 0 0 0
          0 0 0 0 0 0
          0 0 0 0 0 0
          0 0 0 0 0 0
          0 0 0 0 0 0
          0 0 0 0 0 0
          0 0 0 0 0 0
          0 0 0 0 0 0
          0 0 0 0 0 0
          0 0 0 0 0 0
          0 0 0 0 0 0
          0 0 0 0 0 0
          0 0 0 0 0 0
          0 0 0 0 0 0
          0 0 0 0 0 0
          0 0 0 0 0 0
          0 0 0 0 0 0
          0 0 0 0 0 0
          0 0 0 0 0 0
          0 0 0 0 0 0
          0 0 0 0 0 0
        </DataArray>
        <DataArray type="Float64" Name="initial_marker" format="ascii" RangeMin="0" RangeMax="2">
          2 0 0 0 0 2
          2 2 0 0 0 0
          0 0 0 0 0 0
          0 0 0 2 2 0
          2 2 0 2 2 2
          2 2 2 0 2 2
          2 2 2 2 2 2
          2 2 0 0 2 2
          0 1.5 2 0 0.75 0
          0 2 2 2 2 2
          0 0 0 0 0 0
          0 0 0 0 0 0
          0 0 0 0 0 0
          0 0 0 0 0 0
          0 0 0 0 0 0
          0 0 0 0 0 0
          0 0 1 1 1 2
          0 0 1 1 0 1
          1 0 1 1 2 2
          2 2 0 1 1 2
          0 1 0 1 0 1
          1 2 2 2 2 2
          2 2 2 2 2 2
          2 2 2 2 2 2
          2 2 2 2 2 2
          2 2 2 2 0 0.5
          0 1.5 0 0.5 0 0.5
          0 0 0 1.5 1.5 2
          2 2 2 2 2 2
          2 2 2 2 2 2
          2 2 2 2 2 2
          2 2 2 2 2 2
          2 2 2 2 2 2
          2 2 2 2 2 2
          2 2 2 2 2 2
          2 2 2 2 2 2
          2 2 2 2 2 2
          2 2 2 2 2 2
          2 2 2 2 2 0
          0 1 1 0 1 1
          0 1 1 2 2 2
          2 0 1 0 1 0
          0.75 0.6666666666666666 2 2 1.75 2
          2 2 2 2 2 2
          2 2 2 2 2 2
          2 2 0 0.25 0 0
          0 0 0 1.25 1.3333333333333333 1.3333333333333333
          2 2 2 1.75 2 2
          2 1 1.5 0.5 1.25 2
          2 2 2 2 2 2
          2 2 2 2 2 2
          2 2 2 2 2 2
          2 2 2 2 2 2
          2 2 2 2 2 2
          2 2 2 2 2 2
          2 2 2 2 0 0
          0 0 0 0 0 1
          1 0.5 1 0 0 0
          0 0 0 0 1 1
          0 0 0 0 0 0
          0 0 0 0 0 0
          0 0 0.5 0.25 0.5 0
          0 0 0 0 1 1
          0 1 2 2 2 0
          1 0 1 2 2 2
          2 2 2 2 2 2
          2 2 2 0 0.5 0
          0 1.5 1.3333333333333333 1.3333333333333333 2 2
          2 2 2 2 2 2
          2 2 2 2 2 2
          2 2 2 2 2 2
          2 2 2 2 2 2
          2 2 2 2 2 2
          2 2 2 2 2 2
          2 2 2 2 2 2
          2 2 2 2 2 2
          1 1.5 2 2 2 2
          2 2 2 2 2 2
        </DataArray>
        <DataArray type="Float64" Name="markers_norefine" format="ascii" RangeMin="0" RangeMax="2">
          0 0 0 0 0 0
          0 0 0 0 0 0
          0 0 0 0 0 0
          0 0 0 0 0 0
          0 0 0 0 0 0
          0 0 0 0 0.5 0.25
          0 0 0 0 2 1.5
          0 0 0 0 0 0
          0 0 0 0 0 0
          0 0 0 0 0 0
          0 0 0 0 0 0
          0 0 0 0 0 0
          0 0 0 0 0 0
          0 0 0 0 0 0
          0 0 0 0 0 0
          0 0 0 0 0 0
          0 0 0 0 0 0
          0 0 0 0 0 0
          0 0 0 0 0 0
          0 0 0 0 0 0
          0 0 0 0 0 0
          0 0 0 0 0 0
          0 0 0 0 0 0
          0 0 0 0 0 0
          0 0 0 0 0 0
          0 0 0 0 0 0
          0 0 0 0 0 0
          0 0 0 0 0 0
          0 0 0 0 0 0
          0 0 0.5 0 0 0
          0 0 0 0 0 0
          0 0 0 0 0 0
          0 0 0 0 0 1.5
          1.5 1 2 0.5 0.5 0
          0 0.25 0 1 1 0
          0.5 0.25 0 0.5 0 0
          0 0 0 0 0 0
          0 0 0 0 0 0
          0 0 0 0 0 0
          0 0 0 0 0 0
          0 0 0 0 0 0
          0 0 0 0 0 0
          0 0 0 0 0 0
          0 0 0 0 0 0
          0 0 0 0 0 0
          0 0 0 0 0 0
          0 0 0 0 0 0
          0 0 0 0 0 0
          0 0 0 0 0 0
          0 0 0 0 0 0
          0 0 0 0 0 0
          0 0 0 0 0 0
          0 0 0 0 0 0
          0 0 0 0 0 0
          0 0 0 0 0 0
          0 0 0 0 0 0
          0 0 0 0 0 0
          0 0 0 0 0 0
          0 0 0 0 0 0
          0 0 0 0 0 0
          0 0 0 0 0 0
          0 0 0 0 0 0
          0 0 0 0 0 0
          0 0 0 0 0 0
          0 0 0 0 0 0
          0 0 0 0 0 0
          0 0 0 0 0 0
          0 0 0 0 0 0
          0 0 0 0 0 0
          0 0 0 0 0 1
          1 0.75 0 0 0.25 0
          2 2 1.75 2 2 2
          0.75 0 1 0 0 0
          0 0 0 0 0 0
          0 0 0 0 0 0
          0 0 0 0 0 0
          0 0 0 0 0 0
          0 0 0 0 0 0
        </DataArray>
        <DataArray type="Float64" Name="markers_mustrefine" format="ascii" RangeMin="0" RangeMax="2">
          2 0 0 0 0 2
          2 2 0 0 0 0
          0 0 0 0 0 0
          0 0 0 2 2 0
          2 2 0 2 2 2
          2 2 2 0 2 2
          2 2 2 2 2 2
          2 2 0 0 2 2
          0 1.5 2 0 0.75 0
          0 2 2 2 2 2
          0 0 0 0 0 0
          0 0 0 0 0 0
          0 0 0 0 0 0
          0 0 0 0 0 0
          0 0 0 0 0 0
          0 0 0 0 0 0
          0 0 1 1 1 2
          0 0 1 1 0 1
          1 0 1 1 2 2
          2 2 0 1 1 2
          0 1 0 1 0 1
          1 2 2 2 2 2
          2 2 2 2 2 2
          2 2 2 2 2 2
          2 2 2 2 2 2
          2 2 2 2 0 0.5
          0 1.5 0 0.5 0 0.5
          0 0 0 1.5 1.5 2
          2 2 2 2 2 2
          2 2 2 2 2 2
          2 2 2 2 2 2
          2 2 2 2 2 2
          2 2 2 2 2 2
          2 2 2 2 2 2
          2 2 2 2 2 2
          2 2 2 2 2 2
          2 2 2 2 2 2
          2 2 2 2 2 2
          2 2 2 2 2 0
          0 1 1 0 1 1
          0 1 1 2 2 2
          2 0 1 0 1 0
          0.75 0.6666666666666666 2 2 1.75 2
          2 2 2 2 2 2
          2 2 2 2 2 2
          2 2 0 0.25 0 0
          0 0 0 1.25 1.3333333333333333 1.3333333333333333
          2 2 2 1.75 2 2
          2 1 1.5 0.5 1.25 2
          2 2 2 2 2 2
          2 2 2 2 2 2
          2 2 2 2 2 2
          2 2 2 2 2 2
          2 2 2 2 2 2
          2 2 2 2 2 2
          2 2 2 2 0 0
          0 0 0 0 0 1
          1 0.5 1 0 0 0
          0 0 0 0 1 1
          0 0 0 0 0 0
          0 0 0 0 0 0
          0 0 0.5 0.25 0.5 0
          0 0 0 0 1 1
          0 1 2 2 2 0
          1 0 1 2 2 2
          2 2 2 2 2 2
          2 2 2 0 0.5 0
          0 1.5 1.3333333333333333 1.3333333333333333 2 2
          2 2 2 2 2 2
          2 2 2 2 2 2
          2 2 2 2 2 2
          2 2 2 2 2 2
          2 2 2 2 2 2
          2 2 2 2 2 2
          2 2 2 2 2 2
          2 2 2 2 2 2
          1 1.5 2 2 2 2
          2 2 2 2 2 2
        </DataArray>
        <DataArray type="Float64" Name="gradient_marker" format="ascii" RangeMin="0" RangeMax="1">
          1 1 0.75 1 1 1
          1 1 1 1 0.5 0
          1 1 1 1 1 1
          1 1 1 1 1 1
          1 1 1 1 1 1
          1 1 1 1 1 1
          1 1 1 1 1 1
          1 1 1 1 1 1
          1 1 1 1 1 1
          1 1 1 1 1 1
          0 0 0 0 0.5 0.5
          1 0.5 1 1 1 1
          1 1 1 1 1 1
          0.5 0.5 1 1 0.5 0.5
          1 1 1 1 1 1
          1 1 1 1 1 1
          1 1 1 1 1 1
          1 1 1 1 1 1
          1 1 1 1 1 1
          1 1 1 1 1 1
          1 1 1 1 1 1
          1 1 1 1 1 1
          1 1 1 1 1 1
          1 1 1 1 1 1
          1 1 1 1 1 1
          1 1 1 1 1 1
          1 1 1 1 1 1
          1 1 1 1 1 1
          1 1 1 1 1 1
          1 1 1 1 1 1
          1 1 1 1 1 1
          1 1 1 1 1 1
          1 1 1 1 1 1
          1 1 1 1 1 1
          1 1 1 1 1 1
          1 1 1 1 1 1
          1 1 1 1 1 1
          1 1 1 1 1 1
          1 1 1 1 1 1
          1 1 1 1 1 1
          1 1 1 1 1 1
          1 1 1 1 1 1
          1 1 1 1 1 1
          1 1 1 1 1 1
          1 1 1 1 1 1
          1 1 1 1 1 1
          1 1 1 1 1 1
          1 1 1 1 1 1
          1 1 1 1 1 1
          1 1 1 1 1 1
          1 1 1 1 1 1
          1 1 1 1 1 1
          1 1 1 1 1 1
          1 1 1 1 1 1
          1 1 1 1 1 1
          1 1 1 1 1 1
          1 0.875 0 0.25 0.5 0.125
          0.125 0.375 0.3333333333333333 0.25 1 1
          1 1 1 1 1 1
          1 1 0 0.5 0.5 0
          1 1 0.5 0 1 1
          1 1 0.5 0.5 0 1
          0.5 1 1 1 1 1
          1 1 1 1 1 1
          1 1 1 1 1 1
          1 1 1 1 1 1
          1 1 1 1 1 1
          1 1 1 1 1 1
          1 1 1 1 1 1
          1 1 1 1 1 1
          1 1 1 1 1 1
          1 1 1 1 1 1
          1 1 1 1 1 1
          1 1 1 1 1 1
          1 1 1 1 1 1
          1 1 1 1 1 1
          1 1 1 1 1 1
          1 1 1 1 1 1
        </DataArray>
        <DataArray type="Float64" Name="gradient_matprop_marker" format="ascii" RangeMin="0" RangeMax="0">
          0 0 0 0 0 0
          0 0 0 0 0 0
          0 0 0 0 0 0
          0 0 0 0 0 0
          0 0 0 0 0 0
          0 0 0 0 0 0
          0 0 0 0 0 0
          0 0 0 0 0 0
          0 0 0 0 0 0
          0 0 0 0 0 0
          0 0 0 0 0 0
          0 0 0 0 0 0
          0 0 0 0 0 0
          0 0 0 0 0 0
          0 0 0 0 0 0
          0 0 0 0 0 0
          0 0 0 0 0 0
          0 0 0 0 0 0
          0 0 0 0 0 0
          0 0 0 0 0 0
          0 0 0 0 0 0
          0 0 0 0 0 0
          0 0 0 0 0 0
          0 0 0 0 0 0
          0 0 0 0 0 0
          0 0 0 0 0 0
          0 0 0 0 0 0
          0 0 0 0 0 0
          0 0 0 0 0 0
          0 0 0 0 0 0
          0 0 0 0 0 0
          0 0 0 0 0 0
          0 0 0 0 0 0
          0 0 0 0 0 0
          0 0 0 0 0 0
          0 0 0 0 0 0
          0 0 0 0 0 0
          0 0 0 0 0 0
          0 0 0 0 0 0
          0 0 0 0 0 0
          0 0 0 0 0 0
          0 0 0 0 0 0
          0 0 0 0 0 0
          0 0 0 0 0 0
          0 0 0 0 0 0
          0 0 0 0 0 0
          0 0 0 0 0 0
          0 0 0 0 0 0
          0 0 0 0 0 0
          0 0 0 0 0 0
          0 0 0 0 0 0
          0 0 0 0 0 0
          0 0 0 0 0 0
          0 0 0 0 0 0
          0 0 0 0 0 0
          0 0 0 0 0 0
          0 0 0 0 0 0
          0 0 0 0 0 0
          0 0 0 0 0 0
          0 0 0 0 0 0
          0 0 0 0 0 0
          0 0 0 0 0 0
          0 0 0 0 0 0
          0 0 0 0 0 0
          0 0 0 0 0 0
          0 0 0 0 0 0
          0 0 0 0 0 0
          0 0 0 0 0 0
          0 0 0 0 0 0
          0 0 0 0 0 0
          0 0 0 0 0 0
          0 0 0 0 0 0
          0 0 0 0 0 0
          0 0 0 0 0 0
          0 0 0 0 0 0
          0 0 0 0 0 0
          0 0 0 0 0 0
          0 0 0 0 0 0
        </DataArray>
        <DataArray type="Float64" Name="combo" format="ascii" RangeMin="0" RangeMax="2">
          1 1 0.75 1 1 1
          1 1 1 1 0.5 0
          1 1 1 1 1 1
          1 1 1 1 1 1
          1 1 1 1 1 1
          1 1 1 1 1.25 1.125
          1 1 1 1 2 1.75
          1 1 1 1 1 1
          1 1 1 1 1 1
          1 1 1 1 1 1
          0 0 0 0 0.5 0.5
          1 0.5 1 1 1 1
          1 1 1 1 1 1
          0.5 0.5 1 1 0.5 0.5
          1 1 1 1 1 1
          1 1 1 1 1 1
          1 1 1 1 1 1
          1 1 1 1 1 1
          1 1 1 1 1 1
          1 1 1 1 1 1
          1 1 1 1 1 1
          1 1 1 1 1 1
          1 1 1 1 1 1
          1 1 1 1 1 1
          1 1 1 1 1 1
          1 1 1 1 1 1
          1 1 1 1 1 1
          1 1 1 1 1 1
          1 1 1 1 1 1
          1 1 1.25 1 1 1
          1 1 1 1 1 1
          1 1 1 1 1 1
          1 1 1 1 1 1.75
          1.75 1.5 2 1.25 1.25 1
          1 1.125 1 1.5 1.5 1
          1.25 1.125 1 1.25 1 1
          1 1 1 1 1 1
          1 1 1 1 1 1
          1 1 1 1 1 1
          1 1 1 1 1 1
          1 1 1 1 1 1
          1 1 1 1 1 1
          1 1 1 1 1 1
          1 1 1 1 1 1
          1 1 1 1 1 1
          1 1 1 1 1 1
          1 1 1 1 1 1
          1 1 1 1 1 1
          1 1 1 1 1 1
          1 1 1 1 1 1
          1 1 1 1 1 1
          1 1 1 1 1 1
          1 1 1 1 1 1
          1 1 1 1 1 1
          1 1 1 1 1 1
          1 1 1 1 1 1
          1 0.875 0 0.25 0.5 0.125
          0.125 0.375 0.3333333333333333 0.25 1 1
          1 1 1 1 1 1
          1 1 0 0.5 0.5 0
          1 1 0.5 0 1 1
          1 1 0.5 0.5 0 1
          0.5 1 1 1 1 1
          1 1 1 1 1 1
          1 1 1 1 1 1
          1 1 1 1 1 1
          1 1 1 1 1 1
          1 1 1 1 1 1
          1 1 1 1 1 1
          1 1 1 1 1 1.5
          1.5 1.375 1 1 1.125 1
          2 2 1.875 2 2 2
          1.375 1 1.5 1 1 1
          1 1 1 1 1 1
          1 1 1 1 1 1
          1 1 1 1 1 1
          1 1 1 1 1 1
          1 1 1 1 1 1
        </DataArray>
        <DataArray type="Float64" Name="dHdT" format="ascii" RangeMin="25.808275830778793" RangeMax="59.005646620663484">