<?xml version="1.0"?>
<VTKFile type="UnstructuredGrid" version="0.1" byte_order="LittleEndian" header_type="UInt32" compressor="vtkZLibDataCompressor">
  <UnstructuredGrid>
    <Piece NumberOfPoints="1312" NumberOfCells="920">
      <PointData>
        <DataArray type="Int32" Name="libmesh_node_id" format="ascii" RangeMin="1969" RangeMax="9012">
          2175 2183 2777 2779 2781 2785
          2786 2789 2795 2803 2812 2817
          2818 2819 2822 2823 2825 2829
          3677 3714 3715 3718 3728 3729
          3730 3731 3732 3733 3734 3735
          3736 3737 3738 3739 3740 3741
          3742 3743 3744 3747 3749 3757
          3758 3759 3760 3761 3762 3763
          3764 3765 3766 3767 3768 3771
          3772 3774 3776 3777 3779 3787
          3826 3827 3830 3860 3861 3864
          3887 3888 3889 3890 3891 3894
          3898 3919 3920 3921 3922 3923
          3924 3925 3928 3932 3933 3934
          3935 3936 3937 3938 3939 3940
          3941 3942 3943 3944 3955 3956
          3957 3958 3959 3960 3961 3962
          3963 3964 3965 3966 3967 3968
          3979 3980 3981 3982 3983 3984
          3985 3986 3988 3990 3992 4007
          4008 4009 4010 4011 4012 4013
          4014 4016 4018 4020 5241 5242
          5243 5244 5245 5246 5247 5248
          5249 5250 5251 5252 5253 5254
          5255 5256 5257 5258 5259 5260
          5261 5262 5263 5264 6489 6493
          6494 6497 6691 6701 6718 6719
          6722 6725 6726 6729 6759 6786
          6787 6790 6793 6797 6798 6799
          6800 6801 6802 6803 6804 6805
          6806 6807 6808 6809 6810 6811
          6812 6813 6814 6815 6816 6817
          6818 6819 6820 6821 6822 6823
          6824 6825 6826 6827 6828 6829
          6830 6831 6832 6833 6834 6835
          6836 6837 6838 6839 6840 6841
          6842 6843 6844 6845 6846 6847
          6848 6850 6851 6852 6853 6854
          6855 6856 6857 6858 6859 6860
          6861 6862 6863 6864 6865 6866
          6867 6868 6869 6870 6871 6872
          6873 6874 6875 6876 6877 6878
          6879 6880 6881 6882 6883 6884
          6885 6886 6887 6888 6889 6890
          6891 6892 6893 6894 6895 6896
          6897 6898 6899 6900 6901 6902
          6903 6904 6905 6906 6907 6908
          6909 6910 6911 6912 6913 6914
          6915 6916 6917 6918 6919 6920
          6921 6922 6925 6926 6928 6930
          6931 6932 6933 6934 6935 6936
          6937 6938 6939 6940 6941 6942
          6945 6946 6948 6950 6951 6952
          6953 6954 6955 6956 6957 6958
          6959 6961 6962 6963 6964 6965
          6966 6967 6968 6969 6971 6972
          6973 6974 6975 6976 6977 6978
          6979 6981 6982 6983 6984 6985
          6986 6987 6988 7071 7072 7073
          7074 7075 7076 7077 7078 7079
          7080 7091 7092 7093 7094 7095
          7096 7097 7098 7099 7100 7273
          7274 7275 7276 7277 7278 7279
          7280 7281 7282 7297 7298 7299
          7300 7301 7302 7303 7304 7305
          7306 7457 7458 7459 7460 7461
          7462 7463 7464 7465 7466 7467
          7468 7469 7470 7474 7480 7481
          7484 7485 7486 7487 7488 7489
          7490 7491 7492 7493 7494 7495
          7496 7497 7498 7513 7514 7515
          7516 7517 7518 7519 7522 7526
          7529 7533 7541 7542 7543 7544
          7545 7546 7547 7550 7554 7694
          7700 7701 7703 7704 7705 7706
          7707 7708 7709 7710 7711 7712
          7713 7714 7715 7716 7717 7718
          7722 7726 7727 7728 7729 7730
          7731 7732 7733 7734 7735 7736
          7737 7738 7739 7740 7741 7742
          7743 7744 7745 7746 7749 7751
          7753 7761 7762 7763 7764 7765
          7766 7767 7770 7774 7775 7777
          7779 7781 7789 7790 7791 7792
          7793 7794 7795 7798 7802 7803
          7804 7805 7806 7807 7808 7809
          7810 7811 7812 7813 7814 7815
          7816 7817 7818 7819 7820 7821
          7822 7823 7824 7825 7826 7827
          7828 7829 7830 7831 7832 7833
          7834 7835 7836 7837 7838 7839
          7840 7841 7842 7843 7845 7846
          7847 7850 7851 7867 7869 7870
          7871 7874 7875 7887 7888 7889
          7890 7891 7892 7893 7894 7895
          7896 7897 7898 7899 7900 7901
          7902 7903 7904 7905 7906 7907
          7908 7909 7910 7911 7912 7913
          7914 7915 7916 7917 7918 7919
          7920 7921 7922 7923 7924 7925
          7926 7927 7929 7930 7931 7934
          7935 7947 7949 7950 7951 7954
          7955 7967 7968 7969 7970 7971
          7972 7973 7974 7975 7976 7977
          7978 7979 7980 7981 7982 7983
          7984 7985 7986 7987 7988 7989
          7990 7991 7992 7993 7994 7995
          7996 7997 7998 7999 8000 8001
          8002 8003 8004 8005 8006 8007
          8008 8009 8010 8011 8012 8013
          8014 8015 8016 8017 8018 8019
          8020 8021 8022 8023 8024 8025
          8026 8027 8028 8029 8030 8032
          8034 8036 8037 8038 8039 8040
          8041 8042 8043 8044 8046 8048
          8050 8051 8052 8053 8054 8055
          8056 8057 8058 8060 8062 8064
          8065 8066 8067 8068 8069 8070
          8071 8072 8076 8079 8080 8083
          8084 8086 8087 8090 8091 8113
          8114 8117 8118 8120 8121 8124
          8125 8141 8142 8145 8146 8148
          8152 8175 8179 8203 8204 8205
          8206 8207 8208 8209 8210 8211
          8212 8213 8214 8215 8216 8217
          8218 8219 8220 8221 8222 8223
          8224 8225 8226 8227 8228 8229
          8230 8231 8232 8233 8234 8235
          8236 8237 8238 8239 8240 8241
          8242 8243 8244 8245 8246 8247
          8248 8249 8250 8251 8252 8253
          8254 8255 8256 8257 8258 8259
          8260 8261 8262 8263 8264 8265
          8266 8268 8270 8272 8273 8274
          8275 8276 8277 8278 8279 8280
          8284 8287 8288 8289 8290 8291
          8292 8293 8294 8296 8298 8300
          8301 8302 8303 8304 8305 8306
          8307 8308 8312 8315 8316 8319
          8320 8322 8323 8326 8327 8343
          8344 8347 8348 8350 8351 8354
          8355 2142 2757 2778 2668 2651
          2758 2669 2782 1969 2783 2672
          2780 2179 2784 2144 2763 2674
          2787 2147 2788 2792 2793 2790
          1980 2791 2794 2691 2802 2704
          2820 2706 2708 2824 1975 3675
          3667 3676 3680 3748 3750 3751
          3752 3745 3753 3754 3746 3756
          3723 2773 3769 3724 3725 3770
          3773 3778 3780 3781 3782 3783
          3788 3789 3790 3791 3792 3793
          3669 3678 3818 3824 3820 3822
          3828 3852 3858 3854 3856 3862
          2807 3948 3945 3952 3947 3823
          3627 3605 3853 3637 3639 2150
          3857 3641 3972 3969 3976 3971
          5204 5199 5205 2173 5206 2759
          5231 5232 2771 5233 3713 2772
          5238 5239 2176 5240 6469 6471
          6474 6473 6475 6476 6477 6467
          6488 6491 6492 6490 6495 6496
          6683 6687 6689 6685 6688 6690
          6693 6697 6699 6695 6698 6700
          6716 6717 6720 6721 6723 6724
          6727 6728 6751 6755 6757 6753
          6756 6758 6784 6785 6788 6789
          6767 6769 6791 6768 6792 6794
          6795 6796 2178 6472 6466 6849
          3755 6686 6696 6754 6923 6924
          6927 6929 3775 6943 6944 6947
          6949 2796 6960 3784 6970 3785
          6980 3794 6989 6990 3795 6487
          7062 7066 3679 7067 7070 3825
          7082 7086 7087 7090 3829 7262
          7268 7269 7272 3859 7286 7292
          7293 7296 3863 6708 7445 3716
          7446 7449 3885 6715 7452 3717
          7453 7456 3886 7447 7448 7471
          7472 7473 7475 7476 7477 7454
          7478 7455 7479 7482 7483 6776
          7501 3726 7502 7505 3892 6783
          7508 7520 7521 7523 7512 7524
          7525 3895 7503 7527 7504 7528
          7530 7531 7532 3896 7536 7548
          7549 7551 7540 7552 7553 2813
          7691 7692 7693 7695 7696 7697
          7698 7699 7584 7585 7588 3904
          7702 7719 7720 7721 7723 7724
          7725 3903 7612 7618 7619 3908
          7622 2815 7747 7748 7750 7645
          7649 7646 3913 7752 3926 7756
          7768 7769 7771 7760 7772 7773
          3929 7679 7680 7776 7778 7683
          3918 7780 3930 7784 7796 7797
          7799 7788 7800 7801 2184 7848
          7844 7849 7852 3949 7872 7868
          7873 7876 3953 7932 7928 7933
          7936 3973 7952 7948 7953 7956
          3977 8031 8033 8035 3987 8045
          8047 8049 3989 8059 8061 8063
          3991 8073 8074 8075 8077 8078
          2826 8081 8082 8085 3993 8088
          8089 8092 3994 8115 8116 8119
          3997 8122 8123 8126 3998 8143
          8144 8147 4000 8149 8150 8151
          8153 8154 4001 8176 8177 8178
          8180 8181 4004 8182 8183 8184
          8185 8186 8267 8269 8271 4015
          8281 8282 8283 8285 8286 4017
          8295 8297 8299 4019 8309 8310
          8311 8313 8314 2830 8317 8318
          8321 4021 8324 8325 8328 4022
          8345 8346 8349 4025 8352 8353
          8356 4026 8371 8372 8373 8374
          8375 8376 8377 8378 8382 8399
          8400 8401 8403 8404 8405 8406
          8410 8947 9003 8948 9004 9007
          9008 8952 9010 9012
        </DataArray>
        <DataArray type="Float64" Name="bounds" format="ascii" RangeMin="0" RangeMax="0">
          0 0 0 0 0 0
          0 0 0 0 0 0
          0 0 0 0 0 0
          0 0 0 0 0 0
          0 0 0 0 0 0
          0 0 0 0 0 0
          0 0 0 0 0 0
          0 0 0 0 0 0
          0 0 0 0 0 0
          0 0 0 0 0 0
          0 0 0 0 0 0
          0 0 0 0 0 0
          0 0 0 0 0 0
          0 0 0 0 0 0
          0 0 0 0 0 0
          0 0 0 0 0 0
          0 0 0 0 0 0
          0 0 0 0 0 0
          0 0 0 0 0 0
          0 0 0 0 0 0
          0 0 0 0 0 0
          0 0 0 0 0 0
          0 0 0 0 0 0
          0 0 0 0 0 0
          0 0 0 0 0 0
          0 0 0 0 0 0
          0 0 0 0 0 0
          0 0 0 0 0 0
          0 0 0 0 0 0
          0 0 0 0 0 0
          0 0 0 0 0 0
          0 0 0 0 0 0
          0 0 0 0 0 0
          0 0 0 0 0 0
          0 0 0 0 0 0
          0 0 0 0 0 0
          0 0 0 0 0 0
          0 0 0 0 0 0
          0 0 0 0 0 0
          0 0 0 0 0 0
          0 0 0 0 0 0
          0 0 0 0 0 0
          0 0 0 0 0 0
          0 0 0 0 0 0
          0 0 0 0 0 0
          0 0 0 0 0 0
          0 0 0 0 0 0
          0 0 0 0 0 0
          0 0 0 0 0 0
          0 0 0 0 0 0
          0 0 0 0 0 0
          0 0 0 0 0 0
          0 0 0 0 0 0
          0 0 0 0 0 0
          0 0 0 0 0 0
          0 0 0 0 0 0
          0 0 0 0 0 0
          0 0 0 0 0 0
          0 0 0 0 0 0
          0 0 0 0 0 0
          0 0 0 0 0 0
          0 0 0 0 0 0
          0 0 0 0 0 0
          0 0 0 0 0 0
          0 0 0 0 0 0
          0 0 0 0 0 0
          0 0 0 0 0 0
          0 0 0 0 0 0
          0 0 0 0 0 0
          0 0 0 0 0 0
          0 0 0 0 0 0
          0 0 0 0 0 0
          0 0 0 0 0 0
          0 0 0 0 0 0
          0 0 0 0 0 0
          0 0 0 0 0 0
          0 0 0 0 0 0
          0 0 0 0 0 0
          0 0 0 0 0 0
          0 0 0 0 0 0
          0 0 0 0 0 0
          0 0 0 0 0 0
          0 0 0 0 0 0
          0 0 0 0 0 0
          0 0 0 0 0 0
          0 0 0 0 0 0
          0 0 0 0 0 0
          0 0 0 0 0 0
          0 0 0 0 0 0
          0 0 0 0 0 0
          0 0 0 0 0 0
          0 0 0 0 0 0
          0 0 0 0 0 0
          0 0 0 0 0 0
          0 0 0 0 0 0
          0 0 0 0 0 0
          0 0 0 0 0 0
          0 0 0 0 0 0
          0 0 0 0 0 0
          0 0 0 0 0 0
          0 0 0 0 0 0
          0 0 0 0 0 0
          0 0 0 0 0 0
          0 0 0 0 0 0
          0 0 0 0 0 0
          0 0 0 0 0 0
          0 0 0 0 0 0
          0 0 0 0 0 0
          0 0 0 0 0 0
          0 0 0 0 0 0
          0 0 0 0 0 0
          0 0 0 0 0 0
          0 0 0 0 0 0
          0 0 0 0 0 0
          0 0 0 0 0 0
          0 0 0 0 0 0
          0 0 0 0 0 0
          0 0 0 0 0 0
          0 0 0 0 0 0
          0 0 0 0 0 0
          0 0 0 0 0 0
          0 0 0 0 0 0
          0 0 0 0 0 0
          0 0 0 0 0 0
          0 0 0 0 0 0
          0 0 0 0 0 0
          0 0 0 0 0 0
          0 0 0 0 0 0
          0 0 0 0 0 0
          0 0 0 0 0 0
          0 0 0 0 0 0
          0 0 0 0 0 0
          0 0 0 0 0 0
          0 0 0 0 0 0
          0 0 0 0 0 0
          0 0 0 0 0 0
          0 0 0 0 0 0
          0 0 0 0 0 0
          0 0 0 0 0 0
          0 0 0 0 0 0
          0 0 0 0 0 0
          0 0 0 0 0 0
          0 0 0 0 0 0
          0 0 0 0 0 0
          0 0 0 0 0 0
          0 0 0 0 0 0
          0 0 0 0 0 0
          0 0 0 0 0 0
          0 0 0 0 0 0
          0 0 0 0 0 0
          0 0 0 0 0 0
          0 0 0 0 0 0
          0 0 0 0 0 0
          0 0 0 0 0 0
          0 0 0 0 0 0
          0 0 0 0 0 0
          0 0 0 0 0 0
          0 0 0 0 0 0
          0 0 0 0 0 0
          0 0 0 0 0 0
          0 0 0 0 0 0
          0 0 0 0 0 0
          0 0 0 0 0 0
          0 0 0 0 0 0
          0 0 0 0 0 0
          0 0 0 0 0 0
          0 0 0 0 0 0
          0 0 0 0 0 0
          0 0 0 0 0 0
          0 0 0 0 0 0
          0 0 0 0 0 0
          0 0 0 0 0 0
          0 0 0 0 0 0
          0 0 0 0 0 0
          0 0 0 0 0 0
          0 0 0 0 0 0
          0 0 0 0 0 0
          0 0 0 0 0 0
          0 0 0 0 0 0
          0 0 0 0 0 0
          0 0 0 0 0 0
          0 0 0 0 0 0
          0 0 0 0 0 0
          0 0 0 0 0 0
          0 0 0 0 0 0
          0 0 0 0 0 0
          0 0 0 0 0 0
          0 0 0 0 0 0
          0 0 0 0 0 0
          0 0 0 0 0 0
          0 0 0 0 0 0
          0 0 0 0 0 0
          0 0 0 0 0 0
          0 0 0 0 0 0
          0 0 0 0 0 0
          0 0 0 0 0 0
          0 0 0 0 0 0
          0 0 0 0 0 0
          0 0 0 0 0 0
          0 0 0 0 0 0
          0 0 0 0 0 0
          0 0 0 0 0 0
          0 0 0 0 0 0
          0 0 0 0 0 0
          0 0 0 0 0 0
          0 0 0 0 0 0
          0 0 0 0 0 0
          0 0 0 0 0 0
          0 0 0 0 0 0
          0 0 0 0 0 0
          0 0 0 0 0 0
          0 0 0 0 0 0
          0 0 0 0 0 0
          0 0 0 0 0 0
          0 0 0 0 0 0
          0 0 0 0 0 0
          0 0 0 0 0 0
          0 0 0 0 0 0
          0 0 0 0
        </DataArray>
        <DataArray type="Float64" Name="gradient_error" format="ascii" RangeMin="1.5358678185278265e-11" RangeMax="3.791161795768364e-8">
          4.2205974912801583e-10 2.394292392140102e-9 2.5297140015466544e-10 4.961116035613167e-9 6.007484800867914e-10 1.5454629084691674e-8
          1.8892681035832753e-10 2.7767155398021755e-10 1.0268864473464472e-10 1.4947581005061114e-9 1.1095302851188941e-9 1.873492443716692e-9
          2.0635783185481475e-8 6.050424633749833e-10 1.871193062986253e-8 9.868828816632203e-10 4.0061776593862415e-10 7.216111378639495e-10
          1.938597421038079e-10 1.406605242719097e-10 1.0390476915362334e-10 3.27150854715935e-10 1.9084153514893301e-10 1.0226736947139686e-9
          1.904265075478753e-9 1.3630129320112515e-9 3.73171209797077e-9 7.244225574592865e-10 1.1277534122137746e-9 3.45694108538856e-10
          2.70614632404603e-10 6.971911517916456e-10 8.818013768428189e-10 3.1706466815661757e-10 2.058574427294394e-9 2.9400142620164115e-10
          1.412630872498719e-9 7.091801938262669e-10 9.186707098923201e-10 5.605252060411593e-10 3.3726204072061506e-10 2.29553093634161e-10
          1.860478631408288e-10 1.590605871014686e-10 1.3358172836709276e-10 2.9097279850980424e-10 2.132862564636789e-10 1.508636533081788e-10
          2.2148796584862983e-10 1.6832973560003812e-10 1.377062452070849e-10 1.3824634391482187e-10 1.2394775996429756e-10 1.4174416548066198e-10
          1.0688366958690398e-10 1.252625745379636e-10 7.535300839932708e-11 2.2241032043597455e-10 1.544292101773317e-10 1.0743115091762114e-10
          4.787579914227479e-9 8.366990135235164e-10 7.879446101598013e-9 1.0665487391384012e-8 2.238852228018839e-9 1.1413774674141298e-8
          6.902333055555828e-10 5.610991992526241e-10 1.8255938058042081e-9 1.5787528315398903e-9 1.3000492544387728e-9 4.4324423312789967e-10
          9.20015750148424e-10 2.8339515670621066e-9 2.5228449883998543e-9 2.00166257784002e-9 1.7493841046866863e-9 2.668795122680436e-9
          2.4595880629671806e-9 2.152042717107347e-9 1.495686432491513e-9 1.6006812109224812e-9 6.385580076594764e-9 4.314291025563464e-9
          1.2929585165817123e-8 1.0706038398176332e-8 1.0576351591623997e-8 3.53959999083982e-9 5.711755018440277e-10 2.3847322136226553e-9
          3.578630897943781e-10 5.440969557948177e-9 9.952921211859614e-10 3.4653487067648173e-9 1.4225153669484943e-8 1.3586499919335033e-8
          1.155943679794223e-8 9.125369767597576e-9 1.5520722173152763e-8 1.490853639510808e-8 1.2542522004260462e-8 7.4078378029746305e-9
          1.4586965443971573e-9 4.532578556440885e-9 8.735368376675121e-10 8.170420159759074e-9 1.6174694955830363e-9 4.9934831394945066e-9
          4.578856987091516e-10 3.641669891527017e-10 2.7689928925256724e-10 2.1492741382454206e-10 8.435547955376166e-10 7.03235627353472e-10
          4.950687975329448e-10 2.82134160844452e-10 1.6312738732131348e-10 5.695853478172893e-10 3.1557705809668765e-10 1.2856033111764564e-9
          1.1098044119163194e-9 7.451237649947259e-10 6.236069855786333e-10 1.4358148977811243e-9 1.2505803833527105e-9 8.527206740232256e-10
          9.314797415778917e-10 5.071124089644653e-10 1.0607968535532736e-9 5.932774811747232e-10 3.4096099413684754e-10 4.296152913821549e-10
          3.5853896519659904e-10 2.629043066569918e-10 3.6164962716413715e-10 1.5348209951096544e-10 2.4153425339164074e-10 2.296668833544951e-10
          3.0176543531616613e-10 2.0083125903259345e-10 1.0311867519834214e-10 1.5956256549382907e-10 7.093135531935781e-11 1.0842732725649193e-10
          9.585619674386412e-11 1.327697252429024e-10 9.019356397174778e-11 5.142904925028955e-11 7.289725637196326e-11 4.511615841375292e-11
          5.868044538143859e-11 4.617596434040548e-11 6.077275555721606e-11 5.002722102728772e-11 3.730569734599972e-10 3.4232513934724144e-10
          2.892142418441572e-10 4.910042717188251e-10 1.6403629419915325e-10 1.2104781710578956e-10 2.493171139548215e-10 2.1689653716401286e-10
          3.7071066859553163e-10 1.8884743414915478e-10 1.6398568773751136e-10 2.883185488560772e-10 8.855066702562804e-11 1.4210767111677176e-10
          1.2225110024787347e-10 2.2053332528519522e-10 1.0372156706599822e-10 1.6392213292352997e-10 1.330733826586799e-10 1.513511529472702e-10
          1.369924433992359e-10 2.2724139329574783e-10 1.1547833322719142e-10 1.355360570201376e-10 8.827877618412789e-11 1.0824306883488526e-10
          1.0759870810998303e-10 1.2323110996821753e-10 9.846637743793314e-11 2.0268959678624096e-10 1.6304450621276333e-10 1.854514509278833e-10
          3.2252979254637043e-10 2.718341608866856e-10 4.5767537337003025e-10 2.937897493138519e-10 2.450539722444641e-10 2.464051524485588e-10
          2.0330289262886476e-10 4.1940721450611884e-10 3.5577338194586114e-10 3.50978725395107e-10 1.9585444566932527e-10 2.256940691746811e-10
          1.8409923546382552e-10 3.1945208841526735e-10 1.7110732186324004e-10 2.029468529033982e-10 1.3322926507503924e-10 1.64911614825272e-10
          1.3813151119710653e-10 1.6417262834686212e-10 1.3140950928966119e-10 2.88544735121365e-10 2.3809008943511256e-10 2.3230467152944386e-10
          1.2641062822628188e-10 1.4575337964939288e-10 1.2887568556157225e-10 2.0450249748642315e-10 1.1027730886371884e-10 1.295921944052469e-10
          8.483795452594295e-11 1.0265010479148744e-10 9.870086547675733e-11 1.1412618772854784e-10 8.947896151614895e-11 1.823956385262382e-10
          1.4648780758998943e-10 7.255219848728662e-11 8.928523691704988e-11 6.101711661602578e-11 7.541166057988816e-11 6.862107736605308e-11
          8.089680755154347e-11 6.826607288581391e-11 1.3700230653156706e-10 1.1701195782716583e-10 1.2340457555986008e-10 5.142649958869277e-11
          6.391798955018036e-11 4.3746621287798345e-11 5.429838113251665e-11 4.852324556958413e-11 5.765157006038954e-11 4.889992435697421e-11
          1.0034495793113524e-10 8.590429318873132e-11 9.006949988244677e-11 2.0972632501603777e-10 1.8155407056095578e-10 1.725667316393637e-10
          1.4863314004835117e-10 3.1005351672225644e-10 2.7210640706819324e-10 2.539305185011375e-10 1.5749543693259925e-10 1.3632707176271435e-10
          1.2839222626936037e-10 1.1070757495595256e-10 2.387490257246784e-10 2.0867921923601072e-10 1.9339876684592618e-10 1.1130455407229414e-10
          1.388032173523014e-10 9.490585855908206e-11 1.1894368974987713e-10 8.827996675729085e-11 1.0970204405809526e-10 9.347152405601415e-11
          2.0368818631493314e-10 1.764858500070133e-10 1.6003023905192978e-10 8.09999802723992e-11 1.0221453651028533e-10 6.90943592076691e-11
          8.773284490080226e-11 6.358278250788876e-11 7.989676437403463e-11 6.827330819565141e-11 1.5332197958607699e-10 1.3287020401353548e-10
          1.1900978035361843e-10 3.8251187044276513e-11 4.585399449247895e-11 3.6258025860310686e-11 4.1929181917843165e-11 3.571176004897149e-11
          4.14385409658644e-11 3.817886433135143e-11 7.292426472278176e-11 6.858145057781155e-11 6.557435569178454e-11 1.1775105914192494e-10
          1.0088964322981686e-10 9.514101336342287e-11 8.114245748385246e-11 1.8129163703205626e-10 1.5638207284595003e-10 1.4569745266341806e-10
          6.606368449631311e-11 8.526698136749398e-11 5.303477865985526e-11 6.843892593586813e-11 1.3391485748369879e-10 1.0693774997546505e-10
          5.892972220375261e-11 7.50871828571586e-11 4.996625960966287e-11 6.387562332032174e-11 4.5871852631244624e-11 5.823817774996335e-11
          4.943158356333543e-11 1.1457202991503932e-10 9.817758620729819e-11 8.821918606347057e-11 4.181317391576485e-11 5.384864780691349e-11
          3.254779695069434e-11 4.163750168034838e-11 8.356952241245607e-11 6.395672521663533e-11 6.985856601073147e-11 8.486518659999046e-11
          5.899980156453698e-11 7.189418917263986e-11 6.22827328596674e-11 7.354480195305126e-11 6.21256902441108e-11 1.2283828638004657e-10
          1.0501605153678912e-10 4.977522716177169e-11 6.11063206074182e-11 4.215113632524339e-11 5.202693453878899e-11 4.413555767345094e-11
          5.260906266816525e-11 4.470174858264044e-11 9.02878185900691e-11 7.75666822192945e-11 3.577062942172562e-11 4.4256826392429553e-11
          3.0237052741734156e-11 3.7481965607108435e-11 3.1675863324754414e-11 3.7964616817460044e-11 3.211692997608588e-11 6.63878316177602e-11
          5.6522624624831004e-11 2.527280979205471e-11 3.147980962357228e-11 2.102618798285614e-11 2.6292476209931068e-11 2.2312209694390508e-11
          2.6909820774700675e-11 2.2432790585214546e-11 4.782583564835427e-11 8.346835591635945e-10 7.248195494617739e-10 1.1417387677763672e-9
          7.875077698871381e-10 7.024634185776434e-10 6.807252161659462e-10 6.019404519519893e-10 1.0830755711875252e-9 9.800952677340593e-10
          9.29989869153667e-10 1.506901290978464e-9 1.2914204726206437e-9 1.9731018315445623e-9 1.4454875936159214e-9 1.3341107585113869e-9
          1.235565800888432e-9 1.1335799671761102e-9 1.902470661994549e-9 1.7746987419040135e-9 1.6065973872449519e-9 2.5202317933875706e-9
          2.1056857899973167e-9 2.7691784309670204e-9 2.4271488395814963e-9 2.275962512842917e-9 2.0271420135269262e-9 1.894253551689143e-9
          2.7467534928692917e-9 2.6720168890964004e-9 2.3291203573080746e-9 2.829851072836407e-9 2.507639597768006e-9 2.8662584325026674e-9
          2.8077436292299187e-9 2.7450985827149754e-9 2.4749597504185028e-9 2.3868069670269825e-9 2.790177864524577e-9 2.6816102177429884e-9
          2.5165591177797455e-9 6.31695819918924e-10 5.685195848684542e-10 5.377485962658678e-10 4.814673126993387e-10 8.958138080328821e-10
          8.179228644953182e-10 7.599662965973152e-10 5.09752307706322e-10 4.5433199523738384e-10 4.2975483635767307e-10 3.814545764828705e-10
          7.433363283758195e-10 6.711841986151889e-10 6.242637435243489e-10 1.331051741170397e-9 1.230281329821275e-9 1.1294398441345573e-9
          1.7029500696730607e-9 1.23744180686583e-9 1.1451163693009135e-9 1.0451777555134717e-9 9.621879217308363e-10 1.6641336293115681e-9
          1.5571005743015596e-9 1.3950840426318657e-9 1.054198403300629e-9 9.640032847106405e-10 8.815077183122812e-10 8.023179126392382e-10
          1.449154925755506e-9 1.3399533533724269e-9 1.2050005682853248e-9 4.020578913260827e-10 3.530559178911728e-10 3.3626522589465704e-10
          2.942048322181537e-10 6.015386039379504e-10 5.348322468361919e-10 5.006664013062069e-10 2.553798123349458e-10 3.892015405734449e-10
          1.029131962553456e-9 1.4538051161246205e-9 8.749695592832404e-10 7.878964959915407e-10 7.248480221673151e-10 6.496887468303667e-10
          1.2301972305209265e-9 1.1209805969077157e-9 1.0142323309312395e-9 5.775134203406821e-10 8.278428395737569e-10 2.4070555769538486e-9
          2.259620870656596e-9 2.10491168150101e-9 2.889483630656593e-9 2.689360454231077e-9 2.156480587857477e-9 2.0311698263695874e-9
          1.7864388744172388e-9 1.678644423768385e-9 2.557290561637697e-9 2.4246212397284502e-9 2.123049645723303e-9 1.901587670857031e-9
          1.7695549151415718e-9 1.5689658216654053e-9 1.4575335812010382e-9 2.278670947346518e-9 2.1247139674097827e-9 1.8764029926926434e-9
          2.8125467528705508e-9 2.8568718328569048e-9 2.7681610283540354e-9 2.7036540356536937e-9 2.562722905459487e-9 2.592563765381607e-9
          2.537389290180133e-9 2.5806723528890464e-9 2.651119105654134e-9 2.532209796548361e-9 2.2697509498317356e-9 2.141628398424184e-9
          2.6012751854046165e-9 2.4929286835084612e-9 2.280447798038052e-9 2.391016782500764e-9 2.2327541837884258e-9 2.0061809785134994e-9
          1.8683711294811238e-9 2.3600534838016085e-9 2.2063251721244603e-9 2.0143763961477292e-9 1.9473012568858626e-9 2.7065849309872436e-9
          2.341464879244956e-9 1.6368068481605328e-9 1.5046211677344507e-9 1.3451030674053942e-9 1.2326045422287067e-9 1.9682623771898803e-9
          1.813779461670759e-9 1.6221808898668795e-9 1.1210275854265395e-9 1.3703270919757387e-9 2.634257722433677e-9 2.39352917471585e-9
          2.4346250445260194e-9 2.3069201949940053e-9 2.065643975994608e-9 1.8989704091492465e-9 1.7320519942615326e-9 1.599102601538379e-9
          2.0398876257554352e-9 1.8717456356953904e-9 1.7346716580311655e-9 1.4695407424770836e-9 1.4715870607564455e-9 6.219365911348219e-10
          5.230077034988082e-10 8.34394711269544e-10 5.791213589699954e-10 5.050523714418083e-10 4.830151354042313e-10 4.151499386046243e-10
          7.849522234671594e-10 6.987713758585184e-10 6.488191050292019e-10 4.3265249311386003e-10 3.4922738287126184e-10 5.685620581138506e-10
          3.9560055838757897e-10 3.3423057079392273e-10 3.1683898506669344e-10 2.6366905142099397e-10 5.270699748420589e-10 4.568472066847649e-10
          4.188662209426445e-10 1.090635502084094e-9 8.977381092919823e-10 1.391834408966468e-9 1.0369259254798152e-9 9.416595749597187e-10
          8.499474189555023e-10 7.650204892168587e-10 1.3357945189629751e-9 1.2332521211496743e-9 1.0844268071817626e-9 7.29126762251625e-10
          5.798436241673184e-10 9.083588944582651e-10 6.846141855443775e-10 6.076187223836744e-10 5.400506571679721e-10 4.722165490903043e-10
          8.646573056872856e-10 7.848123965464997e-10 6.762437379723952e-10 2.7661148069617647e-10 3.5793646125810946e-10 2.489900969581971e-10
          2.0411940996275353e-10 3.265680575481568e-10 2.7454617311852276e-10 4.5205764127100015e-10 5.527305684692269e-10 4.1748157495335143e-10
          3.5927129651986095e-10 5.177635090690119e-10 4.563139253689045e-10 1.7402954740051098e-9 1.4025555348768579e-9 1.9727020780858745e-9
          1.668157632767769e-9 1.5481885223074532e-9 1.3439349409661674e-9 1.2422994050948518e-9 1.922063315113497e-9 1.8214777715653392e-9
          1.5477778050849372e-9 1.1126870972877402e-9 8.702418387172258e-10 1.2610996040309802e-9 1.0623306101674092e-9 9.74111702729445e-10
          8.246001095580013e-10 7.459789822898483e-10 1.221566012681579e-9 1.143319092080992e-9 9.480489470651426e-10 2.14077626711079e-9
          1.730716235105829e-9 2.2342802470229033e-9 2.080226594218394e-9 1.966319050038547e-9 1.6803896546326892e-9 1.5843824460045065e-9
          2.142222564640752e-9 1.9961160300053116e-9 1.7346342989536814e-9 1.3648449254150742e-9 1.0733211023208807e-9 1.419210958779909e-9
          1.32735383695113e-9 1.2502447605384207e-9 1.0332189598756797e-9 9.58718053076617e-10 1.3709087093799707e-9 1.2828679079716919e-9
          1.0687040138140588e-9 6.638268135634709e-10 7.50901454573089e-10 6.253163627649484e-10 5.583674342649398e-10 7.158596582808418e-10
          6.5114411714801e-10 8.125579482814429e-10 8.430619351229879e-10 7.790854613032075e-10 7.151428428982742e-10 8.054803450576866e-10
          7.372801758978355e-10 4.477917385291874e-10 3.9856801280269474e-10 3.6478844478635154e-10 3.225846576014467e-10 6.301492095156332e-10
          5.688671092080559e-10 5.106495271206811e-10 3.5399150213504554e-10 3.128025078816232e-10 2.849693025068887e-10 2.506198068070237e-10
          5.117105839519725e-10 4.5760715443345974e-10 4.094459547044511e-10 2.908436960203411e-10 2.553892111078297e-10 2.2706998678435766e-10
          1.979278828388443e-10 4.045569940417638e-10 3.60080458900739e-10 3.135569584995426e-10 2.2433269906636742e-10 1.9632315535291583e-10
          1.7284342701984118e-10 1.5050794973336608e-10 3.1996629335062545e-10 2.829689463139816e-10 2.4444539110989834e-10 8.624948843185065e-10
          7.892151645273527e-10 6.950928383338166e-10 6.316941655706129e-10 1.1442659664107085e-9 1.0602396515188899e-9 9.16600381788136e-10
          7.189812689333024e-10 6.508590717406575e-10 5.718475452932184e-10 5.145581873736557e-10 9.774237481058528e-10 8.95195231268125e-10
          7.726741807239441e-10 5.471054573246079e-10 4.934075465342226e-10 4.20748392354274e-10 3.763138462242233e-10 7.166451404644416e-10
          6.544013626747124e-10 5.468932073314505e-10 4.4359460201934897e-10 3.965886428863534e-10 3.3586873909959304e-10 2.98280607894345e-10