<?xml version="1.0"?>
<VTKFile type="UnstructuredGrid" version="0.1" byte_order="LittleEndian" header_type="UInt32" compressor="vtkZLibDataCompressor">
  <UnstructuredGrid>
    <Piece NumberOfPoints="1379" NumberOfCells="961">
      <PointData>
        <DataArray type="Int32" Name="libmesh_node_id" format="ascii" RangeMin="1766" RangeMax="10899">
          1979 2186 2187 2188 2189 2196
          2197 2356 2357 2358 2359 2768
          2832 2833 2836 2837 2838 2841
          2844 2846 2847 2848 2849 2853
          2854 2856 2857 2859 2882 2883
          2885 2888 2890 2891 2894 2896
          2897 2899 4053 4054 4055 4058
          4061 4075 4076 4079 4081 4083
          4084 4085 4086 4087 4088 4089
          4090 4091 4092 4093 4094 4095
          4096 4097 4098 4099 4100 4104
          4105 4107 4108 4110 4111 4112
          4113 4114 4115 4116 4117 4118
          4119 4120 4121 4122 4125 4126
          4128 4130 4181 4182 4203 4204
          4206 4209 4219 4221 4223 4237
          4238 4240 4243 4253 4255 4257
          4259 4260 4261 4262 4263 4264
          4265 4266 4267 4268 4269 4270
          4273 4279 4280 4281 4282 4283
          4284 4285 4286 4288 4293 4294
          4295 4296 4297 4298 4299 4300
          4301 4302 4313 4314 4315 4316
          4317 4318 4319 5134 5135 5138
          5155 5156 5157 5158 5159 5161
          5162 5163 5164 5165 5166 5167
          5168 5169 5170 5171 5172 5221
          5236 5265 5266 5269 5272 5275
          5276 5279 5280 5281 5282 5284
          5285 5287 5289 5292 5294 5295
          5296 5298 5299 5300 5301 5302
          5303 5304 5305 5306 5307 5308
          8523 8524 8525 8526 8527 8528
          8529 8530 8531 8532 8533 8534
          8535 8536 8547 8548 8549 8550
          8551 8552 8553 8554 8555 8556
          8567 8568 8569 8570 8571 8572
          8573 8574 8575 8576 8584 8585
          8586 8587 8588 8589 8590 8669
          8670 8671 8672 8673 8674 8675
          8676 8677 8678 8696 8697 8698
          8699 8700 8701 8702 8710 8711
          8712 8713 8714 8715 8716 8717
          8718 8719 8720 8721 8722 8723
          8724 8725 8726 8727 8728 8729
          8730 8731 8732 8733 8734 8735
          8736 8737 8738 8739 8740 8741
          8742 8743 8744 8745 8746 8747
          8748 8749 8750 8751 8752 8753
          8754 8755 8756 8757 8758 8759
          8760 8761 8762 8763 8764 8765
          8766 8767 8768 8769 8770 8771
          8772 8773 8774 8775 8776 8777
          8778 8779 8780 8781 8782 8783
          8784 8785 8786 8787 8788 8789
          8790 8791 8792 8793 8794 8795
          8796 8797 8798 8799 8800 8801
          8802 8803 8804 8805 8806 8807
          8808 8809 8810 8816 8823 8824
          8825 8826 8827 8828 8829 8830
          8831 8832 8833 8837 8843 8844
          8845 8846 8847 8848 8849 8850
          8851 8852 8853 8854 8855 8856
          8857 8858 8859 8860 8861 8862
          8863 8864 8865 8866 8867 8868
          8869 8870 8871 8872 8873 8874
          8875 8876 8877 8878 8879 8880
          8881 8882 8883 8884 8885 8886
          8887 8888 8889 8890 8891 8892
          8893 8897 8903 8904 8905 8906
          8907 8908 8909 8910 8911 8912
          8913 8917 8973 8974 8975 8976
          8980 8981 9043 9044 9045 9046
          9050 9051 9053 9054 9055 9056
          9060 9061 9083 9084 9085 9086
          9087 9089 9090 9091 9093 9097
          9103 9105 9107 9193 9194 9195
          9196 9199 9208 9209 9210 9211
          9213 9227 9228 9230 9233 9243
          9245 9247 9312 9313 9314 9315
          9316 9317 9318 9326 9327 9328
          9329 9330 9331 9332 9340 9341
          9342 9343 9344 9345 9346 9354
          9355 9356 9357 9358 9359 9360
          9441 9442 9444 9447 9457 9459
          9461 9475 9476 9478 9481 9491
          9493 9495 9560 9561 9562 9563
          9564 9565 9566 9574 9575 9576
          9577 9578 9579 9580 9588 9589
          9590 9591 9592 9593 9594 9602
          9603 9604 9605 9606 9607 9608
          9609 9610 9611 9612 9613 9614
          9615 9616 9617 9618 9619 9620
          9621 9622 9623 9624 9625 9626
          9627 9628 9629 9630 9631 9632
          9633 9634 9635 9636 9637 9638
          9639 9640 9641 9642 9643 9644
          9645 9646 9647 9648 9649 9650
          9651 9652 9653 9654 9655 9656
          9657 9658 9659 9660 9661 9662
          9663 9664 9665 9666 9667 9668
          9669 9670 9671 9672 9673 9674
          9675 9676 9677 9678 9679 9680
          9681 9682 9683 9684 9685 9686
          9697 9698 9699 9700 9701 9702
          9703 9711 9712 9715 9717 9718
          9720 9731 9733 9735 9737 9745
          9746 9747 9748 9749 9750 9751
          9752 9753 9754 9755 9756 9757
          9758 9759 9760 9761 9762 9763
          9764 9765 9766 9767 9768 9769
          9770 9771 9772 9773 9774 9775
          9776 9777 9778 9779 9780 9781
          9782 9783 9784 9785 9786 9787
          9788 9789 9790 9791 9792 9793
          9794 9795 9796 9797 9798 9799
          9800 9801 9802 9803 9804 9805
          9806 9807 9815 9816 9817 9818
          9819 9820 9821 9829 9831 9833
          9835 9843 9845 9846 9847 9849
          9857 9858 9859 9860 9861 9862
          9863 9864 9865 9866 9867 9868
          9869 9870 9871 9872 9873 9874
          9875 9876 9877 9878 9879 9880
          9881 9882 9883 9884 9885 9886
          9887 9888 9889 9890 9891 9892
          9893 9894 9895 9896 9897 9898
          9899 9900 9901 9902 9903 9904
          9905 9906 9907 9908 9909 9910
          9911 9912 9913 9914 9915 9916
          9917 9918 9919 9920 9921 9922
          9923 9924 9925 9926 9929 9931
          9932 9934 9945 9947 9949 9951
          9959 9960 9963 9965 9966 9968
          9979 9981 9983 9985 9993 9994
          9995 9996 9997 9998 9999 10000
          10001 10002 10003 10004 10005 10006
          10007 10008 10009 10010 10011 10012
          10013 10014 10015 10016 10017 10018
          10019 10020 10021 10022 10023 10024
          10025 10026 10027 10028 10029 10030
          10031 10032 10033 10034 10035 10036
          10037 10038 10039 10040 10041 10042
          10043 10044 10045 10046 10047 10048
          10049 10051 10053 10055 10063 10065
          10067 10069 10077 10079 10081 10083
          10091 10093 10095 10097 10168 10169
          10172 10173 10196 10197 10200 10201
          10404 10405 10408 10409 10432 10433
          10436 10437 10565 10566 10569 10570
          10572 10573 10576 10577 10593 10594
          10597 10598 10600 10601 10604 10605
          10621 10622 10625 10626 10652 10653
          10656 10809 10810 10813 10814 10816
          10817 10820 10821 10837 10838 10841
          10842 10844 10845 10848 10849 10865
          10869 10893 10897 1766 2360 2361
          2362 2365 2364 2190 1983 2193
          1982 2850 2851 2852 2855 2839
          2862 2860 2840 2863 2861 2870
          2871 2872 2873 4073 4077 4074
          4078 4101 4102 4103 4106 4123
          4124 4127 4143 4141 4144 4142
          4171 4172 4173 4174 4183 4184
          4185 4186 4177 4187 4188 4189
          2878 4190 2176 5222 5267 5268
          5223 5270 5271 5273 5226 5274
          5277 5278 5283 4049 4050 4056
          5286 5237 5288 5290 5240 5291
          5293 5297 8513 8514 8515 8518
          4051 8521 4052 8539 8540 8543
          8545 4057 8559 8560 8562 4059
          8565 4060 8578 8580 8582 4062
          8661 8662 8665 8667 8690 8692
          8694 4080 8687 8704 8706 8708
          4082 8811 8812 8813 8814 8815
          8817 8818 8819 8820 8822 8834
          8835 8836 8838 8839 8840 8842
          8894 8895 8896 8898 8899 8900
          8902 8914 8915 8916 8918 8919
          8920 8922 8965 8966 8977 8978
          8969 8979 8971 8982 4148 4149
          9047 9048 9049 9052 4178 9057
          9058 9059 9062 4179 9088 9092
          9094 9095 9096 9098 9099 9100
          9102 9075 9104 9076 9106 9108
          9079 9109 9111 9110 9183 9191
          9192 9184 9186 9197 9198 9189
          9200 4202 9202 9204 9212 9206
          9214 4205 9225 9226 9229 9231
          9232 9234 9242 9244 9246 9248
          9306 9308 9310 4218 9320 9322
          9324 4220 9238 9334 9336 4210
          9338 4222 9348 9350 9352 4224
          9439 9440 9443 9445 9446 9448
          9456 9458 9460 9462 9473 9474
          9477 9479 9480 9482 9490 9492
          9494 9496 9452 9554 9556 4239
          9558 4252 9568 9570 9572 4254
          9486 9582 9584 4244 9586 4256
          9596 9598 9600 4258 9687 9688
          9691 9693 9694 9696 9704 9706
          9708 9710 9713 9714 9716 4275
          9719 4276 9721 9722 9725 9732
          9734 9736 4278 9738 9740 9808
          9810 9812 9814 9822 9824 9826
          9828 9830 9832 9834 4290 9836
          9838 9844 9848 4292 9850 9852
          9854 9856 9927 9928 9930 4303
          9933 4304 9946 9948 9950 4307
          9961 9962 9964 4309 9967 4310
          9980 9982 9984 4312 10050 10052
          10054 4320 10064 10066 10068 4322
          10078 10080 10082 4324 10092 10094
          10096 4326 10162 10170 10164 10171
          10166 10174 4334 4335 10190 10198
          10192 10199 10194 10202 4338 4339
          10398 10406 10400 10407 10402 10410
          4362 4363 10426 10434 10428 10435
          10430 10438 4366 4367 10567 10568
          10571 4383 10574 10575 10578 4384
          10595 10596 10599 4387 10602 10603
          10606 4388 10623 10624 10627 4390
          10628 10630 10632 10634 10654 10655
          10657 10658 4394 10659 10661 10663
          10665 10811 10812 10815 4417 10818
          10819 10822 4418 10839 10840 10843
          4421 10846 10847 10850 4422 10866
          10867 10868 10870 10871 4424 10894
          10895 10896 10898 10899 4428
        </DataArray>
        <DataArray type="Float64" Name="bounds" format="ascii" RangeMin="0" RangeMax="0">
          0 0 0 0 0 0
          0 0 0 0 0 0
          0 0 0 0 0 0
          0 0 0 0 0 0
          0 0 0 0 0 0
          0 0 0 0 0 0
          0 0 0 0 0 0
          0 0 0 0 0 0
          0 0 0 0 0 0
          0 0 0 0 0 0
          0 0 0 0 0 0
          0 0 0 0 0 0
          0 0 0 0 0 0
          0 0 0 0 0 0
          0 0 0 0 0 0
          0 0 0 0 0 0
          0 0 0 0 0 0
          0 0 0 0 0 0
          0 0 0 0 0 0
          0 0 0 0 0 0
          0 0 0 0 0 0
          0 0 0 0 0 0
          0 0 0 0 0 0
          0 0 0 0 0 0
          0 0 0 0 0 0
          0 0 0 0 0 0
          0 0 0 0 0 0
          0 0 0 0 0 0
          0 0 0 0 0 0
          0 0 0 0 0 0
          0 0 0 0 0 0
          0 0 0 0 0 0
          0 0 0 0 0 0
          0 0 0 0 0 0
          0 0 0 0 0 0
          0 0 0 0 0 0
          0 0 0 0 0 0
          0 0 0 0 0 0
          0 0 0 0 0 0
          0 0 0 0 0 0
          0 0 0 0 0 0
          0 0 0 0 0 0
          0 0 0 0 0 0
          0 0 0 0 0 0
          0 0 0 0 0 0
          0 0 0 0 0 0
          0 0 0 0 0 0
          0 0 0 0 0 0
          0 0 0 0 0 0
          0 0 0 0 0 0
          0 0 0 0 0 0
          0 0 0 0 0 0
          0 0 0 0 0 0
          0 0 0 0 0 0
          0 0 0 0 0 0
          0 0 0 0 0 0
          0 0 0 0 0 0
          0 0 0 0 0 0
          0 0 0 0 0 0
          0 0 0 0 0 0
          0 0 0 0 0 0
          0 0 0 0 0 0
          0 0 0 0 0 0
          0 0 0 0 0 0
          0 0 0 0 0 0
          0 0 0 0 0 0
          0 0 0 0 0 0
          0 0 0 0 0 0
          0 0 0 0 0 0
          0 0 0 0 0 0
          0 0 0 0 0 0
          0 0 0 0 0 0
          0 0 0 0 0 0
          0 0 0 0 0 0
          0 0 0 0 0 0
          0 0 0 0 0 0
          0 0 0 0 0 0
          0 0 0 0 0 0
          0 0 0 0 0 0
          0 0 0 0 0 0
          0 0 0 0 0 0
          0 0 0 0 0 0
          0 0 0 0 0 0
          0 0 0 0 0 0
          0 0 0 0 0 0
          0 0 0 0 0 0
          0 0 0 0 0 0
          0 0 0 0 0 0
          0 0 0 0 0 0
          0 0 0 0 0 0
          0 0 0 0 0 0
          0 0 0 0 0 0
          0 0 0 0 0 0
          0 0 0 0 0 0
          0 0 0 0 0 0
          0 0 0 0 0 0
          0 0 0 0 0 0
          0 0 0 0 0 0
          0 0 0 0 0 0
          0 0 0 0 0 0
          0 0 0 0 0 0
          0 0 0 0 0 0
          0 0 0 0 0 0
          0 0 0 0 0 0
          0 0 0 0 0 0
          0 0 0 0 0 0
          0 0 0 0 0 0
          0 0 0 0 0 0
          0 0 0 0 0 0
          0 0 0 0 0 0
          0 0 0 0 0 0
          0 0 0 0 0 0
          0 0 0 0 0 0
          0 0 0 0 0 0
          0 0 0 0 0 0
          0 0 0 0 0 0
          0 0 0 0 0 0
          0 0 0 0 0 0
          0 0 0 0 0 0
          0 0 0 0 0 0
          0 0 0 0 0 0
          0 0 0 0 0 0
          0 0 0 0 0 0
          0 0 0 0 0 0
          0 0 0 0 0 0
          0 0 0 0 0 0
          0 0 0 0 0 0
          0 0 0 0 0 0
          0 0 0 0 0 0
          0 0 0 0 0 0
          0 0 0 0 0 0
          0 0 0 0 0 0
          0 0 0 0 0 0
          0 0 0 0 0 0
          0 0 0 0 0 0
          0 0 0 0 0 0
          0 0 0 0 0 0
          0 0 0 0 0 0
          0 0 0 0 0 0
          0 0 0 0 0 0
          0 0 0 0 0 0
          0 0 0 0 0 0
          0 0 0 0 0 0
          0 0 0 0 0 0
          0 0 0 0 0 0
          0 0 0 0 0 0
          0 0 0 0 0 0
          0 0 0 0 0 0
          0 0 0 0 0 0
          0 0 0 0 0 0
          0 0 0 0 0 0
          0 0 0 0 0 0
          0 0 0 0 0 0
          0 0 0 0 0 0
          0 0 0 0 0 0
          0 0 0 0 0 0
          0 0 0 0 0 0
          0 0 0 0 0 0
          0 0 0 0 0 0
          0 0 0 0 0 0
          0 0 0 0 0 0
          0 0 0 0 0 0
          0 0 0 0 0 0
          0 0 0 0 0 0
          0 0 0 0 0 0
          0 0 0 0 0 0
          0 0 0 0 0 0
          0 0 0 0 0 0
          0 0 0 0 0 0
          0 0 0 0 0 0
          0 0 0 0 0 0
          0 0 0 0 0 0
          0 0 0 0 0 0
          0 0 0 0 0 0
          0 0 0 0 0 0
          0 0 0 0 0 0
          0 0 0 0 0 0
          0 0 0 0 0 0
          0 0 0 0 0 0
          0 0 0 0 0 0
          0 0 0 0 0 0
          0 0 0 0 0 0
          0 0 0 0 0 0
          0 0 0 0 0 0
          0 0 0 0 0 0
          0 0 0 0 0 0
          0 0 0 0 0 0
          0 0 0 0 0 0
          0 0 0 0 0 0
          0 0 0 0 0 0
          0 0 0 0 0 0
          0 0 0 0 0 0
          0 0 0 0 0 0
          0 0 0 0 0 0
          0 0 0 0 0 0
          0 0 0 0 0 0
          0 0 0 0 0 0
          0 0 0 0 0 0
          0 0 0 0 0 0
          0 0 0 0 0 0
          0 0 0 0 0 0
          0 0 0 0 0 0
          0 0 0 0 0 0
          0 0 0 0 0 0
          0 0 0 0 0 0
          0 0 0 0 0 0
          0 0 0 0 0 0
          0 0 0 0 0 0
          0 0 0 0 0 0
          0 0 0 0 0 0
          0 0 0 0 0 0
          0 0 0 0 0 0
          0 0 0 0 0 0
          0 0 0 0 0 0
          0 0 0 0 0 0
          0 0 0 0 0 0
          0 0 0 0 0 0
          0 0 0 0 0 0
          0 0 0 0 0 0
          0 0 0 0 0 0
          0 0 0 0 0 0
          0 0 0 0 0 0
          0 0 0 0 0 0
          0 0 0 0 0 0
          0 0 0 0 0 0
          0 0 0 0 0 0
          0 0 0 0 0 0
          0 0 0 0 0 0
          0 0 0 0 0 0
          0 0 0 0 0
        </DataArray>
        <DataArray type="Float64" Name="gradient_error" format="ascii" RangeMin="1.3243810391526328e-12" RangeMax="1.294187432263586e-9">
          1.1356784344241342e-10 2.0243738202651517e-11 6.401609331944034e-11 6.900372246602646e-11 2.948690461264775e-11 8.323483359874199e-10
          4.761053049398427e-10 2.0293519474149987e-11 1.642578339929239e-11 1.3723645589746053e-11 3.6075112564429065e-11 1.0067823551937424e-10
          4.993501788120832e-11 4.342894399140562e-11 2.6788803315297416e-11 2.046915847095703e-11 3.02363036688161e-11 5.890753055072504e-11
          5.568249592492315e-11 1.6074011123458178e-11 2.3762145962336265e-11 2.0590554088464886e-11 3.5219167870987406e-11 3.277603328883746e-11
          3.185379519363886e-11 2.6868941122599533e-11 2.1535439951751794e-11 1.1292130047837613e-11 6.017794105873919e-10 4.632319048166942e-10
          2.1034996051919842e-10 8.158177571134475e-10 2.697519303199749e-10 2.0387803206937365e-10 8.891280698031515e-11 4.6069023794368217e-10
          4.180003296875841e-10 2.1924673390666847e-10 1.908601640377002e-11 2.1878223254987136e-11 2.082307730529886e-11 2.377517826485124e-11
          6.540941914236928e-11 3.8314791153547005e-11 3.216756496518148e-11 3.112968958019141e-11 4.263258704802739e-11 1.2081683460392028e-11
          1.594619879671715e-11 1.356029039634242e-11 1.7062975289244593e-11 2.054232579402852e-11 1.3752347672883558e-11 1.7604530388031053e-11
          2.8679975762706104e-11 2.5208677381320942e-11 1.9815666655579346e-11 4.377730235541961e-11 4.14444268845085e-11 2.541698643116229e-11
          3.518087476330884e-11 2.1764248341560085e-11 2.090064664314629e-11 1.3936085062921068e-11 1.3350881817635406e-11 1.8408546264531143e-11
          1.1698928703230358e-11 1.5976654165945847e-11 1.5108864916250814e-11 1.2797254156277813e-11 4.1646128397346334e-11 2.6345768766796384e-11
          2.5245703839472695e-11 1.5930586482233452e-11 3.111752878675333e-11 1.949742406026336e-11 1.1663341109495634e-11 2.6841263089411112e-11
          1.640497768147746e-11 1.851039613138431e-11 1.4752433635897286e-11 9.320396144080543e-12 1.0838959012083805e-11 6.80662533923003e-12
          9.73918138586589e-12 6.683299235566148e-12 7.378704163884772e-12 5.8913557640921704e-12 2.1163233079343768e-10 1.9924346700656246e-10
          1.6633761021904316e-10 5.637962033188532e-10 1.2337328156294468e-10 8.165463348996078e-11 3.3332587734950055e-10 1.1205244155634466e-9
          1.0596259980921805e-9 8.902655789685261e-10 8.427161672804957e-10 6.544451215209843e-10 4.1489531353575424e-10 6.843906560031245e-10
          1.3834322006969264e-10 1.300701979331496e-10 8.714382079151285e-11 8.18567021426498e-11 1.081858921581428e-10 6.790786394607979e-11
          4.1208781089682915e-10 3.8501645192127735e-10 2.5150103126311844e-10 3.1392988238660906e-10 5.301013977977656e-11 4.97614361827357e-11
          4.12046820996875e-11 7.98134227593116e-11 4.990525175704294e-11 5.2493582571119685e-11 3.266941842806993e-11 2.2344314647461382e-10
          1.439249330006091e-10 1.3930514080535736e-10 3.019487256831878e-11 1.969589594276309e-11 8.087182388228756e-10 7.614583101399725e-10
          5.554851065710498e-10 5.209907718723218e-10 6.319740182251567e-10 4.2775310847099975e-10 6.364121298797078e-10 6.357640067356214e-10
          4.5499444676603634e-10 5.985728787956059e-10 4.5632261617122405e-10 3.041802798798274e-10 2.835235331934825e-10 1.8589734119419599e-10
          4.876464907490676e-10 3.3171785494998993e-10 3.3005371098461505e-10 9.843381422411193e-11 8.926997992675774e-11 7.794442509456877e-11
          4.357776835035093e-11 3.9403072239211266e-11 8.400125451775753e-12 1.8042994463751423e-11 1.674654931149378e-11 3.5228376128071596e-11
          1.5450104159236136e-11 3.620092820726003e-12 4.21426235742316e-12 6.841817413649924e-12 6.658613611315372e-12 2.9727085133719975e-12
          3.5138790161949065e-12 4.045793303779254e-12 4.8084318941203164e-12 6.47540980898082e-12 4.577707591363601e-12 6.2427525583729e-11
          5.251178195913927e-11 4.3217935394762083e-11 4.1635453930484566e-11 2.7419554814666903e-11 3.802694384382755e-11 1.8144173612729173e-11
          1.79014477609938e-11 1.1968288518438433e-11 2.1896610972147273e-11 2.0866896306903297e-11 1.6910915492232963e-11 2.0026263925102853e-11
          3.607138375225933e-11 2.379938199345055e-11 3.6141852283070615e-11 1.61557924747681e-11 1.3510360864859447e-11 1.863477312001527e-11
          1.61484758743287e-11 1.6865117748040625e-11 7.652735202998735e-12 8.311777125370906e-12 1.3185494897472959e-11 1.2594521414873009e-11
          6.916097723591734e-12 9.648377904997985e-12 9.436128366525057e-12 8.970819047743078e-12 1.2003547932273059e-11 9.223878828052129e-12
          1.0983800102246458e-11 1.0820838438077016e-11 1.5378244882083e-11 1.5185498979989135e-11 8.571124868928998e-12 1.2189905891745118e-11
          1.2027291264239455e-11 1.0529052352791147e-11 1.4705543276099307e-11 1.1662182960028505e-11 2.747977103924068e-11 2.7155194044667227e-11
          2.1613161136168475e-11 2.6194022994570313e-11 1.0322394843580743e-11 1.399761800544333e-11 8.545493962588163e-12 1.1101983628580393e-11
          9.993629144257553e-12 1.2997352954980962e-11 1.0821407973351575e-11 2.4659073090705818e-11 1.948241731770323e-11 2.2621419863197155e-11
          4.866559657718072e-11 4.8056610929365905e-11 3.898280184111347e-11 3.8500239546039595e-11 4.6277059565303033e-11 3.7071547292582625e-11
          8.558767544088659e-11 8.445412165499675e-11 6.808663250039758e-11 8.114808222615409e-11 4.35223556017731e-11 3.4885603537306705e-11
          3.9955521468512284e-11 3.205906300375929e-11 7.592817405619728e-11 6.116830569157928e-11 6.91898390149221e-11 9.58264285875606e-12
          1.1691237878571651e-11 8.937371208942577e-12 1.0396314093580793e-11 9.422589184483782e-12 1.0964672383764696e-11 9.816960214781993e-12
          2.0075802066262075e-11 1.7984992938676244e-11 1.9565837187576084e-11 3.575946122077093e-11 2.8598668864199514e-11 3.1168098273720296e-11
          2.4776211063900582e-11 6.140987350235205e-11 4.936305602218792e-11 5.310095888523786e-11 1.957848581840174e-11 2.64138443442521e-11
          1.5324873142849194e-11 2.0933041383826396e-11 1.6151820365676833e-11 2.1825374807605114e-11 1.729463538093019e-11 4.47606781922579e-11
          3.5893027781173913e-11 3.681006618363705e-11 6.844800700373069e-12 6.8706520304537185e-12 9.601271441457772e-12 9.469058564814579e-12
          5.656765328528564e-12 7.551459281511552e-12 7.430916352653122e-12 6.892775007385268e-12 9.127587740559226e-12 7.449374314464261e-12
          1.7287824996255545e-11 1.705241230112411e-11 1.3290305693520448e-11 1.637561043236708e-11 4.539996139199265e-12 4.764862671894137e-12
          5.8848576457979535e-12 5.824281428046084e-12 4.396176272537759e-12 5.127103876548638e-12 5.1216257301838325e-12 4.989729204589008e-12
          5.763705210294212e-12 5.116147583819027e-12 1.0524875649195702e-11 1.0270471338696483e-11 9.02312105912218e-12 1.0957298673171104e-11
          7.02965858297731e-12 8.62593938984026e-12 6.36435396775899e-12 7.496622452743114e-12 7.1702705117184535e-12 8.333548986733452e-12
          7.2658688096828334e-12 1.5216532249740356e-11 1.3525122393328368e-11 1.554020410771506e-11 3.0982456834778785e-11 3.0639327341791045e-11
          2.4449253623824174e-11 2.4199985252252953e-11 2.957269430533137e-11 2.339550654670395e-11 5.518220878425957e-11 5.444305494100922e-11
          4.3182412821477625e-11 5.2282390776578966e-11 1.9232599845103234e-11 1.8988318712068316e-11 1.49831761544597e-11 1.4754197781189083e-11
          1.8264396224453586e-11 1.4120441230675069e-11 3.4439137051036474e-11 3.396731101368843e-11 2.649858682231596e-11 3.25885958331433e-11
          2.7797428605149476e-11 2.1942870911210828e-11 2.542469900902552e-11 1.996290851757824e-11 4.88629523514144e-11 3.870621776181871e-11
          4.444469056939265e-11 1.2282362110350022e-11 1.7065822008459486e-11 9.357168335614317e-12 1.316146082373481e-11 1.1110474989454729e-11
          1.5505987469667785e-11 1.1968397978801703e-11 3.041783008569992e-11 2.37158367264999e-11 2.762989530197441e-11 8.169081790139861e-12
          8.030240669690086e-12 1.1469797280754465e-11 1.130053960315136e-11 6.028052242117724e-12 8.70406577750334e-12 8.587854864768268e-12
          7.668002547417893e-12 1.0828314612939917e-11 8.252699491603705e-12 2.079970454784064e-11 2.051104288045329e-11 1.5754708897424032e-11
          1.967015096597139e-11 4.595315858770131e-12 4.537435610898059e-12 4.37011154267161e-12 7.147028383865075e-12 1.0111952173221849e-11
          5.4472763431681514e-12 7.72843672320638e-12 6.515128048107948e-12 9.213298181533762e-12 7.054422699524977e-12 1.8350762727021355e-11
          1.4095449301137517e-11 1.666181524210103e-11 4.1063890815131415e-12 3.7621010827738124e-12 1.6475279851144726e-11 2.258801598392279e-11
          1.278097713774019e-11 1.769056698955123e-11 1.4201930600417963e-11 1.9536342868874363e-11 1.5310567481290536e-11 3.93598014622977e-11
          3.113172867093807e-11 3.395752440166696e-11 9.84868132480727e-12 1.375758037526207e-11 7.571539007864109e-12 1.0643550881821242e-11
          8.559834758873776e-12 1.1930718621656502e-11 9.247374662070126e-12 2.4436913300392342e-11 1.9041467954086633e-11 2.1060397149972988e-11
          1.2026922122255564e-11 1.6528396395630986e-11 9.422676492774339e-12 1.2985888248832863e-11 9.995476026539786e-12 1.368506673913663e-11
          1.0773422428889496e-11 2.8563015028242562e-11 2.256392625653776e-11 2.344659885512795e-11 7.316334358673857e-12 1.0126694811895377e-11
          5.650284341645931e-12 7.846456627066817e-12 6.11128230403005e-12 8.397837824464466e-12 6.501002423541361e-12 1.769725572553844e-11
          1.3779353168046079e-11 1.4510534487523081e-11 5.8244103380595546e-12 8.20057327360413e-12 4.459985812034932e-12 6.279142497059611e-12
          5.0871221874406065e-12 7.123838217341527e-12 5.4503870649436455e-12 1.4730176728382537e-11 1.1311664861674012e-11 1.2686867076768936e-11
          3.3615553854072357e-12 2.929433112711011e-12 4.3388147878796106e-12 6.040293823614453e-12 3.313228656325669e-12 4.618207282899414e-12
          3.624418641575467e-12 5.0044276774139786e-12 3.8273272035938635e-12 1.065107453628819e-11 8.171871877447453e-12 8.720622644025012e-12
          2.4952142902345645e-12 2.087534400858176e-12 1.3101694571281119e-11 1.7666852124014634e-11 1.032526587298165e-11 1.4024360899002657e-11
          2.956655620167855e-11 2.3659382271745473e-11 8.173487439691542e-12 1.1103121040945096e-11 6.43607694737559e-12 8.735615615191456e-12
          1.879613174849203e-11 1.482678403394885e-11 4.985665923918707e-12 6.802611328248747e-12 3.8512737661622514e-12 5.2650415438015944e-12
          1.1613893154432033e-11 9.031525684603234e-12 2.986460806580498e-12 4.0522490588545444e-12 2.31346628326417e-12 3.0831458568463985e-12
          2.420269324415356e-12 2.6073480927904884e-12 6.975411754744153e-12 5.326009215894871e-12 1.7565399373518665e-12 1.6205924740103835e-12
          1.9403105524322783e-12 1.74446982871759e-12 1.7355677889598033e-12 1.213797702471048e-10 1.196587078097588e-10 1.4118638983778073e-10
          1.1464352926403535e-10 2.0846343859595373e-10 1.3157290749502758e-10 1.0676044144134942e-10 1.192300921330287e-10 9.665295080980214e-11
          1.8479067692910621e-10 3.6326857177215254e-10 3.5756935335997026e-10 3.410003766801008e-10 5.920597212211017e-10 3.1507095147743745e-10
          2.820559584527807e-10 5.195558783582857e-10 1.0509343186748948e-10 8.509437656552793e-11 9.014058118617732e-11 7.289150135310915e-11
          1.7802298442015847e-10 1.453583202207067e-10 1.513693105200699e-10 7.527923826768089e-11 6.078817174009788e-11 6.125965630211581e-11
          4.939341051433616e-11 1.251011026746669e-10 1.0176808926246232e-10 1.0057603355241691e-10 2.9665191711831484e-10 2.446781572740985e-10
          2.500807056698983e-10 2.0574245219442937e-10 4.787436742728719e-10 3.995253435672801e-10 4.0080028575094747e-10 2.044972374965564e-10
          1.6778902304820928e-10 1.6233049779981522e-10 1.3282678272437784e-10 3.247474297903189e-10 2.6909186005073705e-10 2.5479962525668265e-10
          9.086417430678099e-10 8.941855918670176e-10 8.520427079190892e-10 1.1051012511659884e-9 7.857702673098394e-10 7.008711890991955e-10
          9.865669163747418e-10 1.000879654929455e-9 9.957676170531384e-10 9.780391687457616e-10 8.361980676921794e-10 9.422217406593434e-10
          8.835411249447753e-10 8.399480928022937e-10 7.152022139548977e-10 6.041678566983334e-10 5.980384264177714e-10 5.029964810810951e-10
          9.097948859186075e-10 7.769716663413121e-10 7.703316686781676e-10 4.8294232490517e-10 4.043044110268392e-10 3.76630358951337e-10
          3.13808405433968e-10 6.286838442420739e-10 5.311133927719494e-10 4.939538535211793e-10 9.294659361694553e-10 8.010587362108921e-10
          8.160378548539032e-10 6.986602344109564e-10 8.820513131997397e-10 7.637089580042241e-10 7.966315071442538e-10 6.869826037360686e-10
          5.841839177544284e-10 5.534392443343749e-10 4.674428470234142e-10 6.860659018824192e-10 5.849395170313077e-10 5.625392869969874e-10
          9.774116064980988e-11 9.63424337762613e-11 7.802066445446769e-11 7.689550540775756e-11 9.226865379907652e-11 7.361993469283101e-11
          1.719295222591587e-10 1.6932382034870905e-10 1.3622537816218847e-10 1.6174701969675778e-10 6.17502995074549e-11 6.085375414916518e-11
          4.846719612313285e-11 4.775973553444667e-11 5.824482223338824e-11 4.570169266591374e-11 1.1029156595716563e-10 1.0858919586934948e-10
          8.578961622725477e-11 1.0364355876355525e-10 8.587017486323707e-11 6.84782287504332e-11 7.767557868066898e-11 6.189961589667627e-11
          1.4988377489214745e-10 1.2044216472171584e-10 1.347615627304431e-10 5.4152746163510676e-11 4.2475513464864305e-11 4.8921953339774544e-11
          3.8354413487325564e-11 9.59135026773382e-11 7.571327068673304e-11 8.60839300575395e-11 2.9840937686681374e-10 2.9364871221538376e-10
          2.4254153587323977e-10 2.3861695142753926e-10 2.798202502571222e-10 2.2722557212285488e-10 5.008861254932018e-10 4.926137700994901e-10
          4.051490511495227e-10 4.685867280125013e-10 1.9512394950033619e-10 1.9192915186939638e-10 1.554346288358305e-10 1.528646184175272e-10
          1.8266174948276296e-10 1.4541336921533263e-10 3.3523102941449305e-10 3.2949186761680893e-10 2.6506813713720264e-10 3.128548587531658e-10
          2.5821557684333276e-10 2.0945428353158347e-10 2.3077231161385814e-10 1.8692647689730092e-10 4.3106170374355913e-10 3.5363700483167627e-10
          3.8344135014087655e-10 1.682213232011543e-10 1.3381430545530647e-10 1.4994698142091553e-10 1.1915627052390514e-10 2.869697910111582e-10
          2.304241596871277e-10 2.542975943098231e-10 3.773235911529879e-11 3.717943057792035e-11 2.91421709441483e-11 2.8713763200538602e-11