<?xml version="1.0"?>
<VTKFile type="UnstructuredGrid" version="0.1" byte_order="LittleEndian" header_type="UInt32" compressor="vtkZLibDataCompressor">
  <UnstructuredGrid>
    <Piece NumberOfPoints="369" NumberOfCells="182">
      <PointData>
        <DataArray type="Int32" Name="libmesh_node_id" format="ascii" RangeMin="0" RangeMax="3356">
          0 1 2 3 4 5
          6 7 8 9 10 11
          12 13 14 15 16 17
          18 19 40 41 42 43
          44 45 46 47 48 49
          60 61 62 63 64 65
          66 67 68 69 80 81
          82 83 84 90 91 92
          93 94 95 96 97 98
          99 110 111 112 113 114
          120 121 122 123 124 125
          126 127 128 129 140 141
          142 143 144 150 151 152
          153 154 155 156 157 159
          170 171 172 173 174 180
          181 182 183 184 185 186
          187 200 201 202 203 245
          3011 3012 3015 3018 3019 3020
          3021 3022 3023 3024 3025 3026
          3027 3028 3029 3030 3031 3032
          3033 3034 3035 3036 3037 3038
          3039 3040 3041 3042 3043 3044
          3045 3046 3047 3048 3049 3050
          3051 3052 3053 3054 3055 3056
          3057 3058 3059 3060 3061 3062
          3063 3064 3065 3066 3067 3070
          3071 3127 3128 3129 3130 3131
          3132 3133 3134 3135 3136 3137
          3138 3139 3140 3141 3142 3143
          3144 3145 3146 3147 3148 3149
          3150 3151 3152 3153 3154 3155
          3156 3157 3158 3159 3160 3161
          3162 3163 3164 3165 3166 3167
          3168 3169 3170 3171 3172 3173
          3174 3175 3176 3177 3178 3179
          3180 3181 3182 3183 3184 3185
          3186 3187 3188 3189 3190 3191
          3192 3193 3194 3195 3196 3197
          3198 3199 3200 3201 3202 3203
          3204 3205 3206 3207 3208 3209
          3210 3211 3212 3213 3214 3215
          3216 3217 3218 3219 3220 3221
          3222 3223 3224 3225 3226 3227
          3228 3229 3230 3231 3232 3233
          3234 3235 3236 3237 3238 3239
          3240 3241 3242 3243 3244 3245
          3246 3247 3248 3249 3250 3251
          3252 3253 3254 3255 3256 3257
          3258 3259 3260 3261 3262 3263
          3264 3265 3266 3267 3268 3269
          3270 3271 3272 3273 3274 3275
          3276 3277 3278 3279 3280 3281
          3282 3283 3284 3285 3286 3287
          3288 3289 3290 3291 3292 3293
          3294 3295 3296 3297 3298 3299
          3300 3301 3302 3303 3304 3305
          3306 3307 3308 3309 3310 3311
          3312 3313 3314 3315 3316 3317
          3318 3319 3320 3321 3322 3323
          3324 3325 3326 3327 3331 3332
          3334 3335 3337 3347 3348 3351
          3353 3354 3356
        </DataArray>
        <DataArray type="Float64" Name="bounds" format="ascii" RangeMin="0" RangeMax="0">
          0 0 0 0 0 0
          0 0 0 0 0 0
          0 0 0 0 0 0
          0 0 0 0 0 0
          0 0 0 0 0 0
          0 0 0 0 0 0
          0 0 0 0 0 0
          0 0 0 0 0 0
          0 0 0 0 0 0
          0 0 0 0 0 0
          0 0 0 0 0 0
          0 0 0 0 0 0
          0 0 0 0 0 0
          0 0 0 0 0 0
          0 0 0 0 0 0
          0 0 0 0 0 0
          0 0 0 0 0 0
          0 0 0 0 0 0
          0 0 0 0 0 0
          0 0 0 0 0 0
          0 0 0 0 0 0
          0 0 0 0 0 0
          0 0 0 0 0 0
          0 0 0 0 0 0
          0 0 0 0 0 0
          0 0 0 0 0 0
          0 0 0 0 0 0
          0 0 0 0 0 0
          0 0 0 0 0 0
          0 0 0 0 0 0
          0 0 0 0 0 0
          0 0 0 0 0 0
          0 0 0 0 0 0
          0 0 0 0 0 0
          0 0 0 0 0 0
          0 0 0 0 0 0
          0 0 0 0 0 0
          0 0 0 0 0 0
          0 0 0 0 0 0
          0 0 0 0 0 0
          0 0 0 0 0 0
          0 0 0 0 0 0
          0 0 0 0 0 0
          0 0 0 0 0 0
          0 0 0 0 0 0
          0 0 0 0 0 0
          0 0 0 0 0 0
          0 0 0 0 0 0
          0 0 0 0 0 0
          0 0 0 0 0 0
          0 0 0 0 0 0
          0 0 0 0 0 0
          0 0 0 0 0 0
          0 0 0 0 0 0
          0 0 0 0 0 0
          0 0 0 0 0 0
          0 0 0 0 0 0
          0 0 0 0 0 0
          0 0 0 0 0 0
          0 0 0 0 0 0
          0 0 0 0 0 0
          0 0 0
        </DataArray>
        <DataArray type="Float64" Name="gradient_error" format="ascii" RangeMin="2.086987259519068e-9" RangeMax="0.000002121065703690599">
          3.3015115277703046e-9 3.125570405814795e-9 2.652223425596986e-9 2.7459691151356755e-9 4.6646273892407686e-9 4.06160215229753e-9
          3.0900483071932163e-9 3.3935219171865664e-9 2.66031182850735e-9 2.408657316601946e-9 2.9329823899407603e-9 2.5256977655566e-9
          2.2008259656446573e-9 2.17322914643498e-9 2.403017120841387e-9 2.2631708481574502e-9 2.086987259519068e-9 2.115659980190616e-9
          2.2823702853661844e-9 2.204112583402246e-9 2.1788764453791775e-9 2.1904267025010464e-9 2.118494462088903e-9 2.1224164451323646e-9
          2.157002804696542e-9 2.1184131411724394e-9 2.1456323272253025e-9 2.123324575473514e-9 2.144332700862164e-9 2.1258548814383073e-9
          2.278033043621297e-8 1.9497516741536613e-8 1.1869731062769324e-8 1.3717007931130404e-8 1.1864812767510101e-8 7.627250681159901e-9
          5.231995466889508e-9 3.983712484869987e-9 2.833139203656933e-9 2.6280809500836054e-9 4.241945384002041e-9 4.653685426047836e-9
          3.3896885948097006e-9 2.7354295028504666e-9 2.4230226965102782e-9 1.1256753239038243e-7 9.599620239698759e-8 5.73772835332589e-8
          6.706297885709576e-8 5.6497368945191107e-8 3.4623720864035515e-8 2.0343745843405497e-8 1.4002701661838736e-8 6.23022365217361e-9
          5.48502229257096e-9 1.875836466953022e-8 2.1558425323809095e-8 1.2750072782879927e-8 7.661657480271975e-9 4.73982093296831e-9
          5.475231133514712e-7 4.652641583493222e-7 2.813696351328857e-7 3.3032982762349045e-7 2.1562882184026766e-7 1.3725974469221626e-7
          2.5917232659908607e-8 2.7215885821591833e-8 1.2080204953948574e-8 1.2833962477279445e-8 9.747511191644925e-8 1.1313654189550975e-7
          6.334361116499808e-8 3.407217492118427e-8 1.894209367513509e-8 0.0000014135600338441834 0.0000013841226255923473 7.812821124535324e-7
          0.0000010331560068870705 7.708658470738764e-7 4.1479899070091423e-7 1.3208279916454652e-7 2.5393760505760105e-7 1.7299484385120157e-7
          5.593275117425663e-7 0.0000010111858402269363 6.130351234016157e-8 3.318456315184556e-8 1.8348145016615117e-8 1.674946176445029e-7
          2.1529784842677591e-7 0.0000016399516380277798 0.0000019584587024209316 3.0571760814370424e-7 2.990243532264665e-7 4.95729846808421e-7
          2.259561002448335e-7 0.0000010003302281149129 0.000001831962482646139 3.052444089681143e-8 3.952619171543925e-8 2.1290637577337194e-7
          9.534114025125718e-9 5.0157423940450235e-8 3.451587697569852e-8 1.887433001094681e-8 0.0000019413801128944206 0.000001569631803864589
          0.0000015592421278474957 0.0000011107672250561405 0.000001135277418607526 0.0000013949957349350886 0.0000013756897560806552 0.0000015903281024527833
          0.0000011888749331326168 0.000001436194994168409 0.0000011978834948347576 0.0000016594745992626783 0.0000016428815948731206 0.0000012122255529838484
          1.8471697385715854e-7 0.0000012229112012310427 0.0000011918899000354928 0.0000012891196370381034 0.000002121065703690599 0.000002056236021877979
          0.0000016034869167812866 0.0000012523927024857392 0.0000012237851161196369 7.653348961129997e-7 8.70686526208966e-7 7.699373282634053e-7
          6.575164635041376e-7 7.22812991065185e-7 4.4214632063601096e-7 2.519248306746528e-7 8.727281490060975e-7 4.5814405543692595e-7
          8.047053547352089e-7 1.526530288088611e-7 3.233081297352541e-7 4.9927287777046e-7 5.53607627023665e-7 2.842154323390226e-7
          5.725451825601526e-7 5.544906596678307e-7 3.709699253832286e-7 3.924993202306507e-7 3.335225846734742e-7 3.8567991659993714e-7
          5.266278092815546e-7 6.083820363602066e-7 2.7010665159349836e-7 1.0823333978295893e-7 2.410353989176667e-7 2.6972376626388635e-7
          2.6911084725531914e-7 3.00793630102475e-8 2.355571577703856e-8 3.304532607189973e-8 7.479060446369207e-8 7.127297965572964e-8
          4.877605725626216e-8 5.443417311463675e-8 1.3448120352837911e-8 5.5256486398112054e-8 3.5414220543205186e-8 1.703206854382962e-8
          2.627913485679469e-8 3.407774176558143e-8 1.5571954688298322e-8 1.5953719112296096e-8 1.0495794834188848e-8 3.50826921056363e-8
          2.4903735151867433e-8 5.037870556081598e-9 1.4724778198098566e-8 1.0684652414898314e-7 1.2662486838823944e-7 1.642566479541819e-7
          1.8790980236047426e-7 7.596062392728034e-8 1.3198662290579814e-7 4.9397932974285885e-8 7.439843853572788e-8 1.231634961708629e-7
          2.36224175504636e-8 2.2166677175938067e-7 2.491947363327091e-7 1.880126218843159e-7 9.939894409716987e-8 5.5990018208823744e-8
          1.104269139388833e-7 3.7629556559269555e-8 8.17437432036381e-8 1.1775551320769536e-8 2.34816900141333e-8 2.485222047766328e-8
          1.6486380966894285e-7 1.2585792984800666e-7 3.518782870749706e-8 2.0986981799316602e-8 4.9643247575940555e-8 7.970493243013681e-9
          2.130834388099013e-8 7.829951335256451e-8 3.464619451896658e-8 3.108136570535422e-7 3.0781196157738225e-7 3.0158915419985556e-7
          2.356765398061547e-7 2.4175846676160693e-7 2.735615860175107e-7 2.6737445097986877e-7 3.2441417632060365e-7 2.5694584908889485e-7
          2.89575506317463e-7 3.0481026610122224e-7 3.0536470527341445e-7 2.9907236215358283e-7 3.2220516354603116e-7 1.7270327646967165e-7
          2.393112104576392e-7 2.3315974775988198e-7 2.5473683631432247e-7 3.0591914444560666e-7 3.538376586811201e-7 3.471369041203993e-7
          2.7656063446006283e-7 3.108832276437321e-7 3.735427065729724e-7 2.9866788749813867e-7 3.353865626143257e-7 3.404361495596785e-7
          3.452058208274014e-7 3.721052377305127e-7 1.9928361023900558e-7 2.746295511670649e-7 2.97230418655679e-7 3.4997549209512426e-7
          4.1340626589889423e-7 4.03367518920547e-7 3.227875804552196e-7 3.6292506992310216e-7 4.361472609474833e-7 3.5023710688407595e-7
          3.9138639415912685e-7 3.933287719421997e-7 4.030625593909847e-7 3.975489479101308e-7 2.3216889501154496e-7 3.2248262092565734e-7
          3.4662552737077046e-7 4.1279634683976966e-7 4.887845188365838e-7 4.7258860665727904e-7 3.825121737923411e-7 4.2065743295853685e-7
          4.4208335835339655e-7 4.1444103988355495e-7 4.5240530363917177e-7 3.8076260449086385e-7 4.0329190975546836e-7 4.344946583201181e-7
          2.762398287480984e-7 3.687262592597947e-7 3.976084621598204e-7 4.2582121502007277e-7 2.6162002577323226e-7 2.557298447476036e-7
          2.9677368527119295e-7 2.9217997177198065e-7 2.700225726026172e-7 3.048454608710656e-7 2.1810753704271108e-7 2.4576624315618196e-7
          2.567844626819244e-7 2.3107117249668364e-7 3.319273447691537e-7 3.2863009879635776e-7 3.396683491395139e-7 2.734249492696528e-7
          2.2800675134394208e-7 2.0685830599813363e-7 2.2586550618706892e-7 3.0218160340949386e-7 3.0227335564475726e-7 2.703633203040533e-7
          2.688556455051062e-7 1.8045004645175347e-7 3.0327581267306885e-7 2.722019729023274e-7 1.8570986065232517e-7 2.384532849633494e-7
          2.355296876007186e-7 2.41128133131586e-7 4.6229314600960575e-7 4.3569283890752945e-7 4.697745413106761e-7 3.8774356794765043e-7
          1.79861360642939e-7 1.692233995610999e-7 3.0526096227588823e-7 2.725617909814048e-7 1.6176710769314044e-7 3.0639297533772667e-7
          2.7165476614947956e-7 1.585854384792608e-7 2.3986261968692144e-7 2.369165569612324e-7 5.352165461005632e-7 5.000902251636851e-7
          5.302445461013808e-7 4.317347710758681e-7 4.453273388780231e-7 4.872692380202055e-7 4.85256754055615e-7 5.295194487507513e-7
          4.635853577463015e-7 4.940778505246364e-7 3.426083456824071e-7 4.3702113283532516e-7 4.83443714233052e-7 4.911537182083141e-7
          5.375510558867428e-7 5.808462133600865e-7 6.003463215384444e-7 6.403116960768056e-7 5.26343062975922e-7 5.601360441764138e-7
          4.353295834811966e-7 5.374121587945122e-7 6.016767245566683e-7 5.656538697853326e-7 2.7440317165760894e-7 3.117880483276184e-7
          2.773864619110579e-7 3.1812363576891655e-7 2.03760703083173e-7 2.2561651832502192e-7 2.2187371393444813e-7 3.491729249976278e-7
          3.588608096267752e-7 2.4747233356687084e-7 2.787370170378909e-7 3.230951011770418e-7 2.782220587841073e-7 3.2632678012320126e-7
          1.9219752930179135e-7 2.1764544723566957e-7 2.1265854250874157e-7 3.674531853161926e-7 3.744315014622952e-7 2.4309336516954775e-7
          1.6655716513728643e-7 1.546979120954538e-7 3.051337799401956e-7 2.6850753705270554e-7 1.428386590536212e-7 2.3188129416521538e-7
          6.122909717847282e-7 5.614376710782442e-7 4.646965333363073e-7 6.753613241705114e-7 7.096289798629091e-7 5.956959216029155e-7
          5.69851099514671e-7 6.786997795792869e-7 6.54809007839775e-7
        </DataArray>
        <DataArray type="Float64" Name="gradient_matprop_error" format="ascii" RangeMin="0" RangeMax="0">
          0 0 0 0 0 0
          0 0 0 0 0 0
          0 0 0 0 0 0
          0 0 0 0 0 0
          0 0 0 0 0 0
          0 0 0 0 0 0
          0 0 0 0 0 0
          0 0 0 0 0 0
          0 0 0 0 0 0
          0 0 0 0 0 0
          0 0 0 0 0 0
          0 0 0 0 0 0
          0 0 0 0 0 0
          0 0 0 0 0 0
          0 0 0 0 0 0
          0 0 0 0 0 0
          0 0 0 0 0 0
          0 0 0 0 0 0
          0 0 0 0 0 0
          0 0 0 0 0 0
          0 0 0 0 0 0
          0 0 0 0 0 0
          0 0 0 0 0 0
          0 0 0 0 0 0
          0 0 0 0 0 0
          0 0 0 0 0 0
          0 0 0 0 0 0
          0 0 0 0 0 0
          0 0 0 0 0 0
          0 0 0 0 0 0
          0 0 0 0 0 0
          0 0 0 0 0 0
          0 0 0 0 0 0
          0 0 0 0 0 0
          0 0 0 0 0 0
          0 0 0 0 0 0
          0 0 0 0 0 0
          0 0 0 0 0 0
          0 0 0 0 0 0
          0 0 0 0 0 0
          0 0 0 0 0 0
          0 0 0 0 0 0
          0 0 0 0 0 0
          0 0 0 0 0 0
          0 0 0 0 0 0
          0 0 0 0 0 0
          0 0 0 0 0 0
          0 0 0 0 0 0
          0 0 0 0 0 0
          0 0 0 0 0 0
          0 0 0 0 0 0
          0 0 0 0 0 0
          0 0 0 0 0 0
          0 0 0 0 0 0
          0 0 0 0 0 0
          0 0 0 0 0 0
          0 0 0 0 0 0
          0 0 0 0 0 0
          0 0 0 0 0 0
          0 0 0 0 0 0
          0 0 0 0 0 0
          0 0 0
        </DataArray>
        <DataArray type="Float64" Name="initial_marker" format="ascii" RangeMin="0" RangeMax="0">
          0 0 0 0 0 0
          0 0 0 0 0 0
          0 0 0 0 0 0
          0 0 0 0 0 0
          0 0 0 0 0 0
          0 0 0 0 0 0
          0 0 0 0 0 0
          0 0 0 0 0 0
          0 0 0 0 0 0
          0 0 0 0 0 0
          0 0 0 0 0 0
          0 0 0 0 0 0
          0 0 0 0 0 0
          0 0 0 0 0 0
          0 0 0 0 0 0
          0 0 0 0 0 0
          0 0 0 0 0 0
          0 0 0 0 0 0
          0 0 0 0 0 0
          0 0 0 0 0 0
          0 0 0 0 0 0
          0 0 0 0 0 0
          0 0 0 0 0 0
          0 0 0 0 0 0
          0 0 0 0 0 0
          0 0 0 0 0 0
          0 0 0 0 0 0
          0 0 0 0 0 0
          0 0 0 0 0 0
          0 0 0 0 0 0
          0 0 0 0 0 0
          0 0 0 0 0 0
          0 0 0 0 0 0
          0 0 0 0 0 0
          0 0 0 0 0 0
          0 0 0 0 0 0
          0 0 0 0 0 0
          0 0 0 0 0 0
          0 0 0 0 0 0
          0 0 0 0 0 0
          0 0 0 0 0 0
          0 0 0 0 0 0
          0 0 0 0 0 0
          0 0 0 0 0 0
          0 0 0 0 0 0
          0 0 0 0 0 0
          0 0 0 0 0 0
          0 0 0 0 0 0
          0 0 0 0 0 0
          0 0 0 0 0 0
          0 0 0 0 0 0
          0 0 0 0 0 0
          0 0 0 0 0 0
          0 0 0 0 0 0
          0 0 0 0 0 0
          0 0 0 0 0 0
          0 0 0 0 0 0
          0 0 0 0 0 0
          0 0 0 0 0 0
          0 0 0 0 0 0
          0 0 0 0 0 0
          0 0 0
        </DataArray>
        <DataArray type="Float64" Name="markers_norefine" format="ascii" RangeMin="0" RangeMax="0">
          0 0 0 0 0 0
          0 0 0 0 0 0
          0 0 0 0 0 0
          0 0 0 0 0 0
          0 0 0 0 0 0
          0 0 0 0 0 0
          0 0 0 0 0 0
          0 0 0 0 0 0
          0 0 0 0 0 0
          0 0 0 0 0 0
          0 0 0 0 0 0
          0 0 0 0 0 0
          0 0 0 0 0 0
          0 0 0 0 0 0
          0 0 0 0 0 0
          0 0 0 0 0 0
          0 0 0 0 0 0
          0 0 0 0 0 0
          0 0 0 0 0 0
          0 0 0 0 0 0
          0 0 0 0 0 0
          0 0 0 0 0 0
          0 0 0 0 0 0
          0 0 0 0 0 0
          0 0 0 0 0 0
          0 0 0 0 0 0
          0 0 0 0 0 0
          0 0 0 0 0 0
          0 0 0 0 0 0
          0 0 0 0 0 0
          0 0 0 0 0 0
          0 0 0 0 0 0
          0 0 0 0 0 0
          0 0 0 0 0 0
          0 0 0 0 0 0
          0 0 0 0 0 0
          0 0 0 0 0 0
          0 0 0 0 0 0
          0 0 0 0 0 0
          0 0 0 0 0 0
          0 0 0 0 0 0
          0 0 0 0 0 0
          0 0 0 0 0 0
          0 0 0 0 0 0
          0 0 0 0 0 0
          0 0 0 0 0 0
          0 0 0 0 0 0
          0 0 0 0 0 0
          0 0 0 0 0 0
          0 0 0 0 0 0
          0 0 0 0 0 0
          0 0 0 0 0 0
          0 0 0 0 0 0
          0 0 0 0 0 0
          0 0 0 0 0 0
          0 0 0 0 0 0
          0 0 0 0 0 0
          0 0 0 0 0 0
          0 0 0 0 0 0
          0 0 0 0 0 0
          0 0 0 0 0 0
          0 0 0
        </DataArray>
        <DataArray type="Float64" Name="markers_mustrefine" format="ascii" RangeMin="0" RangeMax="0">
          0 0 0 0 0 0
          0 0 0 0 0 0
          0 0 0 0 0 0
          0 0 0 0 0 0
          0 0 0 0 0 0
          0 0 0 0 0 0
          0 0 0 0 0 0
          0 0 0 0 0 0
          0 0 0 0 0 0
          0 0 0 0 0 0
          0 0 0 0 0 0
          0 0 0 0 0 0
          0 0 0 0 0 0
          0 0 0 0 0 0
          0 0 0 0 0 0
          0 0 0 0 0 0
          0 0 0 0 0 0
          0 0 0 0 0 0
          0 0 0 0 0 0
          0 0 0 0 0 0
          0 0 0 0 0 0
          0 0 0 0 0 0
          0 0 0 0 0 0
          0 0 0 0 0 0
          0 0 0 0 0 0
          0 0 0 0 0 0
          0 0 0 0 0 0
          0 0 0 0 0 0
          0 0 0 0 0 0
          0 0 0 0 0 0
          0 0 0 0 0 0
          0 0 0 0 0 0
          0 0 0 0 0 0
          0 0 0 0 0 0
          0 0 0 0 0 0
          0 0 0 0 0 0
          0 0 0 0 0 0
          0 0 0 0 0 0
          0 0 0 0 0 0
          0 0 0 0 0 0
          0 0 0 0 0 0
          0 0 0 0 0 0
          0 0 0 0 0 0
          0 0 0 0 0 0
          0 0 0 0 0 0
          0 0 0 0 0 0
          0 0 0 0 0 0
          0 0 0 0 0 0
          0 0 0 0 0 0
          0 0 0 0 0 0
          0 0 0 0 0 0
          0 0 0 0 0 0
          0 0 0 0 0 0
          0 0 0 0 0 0
          0 0 0 0 0 0
          0 0 0 0 0 0
          0 0 0 0 0 0
          0 0 0 0 0 0
          0 0 0 0 0 0
          0 0 0 0 0 0
          0 0 0 0 0 0
          0 0 0
        </DataArray>
        <DataArray type="Float64" Name="gradient_marker" format="ascii" RangeMin="1" RangeMax="1">
          1 1 1 1 1 1
          1 1 1 1 1 1
          1 1 1 1 1 1
          1 1 1 1 1 1
          1 1 1 1 1 1
          1 1 1 1 1 1
          1 1 1 1 1 1
          1 1 1 1 1 1
          1 1 1 1 1 1
          1 1 1 1 1 1
          1 1 1 1 1 1
          1 1 1 1 1 1
          1 1 1 1 1 1
          1 1 1 1 1 1
          1 1 1 1 1 1
          1 1 1 1 1 1
          1 1 1 1 1 1
          1 1 1 1 1 1
          1 1 1 1 1 1
          1 1 1 1 1 1
          1 1 1 1 1 1
          1 1 1 1 1 1
          1 1 1 1 1 1
          1 1 1 1 1 1
          1 1 1 1 1 1
          1 1 1 1 1 1
          1 1 1 1 1 1
          1 1 1 1 1 1
          1 1 1 1 1 1
          1 1 1 1 1 1
          1 1 1 1 1 1
          1 1 1 1 1 1
          1 1 1 1 1 1
          1 1 1 1 1 1
          1 1 1 1 1 1
          1 1 1 1 1 1
          1 1 1 1 1 1
          1 1 1 1 1 1
          1 1 1 1 1 1
          1 1 1 1 1 1
          1 1 1 1 1 1
          1 1 1 1 1 1
          1 1 1 1 1 1
          1 1 1 1 1 1
          1 1 1 1 1 1
          1 1 1 1 1 1
          1 1 1 1 1 1
          1 1 1 1 1 1
          1 1 1 1 1 1
          1 1 1 1 1 1
          1 1 1 1 1 1
          1 1 1 1 1 1
          1 1 1 1 1 1
          1 1 1 1 1 1
          1 1 1 1 1 1
          1 1 1 1 1 1
          1 1 1 1 1 1
          1 1 1 1 1 1
          1 1 1 1 1 1
          1 1 1 1 1 1
          1 1 1 1 1 1
          1 1 1
        </DataArray>
        <DataArray type="Float64" Name="gradient_matprop_marker" format="ascii" RangeMin="0" RangeMax="0">
          0 0 0 0 0 0
          0 0 0 0 0 0
          0 0 0 0 0 0
          0 0 0 0 0 0
          0 0 0 0 0 0
          0 0 0 0 0 0
          0 0 0 0 0 0
          0 0 0 0 0 0
          0 0 0 0 0 0
          0 0 0 0 0 0
          0 0 0 0 0 0
          0 0 0 0 0 0
          0 0 0 0 0 0
          0 0 0 0 0 0
          0 0 0 0 0 0
          0 0 0 0 0 0
          0 0 0 0 0 0
          0 0 0 0 0 0
          0 0 0 0 0 0
          0 0 0 0 0 0
          0 0 0 0 0 0
          0 0 0 0 0 0
          0 0 0 0 0 0
          0 0 0 0 0 0
          0 0 0 0 0 0
          0 0 0 0 0 0
          0 0 0 0 0 0
          0 0 0 0 0 0
          0 0 0 0 0 0
          0 0 0 0 0 0
          0 0 0 0 0 0
          0 0 0 0 0 0
          0 0 0 0 0 0
          0 0 0 0 0 0
          0 0 0 0 0 0
          0 0 0 0 0 0
          0 0 0 0 0 0
          0 0 0 0 0 0
          0 0 0 0 0 0
          0 0 0 0 0 0
          0 0 0 0 0 0
          0 0 0 0 0 0
          0 0 0 0 0 0
          0 0 0 0 0 0
          0 0 0 0 0 0
          0 0 0 0 0 0
          0 0 0 0 0 0
          0 0 0 0 0 0
          0 0 0 0 0 0
          0 0 0 0 0 0
          0 0 0 0 0 0
          0 0 0 0 0 0
          0 0 0 0 0 0
          0 0 0 0 0 0
          0 0 0 0 0 0
          0 0 0 0 0 0
          0 0 0 0 0 0
          0 0 0 0 0 0
          0 0 0 0 0 0
          0 0 0 0 0 0
          0 0 0 0 0 0
          0 0 0
        </DataArray>
        <DataArray type="Float64" Name="combo" format="ascii" RangeMin="1" RangeMax="1">
          1 1 1 1 1 1
          1 1 1 1 1 1
          1 1 1 1 1 1
          1 1 1 1 1 1
          1 1 1 1 1 1
          1 1 1 1 1 1
          1 1 1 1 1 1
          1 1 1 1 1 1
          1 1 1 1 1 1
          1 1 1 1 1 1
          1 1 1 1 1 1
          1 1 1 1 1 1
          1 1 1 1 1 1
          1 1 1 1 1 1
          1 1 1 1 1 1
          1 1 1 1 1 1
          1 1 1 1 1 1
          1 1 1 1 1 1
          1 1 1 1 1 1
          1 1 1 1 1 1
          1 1 1 1 1 1
          1 1 1 1 1 1
          1 1 1 1 1 1
          1 1 1 1 1 1
          1 1 1 1 1 1
          1 1 1 1 1 1
          1 1 1 1 1 1
          1 1 1 1 1 1
          1 1 1 1 1 1
          1 1 1 1 1 1
          1 1 1 1 1 1
          1 1 1 1 1 1
          1 1 1 1 1 1
          1 1 1 1 1 1
          1 1 1 1 1 1
          1 1 1 1 1 1
          1 1 1 1 1 1
          1 1 1 1 1 1
          1 1 1 1 1 1
          1 1 1 1 1 1
          1 1 1 1 1 1
          1 1 1 1 1 1
          1 1 1 1 1 1
          1 1 1 1 1 1
          1 1 1 1 1 1
          1 1 1 1 1 1
          1 1 1 1 1 1
          1 1 1 1 1 1
          1 1 1 1 1 1
          1 1 1 1 1 1
          1 1 1 1 1 1
          1 1 1 1 1 1
          1 1 1 1 1 1
          1 1 1 1 1 1
          1 1 1 1 1 1
          1 1 1 1 1 1
          1 1 1 1 1 1
          1 1 1 1 1 1
          1 1 1 1 1 1
          1 1 1 1 1 1
          1 1 1 1 1 1
          1 1 1
        </DataArray>
        <DataArray type="Float64" Name="dHdT" format="ascii" RangeMin="25.802398669780068" RangeMax="30.537818695095453">
          25.811746055695 25.81173233314452 25.811694081357906 25.811701399099867 25.811705950975824 25.81172862338803
          25.8117865430646 25.811774297939138 25.811693728635746 25.811673902843904 25.81178654222264 25.81181733982671
          25.811655131987372 25.81165415182927 25.81184115153672 25.811845925375657 25.811646968690034 25.8116500316619
          25.81185622899739 25.811853987314528 25.81165582957129 25.811656742504738 25.811844462741156 25.811842644902455
          25.811654077052054 25.811848137430776 25.811653171671168 25.8118506992146 25.81165309463377 25.811851745631667
          25.81302477937507 25.81290564323885 25.812610043397747 25.81267517231406 25.812612497677037 25.812451934195874
          25.812341647216535 25.81230756244606 25.812255494446283 25.812259951706167 25.81231444355664 25.812325565253047
          25.81229137071472 25.81227347767559 25.81226440896605 25.808708957329415 25.809313534353507 25.810783420393452
          25.81044766830702 25.810754773742755 25.811575019124113 25.812067195446613 25.81229071697659 25.812546300448474
          25.812564440354045 25.812253306433398 25.81218637928462 25.812395264505476 25.812514238506566 25.812582580259612
          25.831926853502495 25.828891428712943 25.822083559858108 25.823793020924803 25.81861876588372 25.816794390074694
          25.80920178632671 25.81287174074594 25.813197160372148 25.81325018506778 25.81527569100327 25.815659188347112
          25.814452363938525 25.813766218817094 25.81342981451598 26.250551260588775 26.244306943047782 25.934133294328962
          25.94135029645933 26.144744139171994 25.90868501805138 25.977074967760597 25.8758398552032 25.84771910000729
          25.832349344265623 25.849491413934558 25.814366526874057 25.813546531987065 25.813591276382894 28.44122189990877
          28.757015954132548 26.3345285778514 26.31361809250756 29.33404622556004 26.15874068562094 30.222487332987043
          26.06557136629018 25.844019296968128 25.879414626538203 25.806084494280007 25.80647084375746 25.877631091222433
          25.8136206146826 25.802398669780068 25.806788779594676 25.81117888940929 26.63958524008778 26.41987905481697
          26.422940934733223 27.245998683331194 27.270354349242957 26.763618237664367 26.759435491249704 26.410615681445613
          27.318406511843758 26.769799381963395 26.20017286954616 26.47422211249471 26.476710205802732 26.284764328191148
          28.54411154191591 27.367842508903443 27.34001411815359 27.424063066891783 26.748271355443258 26.62106382290267
          26.391231635480445 27.371601218825734 26.79166651116257 26.118984548143988 27.557823031218522 26.83170932603956
          26.015157868469093 26.124335714725376 26.036963963454156 29.0205840097099 27.628615357827236 27.84602802618018
          26.274298176935947 26.018655979332813 25.96814751395308 27.74691131950647 26.833562475308312 25.93682374227148
          27.800837754375202 26.794352825735487 25.917265074967712 26.002829255944356 25.967481513610803 29.71962435435949
          27.928482033443302 28.010105699126186 26.114924238685173 25.93622138777344 25.906084669608695 25.87672072342097
          25.93166522198261 25.809245906732315 25.811337171795497 25.813517730016834 25.834540116341238 25.82827986083266
          25.824533728767594 25.829408960516304 25.809700781455263 25.817579171294256 25.816507385427155 25.81342843685868
          25.820787596702523 25.82427780469137 25.815435599560054 25.809383214675922 25.811153369495038 25.80952009466422
          25.811058131751217 25.812923524314158 25.81259616883821 25.8406987203651 25.845434318699233 25.858311774759926
          25.86539605815475 25.83244542682446 25.846162120710996 25.812481151850243 25.810126818358484 25.81066279861918
          25.809081402771042 25.875924829154748 25.885357797610272 25.859878814597533 25.807772484866724 25.826102228691333
          25.836266387919608 25.820950076271362 25.827059959815905 25.811897108068308 25.80867423245021 25.809280609258696
          25.84643054714789 25.83316984336044 25.80545135683211 25.81700387670028 25.818871798953804 25.81251836782578
          25.81061723306608 25.820739721207318 25.808716098306377 27.865686864000956 27.657998189396405 27.647876443689967
          28.146468125116627 28.16767768615266 27.933320684384498 27.917295366279742 27.6837834719892 28.22261750015703
          27.97477303706449 27.450309514791858 27.69896368261633 27.688122607442857 27.726928573971946 28.469668508304373
          28.20864317937259 28.186714288869517 28.26576260213977 27.947617850440807 27.94819954967828 27.7178704729595
          28.29586380400425 28.029887964781214 27.755551717798433 28.379228626644757 28.09198537374763 27.487541396240715
          27.76391212555818 27.804742120850502 28.64352805833022 28.341905456602923 28.428419029696826 28.040282854875635
          28.060329447800704 27.796163554614424 28.471745149506262 28.160174267096536 27.8420104456115 28.57136131222935
          28.237012447116946 27.531997661428136 27.84860338468681 27.63118219490285 28.883160851211812 28.52418497957865
          28.632014448622392 28.16520910794549 28.18465748768581 27.891003526255652 28.677304192097186 28.321618503302624
          27.609816393940502 28.798291215303006 28.41355080420587 27.245025660160003 27.524688160878846 27.550517315401915
          29.169950896508563 28.752233480349588 28.87948861894525 27.804350661597688 26.588105548091484 26.597383541100424
          26.722427177518075 26.73390082250691 26.56662726152168 26.701046949850024 26.28350934068846 26.361410847786516
          26.379582224314362 26.32986966200496 26.85674880694467 26.870418103913394 26.835466638178364 26.439312354884574
          26.236187894896585 26.190350538829364 26.21429967154149 26.68119516434801 26.657215841938008 26.554818326870205
          26.574261437215 26.15189325451159 26.619142649835148 26.52101446904197 26.14451318276214 26.4524208118024
          26.46732771008199 26.42288628824879 27.717496281766508 27.46600822729479 27.48024101037854 27.09367529440999
          26.157984457735466 26.122722234240136 26.58990395987108 26.49131602241741 26.09321593791433 26.55864368775235
          26.459374271419176 26.087460010744806 26.392728084963743 26.360104855086007 27.774450629926985 27.48929335416131
          27.49526518387419 27.067349560681325 28.935042418077927 28.511878387819745 29.08257991871738 28.614485676213537
          27.573420382321125 27.593972159467604 29.513336061602267 29.011026435960964 29.158625015242343 27.886492043448598