<?xml version="1.0"?>
<VTKFile type="UnstructuredGrid" version="0.1" byte_order="LittleEndian" header_type="UInt32" compressor="vtkZLibDataCompressor">
  <UnstructuredGrid>
    <Piece NumberOfPoints="721" NumberOfCells="453">
      <PointData>
        <DataArray type="Int32" Name="libmesh_node_id" format="ascii" RangeMin="805" RangeMax="4506">
          805 806 813 814 950 952
          953 954 957 958 959 960
          1115 1120 1451 1452 1453 1456
          1459 1461 1462 1463 1464 1465
          1466 1467 1468 1469 1470 1471
          1472 1473 1474 1485 1486 1487
          1488 1489 1490 1491 1492 1493
          1494 1752 1753 1959 1960 1961
          1962 1963 1964 1965 1966 1967
          1968 2347 2348 2349 2350 2351
          2352 2353 2354 2355 2356 2357
          2358 2359 2360 2371 2372 2373
          2374 2375 2376 2377 2378 2379
          2380 2391 2392 2393 2394 2395
          2396 2397 2398 2399 2400 2408
          2409 2410 2411 2412 2413 2414
          2415 2416 2417 2418 2419 2420
          2421 2422 2423 2424 2425 2426
          2427 2428 2429 2430 2431 2432
          2433 2434 2435 2436 2437 2438
          2439 2440 2441 2442 2443 2444
          2445 2446 2447 2448 2449 2450
          2451 2452 2453 2454 2455 2456
          2457 2458 2459 2460 2461 2462
          2463 2464 2465 2466 2467 2468
          2469 2470 2471 2472 2473 2474
          2475 2476 2477 2478 2479 2480
          2481 2482 2483 2484 2485 2486
          2487 2488 2489 2490 2491 2492
          2493 2494 2495 2496 2497 2498
          2499 2500 2505 2507 2508 2510
          2526 2532 2534 2545 2546 2549
          2551 2552 2554 2565 2567 2569
          2571 3827 3828 3829 3830 3831
          3832 3833 3834 3835 3836 3837
          3838 3839 3840 3841 3842 3843
          3844 3845 3846 3847 3916 3917
          3918 3919 3920 3921 3922 3923
          3924 3925 3926 3927 3928 3929
          3930 3931 3932 3933 3934 3935
          3936 3937 3938 3939 3940 3941
          3942 3943 3944 3945 3946 3947
          3948 3949 3950 3951 3952 3953
          3954 3955 3956 3957 3958 3959
          3960 3961 3962 3963 3964 3965
          3966 3967 3968 3969 3970 3971
          3972 3973 3974 3975 3976 3977
          3978 3979 3980 3981 3982 3983
          3987 3988 4006 4007 4008 4009
          4010 4011 4012 4013 4014 4015
          4016 4017 4018 4019 4020 4021
          4022 4023 4024 4025 4026 4027
          4028 4029 4030 4031 4032 4033
          4034 4035 4036 4037 4038 4039
          4040 4041 4042 4043 4044 4045
          4046 4047 4048 4049 4050 4051
          4052 4053 4054 4055 4056 4057
          4058 4059 4060 4061 4062 4063
          4064 4065 4066 4067 4068 4069
          4070 4071 4072 4073 4074 4075
          4076 4077 4078 4079 4080 4081
          4082 4083 4084 4085 4086 4087
          4088 4089 4090 4091 4092 4093
          4094 4095 4096 4097 4098 4099
          4100 4101 4102 4103 4104 4105
          4106 4107 4108 4109 4110 4111
          4112 4113 4114 4115 4116 4117
          4118 4119 4120 4121 4122 4123
          4124 4125 4126 4127 4128 4129
          4130 4131 4132 4133 4134 4135
          4136 4137 4138 4139 4140 4141
          4142 4143 4144 4145 4146 4147
          4148 4149 4150 4151 4152 4153
          4154 4155 4156 4157 4158 4159
          4160 4161 4162 4163 4164 4165
          4166 4167 4168 4169 4170 4171
          4172 4173 4174 4175 4176 4177
          4178 4179 4180 4181 4182 4183
          4184 4185 4186 4187 4188 4189
          4190 4191 4192 4193 4194 4195
          4196 4197 4198 4199 4200 4201
          4202 4203 4204 4205 4206 4207
          4208 4209 4210 4211 4212 4213
          4214 4215 4216 4217 4218 4219
          4220 4221 4222 4223 4224 4225
          4226 4227 4228 4229 4230 4231
          4232 4233 4234 4235 4236 4237
          4238 4239 4240 4241 4242 4243
          4244 4245 4246 4247 4248 4249
          4250 4251 4252 4253 4254 4255
          4256 4257 4258 4259 4260 4261
          4262 4263 4264 4265 4266 4267
          4268 4269 4270 4271 4272 4273
          4274 4275 4276 4277 4278 4279
          4280 4281 4282 4283 4284 4285
          4286 4287 4288 4289 4290 4291
          4292 4293 4294 4295 4296 4297
          4298 4299 4300 4301 4302 4303
          4304 4305 4306 4307 4308 4309
          4310 4311 4312 4313 4318 4319
          4320 4338 4339 4340 4350 4351
          4352 4353 4354 4355 4356 4357
          4358 4359 4370 4371 4372 4373
          4374 4375 4376 4384 4385 4386
          4387 4388 4389 4390 4391 4392
          4393 4404 4405 4406 4407 4408
          4409 4410 4486 4487 4488 4489
          4490 4491 4492 4500 4501 4502
          4503 4504 4505 4506 949 955
          951 956 1113 961 1119 1454
          1477 1475 1455 1478 1476 1460
          1483 1482 1481 1749 1750 948
          1951 1954 1955 1952 1447 1448
          1958 1957 1953 2337 2338 2339
          2342 1449 2345 1450 2363 2364
          2367 2369 2402 2404 2406 3819
          3860 3861 3863 2383 3866 2384
          3825 3876 3878 3880 2386 3894
          3895 3897 1457 3900 2389 3910
          3912 3914 1458 3990 4000 4002
          4004
        </DataArray>
        <DataArray type="Float64" Name="bounds" format="ascii" RangeMin="0" RangeMax="0">
          0 0 0 0 0 0
          0 0 0 0 0 0
          0 0 0 0 0 0
          0 0 0 0 0 0
          0 0 0 0 0 0
          0 0 0 0 0 0
          0 0 0 0 0 0
          0 0 0 0 0 0
          0 0 0 0 0 0
          0 0 0 0 0 0
          0 0 0 0 0 0
          0 0 0 0 0 0
          0 0 0 0 0 0
          0 0 0 0 0 0
          0 0 0 0 0 0
          0 0 0 0 0 0
          0 0 0 0 0 0
          0 0 0 0 0 0
          0 0 0 0 0 0
          0 0 0 0 0 0
          0 0 0 0 0 0
          0 0 0 0 0 0
          0 0 0 0 0 0
          0 0 0 0 0 0
          0 0 0 0 0 0
          0 0 0 0 0 0
          0 0 0 0 0 0
          0 0 0 0 0 0
          0 0 0 0 0 0
          0 0 0 0 0 0
          0 0 0 0 0 0
          0 0 0 0 0 0
          0 0 0 0 0 0
          0 0 0 0 0 0
          0 0 0 0 0 0
          0 0 0 0 0 0
          0 0 0 0 0 0
          0 0 0 0 0 0
          0 0 0 0 0 0
          0 0 0 0 0 0
          0 0 0 0 0 0
          0 0 0 0 0 0
          0 0 0 0 0 0
          0 0 0 0 0 0
          0 0 0 0 0 0
          0 0 0 0 0 0
          0 0 0 0 0 0
          0 0 0 0 0 0
          0 0 0 0 0 0
          0 0 0 0 0 0
          0 0 0 0 0 0
          0 0 0 0 0 0
          0 0 0 0 0 0
          0 0 0 0 0 0
          0 0 0 0 0 0
          0 0 0 0 0 0
          0 0 0 0 0 0
          0 0 0 0 0 0
          0 0 0 0 0 0
          0 0 0 0 0 0
          0 0 0 0 0 0
          0 0 0 0 0 0
          0 0 0 0 0 0
          0 0 0 0 0 0
          0 0 0 0 0 0
          0 0 0 0 0 0
          0 0 0 0 0 0
          0 0 0 0 0 0
          0 0 0 0 0 0
          0 0 0 0 0 0
          0 0 0 0 0 0
          0 0 0 0 0 0
          0 0 0 0 0 0
          0 0 0 0 0 0
          0 0 0 0 0 0
          0 0 0 0 0 0
          0 0 0 0 0 0
          0 0 0 0 0 0
          0 0 0 0 0 0
          0 0 0 0 0 0
          0 0 0 0 0 0
          0 0 0 0 0 0
          0 0 0 0 0 0
          0 0 0 0 0 0
          0 0 0 0 0 0
          0 0 0 0 0 0
          0 0 0 0 0 0
          0 0 0 0 0 0
          0 0 0 0 0 0
          0 0 0 0 0 0
          0 0 0 0 0 0
          0 0 0 0 0 0
          0 0 0 0 0 0
          0 0 0 0 0 0
          0 0 0 0 0 0
          0 0 0 0 0 0
          0 0 0 0 0 0
          0 0 0 0 0 0
          0 0 0 0 0 0
          0 0 0 0 0 0
          0 0 0 0 0 0
          0 0 0 0 0 0
          0 0 0 0 0 0
          0 0 0 0 0 0
          0 0 0 0 0 0
          0 0 0 0 0 0
          0 0 0 0 0 0
          0 0 0 0 0 0
          0 0 0 0 0 0
          0 0 0 0 0 0
          0 0 0 0 0 0
          0 0 0 0 0 0
          0 0 0 0 0 0
          0 0 0 0 0 0
          0 0 0 0 0 0
          0 0 0 0 0 0
          0 0 0 0 0 0
          0 0 0 0 0 0
          0 0 0 0 0 0
          0 0 0 0 0 0
          0
        </DataArray>
        <DataArray type="Float64" Name="gradient_error" format="ascii" RangeMin="1.1449994044565744e-9" RangeMax="1.5615491089624697e-7">
          3.827458277962938e-9 1.5182464607543473e-8 4.414592455777514e-9 1.0673319565445317e-8 8.941513133396774e-8 1.764879323230087e-8
          6.462139771487438e-8 5.5159040344039495e-8 1.730966595155615e-8 2.096287672053599e-9 1.5615491089624697e-7 1.5131183663217122e-7
          1.1449994044565744e-9 1.6257834324121198e-9 7.14674744024491e-8 3.9688731967481346e-8 3.6536643805417656e-8 1.2015303946237137e-7
          5.0191972620107015e-9 7.866269816431077e-8 6.158883829034683e-8 9.43972385339727e-9 4.0534768933507485e-8 4.9630667714334905e-8
          1.1679211860429403e-8 4.4013402385999665e-8 6.867661374426686e-8 1.1552510113826818e-7 1.0664277063001633e-7 3.079710015742131e-9
          6.669304320234445e-9 9.162199109416738e-9 1.5610287299907284e-7 6.95824175249446e-8 1.0137530784827185e-7 5.7231083998953086e-8
          8.803318157966684e-8 1.9303270994990873e-8 2.4046076396162577e-8 1.5705262135629944e-8 1.331681981715991e-7 1.1883527916038056e-7
          2.878888179733428e-8 3.712352268249152e-9 3.636944141642953e-9 2.3087001412076824e-9 5.622464211453917e-9 5.300122306456554e-8
          4.4119160741060805e-8 3.6106162607981168e-9 4.023782501980676e-8 3.308246522630009e-8 8.93622828170015e-9 3.523709841755607e-8
          2.5927105432793418e-8 5.221726438731212e-8 4.939151328281009e-8 6.008414977962644e-8 5.8033952753772185e-8 5.010564691613815e-8
          6.314423954556555e-8 6.072833477619265e-8 4.1961246617473486e-8 5.149423068059472e-8 5.312793202610621e-8 3.6882807328452525e-8
          3.6712820786064344e-8 3.9311890212902214e-8 3.4590309076285974e-8 3.295127830838433e-8 4.090796717639382e-8 3.2217011644634626e-8
          4.118389196530432e-8 2.854582556012975e-8 3.481122871951615e-8 3.442434988521595e-8 4.0402595472286395e-8 4.185308270730221e-8
          4.85633137574742e-8 3.5841041313730632e-9 4.046257086425569e-9 4.300129292368996e-9 4.751334295574336e-9 6.118324204119504e-9
          6.57626288868874e-9 1.7426806956643537e-9 2.85350127509775e-9 3.3871810137819645e-9 4.53547645334823e-9 3.357193330415996e-8
          3.55395106149461e-8 5.9090059711301546e-8 6.236721787026493e-8 3.5029523953888556e-8 3.726529831334905e-8 6.213012378655721e-8
          5.3766012199633937e-8 5.035963041668689e-8 4.8322869107778844e-8 5.437625824711954e-8 4.992610274804577e-8 3.197650990377618e-8
          4.713036748876794e-8 4.154472224563543e-8 5.456737836393356e-8 5.565742040114666e-8 2.4991193047404537e-8 3.318059452920172e-8
          2.6650338017755302e-8 3.854622290258991e-8 5.2549499560985533e-8 4.864740045487272e-8 3.17303867663648e-8 4.7699022070537935e-8
          4.630040592689578e-8 3.088343321362005e-8 4.7616009414777e-8 3.8966766539600876e-8 5.628712739464177e-8 5.626882884125738e-8
          1.053390261908592e-8 2.8448496760053844e-8 3.021915192460031e-8 4.241313742416667e-8 3.116362441284424e-8 4.122028652935521e-8
          2.976669604457437e-8 4.092241349578088e-8 2.619105296815747e-8 3.3763606076432624e-8 3.277416660635686e-8 4.32082973015772e-8
          4.4353889190782587e-8 5.135233587879325e-8 2.8012571176666287e-8 4.019646696715342e-8 2.5848749332568493e-8 3.89130748952455e-8
          2.283691062289073e-8 3.14217341971276e-8 2.961817084945194e-8 4.515721574692472e-8 4.546117424602785e-8 5.292592772995169e-8
          5.1921573331137075e-9 5.634218818720835e-9 6.301357132169463e-9 6.744577936001201e-9 7.206630219708554e-9 8.015395502050488e-9
          2.5376534588604643e-9 4.043122311747623e-9 4.84628026086523e-9 5.72296834577523e-9 7.673158203779798e-9 8.101081431446489e-9
          9.34367002580844e-9 9.695150947810682e-9 9.031833113706713e-9 1.0269714384662182e-8 3.719911806613957e-9 5.813972378635264e-9
          6.930495499581028e-9 7.834844885287071e-9 3.759141331159584e-8 3.971328487220787e-8 6.575789890888599e-8 6.921576640818437e-8
          3.963377108882794e-8 4.2153821701095345e-8 7.014728524489329e-8 4.1798387616363405e-8 4.3669776545486136e-8 7.254498243241864e-8
          7.538067966248808e-8 4.4747952219380484e-8 4.728577346332132e-8 7.924466717629834e-8 4.6518276215664755e-8 4.297256340094534e-8
          5.2337058896569154e-8 5.8195070417303753e-8 5.5383189324904915e-8 3.533609718858009e-8 4.311515854222788e-8 4.509876321520898e-8
          3.697098289456872e-8 4.5072698303336156e-8 5.214842956732826e-8 1.1249360570503485e-8 1.1492425669210332e-8 1.168430553884138e-8
          4.923126789520125e-9 8.098282996196266e-9 1.0629544443312646e-8 4.511746439952214e-8 7.735803174844604e-8 4.949873821100414e-8
          8.672450370116225e-8 5.604090694707031e-9 5.800487666065968e-9 6.0066472374892395e-9 6.53615741929666e-9 6.032212502050784e-9
          6.233591406241402e-9 6.4953147599204456e-9 6.9952809975949535e-9 7.412331236303066e-9 7.684215744879664e-9 7.792466597718931e-9
          7.965081842842147e-9 8.264131503525592e-9 8.475042851261832e-9 7.439812110560957e-9 7.660008165881096e-9 8.034616598510177e-9
          7.484315407762048e-9 8.334067434019403e-9 8.628640503636025e-9 8.092621166441544e-9 4.7141011336008805e-9 4.855294028563185e-9
          4.979419242712989e-9 5.120620093271269e-9 5.367089720142513e-9 5.619955114308248e-9 3.2950292811597726e-9 3.419578855345334e-9
          3.7153440209746775e-9 3.749269853512473e-9 5.277805918781502e-9 5.419281287131532e-9 5.62215800778031e-9 5.760182081274057e-9
          5.909535220055832e-9 6.239610502591413e-9 3.9192695746614165e-9 4.050327214375328e-9 4.429087444771975e-9 4.379302226222891e-9
          6.309054687787968e-9 6.5201184707458704e-9 7.317314930869275e-9 7.532815952223679e-9 4.491768537951115e-9 4.71448855904109e-9
          5.9948844468583925e-9 6.77856882828985e-9 7.080891611093356e-9 7.794007977401041e-9 8.081269435883784e-9 4.9937027813797784e-9
          5.325796512846085e-9 6.322359298129492e-9 2.179380174550742e-9 2.4234005014505467e-9 2.3833149789743986e-9 2.6446912636675515e-9
          2.9618660268584306e-9 3.2276772833633954e-9 1.5928133592766689e-9 1.917743683270827e-9 2.0932874344390472e-9 2.6232143676802827e-9
          2.6123726067424395e-9 2.8917527160411837e-9 2.8699634811722023e-9 3.1685686080729386e-9 3.5207799700499497e-9 3.841693194652536e-9
          1.9096053996742647e-9 2.287822171353372e-9 2.5040117292295954e-9 3.1067449301708283e-9 3.536680663229593e-9 3.819970654101968e-9
          4.747234551511592e-9 4.929948182997939e-9 3.2956023898298268e-9 3.5669853867338313e-9 4.3468634733260155e-9 4.136012393469915e-9
          4.489169476308507e-9 5.143224769929196e-9 5.401014752751001e-9 3.876675037917826e-9 4.224397645585963e-9 4.7547040471396584e-9
          7.549905111246694e-9 7.452631066415702e-9 7.699783714639707e-9 7.993628264696948e-9 7.645354426357267e-9 7.98377228165134e-9
          7.351432547769621e-9 7.553704224725027e-9 7.742222000230637e-9 8.281836911632056e-9 8.576118139744604e-9 8.274481740411626e-9
          8.570465779493325e-9 7.805149125522516e-9 8.078679552643153e-9 8.375765619189068e-9 6.6721598396277166e-9 6.859637917140782e-9
          7.666900677324925e-9 7.950033758123536e-9 6.38101384711451e-9 6.564507315715232e-9 7.655750799141065e-9 7.075652319329732e-9
          7.317357179532441e-9 8.26645277098093e-9 8.594811151848494e-9 6.770612776859138e-9 7.0009510296317555e-9 8.237716617965433e-9
          9.936552311916443e-9 1.0085166835969409e-8 1.0072807323067328e-8 1.0361414123525517e-8 1.0060447810165248e-8 1.0128619265840346e-8
          1.0037562241854199e-8 9.946505217868052e-9 6.614199466309969e-9 6.813988228169861e-9 8.148358133984275e-9 7.587750755882684e-9
          1.0316653411436613e-8 1.0240971347439395e-8 1.0702191467483585e-8 1.0635753142401795e-8 1.0165289283442177e-8 1.0569314817320007e-8
          8.941009941594597e-9 8.960886147367598e-9 9.441761166482648e-9 8.976169531392588e-9 8.59355214482125e-9 8.961830639482103e-9
          9.133074180093194e-9 9.373902444976123e-9 9.818751998216222e-9 9.897188810028246e-9 1.0611209793507905e-8 1.0666859291652676e-8
          1.097587629435086e-8 1.0722508789797447e-8 1.1228577621728233e-8 1.1288583785998372e-8 1.1647506409546856e-8 1.1348589950268511e-8
          1.1099517863709526e-8 1.1020071444703947e-8 1.1503176830009223e-8 1.1407045318816376e-8 1.094062502569837e-8 1.131091380762353e-8
          9.972914757607867e-9 9.948474085257143e-9 1.0479817541054175e-8 9.930308939778576e-9 1.1907441124623103e-8 1.1788646670932366e-8
          1.2311765053299546e-8 1.216012618323252e-8 1.1669852217241627e-8 1.2008487313165495e-8 1.1110739740029954e-8 1.1031087008098389e-8
          1.157919529535247e-8 1.0994329488748558e-8 1.0288417989529702e-8 1.079942491286153e-8 1.0758053470602282e-8 1.136137545755785e-8
          1.1966519466084862e-8 1.1697181228462157e-8 8.93506887689844e-9 9.261342329590597e-9 8.629369161517373e-9 9.60696981417542e-9
          9.963735845616568e-9 9.200383010350034e-9 1.0320152250169933e-8 1.0671638257089445e-8 9.75817354467182e-9 1.1017797100808612e-8
          1.1356045789272348e-8 1.0283862745896588e-8 6.021854549968308e-9 6.152092865053382e-9 6.4566589462425966e-9 6.5787659877049615e-9
          6.614470428606873e-9 7.032586499626195e-9 4.722739774192296e-9 4.851933319847959e-9 5.324071262550096e-9 5.16726373948893e-9
          6.9270226772623265e-9 7.044460165539874e-9 7.472806848925428e-9 7.58786246676626e-9 7.50361329257574e-9 8.042479121224147e-9
          5.717298559626422e-9 5.852648834860861e-9 6.439012691845979e-9 6.159060975350745e-9 7.4258659002237524e-9 7.811860192921485e-9
          8.397026902377975e-9 8.739791664074218e-9 5.707846973637434e-9 6.138372316882152e-9 6.871699479220519e-9 8.241346516371422e-9
          8.713628365626318e-9 9.11196341436344e-9 9.519089165516383e-9 6.617230509105268e-9 7.148789593661025e-9 7.58645300187195e-9
          3.160483111543822e-9 3.479324149315138e-9 3.487764037911128e-9 3.828648381681606e-9 4.195845632705689e-9 4.5907855593416375e-9
          2.3049963083297004e-9 2.744979160871259e-9 3.0134350985925116e-9 3.6983538877645815e-9 3.855113710907902e-9 4.220387920792769e-9
          4.266622410455902e-9 4.658503241016812e-9 5.032422852825196e-9 5.524332829658319e-9 2.7957957608022377e-9 3.3117615800198314e-9
          3.6412758601869637e-9 4.424761421371048e-9 4.882176220489391e-9 5.319341650972948e-9 5.711728125593318e-9 6.0795283899960155e-9
          4.60683814933017e-9 5.023828414542461e-9 5.341036917408353e-9 5.801209238500207e-9 6.329264524744974e-9 6.506040166742721e-9
          6.989216684025133e-9 5.476748046556601e-9 5.96945459520431e-9 6.165912348440175e-9 8.098961451180556e-9 8.206134620006426e-9
          8.788749604811491e-9 8.883263339498561e-9 8.637206185553816e-9 9.282584822712291e-9 6.950684048255036e-9 7.088992009506888e-9
          7.809010591140618e-9 7.392359623440326e-9 9.542257825969082e-9 9.62347613126736e-9 1.0370715749034695e-8 1.0432389986545205e-8
          9.985000865688578e-9 1.0740524960868971e-8 8.47158622433894e-9 8.60011811174089e-9 9.461184940062588e-9 8.868605015739521e-9
          9.229633650415634e-9 9.798128431500378e-9 9.96400920263508e-9 1.044799542540872e-8 7.739348614806388e-9 8.389536365351458e-9
          8.496013267140205e-9 1.0420950202804417e-8 1.1090867073042414e-8 1.097019667473907e-8 1.1527876605018782e-8 9.094888353819758e-9
          9.851028153017904e-9 9.62445872196501e-9 4.725046301751182e-9 5.145663849635011e-9 5.23072727722402e-9 5.682407230519248e-9
          6.0678853595463e-9 6.663440119671149e-9 3.388643828048818e-9 4.0019483475100285e-9 4.391899218927927e-9 5.309371064451362e-9
          5.780278269279674e-9 6.266130702651741e-9 6.3619970793366495e-9 6.88681720385782e-9 7.310025621745685e-9 8.002182195423246e-9
          4.066724889277694e-9 4.805512984026003e-9 5.230399866894112e-9 6.356905952374014e-9 6.907733676863852e-9 7.538222323139816e-9
          7.525354131803258e-9 8.110653430266852e-9 6.507619435416491e-9 7.094203865715944e-9 7.22864666399398e-9 8.218385563907642e-9
          8.944754354664947e-9 8.742865080613554e-9 9.421021497527932e-9 7.727519368226756e-9 8.402667083294059e-9 8.480024838313072e-9
          8.883828827458562e-9 9.212023405426752e-9 8.878725973533385e-9 9.203883898462975e-9 8.370280258075988e-9 8.68694798270683e-9
          9.05945489151157e-9 9.564777784757131e-9 9.939858384261892e-9 9.542992842196171e-9 9.886755010902455e-9 9.03954092717291e-9
          9.428251386745098e-9 9.810514028206265e-9 7.584538706862633e-9 7.884486912175082e-9 8.916447525192493e-9 9.236561953072842e-9
          7.261105675591977e-9 7.55778234019941e-9 8.842068052911242e-9 8.225188133018265e-9 8.60496847955846e-9 9.56153083457875e-9
          9.891751052817681e-9 7.89388016702955e-9 8.269415108533939e-9 9.387636286787278e-9 1.0330580742654163e-8 1.0733777950162892e-8
          1.0231305798594096e-8 1.0580429341270149e-8 9.846251663671953e-9 1.0296843090705108e-8 1.0621754746554362e-8 1.1146346773683294e-8
          1.1562076302164162e-8 1.092889330868577e-8 1.126314784269335e-8 1.0784683899623676e-8 1.1303923966538679e-8 1.1501667030620645e-8
          9.01736088938285e-9 9.473028625995313e-9 1.0229991547313133e-8 1.0608401982208732e-8 8.683227686560187e-9 9.148288713816753e-9
          9.920911654033912e-9 9.984633039855397e-9 1.0545514384475347e-8 1.105223893883141e-8 1.1545767420757222e-8 9.674794727021413e-9
          1.025128765092931e-8 1.0675067687896478e-8 1.2233769795036212e-8 1.2132374597798223e-8 1.2415104030270293e-8 1.2030979400560237e-8
          1.2703408108775322e-8 1.2494788554711879e-8 1.2891155049664077e-8 1.2645544504819594e-8 1.2286169000648438e-8 1.239993395997511e-8
          1.2204779004578708e-8 1.209172366861789e-8 1.2484020223325103e-8 1.2115307756002952e-8 1.2604082359986688e-8 1.3281004365237238e-8
          1.2713009674195202e-8 1.1679001953787713e-8 1.1978309119895203e-8 1.0751562676463695e-8 1.1305217880011463e-8 1.1337162407564279e-8
          1.2321456251833643e-8 1.2322343981367489e-8 1.1556738513974971e-8 1.2433378044042678e-8 1.0274416457932432e-8 1.0379090163629602e-8
          1.1338327549310497e-8 1.0574122876312696e-8 1.1799907211458332e-8 1.254734743866378e-8 1.2114182712072166e-8 1.2719049201703756e-8
          1.0654589810514419e-8 1.1499157995912606e-8 1.0959438842594418e-8 6.949406647594123e-9 7.52315567343631e-9 7.503129145908753e-9
          8.142915610420856e-9 8.728470007998218e-9 9.471596195070156e-9 4.723904552703322e-9 5.636211009131727e-9 5.965826239652492e-9
          7.51988895768488e-9 9.713235936685615e-9 1.0517460155260703e-8 1.0142073345772116e-8 1.0898595548334986e-8 9.113024315272371e-9
          9.850294830786511e-9 9.880624756304524e-9 1.1973177172738308e-8 1.2373855628484362e-8 1.1573433251416099e-8 1.1860783353704746e-8
          1.1844198093760026e-8 1.2402374473379474e-8 1.2414216240061428e-8 1.114237693670749e-8 1.1772551466969206e-8 1.2067043738524038e-8
          1.2622341832582494e-8 1.0863710077583831e-8 1.1509756124252987e-8 1.1700958823293727e-8 3.4156057735104955e-8 3.813922668626781e-8
          8.48905495062159e-8 3.4915627028804106e-8 3.3454645219771805e-9 2.5001575558108224e-8 5.5276704521229135e-9 8.776298440134088e-8
          8.037943978810869e-8 8.94214351404153e-8 1.2157279126462083e-7 1.1183545604131859e-7 1.1957088839980775e-7 1.5314255307161749e-7
          1.432914722945285e-7 1.4972034165920017e-7 3.3418060049780776e-8 6.707605277439333e-9 6.5990457832048824e-9 8.2835767090532e-9
          7.64950055671258e-8 6.543522248124102e-8 5.49413579175164e-8 6.475775424165306e-8 9.696579914511175e-8 7.88844722096388e-8
          4.444749335379178e-8 5.302050291618031e-8 8.923188809393136e-9 4.835707744440995e-8 5.713147738563849e-8 5.53813931033812e-8
          4.9782120892929666e-8 3.436009670679369e-8 3.438335574212619e-8 3.8941215382491674e-8 3.340241309025353e-8 4.045281639637137e-8
          3.497269982800733e-8 4.515735859887892e-8 3.793800697794748e-8 5.5962193736543025e-8 3.297848133889793e-8 5.6202828092049775e-9
          4.476814923031997e-9 4.621027979104998e-9 5.15389256987745e-9 3.0424418151680145e-9 3.1547844835468816e-9 3.488698896854565e-9
          7.1604401965632e-9 6.136440894659853e-9 7.035951508521099e-9 4.314900278951332e-9 1.2118863966280224e-8 1.996913602924775e-9
          2.2234011244043492e-9 2.7214431592821248e-9 1.4576194865649458e-9 1.7590064307199533e-9 2.412270942710091e-9 3.284299921369047e-9
          4.593002094392692e-9 3.0512408775919375e-9 4.185958477493129e-9 7.0833541696748185e-9 6.509352410607186e-9 7.408302802486757e-9
          6.2236726226683634e-9
        </DataArray>
        <DataArray type="Float64" Name="gradient_matprop_error" format="ascii" RangeMin="0" RangeMax="0">
          0 0 0 0 0 0
          0 0 0 0 0 0
          0 0 0 0 0 0
          0 0 0 0 0 0
          0 0 0 0 0 0
          0 0 0 0 0 0
          0 0 0 0 0 0
          0 0 0 0 0 0
          0 0 0 0 0 0
          0 0 0 0 0 0
          0 0 0 0 0 0
          0 0 0 0 0 0
          0 0 0 0 0 0
          0 0 0 0 0 0
          0 0 0 0 0 0
          0 0 0 0 0 0
          0 0 0 0 0 0
          0 0 0 0 0 0
          0 0 0 0 0 0
          0 0 0 0 0 0
          0 0 0 0 0 0
          0 0 0 0 0 0
          0 0 0 0 0 0
          0 0 0 0 0 0
          0 0 0 0 0 0
          0 0 0 0 0 0
          0 0 0 0 0 0
          0 0 0 0 0 0
          0 0 0 0 0 0
          0 0 0 0 0 0
          0 0 0 0 0 0
          0 0 0 0 0 0
          0 0 0 0 0 0
          0 0 0 0 0 0
          0 0 0 0 0 0
          0 0 0 0 0 0
          0 0 0 0 0 0
          0 0 0 0 0 0
          0 0 0 0 0 0
          0 0 0 0 0 0
          0 0 0 0 0 0
          0 0 0 0 0 0
          0 0 0 0 0 0
          0 0 0 0 0 0
          0 0 0 0 0 0
          0 0 0 0 0 0
          0 0 0 0 0 0
          0 0 0 0 0 0
          0 0 0 0 0 0
          0 0 0 0 0 0
          0 0 0 0 0 0
          0 0 0 0 0 0
          0 0 0 0 0 0
          0 0 0 0 0 0
          0 0 0 0 0 0
          0 0 0 0 0 0
          0 0 0 0 0 0
          0 0 0 0 0 0
          0 0 0 0 0 0
          0 0 0 0 0 0
          0 0 0 0 0 0
          0 0 0 0 0 0
          0 0 0 0 0 0
          0 0 0 0 0 0
          0 0 0 0 0 0
          0 0 0 0 0 0
          0 0 0 0 0 0
          0 0 0 0 0 0
          0 0 0 0 0 0
          0 0 0 0 0 0
          0 0 0 0 0 0
          0 0 0 0 0 0
          0 0 0 0 0 0
          0 0 0 0 0 0
          0 0 0 0 0 0
          0 0 0 0 0 0
          0 0 0 0 0 0
          0 0 0 0 0 0
          0 0 0 0 0 0
          0 0 0 0 0 0
          0 0 0 0 0 0
          0 0 0 0 0 0
          0 0 0 0 0 0
          0 0 0 0 0 0
          0 0 0 0 0 0
          0 0 0 0 0 0
          0 0 0 0 0 0
          0 0 0 0 0 0
          0 0 0 0 0 0
          0 0 0 0 0 0
          0 0 0 0 0 0
          0 0 0 0 0 0
          0 0 0 0 0 0
          0 0 0 0 0 0
          0 0 0 0 0 0
          0 0 0 0 0 0
          0 0 0 0 0 0
          0 0 0 0 0 0
          0 0 0 0 0 0
          0 0 0 0 0 0
          0 0 0 0 0 0
          0 0 0 0 0 0
          0 0 0 0 0 0
          0 0 0 0 0 0
          0 0 0 0 0 0
          0 0 0 0 0 0
          0 0 0 0 0 0
          0 0 0 0 0 0
          0 0 0 0 0 0
          0 0 0 0 0 0
          0 0 0 0 0 0
          0 0 0 0 0 0
          0 0 0 0 0 0
          0 0 0 0 0 0
          0 0 0 0 0 0
          0 0 0 0 0 0
          0 0 0 0 0 0
          0 0 0 0 0 0
          0 0 0 0 0 0
          0 0 0 0 0 0
          0
        </DataArray>
        <DataArray type="Float64" Name="initial_marker" format="ascii" RangeMin="0" RangeMax="2">
          0 0 2 1 1 0
          1 1 0 2 2 2
          0 0 1 2 2 2
          2 1 1 2 2 1
          2 2 1.3333333333333333 2 2 2
          2 2 2 1 1.5 1
          1.5 0 1 1 2 2
          2 0 0 0 0 0
          0 0 0 0 0 0
          0 2 2 2 2 2
          2 2 2 2 2 2
          2 2 2 2 2 2
          2 2 2 2 2 2
          2 2 2 2 2 2
          2 2 2 2 2 2
          2 2 2 2 2 2
          2 2 2 2 2 2
          2 2 2 2 2 2
          2 2 2 2 2 2
          2 2 2 2 2 2
          2 2 2 2 2 2
          2 2 2 2 2 2
          2 2 2 2 2 2
          2 2 2 2 2 2
          2 2 2 2 2 2
          2 2 2 2 2 2
          2 2 2 2 2 2
          2 2 2 2 2 2
          2 2 2 2 2 2
          2 2 2 2 2 2
          2 2 2 2 2 2
          2 2 2 2 2 2
          2 2 2 2 2 2
          2 2 2 2 2 2
          2 2 2 2 2 2
          2 2 2 2 2 2
          2 2 2 2 2 2
          2 2 2 2 2 2
          2 2 2 2 2 2
          2 2 2 2 2 2
          2 2 2 2 2 2
          2 2 2 2 2 2
          2 2 2 2 2 2
          2 2 2 2 2 2
          2 2 2 2 2 2
          2 2 2 2 2 2
          2 2 2 2 2 2
          2 2 2 2 2 2
          2 2 2 2 2 2
          2 2 2 2 2 2
          2 2 2 2 2 2
          2 2 2 2 2 2
          2 2 2 2 2 2
          2 2 2 2 2 2
          2 2 2 2 2 2
          2 2 2 2 2 2
          2 2 2 2 2 2
          2 2 2 2 2 2
          2 2 2 2 2 2
          2 2 2 2 2 2
          2 2 2 2 2 2
          2 2 2 2 2 2
          2 2 2 2 2 2
          2 2 2 2 2 2
          2 2 2 2 2 2
          2 2 2 2 2 2
          2 2 2 2 2 2
          2 2 2 2 2 2
          2 2 2 2 2 2
          2 2 2 2 2 2
          2 2 2 2 2 2
          2 2 2 2 2 2
          2 2 2 2 2 2
          2 2 2 2 2 2
          2 2 2 2 2 2
          2 2 2 2 2 2
          2 2 2 2 2 2
          2 2 2 2 2 2
          2 2 2 2 2 2
          2 2 2 2 2 2
          2 2 2 2 2 2
          2 2 2 2 2 2
          2 2 2 2 2 2
          2 2 2 2 2 2
          2 2 2 2 2 2
          2 2 2 2 2 2
          2 2 2 2 2 2
          2 2 2 2 2 2
          2 2 2 2 2 2
          2 2 2 2 2 2
          2 2 2 2 2 2
          2 2 2 2 2 2
          2 2 2 2 2 2
          2 2 2 2 2 2
          2 2 2 2 2 2
          2 2 2 2 2 2
          2 2 2 2 2 2
          2 2 2 2 2 2
          2 2 2 2 2 2
          2 2 2 2 2 2
          2 2 2 2 2 2
          2 2 2 2 2 2
          2 2 2 2 2 2
          2 2 2 2 2 2
          2 2 2 2 2 2
          2 2 2 2 2 2
          2 2 2 2 2 2
          2 2 2 2 2 2
          2 2 2 2 0 0
          1 0 0 1 0 1.3333333333333333
          1 1 2 1.5 1.5 2