<?xml version="1.0"?>
<VTKFile type="UnstructuredGrid" version="0.1" byte_order="LittleEndian" header_type="UInt32" compressor="vtkZLibDataCompressor">
  <UnstructuredGrid>
    <Piece NumberOfPoints="762" NumberOfCells="436">
      <PointData>
        <DataArray type="Int32" Name="libmesh_node_id" format="ascii" RangeMin="721" RangeMax="6120">
          721 808 815 966 967 968
          971 974 976 1130 1509 1510
          1513 1514 1515 1516 1518 1521
          1533 1534 1535 1536 1537 1538
          1539 1540 1541 1542 1979 1980
          1981 1982 1983 1984 1985 1986
          1987 1988 1989 1990 1991 1992
          1993 1994 1995 1996 1997 1998
          1999 2000 2001 2002 2006 2019
          2023 2070 2071 2072 2073 2074
          2075 2076 2077 2078 2079 2080
          2081 2082 2083 2088 2089 2093
          2579 2580 2583 2586 2593 2594
          2597 2598 2599 2600 2602 2605
          2607 2609 2611 2617 2619 2620
          2621 2622 2623 2625 2626 2639
          2640 2642 2645 2655 2657 2659
          2661 2662 2663 2664 2665 2666
          2667 2668 2669 2670 2671 2672
          2673 2674 2675 2676 2677 2678
          2679 2680 2681 2682 2683 2684
          2685 2686 2687 2688 2689 2690
          2691 2692 2693 2694 2695 2696
          2697 2698 2699 2700 2701 2702
          2706 2707 2709 2710 2712 2727
          2728 2731 2732 2734 2736 2748
          2751 2754 2756 2767 2768 2769
          2771 2772 2773 2863 2864 2867
          2868 2870 2872 2883 2885 2887
          2889 2897 2898 2901 2902 2904
          2906 3206 3207 3208 3209 3210
          3213 3214 3284 3285 3286 3287
          3288 3289 3290 3291 3292 3293
          3294 3295 3296 3297 3298 3299
          3300 3311 3312 3315 3316 4556
          4557 4558 4559 4560 4561 4562
          4563 4564 4569 4570 4571 4572
          4573 4574 4575 4579 4580 4581
          4582 4583 4590 4591 4592 4593
          4594 4595 4596 4597 4598 4599
          4600 4601 4602 4603 4682 4683
          4684 4685 4686 4687 4688 4689
          4690 4691 4699 4700 4701 4702
          4703 4704 4705 4716 4717 4718
          4719 4720 4721 4722 4723 4724
          4725 4733 4734 4735 4736 4737
          4738 4739 4771 4772 4773 4774
          4775 4776 4777 4778 4786 4787
          4788 4789 4790 4791 4792 4793
          4794 4795 4796 4797 4798 4799
          4800 4801 4802 4803 4804 4805
          4806 4807 4808 4809 4810 4811
          4812 4813 4814 4815 4816 4817
          4818 4819 4820 4821 4822 4823
          4824 4825 4826 4827 4828 4829
          4830 4831 4832 4833 4848 4849
          4850 4851 4852 4853 4854 4855
          4856 4857 4868 4869 4870 4871
          4872 4873 4874 4875 4876 4877
          4888 4889 4890 4891 4892 4893
          4894 4984 4985 4986 4987 4988
          4989 4990 4991 4992 4993 4998
          4999 5003 5004 5005 5006 5007
          5008 5009 5010 5011 5012 5013
          5014 5015 5018 5019 5021 5023
          5024 5025 5026 5027 5028 5029
          5030 5033 5037 5038 5039 5040
          5041 5042 5043 5044 5045 5047
          5049 5051 5120 5121 5123 5124
          5125 5126 5127 5129 5140 5141
          5142 5143 5144 5145 5146 5154
          5155 5158 5159 5160 5161 5163
          5174 5175 5176 5177 5178 5179
          5180 5256 5257 5258 5259 5260
          5261 5262 5265 5269 5270 5271
          5272 5273 5274 5275 5276 5277
          5279 5281 5282 5283 5284 5285
          5286 5287 5288 5289 5290 5293
          5294 5297 5298 5299 5300 5301
          5302 5303 5304 5305 5306 5307
          5309 5310 5311 5909 5910 5911
          5912 5913 5914 5915 5916 5917
          5918 5919 5920 5923 5924 5926
          5928 5929 5930 5931 5932 5933
          5934 5935 5936 5937 5938 5939
          5940 5943 5944 5946 5948 5989
          5990 5991 5992 5993 5994 5995
          5996 5998 6000 6002 6003 6004
          6005 6006 6007 6008 6009 6010
          6012 6014 6016 6017 6018 6019
          6020 6021 6022 6023 6024 6026
          6028 6030 6031 6032 6033 6034
          6035 6036 6037 6038 6040 6042
          6044 6101 6102 6103 6104 6105
          6106 6107 6108 6109 6110 6111
          6112 6115 6116 6118 6120 969
          809 1124 1122 970 1125 1123
          1128 1127 1129 722 1131 983
          1132 984 1133 1137 1139 1141
          965 1525 1504 1517 1526 1529
          973 1522 1531 975 1759 1762
          1763 1760 962 963 1766 1765
          1769 1770 977 1775 1973 1974
          1975 1978 964 1499 2007 2020
          2021 2008 2022 2024 2025 1550
          1571 1575 2084 1576 2085 2086
          2087 2090 1580 2091 2092 2515
          2516 2581 2582 2517 2584 2585
          2587 2520 2588 2595 2596 2601
          2603 2604 2606 2537 2608 2538
          2610 2612 2541 2613 2618 2624
          2615 2641 2654 2648 2656 2650
          2658 2660 2865 2733 2866 2869
          1572 2899 2886 2900 2903 2905
          3211 3212 3215 3313 3314 3317
          2729 4567 4674 4675 4677 2637
          4680 2638 4577 4693 4695 4697
          4708 4709 4711 2643 4714 2644
          4727 4729 4731 2646 4769 4780
          4782 4784 5016 5000 5017 5020
          2730 5022 5034 5046 5048 2735
          5050 1551 5266 5278 5280 2770
          5308 1556 5921 5922 5925 5927
          2871 5941 5942 5945 5947 5997
          5999 6001 2884 6011 6013 6015
          6025 6027 6029 2888 6039 6041
          6043 1578 6113 6114 6117 6119
        </DataArray>
        <DataArray type="Float64" Name="bounds" format="ascii" RangeMin="0" RangeMax="0">
          0 0 0 0 0 0
          0 0 0 0 0 0
          0 0 0 0 0 0
          0 0 0 0 0 0
          0 0 0 0 0 0
          0 0 0 0 0 0
          0 0 0 0 0 0
          0 0 0 0 0 0
          0 0 0 0 0 0
          0 0 0 0 0 0
          0 0 0 0 0 0
          0 0 0 0 0 0
          0 0 0 0 0 0
          0 0 0 0 0 0
          0 0 0 0 0 0
          0 0 0 0 0 0
          0 0 0 0 0 0
          0 0 0 0 0 0
          0 0 0 0 0 0
          0 0 0 0 0 0
          0 0 0 0 0 0
          0 0 0 0 0 0
          0 0 0 0 0 0
          0 0 0 0 0 0
          0 0 0 0 0 0
          0 0 0 0 0 0
          0 0 0 0 0 0
          0 0 0 0 0 0
          0 0 0 0 0 0
          0 0 0 0 0 0
          0 0 0 0 0 0
          0 0 0 0 0 0
          0 0 0 0 0 0
          0 0 0 0 0 0
          0 0 0 0 0 0
          0 0 0 0 0 0
          0 0 0 0 0 0
          0 0 0 0 0 0
          0 0 0 0 0 0
          0 0 0 0 0 0
          0 0 0 0 0 0
          0 0 0 0 0 0
          0 0 0 0 0 0
          0 0 0 0 0 0
          0 0 0 0 0 0
          0 0 0 0 0 0
          0 0 0 0 0 0
          0 0 0 0 0 0
          0 0 0 0 0 0
          0 0 0 0 0 0
          0 0 0 0 0 0
          0 0 0 0 0 0
          0 0 0 0 0 0
          0 0 0 0 0 0
          0 0 0 0 0 0
          0 0 0 0 0 0
          0 0 0 0 0 0
          0 0 0 0 0 0
          0 0 0 0 0 0
          0 0 0 0 0 0
          0 0 0 0 0 0
          0 0 0 0 0 0
          0 0 0 0 0 0
          0 0 0 0 0 0
          0 0 0 0 0 0
          0 0 0 0 0 0
          0 0 0 0 0 0
          0 0 0 0 0 0
          0 0 0 0 0 0
          0 0 0 0 0 0
          0 0 0 0 0 0
          0 0 0 0 0 0
          0 0 0 0 0 0
          0 0 0 0 0 0
          0 0 0 0 0 0
          0 0 0 0 0 0
          0 0 0 0 0 0
          0 0 0 0 0 0
          0 0 0 0 0 0
          0 0 0 0 0 0
          0 0 0 0 0 0
          0 0 0 0 0 0
          0 0 0 0 0 0
          0 0 0 0 0 0
          0 0 0 0 0 0
          0 0 0 0 0 0
          0 0 0 0 0 0
          0 0 0 0 0 0
          0 0 0 0 0 0
          0 0 0 0 0 0
          0 0 0 0 0 0
          0 0 0 0 0 0
          0 0 0 0 0 0
          0 0 0 0 0 0
          0 0 0 0 0 0
          0 0 0 0 0 0
          0 0 0 0 0 0
          0 0 0 0 0 0
          0 0 0 0 0 0
          0 0 0 0 0 0
          0 0 0 0 0 0
          0 0 0 0 0 0
          0 0 0 0 0 0
          0 0 0 0 0 0
          0 0 0 0 0 0
          0 0 0 0 0 0
          0 0 0 0 0 0
          0 0 0 0 0 0
          0 0 0 0 0 0
          0 0 0 0 0 0
          0 0 0 0 0 0
          0 0 0 0 0 0
          0 0 0 0 0 0
          0 0 0 0 0 0
          0 0 0 0 0 0
          0 0 0 0 0 0
          0 0 0 0 0 0
          0 0 0 0 0 0
          0 0 0 0 0 0
          0 0 0 0 0 0
          0 0 0 0 0 0
          0 0 0 0 0 0
          0 0 0 0 0 0
          0 0 0 0 0 0
          0 0 0 0 0 0
          0 0 0 0 0 0
          0 0 0 0 0 0
        </DataArray>
        <DataArray type="Float64" Name="gradient_error" format="ascii" RangeMin="2.9645757061006963e-12" RangeMax="1.2040628558450168e-7">
          1.0338987103920904e-8 3.582441081465795e-10 1.880721988408221e-10 3.435462165909393e-10 6.8818489442258614e-9 1.8678665838292206e-9
          3.5350476420962236e-10 2.1709524516759106e-8 4.4861451129724103e-11 4.610367576618848e-11 1.9378801679765987e-8 1.415064931518682e-8
          4.938780724577239e-9 2.709047028845921e-8 2.5648584689275612e-8 1.0959470720676376e-8 9.366751417265723e-9 1.6365091133063113e-8
          7.260804201615459e-9 2.522914003320011e-8 5.872773877638475e-10 1.0356793555164399e-9 1.0868557483623245e-9 1.1417562120766593e-9
          3.322667981134483e-10 3.776544236884034e-8 1.6542582795054705e-9 1.0993028797569234e-9 5.748739826982301e-10 6.897227028745482e-10
          9.585032283732825e-9 7.611666597281979e-9 2.528092262001812e-10 3.4406934212960175e-9 2.6769654713442347e-9 8.333077384231574e-10
          3.3846810590149794e-9 1.2015092430197856e-9 8.825854061147868e-10 1.263285927734789e-9 8.767680827046996e-10 5.855343342780485e-10
          8.628221928254401e-10 1.7139266842408604e-10 3.467960082522818e-10 3.090246147606483e-10 5.945831784520547e-10 1.9801862306515344e-10
          1.0411924489051556e-10 7.947281637488797e-11 1.2409238840438347e-10 9.077918325255451e-11 5.119861139499609e-11 3.7848809716878664e-11
          2.812678450302553e-11 9.60950118999124e-11 2.010445670989592e-10 9.527050263896028e-11 3.0599412229800596e-10 7.697375337685706e-11
          1.8983588551352338e-10 4.2876233895229416e-11 1.0826056322868541e-10 5.95807375846335e-11 7.468498220137308e-11 3.529109830354006e-11
          3.0269801765018974e-10 1.7364489256214139e-10 8.978922681811266e-11 1.2861909272171996e-11 1.070584079809422e-11 8.549772324016441e-12
          2.6031022638151165e-8 2.3624582666448594e-8 1.8332536747503473e-8 1.771504804070332e-8 1.5061883436560852e-8 1.3686943364200795e-8
          4.530655383747036e-9 2.105243449622902e-8 1.870252647526187e-8 1.0215676904970702e-8 1.3011457469661603e-8 2.3845442202377557e-8
          1.1420905436261725e-8 8.772571197614412e-9 8.629857485862836e-9 6.2937096606739494e-9 2.006226376725454e-9 7.190155699495609e-9
          3.549435249786381e-9 7.047431677212938e-9 3.2979314676817227e-9 2.2590644122570196e-8 1.8781820822117038e-8 2.1801363733962924e-8
          2.0619229351607027e-8 2.5147755119040408e-8 1.5309372322448656e-8 2.8533872654973658e-8 1.7652729393128256e-8 2.3691162166290394e-8
          2.656926269191766e-9 3.91213306376007e-9 2.7310545933347815e-9 7.827354749242285e-9 1.8971555662961276e-9 3.0660214763200373e-9
          8.59683738874016e-10 1.3068777726395107e-9 1.1635094362667201e-9 1.9529103872845103e-9 5.083429427416946e-10 6.711375905184164e-9
          3.0197845387054326e-9 2.9233160217634124e-9 1.314966362540392e-8 5.192374540652939e-9 1.581195761065164e-8 1.148538674335087e-8
          5.3738619032834245e-9 3.871822163922863e-9 1.41522142184325e-9 1.3782909062677362e-8 6.4822899125554225e-9 4.729825964351757e-9
          3.549787246442726e-10 4.662333027193247e-10 1.8448192382584846e-10 5.774878807943768e-10 3.674365609519417e-10 4.6246658467615186e-10
          2.6644153477603643e-10 3.0905753543132423e-10 1.6120226664819318e-10 1.4994525182237652e-10 9.969331812991693e-11 5.57496608400362e-10
          3.0303809824260106e-10 1.3868823699655986e-10 7.791129355865718e-10 6.982348380454001e-10 2.4830896127219917e-9 2.1599392142619843e-9
          5.131314068629181e-10 1.41620386552018e-9 1.1112111210387446e-8 9.50524864127996e-9 6.0770945270457644e-9 3.134306856715546e-10
          7.068655799860919e-10 3.6218042539917277e-10 3.9995592192477086e-10 2.9475497465568923e-9 1.0365246563861967e-9 1.8928678644151927e-8
          1.4441153520773894e-8 1.4205748198035169e-8 1.490932648830609e-8 7.206025502465055e-9 5.56840179410335e-9 2.513535963029597e-9
          9.257678224999424e-9 7.279821759908494e-9 3.3673714938057992e-9 4.430792767554859e-10 2.764484121209457e-10 1.510160487768631e-10
          1.2542142754303277e-10 2.7213666172542283e-10 1.5790477536067914e-10 6.055559614827825e-10 1.755106022418207e-10 8.018474226228987e-10
          1.4552485640696443e-10 1.5819070606551049e-10 1.2129456808302577e-10 7.951838025231996e-11 6.629695658880988e-11 4.5012966278140374e-11
          5.5719562524136e-11 8.590633826002152e-11 1.264645843543702e-10 9.279982852216377e-11 5.904075608906868e-11 9.04940775916137e-11
          4.1256568592205036e-11 6.17094892216806e-11 6.581638426767153e-10 9.657184281580213e-10 8.678668873189991e-10 6.669776920441463e-10
          3.2291273820966525e-10 4.4696613140330765e-10 3.299922251982999e-10 4.740738778336539e-10 4.2516076131920355e-10 7.461309913365637e-10
          6.721448141752074e-10 1.313722426810208e-10 3.9778845978046026e-10 3.597581929735437e-10 3.2225871674270695e-10 5.11020041841659e-10
          2.674445386467556e-10 2.137643545195635e-10 3.335965749787915e-10 1.5925892035846634e-10 2.43311703288116e-10 1.0569668466923942e-9
          1.354430419674765e-9 1.3138113854190295e-9 1.208878871438397e-9 3.6616488133166976e-9 8.363125051166646e-10 1.0464561741310027e-9
          8.499665433081947e-10 2.7749038183293397e-9 7.078653926470802e-9 6.805754890197598e-9 6.160406737862269e-9 1.9610558200683963e-8
          1.9017409566764355e-8 1.4330827775575473e-8 1.7235698502094065e-8 5.1949569453951135e-9 4.0352595059087995e-9 1.4688201938827681e-8
          1.0866658946051905e-8 1.332926780631198e-8 5.07827526316559e-10 6.506404949625217e-10 4.560838012870736e-10 1.6138129786846375e-9
          2.410481441426848e-10 3.065718226936978e-10 2.5067090267040837e-10 7.336978871664886e-10 3.0217826340893363e-9 2.1215749664191274e-9
          5.657223757519509e-9 1.399978364800782e-9 8.459948462908572e-10 2.522324993640016e-9 2.0887628904517925e-8 2.045945362994301e-8
          2.0135533806697148e-8 1.968281735453691e-8 1.9214772704371943e-8 1.8376461490461236e-8 2.2011927098619823e-8 2.1780323186327116e-8
          2.1513125814130206e-8 2.0978523107858395e-8 1.6959774264033856e-8 1.6019905429285708e-8 1.552128147469192e-8 1.3204551528279357e-8
          1.945240366851559e-8 1.900141992029476e-8 1.792005694944483e-8 1.5513631761070698e-8 1.645537585317964e-8 1.591736092164386e-8
          1.6675772121215686e-8 1.7959210924485742e-8 1.779071917901957e-8 9.168108933253633e-9 1.1251603026826718e-8 1.2124119698835297e-8
          1.515522253990452e-8 1.8293598505888505e-8 1.783526090056474e-8 1.742882842887191e-8 1.6954757337219024e-8 1.6913736263985865e-8
          1.6455857448671955e-8 1.68342190051125e-8 9.204952227092552e-9 6.297591757575424e-9 1.519179175868644e-8 1.3114963322707503e-8
          1.3616373459735985e-8 4.055615592387632e-9 2.437721559385655e-9 5.388059941290792e-9 1.547320110233959e-8 1.4681828990534487e-8
          1.4154640455029477e-8 1.1136741961360984e-8 1.5754610445992737e-8 1.5043637853789698e-8 1.469290745032297e-8 6.59308575560261e-9
          4.059847159560077e-9 7.1812892826321655e-9 3.631810556981686e-10 4.662138692445457e-10 2.670693606665192e-10 8.027313431039259e-10
          1.0225057733985057e-10 1.325819262346939e-10 1.0327249915819157e-10 2.0821046817196517e-10 1.273880802557187e-9 6.906561481316809e-10
          1.6962433917462324e-9 3.018848326379412e-10 2.410509543782791e-10 3.881833202184528e-10 2.0431685027373644e-9 1.1212744571847756e-9
          2.2053958236797087e-9 4.585134031951485e-10 2.372531247061406e-10 4.909221700148806e-10 8.314609256891834e-11 8.901076638271331e-11
          7.540162986828872e-11 9.487544019650825e-11 8.543448783819464e-10 8.301446898447932e-10 1.2435382284080946e-9 1.2051774745112128e-9
          5.241781857545366e-10 1.001053679704841e-9 9.6845087880188e-10 7.611603432656686e-10 1.1012327323225686e-9 8.760125816341222e-10
          3.283903610945859e-9 3.1658602587477586e-9 2.398029163416114e-9 2.857063889525088e-9 6.54208994372907e-10 9.440531933965692e-10
          4.0763981826144593e-10 7.405829947933773e-10 5.266053859197716e-10 7.586106502924575e-10 5.856397161874454e-10 2.3991071107524152e-9
          1.8123910084165601e-9 1.872659644615283e-9 6.479015106606997e-9 6.2393832364096486e-9 5.441872578426652e-9 5.2493676018935745e-9
          5.6303546483875325e-9 4.714324722846031e-9 1.2295729407877532e-8 1.1849646024012158e-8 1.0685123585566793e-8 1.0610178611157576e-8
          4.737141939224005e-9 3.94629485317282e-9 3.695898990735399e-9 3.082053309276041e-9 8.837363917951528e-9 7.859807906036275e-9
          6.95346606178612e-9 3.96615501373973e-10 5.735093069320991e-10 2.454563978970873e-10 4.342076181075274e-10 2.7771786904568976e-10
          4.0124763262479326e-10 3.020638877479629e-10 1.387470858347737e-9 1.034233663708834e-9 9.60269912848323e-10 1.2714523390244792e-10
          2.2682927685526784e-10 5.478279667624342e-10 1.9008643868527435e-10 2.661309973659439e-10 1.191120082219565e-10 1.955167450436035e-10
          1.5679917370968873e-10 2.1202168552391688e-10 1.4903042264887423e-10 6.227298290375337e-10 4.492782273598715e-10 4.479832495888101e-10
          8.739326068887717e-11 1.4553336170192875e-10 7.230641336532576e-11 1.1011000927385177e-10 3.4286681092316317e-10 2.355074698679075e-10
          2.7409734289769687e-9 2.242713418214719e-9 1.898820042289879e-9 1.5142180457218446e-9 5.195763030851406e-9 4.393777524695014e-9
          3.5485986239490376e-9 1.2231520141145284e-9 2.4704899828983434e-9 1.2305139738981108e-9 9.494211929510282e-10 7.343918488743754e-10
          5.518156982679731e-10 2.262171142480173e-9 1.820353637160494e-9 1.330530506950163e-9 7.52371852577778e-10 4.2880565002662834e-10
          1.4927652834974e-9 8.305622026542033e-10 1.9066960602882518e-8 1.863130342754727e-8 1.7375536410180744e-8 1.72898719761653e-8
          1.596581235372361e-8 2.1156093905452205e-8 2.0840788443310545e-8 1.992693823619633e-8 1.4887416274680359e-8 1.3550481121255134e-8
          1.1702537936081816e-8 1.0511807496798955e-8 1.8289671453157976e-8 1.725011754774286e-8 1.5479762721815323e-8 1.5948860146574725e-8
          1.650169803956323e-8 1.7252279731694996e-8 1.637926134503749e-8 1.115094944201152e-8 1.2612390214076995e-8 1.4997956360117145e-8
          1.716328402579434e-8 1.632730599765719e-8 1.6274561673390817e-8 1.5372855358623054e-8 1.57572969080938e-8 1.4877057191104198e-8
          1.5724836258647758e-8 8.593818551933356e-9 7.516047121884583e-9 5.821892856134732e-9 4.996772929446421e-9 1.1802168045695461e-8
          1.0761645865555556e-8 7.979824017021236e-9 4.331122460290966e-9 6.379797189094103e-9 3.689484703783783e-9 3.0743550283098195e-9
          2.1683260475226276e-9 1.7324668763077607e-9 5.0632694398070126e-9 4.443709043196408e-9 3.0059246633696294e-9 2.609564861301893e-9
          1.4310901670795547e-9 3.871122514340248e-9 3.3304088575760884e-9 2.128880460382075e-9 1.3730482868369281e-8 1.2629327564468305e-8
          9.562977984136703e-9 8.76294136654407e-9 1.411014894126023e-8 1.3019820939534372e-8 1.0114774053689333e-8 7.822055571744658e-9
          6.866166106268874e-9 8.282943134598631e-9 6.197979661504434e-9 5.468920932576463e-9 3.7164774306853004e-9 3.1342230000666427e-9
          6.68179141176983e-9 5.8306339741063254e-9 4.0271275378108795e-9 4.8154263535123295e-9 4.188711076855181e-9 2.6857205424801923e-9
          5.14489037997736e-9 4.488766305031681e-9 2.8930429908895207e-9 2.9961121524309804e-10 4.036421084265068e-10 2.0425997035607525e-10
          2.9958625715630064e-10 1.669468450312384e-10 2.231964243675413e-10 1.556759842729044e-10 7.085759039179638e-10 5.468865125056834e-10
          3.7684733532212364e-10 1.5175304960969835e-10 2.286361807305149e-10 7.996688923463462e-11 1.1609744770227755e-10 4.2899427894770024e-10
          2.0824714143041278e-10 8.376445978889138e-11 1.1085049232950282e-10 5.5197139804649244e-11 7.622008742859178e-11 6.179912893035699e-11
          8.067134261303688e-11 4.915872243783066e-11 1.781205950642112e-10 1.281339316450296e-10 1.283095423473024e-10 3.92825191744857e-11
          5.533638075655683e-11 2.676859133330885e-11 3.5125884895159e-11 9.527108274843386e-11 5.756746512970968e-11 1.1333428910902867e-9
          8.944581552887241e-10 5.878164632915179e-10 4.3094265007175655e-10 1.5527833278722175e-9 1.2848812185892466e-9 8.004932988828075e-10
          7.198124524375279e-10 3.372936746647523e-10 1.0578937466566103e-9 4.837888367937637e-10 2.632786952997819e-10 1.9644108291132095e-10
          1.8943792739516302e-10 1.192164685951767e-10 3.4661009245484985e-10 2.693646290088349e-10 1.9453863196388792e-10 1.4915578483523896e-10
          8.885422992857008e-11 2.0840651559045728e-10 9.831817311156477e-11 1.8953331225273976e-9 1.602764950547441e-9 9.740295003367136e-10
          7.469064739181965e-10 2.0423065652649224e-9 1.725823293438996e-9 1.048456662550445e-9 1.3355269548404838e-9 6.038588817817964e-10
          1.4424220751987342e-9 6.50461162614665e-10 4.134035806880985e-10 3.271025969888886e-10 1.9564470112310063e-10 1.3504058156537857e-10
          4.4183970180775293e-10 3.4933327354522436e-10 2.1038161749608839e-10 2.558523370392251e-10 1.0273073890468739e-10 2.740512894097738e-10
          1.1101257216939263e-10 7.336366308702348e-11 7.808726263587692e-11 5.444201608682634e-11 5.7447393391852006e-11 6.031507942892746e-11
          5.973493285532175e-11 3.7448526883193664e-11 8.281086218473037e-11 6.045277069687767e-11 5.915478628171604e-11 3.979302592198963e-11
          4.1834626755268316e-11 2.954525674127015e-11 2.6893306813059114e-11 4.387622758854701e-11 2.4241356884848083e-11 6.00447588323736e-9
          3.086499240649252e-10 1.4589277804507091e-10 2.891044212408703e-10 5.330295661090212e-9 9.295098271941138e-11 3.1889108717684546e-10
          5.2681370766746896e-11 1.250908316570705e-10 3.5575452958833077e-10 7.985531719958339e-11 1.0764102916472866e-10 3.6144628032643235e-11
          3.180727220716667e-11 2.4347543749136153e-11 1.9615018390796536e-11 1.1659278029654165e-11 7.198499959499636e-12 1.165668882782534e-11
          2.6100605838421117e-8 2.1385228831849385e-8 7.496963873251103e-8 4.193895956441806e-8 5.5518417213144504e-8 3.255223110483945e-9
          1.2040628558450168e-7 7.546102986609578e-8 7.978098440319233e-8 2.9022117436440494e-9 1.3299843050114745e-9 2.628117507403883e-10
          2.5057329682096314e-10 1.2874625815416702e-9 1.6455631387562808e-9 5.5345614405768424e-9 2.38334842901538e-10 1.2449408580718661e-9
          3.1630447781391246e-11 3.059372453474624e-11 3.581162202750994e-11 2.9557001288101236e-11 1.4550487686962938e-9 1.7481686397642347e-8
          1.4023979271332054e-8 7.594116020936134e-9 3.3052071542480157e-8 2.429724859002159e-8 1.5010986522647223e-10 1.5014268750811696e-10
          1.4195376053514503e-11 4.478234950550316e-11 4.396333440161221e-11 5.753990485522078e-11 2.0500473994607864e-11 2.5494942159242446e-10
          1.6698359110828778e-10 4.2891196915922396e-11 1.959155253366359e-11 3.443160134139294e-11 2.469316631266747e-11 6.7795045734460545e-12
          7.268706711232319e-12 2.9645757061006963e-12 4.589213794146456e-11 2.979478009167135e-11 7.757908849018583e-12 2.9226466098668164e-8
          6.693731932983344e-8 6.073753022253389e-8 5.488520242810898e-8 6.104165370379047e-8 5.2668797528401346e-8 4.714194958999347e-8
          3.9987169521965694e-8 4.5657526156769796e-8 3.351433630714808e-8 4.3218190199356415e-8 3.849443859329981e-8 2.7006592950248346e-8
          4.5946881905324245e-8 4.087162162801339e-8 4.81927071876145e-8 1.4300348622617703e-8 2.3123322749398988e-8 2.7331607363777248e-8
          1.8924197091967705e-8 1.5305181088550656e-8 1.8494150491762393e-8 9.987619325545e-9 1.50791148511619e-8 4.485874981205297e-8
          3.988739130820395e-8 3.6347087393377955e-8 5.269678127284314e-8 4.815219269455199e-8 3.4380534302533705e-8 4.6109267756266507e-8
          4.0020087397452696e-8 4.174285506547282e-8 2.339227023269942e-10 2.244811306240095e-10 1.4696752179717145e-10 6.250232969544425e-11
          8.767787060920061e-11 8.094920967867136e-11 1.0089367414921668e-10 6.805621346652971e-11 3.7005212919756494e-11 2.9419723854090616e-11
          2.3166722064723067e-11 4.015223081256359e-11 2.1249426820188076e-11 7.280713977062712e-11 1.6440171590837026e-10 1.1564228068985654e-10
          1.7587694031222796e-10 2.003010840953641e-8 2.1296872652070888e-8 2.090612587557216e-8 1.976633757106189e-8 2.192496428603246e-8
          2.1721505184266914e-8 2.102384912686308e-8 1.596309229702304e-8 1.770120082602203e-8 1.6385105608993705e-8 1.968101301708223e-8
          1.4836809816053598e-8 1.593928460188634e-8 1.7815188182630635e-8 7.898169515687547e-9 1.0217702176846758e-8 1.4674043820030943e-8
          1.84959987730555e-8 1.770623750976583e-8 1.7069280866967562e-8 1.710679552410596e-8 1.590511687878156e-8 1.6083262928577735e-8
          1.5157431406192618e-8 1.626140897837391e-8 6.609105199649711e-11 1.7263367027430347e-10 1.1036309097474012e-10 8.353670375405639e-11
          4.27707821339367e-10 2.650409667156493e-10 9.860829782517521e-10 5.978745309498725e-10 3.3593228238812277e-10 2.059215655133984e-9
          1.2222448953237875e-9 6.675861778159188e-10 3.7182321900251896e-9 2.1981746993498207e-9 1.179495333873396e-9 1.7891479423135473e-9
          2.282695730534624e-9 2.4677135648815424e-9 1.1543100284501564e-10 1.7657305505791247e-10 8.829270430952241e-11 3.3866558671960366e-10
          1.6145045854934762e-10 2.914252565011718e-11 4.1508251703172176e-11 2.620046484199789e-11 7.268189944962451e-11 5.804209554459353e-10
          2.662937837283672e-10 8.675395406765602e-10 3.876017216079849e-10 1.1556313143037139e-10 6.823431148034902e-11 1.6339926699878544e-10
          1.10607970877145e-9 4.881401807122404e-10 1.198306180913252e-9 5.273366359182463e-10 2.02021085342137e-10 7.920579928362829e-11
          2.1688007840442404e-10 8.566065990269591e-11 2.983855320269242e-11 3.145936048177414e-11 2.002698296660859e-11 3.308016776085586e-11
        </DataArray>
        <DataArray type="Float64" Name="gradient_matprop_error" format="ascii" RangeMin="0" RangeMax="0">
          0 0 0 0 0 0
          0 0 0 0 0 0
          0 0 0 0 0 0
          0 0 0 0 0 0
          0 0 0 0 0 0
          0 0 0 0 0 0
          0 0 0 0 0 0
          0 0 0 0 0 0
          0 0 0 0 0 0
          0 0 0 0 0 0
          0 0 0 0 0 0
          0 0 0 0 0 0
          0 0 0 0 0 0
          0 0 0 0 0 0
          0 0 0 0 0 0
          0 0 0 0 0 0
          0 0 0 0 0 0
          0 0 0 0 0 0
          0 0 0 0 0 0
          0 0 0 0 0 0
          0 0 0 0 0 0
          0 0 0 0 0 0
          0 0 0 0 0 0
          0 0 0 0 0 0
          0 0 0 0 0 0
          0 0 0 0 0 0
          0 0 0 0 0 0
          0 0 0 0 0 0
          0 0 0 0 0 0
          0 0 0 0 0 0
          0 0 0 0 0 0
          0 0 0 0 0 0
          0 0 0 0 0 0
          0 0 0 0 0 0
          0 0 0 0 0 0
          0 0 0 0 0 0
          0 0 0 0 0 0
          0 0 0 0 0 0
          0 0 0 0 0 0
          0 0 0 0 0 0
          0 0 0 0 0 0
          0 0 0 0 0 0
          0 0 0 0 0 0
          0 0 0 0 0 0
          0 0 0 0 0 0
          0 0 0 0 0 0
          0 0 0 0 0 0
          0 0 0 0 0 0
          0 0 0 0 0 0
          0 0 0 0 0 0
          0 0 0 0 0 0
          0 0 0 0 0 0
          0 0 0 0 0 0
          0 0 0 0 0 0
          0 0 0 0 0 0
          0 0 0 0 0 0
          0 0 0 0 0 0
          0 0 0 0 0 0
          0 0 0 0 0 0
          0 0 0 0 0 0
          0 0 0 0 0 0
          0 0 0 0 0 0
          0 0 0 0 0 0
          0 0 0 0 0 0
          0 0 0 0 0 0
          0 0 0 0 0 0
          0 0 0 0 0 0
          0 0 0 0 0 0
          0 0 0 0 0 0
          0 0 0 0 0 0
          0 0 0 0 0 0
          0 0 0 0 0 0
          0 0 0 0 0 0
          0 0 0 0 0 0
          0 0 0 0 0 0
          0 0 0 0 0 0
          0 0 0 0 0 0
          0 0 0 0 0 0
          0 0 0 0 0 0
          0 0 0 0 0 0
          0 0 0 0 0 0
          0 0 0 0 0 0
          0 0 0 0 0 0
          0 0 0 0 0 0
          0 0 0 0 0 0
          0 0 0 0 0 0
          0 0 0 0 0 0
          0 0 0 0 0 0
          0 0 0 0 0 0
          0 0 0 0 0 0
          0 0 0 0 0 0
          0 0 0 0 0 0
          0 0 0 0 0 0
          0 0 0 0 0 0
          0 0 0 0 0 0
          0 0 0 0 0 0
          0 0 0 0 0 0
          0 0 0 0 0 0
          0 0 0 0 0 0
          0 0 0 0 0 0
          0 0 0 0 0 0
          0 0 0 0 0 0
          0 0 0 0 0 0
          0 0 0 0 0 0
          0 0 0 0 0 0
          0 0 0 0 0 0
          0 0 0 0 0 0
          0 0 0 0 0 0
          0 0 0 0 0 0
          0 0 0 0 0 0
          0 0 0 0 0 0
          0 0 0 0 0 0
          0 0 0 0 0 0
          0 0 0 0 0 0
          0 0 0 0 0 0
          0 0 0 0 0 0
          0 0 0 0 0 0
          0 0 0 0 0 0
          0 0 0 0 0 0
          0 0 0 0 0 0
          0 0 0 0 0 0
          0 0 0 0 0 0
          0 0 0 0 0 0
          0 0 0 0 0 0
          0 0 0 0 0 0
          0 0 0 0 0 0
          0 0 0 0 0 0
        </DataArray>
        <DataArray type="Float64" Name="initial_marker" format="ascii" RangeMin="0" RangeMax="2">
          2 0 0 0 1 0.25
          0 2 0 0 1 1
          1 2 2 0.75 2 2
          0.25 1.25 0 0.75 0 0.25
          0 2 2 0.5 0 0
          0 0 0 0 0 0
          0 0 0 0 0 0
          0 0 0 0 0 0
          0 0 0 0 0 0
          0 0 0 0 0 0
          0 0 0 0 0 0
          0 0 0 0 0 0
          2 2 2 2 2 2
          1.3333333333333333 2 2 2 2 2
          2 2 2 2 1 2
          1 1.5 1.5 2 2 2
          2 2 2 2 2 2
          0 1 1 2 0 1
          0 0.75 0 1 0.3333333333333333 2
          2 1.3333333333333333 2 1.5 2 2
          2 1.5 1.5 2 2 2