<?xml version="1.0"?>
<VTKFile type="UnstructuredGrid" version="0.1" byte_order="LittleEndian" header_type="UInt32" compressor="vtkZLibDataCompressor">
  <UnstructuredGrid>
    <Piece NumberOfPoints="325" NumberOfCells="165">
      <PointData>
        <DataArray type="Int32" Name="libmesh_node_id" format="ascii" RangeMin="222" RangeMax="1570">
          222 248 320 321 322 323
          325 326 330 332 447 448
          449 455 457 458 459 460
          461 462 463 464 465 466
          467 468 469 470 471 473
          475 476 481 483 485 486
          492 493 498 513 514 520
          589 590 660 661 662 666
          667 668 669 670 671 672
          673 674 675 676 683 684
          685 686 690 691 752 753
          754 757 760 762 763 767
          775 776 778 781 787 791
          793 794 795 796 797 798
          799 800 801 802 803 804
          805 806 807 808 809 810
          811 812 813 814 815 816
          817 818 819 820 821 822
          823 824 825 826 827 828
          829 831 832 833 834 835
          836 837 838 839 840 841
          842 843 844 845 846 847
          848 849 850 851 852 853
          854 855 856 857 858 859
          860 861 862 864 865 866
          868 869 870 871 872 873
          874 875 876 877 878 879
          880 881 882 883 884 885
          886 888 903 904 905 906
          907 908 909 910 912 923
          924 927 929 930 932 943
          945 947 949 1394 1395 1396
          1397 1398 1399 1400 1401 1402
          1403 1404 1405 1406 1407 1408
          1409 1410 1411 1412 1413 1414
          1415 1416 1417 1418 1419 1420
          1421 1422 1423 1424 1425 1426
          1427 1428 1429 1430 1431 1432
          1433 1434 1435 1436 1437 1438
          1439 1440 1441 1442 1443 1444
          1445 1446 1447 1448 1449 1450
          1451 1452 1453 1454 1455 1456
          1457 1458 1459 1460 1461 1462
          1463 1464 1465 1466 1467 1468
          1469 1470 1471 1472 1473 1474
          1475 1476 1477 1478 1479 1480
          1481 1482 1483 1484 1485 1490
          1491 1492 1510 1511 1512 1513
          1514 1515 1516 1517 1518 1519
          1530 1531 1532 1533 1534 1535
          1536 1544 1545 1546 1547 1548
          1549 1550 1551 1552 1553 1564
          1565 1566 1567 1568 1569 1570
          593 594 324 611 612 334
          335
        </DataArray>
        <DataArray type="Float64" Name="bounds" format="ascii" RangeMin="0" RangeMax="0">
          0 0 0 0 0 0
          0 0 0 0 0 0
          0 0 0 0 0 0
          0 0 0 0 0 0
          0 0 0 0 0 0
          0 0 0 0 0 0
          0 0 0 0 0 0
          0 0 0 0 0 0
          0 0 0 0 0 0
          0 0 0 0 0 0
          0 0 0 0 0 0
          0 0 0 0 0 0
          0 0 0 0 0 0
          0 0 0 0 0 0
          0 0 0 0 0 0
          0 0 0 0 0 0
          0 0 0 0 0 0
          0 0 0 0 0 0
          0 0 0 0 0 0
          0 0 0 0 0 0
          0 0 0 0 0 0
          0 0 0 0 0 0
          0 0 0 0 0 0
          0 0 0 0 0 0
          0 0 0 0 0 0
          0 0 0 0 0 0
          0 0 0 0 0 0
          0 0 0 0 0 0
          0 0 0 0 0 0
          0 0 0 0 0 0
          0 0 0 0 0 0
          0 0 0 0 0 0
          0 0 0 0 0 0
          0 0 0 0 0 0
          0 0 0 0 0 0
          0 0 0 0 0 0
          0 0 0 0 0 0
          0 0 0 0 0 0
          0 0 0 0 0 0
          0 0 0 0 0 0
          0 0 0 0 0 0
          0 0 0 0 0 0
          0 0 0 0 0 0
          0 0 0 0 0 0
          0 0 0 0 0 0
          0 0 0 0 0 0
          0 0 0 0 0 0
          0 0 0 0 0 0
          0 0 0 0 0 0
          0 0 0 0 0 0
          0 0 0 0 0 0
          0 0 0 0 0 0
          0 0 0 0 0 0
          0 0 0 0 0 0
          0
        </DataArray>
        <DataArray type="Float64" Name="gradient_error" format="ascii" RangeMin="3.812724923225281e-9" RangeMax="2.789452276293194e-7">
          7.916136863392072e-9 4.175951746465631e-8 8.732981005026826e-8 1.4054869996026713e-7 1.8303129970554554e-7 2.789452276293194e-7
          1.690867204327287e-7 1.4992467712227977e-7 4.610002238557114e-8 2.48625455155685e-7 2.0766451333665053e-7 7.50590209668066e-8
          1.2396140704789275e-7 7.307851648053662e-8 1.8388108683221405e-7 1.5623439997174374e-7 1.068851008880532e-7 1.0151787720983632e-7
          1.398613637457752e-7 8.172463555012958e-8 1.1263349623225229e-7 1.5199567117430596e-7 2.0511057167650446e-7 1.9590253750814305e-7
          4.846260401946342e-9 8.202293897145357e-8 8.855048903617594e-8 2.495286597104964e-7 1.273982241688781e-7 2.2397433054110058e-7
          1.2279185661000863e-7 1.9647209470126483e-7 2.664301065520395e-7 2.3975739925758914e-7 1.349554392855365e-7 1.079785123441706e-7
          1.1201738688983868e-7 1.6331659035872954e-7 2.175898816478825e-7 1.1307651888861271e-7 1.5166880913564142e-7 1.9026109938267014e-7
          4.6992502146287284e-8 3.253333539662035e-8 8.504271858970018e-8 1.9130582967021918e-7 1.698615922273874e-7 1.2660558291677632e-7
          6.439773996161244e-8 6.363168584590099e-8 1.7532944389547006e-7 1.538069898974518e-7 4.3464507073110144e-8 1.4605112249065096e-7
          1.2610619776713202e-7 5.7330627018266864e-8 1.0196688250552866e-7 9.087965504308533e-8 2.502842911527876e-8 2.7127513619766656e-8
          1.0634414119379282e-7 9.04351762046902e-8 2.9226598124254554e-8 7.45262112155876e-8 6.746563791551732e-8 7.458952909882132e-8
          7.284869568044946e-8 6.981574182627668e-8 7.620014752628885e-8 5.5346230939157996e-8 6.163908625670229e-8 7.238301744609143e-8
          5.8193501034498826e-8 6.533392614141174e-8 7.573682951352262e-8 5.649931067562739e-8 7.617822139083042e-8 7.774788739964698e-8
          7.552561849613784e-8 7.290496821795743e-8 8.410266509041153e-8 8.181804419928828e-8 7.803335285567528e-8 9.414405062385731e-8
          9.10762659382999e-8 6.564932165324317e-8 7.471473977587495e-8 8.151770123816252e-8 8.990426609701384e-8 9.048322106630537e-8
          1.0668227799654723e-7 8.80497834090027e-8 8.644615425740885e-8 8.209447277631004e-8 1.0490148195889166e-7 1.005673160218303e-7
          8.389300456709196e-8 1.1558687439461993e-7 1.0962305332723475e-7 7.073478906079525e-8 8.785111058936907e-8 9.296856744809883e-8
          9.538623979391617e-8 1.094980848601093e-7 9.352652498535162e-8 1.1611117044743345e-7 5.5393621699134286e-8 6.323866750037006e-8
          5.5936702509875146e-8 6.645516018971994e-8 4.9772918031559235e-8 5.658127875715527e-8 5.7883399155857306e-8 7.789425005344566e-8
          8.62898548564507e-8 5.673292401355252e-8 6.933432606663593e-8 5.5785213920245934e-8 7.052760439837552e-8 4.973906120072574e-8
          5.919958103930262e-8 5.877730616040294e-8 9.448881775477692e-8 1.016408235079246e-7 8.053649866874991e-8 5.8906073795167365e-8
          7.359274010033042e-8 5.852934284133359e-8 7.073251254232072e-8 9.033136892849039e-8 9.517114623578746e-8 3.033568344524406e-8
          5.706054612675705e-8 3.1421481365962363e-8 8.83433289374821e-8 3.7772930613391834e-8 5.657069987988806e-8 1.3431855991488465e-8
          3.281871947752749e-8 1.0077669009702061e-7 9.966192639165553e-8 4.37618465061716e-9 9.948196358984563e-9 1.1650577642941934e-8
          7.443434023289569e-8 8.70878219321293e-8 9.93722870897745e-8 9.085914235399174e-8 8.947085705897313e-8 1.0313848233621239e-7
          1.1302460707152849e-7 1.267921810206615e-7 9.923090338363439e-8 1.0583901722102942e-7 1.190073067532225e-7 1.355727099019789e-7
          1.0604891030764844e-7 8.804112698073315e-8 8.246741318435093e-8 1.2386353611167292e-7 1.1623748902885856e-7 7.663027797468172e-8
          1.2671825834075428e-7 1.1761557850121178e-7 6.831490389163576e-8 9.539308113790894e-8 9.32611968072866e-8 9.30002756658991e-8
          8.754223983551986e-8 1.0549706854447302e-7 5.1805731583583444e-8 6.873440565594184e-8 4.536463750191323e-8 6.36040566568577e-8
          4.387535477186408e-8 5.5294090982109954e-8 4.919861836081148e-8 1.0627753880615809e-7 8.283328355658978e-8 1.7823043309282286e-8
          2.0893759205935445e-8 9.698548320313942e-8 1.104794017494691e-8 1.648335560880025e-8 1.0353351943292651e-7 1.3902364221773438e-7
          1.0909466257208603e-7 1.511552865514528e-7 1.1923558522334832e-7 1.7378191609606624e-8 1.8942421878031197e-8 1.863045534055784e-8
          2.100761039569392e-8 1.8318488803084483e-8 2.0174451996990294e-8 9.443786557867724e-9 1.0028002437578332e-8 1.0022524902465419e-8
          1.0550839875757249e-8 1.0017047367352506e-8 1.3808698844089451e-8 9.36721183492055e-9 9.380352618081409e-9 9.393493401242272e-9
          9.316918678295096e-9 8.681396961587983e-9 9.316443591032235e-9 7.4609098605607e-9 8.8743641767916e-9 9.951490220476489e-9
          1.142389609905538e-8 7.334791485597636e-9 8.610362279599053e-9 7.197888477825947e-9 9.885933073600471e-9 1.3916338474608362e-8
          1.4136625638095576e-8 1.4023978105127274e-8 1.6995832732327876e-8 1.6973417446798656e-8 1.6951002161269433e-8 9.45243996612601e-9
          1.0283504305796364e-8 1.215459742482351e-8 1.2744961912203188e-8 1.748726403582981e-8 1.7693948739188874e-8 1.8774959333097e-8
          1.9228477067870022e-8 1.7900633442547936e-8 2.0284893159024197e-8 1.2518782620011545e-8 1.3434146457356573e-8 1.4438623390026035e-8
          1.502184637474819e-8 1.4603896334833943e-8 1.602330444185796e-8 1.4832437490728227e-8 2.0859018350011895e-8 2.022734682823731e-8
          1.7348964394359903e-8 1.975308525694093e-8 1.8331410253878438e-8 6.632582444675646e-9 8.099731717316767e-9 6.6156415413714294e-9
          7.824325389599219e-9 1.1696125452509703e-8 1.1587953131150327e-8 3.812724923225281e-9 5.915959128837171e-9 5.70107628395852e-9
          1.0647288992816218e-8 7.56513274316864e-9 8.54021110159678e-9 9.257856058296496e-9 1.0167090158928755e-8 1.205662674833428e-8
          1.3209848249344429e-8 6.124806439942613e-9 6.9695714263003155e-9 8.906277277851569e-9 1.0321872975551966e-8 1.4447547046153847e-8
          1.5455002737844996e-8 1.5069724177246177e-8 1.6767108451216352e-8 1.429119775747375e-8 1.4886701033832035e-8 1.5307010863764127e-8
          1.6527827119763645e-8 1.7888559679257476e-8 1.8457690202883657e-8 2.0433747119387105e-8 1.5706689845167397e-8 1.691928382462031e-8
          1.8583970151888876e-8 2.3652113618380485e-8 2.336390369278702e-8 2.5978697357292933e-8 2.2643593293030042e-8 2.1276283453074084e-8
          2.3363271266133212e-8 2.0341074087281653e-8 2.0624346501324544e-8 2.106019794710104e-8 2.2932000122940357e-8 2.3298370362900268e-8
          2.196081223200865e-8 2.4062752202467846e-8 1.538728139618721e-8 1.6271456228361228e-8 1.864915977185097e-8 1.8839936920459336e-8
          2.18989693436839e-8 2.400075958611887e-8 2.1372363616228027e-8 2.3540755370162236e-8 2.155790001617467e-8 2.366529336017368e-8
          2.2591557251965924e-8 1.1359123648314686e-8 1.239343096103077e-8 1.3572316318408133e-8 1.4893898164851438e-8 1.50804924762148e-8
          1.7611142206704504e-8 9.540263888523555e-9 1.1000441666754145e-8 1.3107520154508537e-8 1.3759142282498197e-8 1.9604061004867764e-8
          2.1794084924577943e-8 2.2474875331052786e-8 2.4581365447041617e-8 1.8613977211679893e-8 2.0895831034913053e-8 2.2170289303348127e-8
          2.2006427326898422e-8 1.4509834821394245e-8 5.583893649400187e-8 7.930393645933105e-9 5.444620173266182e-9 1.367567338802062e-8
          3.7048352501475065e-8
        </DataArray>
        <DataArray type="Float64" Name="gradient_matprop_error" format="ascii" RangeMin="0" RangeMax="0">
          0 0 0 0 0 0
          0 0 0 0 0 0
          0 0 0 0 0 0
          0 0 0 0 0 0
          0 0 0 0 0 0
          0 0 0 0 0 0
          0 0 0 0 0 0
          0 0 0 0 0 0
          0 0 0 0 0 0
          0 0 0 0 0 0
          0 0 0 0 0 0
          0 0 0 0 0 0
          0 0 0 0 0 0
          0 0 0 0 0 0
          0 0 0 0 0 0
          0 0 0 0 0 0
          0 0 0 0 0 0
          0 0 0 0 0 0
          0 0 0 0 0 0
          0 0 0 0 0 0
          0 0 0 0 0 0
          0 0 0 0 0 0
          0 0 0 0 0 0
          0 0 0 0 0 0
          0 0 0 0 0 0
          0 0 0 0 0 0
          0 0 0 0 0 0
          0 0 0 0 0 0
          0 0 0 0 0 0
          0 0 0 0 0 0
          0 0 0 0 0 0
          0 0 0 0 0 0
          0 0 0 0 0 0
          0 0 0 0 0 0
          0 0 0 0 0 0
          0 0 0 0 0 0
          0 0 0 0 0 0
          0 0 0 0 0 0
          0 0 0 0 0 0
          0 0 0 0 0 0
          0 0 0 0 0 0
          0 0 0 0 0 0
          0 0 0 0 0 0
          0 0 0 0 0 0
          0 0 0 0 0 0
          0 0 0 0 0 0
          0 0 0 0 0 0
          0 0 0 0 0 0
          0 0 0 0 0 0
          0 0 0 0 0 0
          0 0 0 0 0 0
          0 0 0 0 0 0
          0 0 0 0 0 0
          0 0 0 0 0 0
          0
        </DataArray>
        <DataArray type="Float64" Name="initial_marker" format="ascii" RangeMin="0" RangeMax="2">
          2 0 0 0 0.5 0.25
          1 0 2 2 0.5 2
          2 2 1 0.5 2 2
          1 2 2 0 1.25 1.5
          2 2 2 1.5 0 0.25
          0 0.5 0.5 1 1 1
          0 1.5 2 0 0.5 1
          0 0 0 0 0 0
          0 0 0 0 0 0
          0 0 0 0 0 0
          0 0 0 0 1 1.5
          1.5 1.3333333333333333 2 0 0.5 1.6666666666666667
          2 2 2 2 2 2
          2 2 2 2 2 2
          2 1 1.5 1.5 2 2
          2 2 2 2 2 2
          2 2 2 1.5 1.75 2
          2 2 2 2 0 0.75
          0 1 0 0.5 1 1.75
          2 0.5 1.25 1 1.5 0
          1 1 2 2 2 2
          2 2 2 2 2 2
          2 2 2 2 2 2
          2 2 2 2 2 2
          2 2 2 2 2 2
          2 2 2 2 2 2
          2 2 2 2 2 2
          2 2 2 2 2 2
          2 2 1 1.5 1 1.5
          0 1 1 2 2 2
          2 2 2 2 2 2
          2 2 2 2 2 2
          2 2 2 2 2 2
          2 2 2 2 2 2
          2 2 2 2 2 2
          2 2 2 2 2 2
          2 2 2 2 2 2
          2 2 2 2 2 2
          2 2 2 2 2 2
          2 2 2 2 2 2
          2 2 2 2 2 2
          2 2 2 2 2 2
          2 2 2 2 2 2
          2 2 2 2 2 2
          2 2 2 2 2 2
          2 2 2 2 2 2
          2 2 2 2 2 2
          2 2 2 2 2 2
          2 2 2 2 2 2
          2 2 2 2 2 2
          2 2 2 2 2 2
          2 2 2 2 2 2
          2 2 2 2 2 2
          0 0 0 0 0 0
          0
        </DataArray>
        <DataArray type="Float64" Name="markers_norefine" format="ascii" RangeMin="0" RangeMax="2">
          2 0 0 0 0 0
          0 0 0 0 0 0
          0 0 0 0 0 0
          0 0 0 0 0 0
          2 0 0.5 0 0 0
          0 0 0 0 0 0
          0 0 0 0 0 0
          0 0 0 0 0 0
          0 0 0 0 0 0
          0 0 0 0 0 0
          0 0 0 0 0 0
          0 0 0 0 0 0
          0 0 0 0 0 0
          0 0 0 0 0 0
          0 0 0 0 0 0
          0 0 0 0 0 0
          0 0 0 0 0 0
          0 0 0 0 0 0
          0 0 0 0 0 0
          0 0 0 0 0 0
          0 0 0 0 0 0
          0 0.5 0.25 0 0 0
          0 1 0 1.5 0.75 2
          1.5 0 0 2 2 2
          0 0 0 0 0 0
          0 0 0 0 0 0
          0 0 0 0 0 0
          0 0 0 0 0 0
          0 0 0 0 0 0
          0 0 0 0 0 2
          2 0.5 2 2 1 0
          0 0 0 0 0 0
          0 0 0 0 0 0
          1 0 0 0 0 0
          0 0.5 0.5 1.5 1.5 0.5
          1 1 1 2 1 0
          0 0 1 0.5 0 2
          2 1.6666666666666667 1 1 0.75 1
          1 0.5 0.6666666666666666 2 1.75 2
          1.6666666666666667 0 0.5 0 0 0
          1 0.6666666666666666 0 2 2 2
          2 1.25 1.75 2 2 2
          1.5 2 2 2 2 2
          2 2 2 2 2 0.25
          0.75 0 0 0.5 1 0
          1 1.25 0 0.5 1 1.5
          0 0 0 0 0 0
          0 0 1 1 1 1
          0.75 1 2 2 2 1.75
          0.25 0.5 0 0 1 1.5
          0.5 2 2 2 2 2
          2 2 2 2 2 1.75
          2 1.5 2 2 2 2
          0 0 0 0 0 0
          0
        </DataArray>
        <DataArray type="Float64" Name="markers_mustrefine" format="ascii" RangeMin="0" RangeMax="2">
          2 0 0 0 0.5 0.25
          1 0 2 2 0.5 2
          2 2 1 0.5 2 2
          1 2 2 0 1.25 1.5
          2 2 2 1.5 0 0.25
          0 0.5 0.5 1 1 1
          0 1.5 2 0 0.5 1
          0 0 0 0 0 0
          0 0 0 0 0 0
          0 0 0 0 0 0
          0 0 0 0 1 1.5
          1.5 1.3333333333333333 2 0 0.5 1.6666666666666667
          2 2 2 2 2 2
          2 2 2 2 2 2
          2 1 1.5 1.5 2 2
          2 2 2 2 2 2
          2 2 2 1.5 1.75 2
          2 2 2 2 0 0.75
          0 1 0 0.5 1 1.75
          2 0.5 1.25 1 1.5 0
          1 1 2 2 2 2
          2 2 2 2 2 2
          2 2 2 2 2 2
          2 2 2 2 2 2
          2 2 2 2 2 2
          2 2 2 2 2 2
          2 2 2 2 2 2
          2 2 2 2 2 2
          2 2 1 1.5 1 1.5
          0 1 1 2 2 2
          2 2 2 2 2 2
          2 2 2 2 2 2
          2 2 2 2 2 2
          2 2 2 2 2 2
          2 2 2 2 2 2
          2 2 2 2 2 2
          2 2 2 2 2 2
          2 2 2 2 2 2
          2 2 2 2 2 2
          2 2 2 2 2 2
          2 2 2 2 2 2
          2 2 2 2 2 2
          2 2 2 2 2 2
          2 2 2 2 2 2
          2 2 2 2 2 2
          2 2 2 2 2 2
          2 2 2 2 2 2
          2 2 2 2 2 2
          2 2 2 2 2 2
          2 2 2 2 2 2
          2 2 2 2 2 2
          2 2 2 2 2 2
          2 2 2 2 2 2
          0 0 0 0 0 0
          0
        </DataArray>
        <DataArray type="Float64" Name="gradient_marker" format="ascii" RangeMin="0" RangeMax="1">
          0 0.5 1 0.875 0.75 0.875
          1 0.75 0 1 0.625 0.75
          1 0.75 1 0.75 1 1
          0.75 0.5 0.875 0.75 0.75 0.875
          0 0.75 0.5 1 0.75 1
          0.6666666666666666 0.875 1 1 1 0.625
          0.6666666666666666 0.75 1 0.5 0.625 0.75
          1 1 1 1 1 0.8333333333333334
          0.5 0.5 0.75 0.75 0 0.5
          0.5 0.25 0.625 0.5 0 0
          0.5 0.5 0 0.5 0.25 0.75
          0.625 0.5 0.875 0 0.25 0.6666666666666666
          0.25 0.5 0.875 0.25 0.875 1
          1 0.75 1 0.875 1 1
          1 0.25 0.625 0.75 1 1
          1 1 1 1 1 1
          1 1 1 0.5 0.75 0.75
          0.75 0.875 0.625 1 0 0.25
          0 0.25 0 0 0 0.75
          0.75 0 0.375 0 0.375 0
          0.25 0.25 0.875 0.875 0.75 0.5
          0.75 0.5 0.625 1 0.875 0
          0.5 0.25 1 0.25 0.375 0
          0.125 0.75 0.625 0 0 0
          0.5 1 1 1 1 1
          1 1 1 1 1 1
          1 1 1 1 1 0.75
          1 0.875 0.5 0.75 0.625 0.5
          0.5 0.75 0 0.25 0 0.25
          0 0 0 0.75 0.5 0
          0 0.5 0 0 0.5 1
          1 1 1 0 0 0
          0 0 0 0 0 0
          0 0 0 0 0 0
          0 0 0 0 0 0
          0 0 0 0 0 0
          0 0 0 0 0 0
          0 0 0 0 0 0
          0 0 0 0 0 0
          0 0 0 0 0 0
          0 0 0 0 0 0
          0 0 0 0 0 0
          0 0 0 0 0 0
          0 0 0 0 0 0
          0 0 0 0 0 0
          0 0 0 0 0 0
          0 0 0 0 0 0
          0 0 0 0 0 0
          0 0 0 0 0 0
          0 0 0 0 0 0
          0 0 0 0 0 0
          0 0 0 0 0 0
          0 0 0 0 0 0
          1 1 0.625 1 1 0.75
          0.875
        </DataArray>
        <DataArray type="Float64" Name="gradient_matprop_marker" format="ascii" RangeMin="0" RangeMax="0">
          0 0 0 0 0 0
          0 0 0 0 0 0
          0 0 0 0 0 0
          0 0 0 0 0 0
          0 0 0 0 0 0
          0 0 0 0 0 0
          0 0 0 0 0 0
          0 0 0 0 0 0
          0 0 0 0 0 0
          0 0 0 0 0 0
          0 0 0 0 0 0
          0 0 0 0 0 0
          0 0 0 0 0 0
          0 0 0 0 0 0
          0 0 0 0 0 0
          0 0 0 0 0 0
          0 0 0 0 0 0
          0 0 0 0 0 0
          0 0 0 0 0 0
          0 0 0 0 0 0
          0 0 0 0 0 0
          0 0 0 0 0 0
          0 0 0 0 0 0
          0 0 0 0 0 0
          0 0 0 0 0 0
          0 0 0 0 0 0
          0 0 0 0 0 0
          0 0 0 0 0 0
          0 0 0 0 0 0
          0 0 0 0 0 0
          0 0 0 0 0 0
          0 0 0 0 0 0
          0 0 0 0 0 0
          0 0 0 0 0 0
          0 0 0 0 0 0
          0 0 0 0 0 0
          0 0 0 0 0 0
          0 0 0 0 0 0
          0 0 0 0 0 0
          0 0 0 0 0 0
          0 0 0 0 0 0
          0 0 0 0 0 0
          0 0 0 0 0 0
          0 0 0 0 0 0
          0 0 0 0 0 0
          0 0 0 0 0 0
          0 0 0 0 0 0
          0 0 0 0 0 0
          0 0 0 0 0 0
          0 0 0 0 0 0
          0 0 0 0 0 0
          0 0 0 0 0 0
          0 0 0 0 0 0
          0 0 0 0 0 0
          0
        </DataArray>
        <DataArray type="Float64" Name="combo" format="ascii" RangeMin="0" RangeMax="2">
          2 0.5 1 0.875 0.75 0.875
          1 0.75 0 1 0.625 0.75
          1 0.75 1 0.75 1 1
          0.75 0.5 0.875 0.75 0.75 0.875
          2 0.75 1 1 0.75 1
          0.6666666666666666 0.875 1 1 1 0.625
          0.6666666666666666 0.75 1 0.5 0.625 0.75
          1 1 1 1 1 0.8333333333333334
          0.5 0.5 0.75 0.75 0 0.5
          0.5 0.25 0.625 0.5 0 0
          0.5 0.5 0 0.5 0.25 0.75
          0.625 0.5 0.875 0 0.25 0.6666666666666666
          0.25 0.5 0.875 0.25 0.875 1
          1 0.75 1 0.875 1 1
          1 0.25 0.625 0.75 1 1
          1 1 1 1 1 1
          1 1 1 0.5 0.75 0.75
          0.75 0.875 0.625 1 0 0.25
          0 0.25 0 0 0 0.75
          0.75 0 0.375 0 0.375 0
          0.25 0.25 0.875 0.875 0.75 0.5
          0.75 1 0.875 1 0.875 0
          0.5 1.25 1 1.75 1.125 2
          1.625 0.75 0.625 2 2 2
          0.5 1 1 1 1 1
          1 1 1 1 1 1
          1 1 1 1 1 0.75
          1 0.875 0.5 0.75 0.625 0.5
          0.5 0.75 0 0.25 0 0.25
          0 0 0 0.75 0.5 2
          2 1 2 2 1.5 1
          1 1 1 0 0 0
          0 0 0 0 0 0
          1 0 0 0 0 0
          0 0.5 0.5 1.5 1.5 0.5
          1 1 1 2 1 0
          0 0 1 0.5 0 2
          2 1.6666666666666667 1 1 0.75 1
          1 0.5 0.6666666666666666 2 1.75 2
          1.6666666666666667 0 0.5 0 0 0
          1 0.6666666666666666 0 2 2 2
          2 1.25 1.75 2 2 2
          1.5 2 2 2 2 2
          2 2 2 2 2 0.25
          0.75 0 0 0.5 1 0
          1 1.25 0 0.5 1 1.5
          0 0 0 0 0 0
          0 0 1 1 1 1
          0.75 1 2 2 2 1.75
          0.25 0.5 0 0 1 1.5
          0.5 2 2 2 2 2
          2 2 2 2 2 1.75
          2 1.5 2 2 2 2
          1 1 0.625 1 1 0.75
          0.875
        </DataArray>
        <DataArray type="Float64" Name="dHdT" format="ascii" RangeMin="25.819896649956235" RangeMax="121.15874569011186">
          45.67850824838514 26.0419237117829 26.311000893518553 26.217597498592568 32.44685546382558 29.01976783511765
          31.059740735523317 27.637182038108335 37.4279358572091 32.82599632822995 31.26349553329213 37.16849610105641
          36.77815830770632 37.132743435896145 31.931289417468072 30.63855371098706 40.369852058017415 37.35450527077693
          29.76376791711378 42.510593646144585 37.15256036561918 28.29509443045683 31.966737575619977 31.078949553208
          120.15135395428294 38.70269643218808 50.815147091923805 33.654106663144816 27.126181407113698 28.309608415926043
          26.944784867371112 27.76612200540495 28.98977149355003 28.35560885449425 29.705957887643486 28.567866553484734
          27.336696107409256 29.765630420243575 31.66166242620595 26.733837080638523 27.1559809796561 27.57812487867367
          25.87523950138352 25.860917421006263 26.61589797515179 28.108509638927302 27.791429118473854 27.216320525688023
          26.440716762572322 26.386821539542893 27.707597266375025 27.417463771490727 26.191365694001114 27.22950910034256
          26.999149610684178 26.26255258548045 26.847179456240422 26.657124377592385 26.04797357795445 26.04163973972328
          26.743711362965154 26.59364467515094 26.03530590149211 26.443577987336727 34.88165669896907 36.47987228955789
          36.21722157624689 35.418390188327415 37.27052764097614 31.274992111886494 33.05960008346193 36.16128061288817
          37.08315597314159 37.04045698896184 37.29005347720958 37.09264514949614 37.02356174530972 37.22730659880587
          35.18356243886209 34.68445130881845 36.282837320841494 35.992740608395586 34.37202186871993 36.05552550180786
          35.73039932073584 33.18390162882683 34.94378675285478 34.620851956476784 38.06104241464788 37.676555744683405
          39.262307074756144 37.049966305907645 34.459035946708596 33.926760219066104 35.77645190939961 35.407819865516366
          33.314075433612246 35.45087148378953 35.00001720688268 32.35328709175815 34.22035764422662 33.69540799953433
          39.698418337530235 39.50240404305762 39.07685102997987 37.8957065833062 31.12245902401413 32.9119171735279
          30.771224654289476 32.57466036084903 30.062454969149414 31.638904737295917 31.31288994840832 35.65358312282713
          35.37092081331237 30.31223748766752 32.133573834213585 29.76384739743193 31.575339997460713 29.312385283242367
          30.86562020160705 30.309026925828604 35.017458526404354 34.604655298966925 33.76034369222893 38.999150392045124
          38.464077783396824 57.276224770532664 44.530000154903824 37.9322749772961 38.43273132523997 45.684254968060856
          39.80691457551221 63.88618907202852 38.468289219659624 74.08754988052536 58.38742316506081 66.3172207985721
          64.57129516037337 39.73957568765538 42.68185872572316 76.13721083463894 86.29992072938958 64.43856243738793
          43.08923963690184 36.818051229160474 36.63746057271924 35.94131045054131 37.030311535708336 36.91117558622231
          36.85709125266804 37.34272348304923 35.57340310756306 35.120570426705726 37.634175633287015 38.862968965654105
          36.044973950639985 33.1022835983918 32.48575584416524 35.24803128739613 34.570545352318604 31.37356289112714
          34.529395566052216 33.79062691052633 30.922617339923953 33.02536349705141 32.193551099598466 44.473479250046196
          40.41516626625052 36.306800660496265 29.170304412469577 30.913684563820468 28.553530289587837 30.157714526477573
          28.364602235029942 29.669701550779198 28.980185108758647 34.256124171910244 32.44834281147687 56.354766596899005
          60.60349776026644 44.763477494532 46.12127790551852 53.749739488056946 51.72187050200221 37.46173417135341
          34.542158767759354 39.0682847140577 35.16243277909342 37.7474431734649 42.63411351523104 40.763696574354086
          45.269760895775896 38.89327963347713 37.09467675327916 39.465334360645585 50.270973156554945 46.158230057404715
          61.89523363033255 42.045486958254486 40.03817388251218 46.968040327457615 43.60913835598096 40.25023638450431
          47.75294235131634 63.993591523340875 56.134529726947456 95.59352465908538 80.79265746167786 48.275467930554036
          60.285513529508165 77.7162098901268 66.11082939649019 99.6900812930232 54.50544890285359 43.19672348284451
          37.52048690570527 46.35527308317684 51.62193619662533 49.18837626880954 46.754816340993756 87.26677251558323
          77.86011047760985 77.75562183318267 58.69777818161296 55.150757328616926 52.29632486948367 58.96541247764542
          56.2323815852976 49.441892410350434 51.00688162809977 75.02294480222821 73.16795876562522 68.4270221329102
          69.63096645936349 43.275344595703004 49.99874981939834 37.608581267816575 42.345317452301934 38.66869140620416
          55.37498463428462 55.09524893459261 44.48301534852319 104.21275910284754 93.90278254599802 84.27787444222731
          87.00845510115207 69.58462309241287 78.12235092207528 121.15874569011186 109.94545461438616 87.69813213460723
          80.4714680032128 64.62810995406642 71.84166540414734 54.19114929597293 59.26927941682581 75.48442451936657
          68.38841951606426 46.877731445679196 61.1763664416575 48.87951684265054 76.51765194329977 47.167095741118885
          55.07334740521748 38.757751286560506 43.641028726361256 51.05884688653477 60.14794499103663 39.90692130530444
          60.72573572480322 63.50868396564966 49.53784326510155 54.5879384368495 66.07648681532181 68.17247360507277
          54.59267118167992 49.17321102652896 47.64397264544636 49.53683690311668 42.33495508218881 37.78267155270079
          39.00600094713556 37.0101672053877 58.96981675114604 57.179040225425155 59.200669974807305 57.35928167018862
          51.238509266483604 52.322859935484146 59.081443389190945 62.01649641217783 57.94853028243682 63.224412914377986
          43.153314971556966 44.53461333893419 39.217875109850986 39.941400172470026 54.5326873427574 55.40517348333738
          47.568098291923555 47.66619250622231 51.60254840546075 45.99132533669693 48.37316215449424 62.28610156837846
          57.24300640482531 45.93592070982584 45.88621179196978 46.03099018137539 58.26544075877936 63.293908352686316
          60.880655836437 57.55451787331489 58.03029783551491 66.04640041027098 61.01419043693205 61.39842217709695
          25.838674713748176 25.832491998088273 25.988919130169442 25.82178615829845 25.819896649956235 25.88226446817358
          25.889646065758743
        </DataArray>
        <DataArray type="Float64" Name="dk/dtemperature" format="ascii" RangeMin="0.006434190783398656" RangeMax="0.12172250279524786">
          0.008514125000000004 0.01561902447173812 0.015250302927832717 0.01540220544925465 0.01021777253194453 0.012502053796124405
          0.011186058636925475 0.013684204532748866 0.00894265885783206 0.00930093457179266 0.010911180716713504 0.008258611861768007
          0.0073537143068700996 0.008194937499662467 0.010510381321834622 0.011366768646087187 0.008014316000630024 0.007292081171512155
          0.011985584318362138 0.007967404031392076 0.007690403186616024 0.013034067057858662 0.010472830862901461 0.011065289754541355
          0.12115818568063595 0.009088894669989925 0.010770084361132038 0.00880478256847464 0.01430509506632895 0.01324321054702371
          0.014521494753495803 0.013764089607589538 0.01274082587094515 0.013288060156160644 0.012150950897496127 0.01291430913399215
          0.013952033999475118 0.012004769135215542 0.010417793780948799 0.014740807124088923 0.01433824437162002 0.013935681619151114
          0.015783697450575434 0.015794138899959315 0.014836041568542204 0.013350081546513234 0.013605894510881893 0.014176880464898131
          0.015076698106751357 0.015197215076748417 0.01374068899989779 0.014014809344885488 0.015472844180363817 0.014266916282774798
          0.014481028895441814 0.015375600320439258 0.014617332991597553 0.0148248430528894 0.015679282956736647 0.015679282956736647