<?xml version="1.0"?>
<VTKFile type="UnstructuredGrid" version="0.1" byte_order="LittleEndian" header_type="UInt32" compressor="vtkZLibDataCompressor">
  <UnstructuredGrid>
    <Piece NumberOfPoints="948" NumberOfCells="632">
      <PointData>
        <DataArray type="Int32" Name="libmesh_node_id" format="ascii" RangeMin="1375" RangeMax="8928">
          1377 1385 1387 1998 2011 2016
          2019 2020 2023 2025 2034 3271
          3272 3273 3275 3276 3305 3306
          3307 3309 3310 3343 3344 3345
          3346 3347 3348 3379 3380 3381
          3382 3383 3384 3385 3403 3404
          3405 3406 3407 3408 3409 3410
          3411 3412 3423 3424 3425 3426
          3427 3428 3429 3430 3431 3432
          3440 3441 3442 3443 3444 3445
          3446 3454 3455 3456 3457 3458
          3459 3460 3461 3462 3465 3466
          3468 3469 3470 3481 3482 3483
          3484 3485 3486 3487 3495 3496
          3499 3500 3502 3504 3727 3728
          3729 3730 3731 3732 3733 3765
          3766 3767 3768 3769 3770 3771
          3772 3773 3774 3833 3834 3835
          3836 3837 3838 3839 3840 3841
          3842 3843 3844 3845 3846 7506
          7507 7508 7509 7510 7511 7512
          7513 7514 7515 7516 7517 7518
          7519 7520 7521 7522 7523 7524
          7525 7528 7529 7535 7536 7540
          7541 7542 7543 7544 7545 7546
          7547 7548 7549 7550 7551 7552
          7553 7756 7760 7761 7762 7763
          7764 7765 7766 7767 7768 7769
          7770 7771 7772 7773 7784 7788
          7789 7790 7791 7792 7793 7794
          7795 7796 7797 7798 7799 7800
          7801 7969 7970 7971 7972 7973
          7974 7975 7976 7977 7978 7979
          7980 7981 7982 7983 7984 7985
          7986 7987 7988 7991 7992 7995
          7998 7999 8002 8003 8004 8005
          8006 8007 8008 8009 8010 8011
          8012 8013 8014 8015 8016 8029
          8033 8044 8045 8048 8049 8051
          8053 8202 8203 8206 8209 8210
          8213 8214 8215 8216 8217 8218
          8219 8220 8221 8222 8223 8224
          8225 8226 8227 8230 8231 8234
          8237 8238 8241 8242 8243 8244
          8245 8246 8247 8248 8249 8250
          8251 8252 8253 8254 8255 8258
          8262 8270 8272 8274 8276 8286
          8290 8298 8300 8302 8304 8380
          8381 8382 8383 8384 8385 8386
          8387 8388 8389 8390 8391 8392
          8393 8394 8395 8396 8397 8398
          8399 8400 8401 8402 8403 8404
          8405 8406 8407 8408 8409 8410
          8411 8412 8413 8414 8415 8416
          8417 8418 8419 8420 8421 8422
          8423 8424 8425 8426 8427 8428
          8429 8430 8431 8432 8433 8434
          8435 8436 8437 8438 8439 8440
          8471 8472 8473 8474 8475 8476
          8477 8478 8479 8480 8481 8482
          8483 8484 8485 8486 8487 8488
          8489 8490 8547 8548 8549 8550
          8551 8552 8553 8554 8555 8556
          8557 8558 8559 8560 8561 8562
          8563 8564 8565 8566 8567 8568
          8569 8570 8571 8572 8573 8574
          8575 8576 8577 8578 8579 8580
          8581 8582 8583 8584 8585 8586
          8587 8588 8589 8590 8591 8592
          8593 8594 8595 8596 8597 8598
          8599 8600 8601 8602 8662 8663
          8664 8665 8666 8667 8668 8669
          8670 8671 8672 8673 8674 8675
          8676 8677 8678 8679 8680 8681
          8682 8683 8684 8685 8686 8687
          8688 8689 8690 8691 8692 8693
          8694 8695 8696 8697 8698 8699
          8700 8701 8702 8703 8704 8705
          8706 8707 8708 8709 8710 8711
          8712 8713 8714 8715 8716 8717
          8718 8719 8720 8721 8722 8723
          8724 8725 8726 8727 8728 8729
          8730 8731 8732 8733 8734 8735
          8736 8737 8738 8739 8740 8741
          8742 8743 8744 8745 8746 8747
          8748 8749 8750 8751 8752 8753
          8754 8755 8756 8757 8758 8759
          8760 8761 8762 8763 8764 8765
          8766 8767 8768 8769 8770 8771
          8773 8774 8775 8776 8777 8778
          8779 8780 8781 8782 8783 8784
          8785 8786 8787 8788 8789 8790
          8791 8792 8793 8794 8795 8796
          8797 8798 8799 8800 8801 8802
          8803 8804 8805 8806 8807 8808
          8809 8810 8811 8812 8813 8814
          8815 8816 8817 8818 8819 8820
          8821 8822 8823 8824 8825 8826
          8827 8828 8829 8830 8832 8834
          8836 8847 8848 8851 8852 8854
          8856 8867 8869 8871 8873 8881
          8883 8885 8887 8895 8896 8897
          8898 8899 8900 8901 8902 8903
          8904 8905 8906 8907 8908 8909
          8910 8911 8912 8913 8914 8915
          8916 8917 8918 8919 8920 8921
          8922 8923 8924 8925 8926 8927
          8928 2021 1382 2059 2057 2022
          2060 2058 2063 2062 2064 2065
          1405 2066 1986 1375 2246 2244
          1987 1988 2247 2245 2250 2249
          2017 2241 2251 2242 2252 2256
          2027 2031 2265 2032 2266 2036
          2272 3341 3349 3353 2010 3342
          3350 3354 3415 3399 3416 3419
          3421 3463 3464 3467 3471 3472
          3476 3478 3480 2028 3497 3498
          3501 3503 3233 3721 3725 3236
          3238 3267 1992 3723 3726 3269
          3734 3490 3735 3494 3741 3561
          3450 3562 3565 2026 3567 3813
          3817 3339 3815 3818 3724 3828
          3829 3832 3395 3816 7490 7450
          7437 7491 7451 7492 7454 3261
          7495 7456 3268 3263 7500 7501
          7502 7505 3270 7439 7493 7466
          7526 7468 7494 7527 7470 7530
          7532 3265 7531 3274 7503 7533
          7504 7534 7537 7539 7538 7480
          7482 7484 1997 7753 7754 7755
          7757 7758 7759 7700 7748 7712
          7749 7714 3298 7752 7716 3304
          3300 7781 7782 7783 7785 7786
          7787 7728 7776 7740 7777 7742
          3302 7780 7744 3308 2002 7953
          7954 7955 7958 3340 7963 7964
          7965 7968 7956 7989 7957 7990
          7993 7994 7966 7996 7967 7997
          8000 8001 8024 8026 8027 8025
          8028 8030 8031 8032 3356 8046
          8047 8050 8052 3358 8200 8201
          8204 8205 8207 8208 8211 8212
          8228 8229 8232 8233 8235 8236
          8239 8240 8256 8257 8259 8260
          8261 3386 8271 8273 8275 3388
          8284 8285 8287 8288 8289 3390
          8299 8301 8303 3392 8324 8325
          8328 8330 3396 8344 8345 8348
          8350 8360 8362 8364 3401 8374
          8376 8378 2018 8453 8454 8457
          8459 8499 8501 8503 3434 8513
          8515 8517 3436 8527 8529 8531
          3438 8541 8543 8545 2024 8611
          8613 8615 3448 8626 8627 8630
          8632 8642 8644 8646 3452 8656
          8658 8660 8772 8831 8833 8835
          3488 8849 8850 8853 8855 8868
          8870 8872 3492 8882 8884 8886
        </DataArray>
        <DataArray type="Float64" Name="bounds" format="ascii" RangeMin="0" RangeMax="0">
          0 0 0 0 0 0
          0 0 0 0 0 0
          0 0 0 0 0 0
          0 0 0 0 0 0
          0 0 0 0 0 0
          0 0 0 0 0 0
          0 0 0 0 0 0
          0 0 0 0 0 0
          0 0 0 0 0 0
          0 0 0 0 0 0
          0 0 0 0 0 0
          0 0 0 0 0 0
          0 0 0 0 0 0
          0 0 0 0 0 0
          0 0 0 0 0 0
          0 0 0 0 0 0
          0 0 0 0 0 0
          0 0 0 0 0 0
          0 0 0 0 0 0
          0 0 0 0 0 0
          0 0 0 0 0 0
          0 0 0 0 0 0
          0 0 0 0 0 0
          0 0 0 0 0 0
          0 0 0 0 0 0
          0 0 0 0 0 0
          0 0 0 0 0 0
          0 0 0 0 0 0
          0 0 0 0 0 0
          0 0 0 0 0 0
          0 0 0 0 0 0
          0 0 0 0 0 0
          0 0 0 0 0 0
          0 0 0 0 0 0
          0 0 0 0 0 0
          0 0 0 0 0 0
          0 0 0 0 0 0
          0 0 0 0 0 0
          0 0 0 0 0 0
          0 0 0 0 0 0
          0 0 0 0 0 0
          0 0 0 0 0 0
          0 0 0 0 0 0
          0 0 0 0 0 0
          0 0 0 0 0 0
          0 0 0 0 0 0
          0 0 0 0 0 0
          0 0 0 0 0 0
          0 0 0 0 0 0
          0 0 0 0 0 0
          0 0 0 0 0 0
          0 0 0 0 0 0
          0 0 0 0 0 0
          0 0 0 0 0 0
          0 0 0 0 0 0
          0 0 0 0 0 0
          0 0 0 0 0 0
          0 0 0 0 0 0
          0 0 0 0 0 0
          0 0 0 0 0 0
          0 0 0 0 0 0
          0 0 0 0 0 0
          0 0 0 0 0 0
          0 0 0 0 0 0
          0 0 0 0 0 0
          0 0 0 0 0 0
          0 0 0 0 0 0
          0 0 0 0 0 0
          0 0 0 0 0 0
          0 0 0 0 0 0
          0 0 0 0 0 0
          0 0 0 0 0 0
          0 0 0 0 0 0
          0 0 0 0 0 0
          0 0 0 0 0 0
          0 0 0 0 0 0
          0 0 0 0 0 0
          0 0 0 0 0 0
          0 0 0 0 0 0
          0 0 0 0 0 0
          0 0 0 0 0 0
          0 0 0 0 0 0
          0 0 0 0 0 0
          0 0 0 0 0 0
          0 0 0 0 0 0
          0 0 0 0 0 0
          0 0 0 0 0 0
          0 0 0 0 0 0
          0 0 0 0 0 0
          0 0 0 0 0 0
          0 0 0 0 0 0
          0 0 0 0 0 0
          0 0 0 0 0 0
          0 0 0 0 0 0
          0 0 0 0 0 0
          0 0 0 0 0 0
          0 0 0 0 0 0
          0 0 0 0 0 0
          0 0 0 0 0 0
          0 0 0 0 0 0
          0 0 0 0 0 0
          0 0 0 0 0 0
          0 0 0 0 0 0
          0 0 0 0 0 0
          0 0 0 0 0 0
          0 0 0 0 0 0
          0 0 0 0 0 0
          0 0 0 0 0 0
          0 0 0 0 0 0
          0 0 0 0 0 0
          0 0 0 0 0 0
          0 0 0 0 0 0
          0 0 0 0 0 0
          0 0 0 0 0 0
          0 0 0 0 0 0
          0 0 0 0 0 0
          0 0 0 0 0 0
          0 0 0 0 0 0
          0 0 0 0 0 0
          0 0 0 0 0 0
          0 0 0 0 0 0
          0 0 0 0 0 0
          0 0 0 0 0 0
          0 0 0 0 0 0
          0 0 0 0 0 0
          0 0 0 0 0 0
          0 0 0 0 0 0
          0 0 0 0 0 0
          0 0 0 0 0 0
          0 0 0 0 0 0
          0 0 0 0 0 0
          0 0 0 0 0 0
          0 0 0 0 0 0
          0 0 0 0 0 0
          0 0 0 0 0 0
          0 0 0 0 0 0
          0 0 0 0 0 0
          0 0 0 0 0 0
          0 0 0 0 0 0
          0 0 0 0 0 0
          0 0 0 0 0 0
          0 0 0 0 0 0
          0 0 0 0 0 0
          0 0 0 0 0 0
          0 0 0 0 0 0
          0 0 0 0 0 0
          0 0 0 0 0 0
          0 0 0 0 0 0
          0 0 0 0 0 0
          0 0 0 0 0 0
          0 0 0 0 0 0
          0 0 0 0 0 0
          0 0 0 0 0 0
          0 0 0 0 0 0
          0 0 0 0 0 0
          0 0 0 0 0 0
          0 0 0 0 0 0
          0 0 0 0 0 0
        </DataArray>
        <DataArray type="Float64" Name="gradient_error" format="ascii" RangeMin="2.379781556600424e-13" RangeMax="2.4307601520454433e-10">
          2.3882651659626846e-12 3.16936404990901e-11 4.267990694650666e-12 9.1442217417965e-12 1.6461165840346237e-12 5.816399003118931e-12
          4.455554925212837e-12 2.354394941360542e-12 5.682693376644103e-12 5.438871308858838e-12 1.487986736638269e-12 5.055875613660803e-12
          5.906201321472474e-12 2.699885543721373e-12 1.6331532477681652e-11 1.9828311388863e-11 4.446625728268473e-11 5.028271022750926e-11
          2.3402464783634425e-11 5.844853450149093e-11 6.75947564077842e-11 1.3399471748294668e-12 1.4135804134119048e-12 1.0184654027429684e-12
          7.139818930066002e-12 2.9491809992898694e-12 3.9913940385479695e-12 1.95858276256139e-11 8.120378179249601e-12 1.0268831670626732e-11
          4.2484252628456436e-12 2.603685022042367e-11 1.08997964447124e-11 1.3990531008133817e-11 3.974595028914014e-12 3.91929741108622e-12
          2.6861142463337758e-12 2.5459504101148686e-12 4.48287642521156e-12 3.5317125356369857e-12 2.9018565416015718e-12 9.742297489704233e-12
          4.475703758728312e-12 4.278837431126389e-12 4.434087407312774e-12 4.0852372246739625e-12 2.1163801459448028e-12 2.399762299048314e-12
          3.1422887999546937e-12 4.763989947857541e-12 2.23187122087788e-12 3.877553479736526e-12 3.1273641586371607e-12 5.100552449509718e-12
          2.2625214073002932e-11 1.047685447992714e-11 8.960924580724922e-12 4.118762898799561e-12 3.046901123043759e-11 1.4169976135129526e-11
          1.177607635809706e-11 4.00185453480626e-12 3.222122178540383e-12 4.275032285765213e-12 4.0938192844422635e-12 4.102891583965617e-12
          2.9293603727065922e-12 4.030805477450688e-12 1.5041614641642324e-12 1.4016422037731368e-12 1.4912944870646677e-12 1.794296591171151e-12
          1.9486931019087225e-12 9.4718098994724e-13 1.4677292634273252e-12 4.585436095892922e-12 1.891460109164785e-12 1.7906578735290676e-12
          1.1477463381023532e-12 6.222460401949277e-12 2.5750959026450036e-12 2.3693209579922275e-12 1.893997374724486e-12 2.006723829923293e-12
          2.0066004809258955e-12 3.229186910946803e-12 2.401387217557019e-12 3.79448990558325e-12 9.665244899975214e-13 1.5851434462164535e-12
          6.479107265324486e-13 1.000758454057747e-12 6.843961372760206e-13 1.0168565914087275e-12 6.776805092482678e-13 3.277332286263002e-12
          3.852837682364087e-12 2.1555871713071185e-12 2.456699839336461e-12 2.2422045278011943e-12 2.363604041214823e-12 1.6434585558428043e-12
          4.428343078465171e-12 2.757812507365804e-12 2.4850035546284516e-12 1.9943331258962936e-12 3.5372328078898166e-12 1.0134519102797012e-12
          1.7014877776966126e-12 1.7758093738014298e-12 2.7148164826762247e-12 1.3378636918058283e-12 5.092430365533147e-13 7.931349870740894e-13
          3.8498438779985777e-13 5.162538934469335e-13 4.519392380695935e-13 6.392990490717941e-13 4.574638338884211e-13 3.843203274575207e-12
          5.719406963529954e-12 2.630521283489816e-12 3.926290530994694e-12 3.0670528697951728e-12 4.511769894086734e-12 3.105849412816388e-12
          1.1082127341215304e-11 7.637869926753514e-12 8.577370733753693e-12 1.787726592279771e-12 2.6688129314443294e-12 1.210738883419188e-12
          1.7967267560367157e-12 1.4391113400063458e-12 2.108956755428751e-12 1.4173364221779328e-12 5.200734428299815e-12 3.4979804288109445e-12
          4.017919315112176e-12 2.6901834776416407e-11 1.8613271966372022e-11 1.2710162633767245e-11 8.565945649507548e-12 2.102350604207419e-11
          1.4537333374453802e-11 1.5897521395801075e-11 1.0984367133704196e-11 3.8844414427999664e-11 2.6946512979091257e-11 2.8609110838692157e-11
          9.922575868121167e-12 6.686479549773396e-12 7.492117550139802e-12 5.046584423619157e-12 1.843735014128932e-11 1.2442853464026896e-11
          1.355696462093322e-11 2.9068662141026946e-11 6.718192371255839e-11 4.67707880277502e-11 4.8363946278199114e-11 3.3624706212571735e-11
          1.0105856526122301e-10 7.063531484646655e-11 7.208639862126044e-11 3.2090343738022446e-11 2.170069693119345e-11 2.304636940029774e-11
          1.5572432094590613e-11 4.862470507073247e-11 3.297130523647811e-11 3.455770457852409e-11 5.529737406123369e-11 1.2561602215733181e-10
          8.814427582088416e-11 9.027605549879747e-11 6.315962915865875e-11 1.3326830041553756e-10 9.36874587200533e-11 9.648577287656104e-11
          6.089033003685889e-11 4.141815605572803e-11 4.352328315169868e-11 2.954366009797304e-11 6.48308192759707e-11 4.4169101443412124e-11
          4.663716534598463e-11 8.078114547492934e-13 1.1913825093807768e-12 5.426130638672852e-13 7.771369450060681e-13 6.563497868794822e-13
          9.369248343871856e-13 6.706012967505504e-13 2.3250129212123267e-12 1.5170784692860162e-12 1.7937586122744584e-12 3.662864691651624e-13
          4.994665338849772e-13 3.024038247798513e-13 3.937369029875314e-13 3.415560859201758e-13 4.4137227936518887e-13 3.558610360089239e-13
          9.73053215660959e-13 7.189817585818018e-13 8.456656064029898e-13 5.696918944286343e-12 3.739544700808903e-12 1.0874083384795713e-11
          2.4272449135100857e-12 1.5512166843079504e-12 4.621501946811199e-12 4.4507850087394845e-12 2.922944296577888e-12 3.363399462707511e-12
          2.2078681064765686e-12 8.281809644327752e-12 5.436053364358506e-12 6.083178019053374e-12 1.8935040594841527e-12 1.2065237014113936e-12
          1.4224717205737176e-12 9.037225457022825e-13 3.5180026799727393e-12 2.2447620782079512e-12 2.5820475594243887e-12 9.728184249917714e-13
          1.8546895677213916e-12 5.200861449217508e-13 7.546634423582782e-13 3.968847115426262e-13 5.634178702051485e-13 1.4131359283600487e-12
          1.0351987415952231e-12 1.9386176555062693e-11 1.2740485009734807e-11 2.97362433743507e-11 8.251295770224455e-12 5.266261268570165e-12
          1.2706634999402538e-11 1.4463854394034758e-11 9.50174433341917e-12 1.0373505614715661e-11 6.812381560770327e-12 2.202407087410713e-11
          1.449330660537877e-11 1.561653584551847e-11 6.15233889312241e-12 3.926834384231201e-12 4.409966489688784e-12 2.8145147834086393e-12
          9.396447156557468e-12 6.002049399376164e-12 6.653839249767666e-12 3.71193137274267e-11 2.4532993025676785e-11 3.93169402383556e-11
          1.5966338492376555e-11 1.0232921199597229e-11 1.6976749111519672e-11 2.774464010986099e-11 1.830433647672117e-11 1.97558828246348e-11
          1.3014687823990948e-11 2.9631725709988306e-11 1.9576834161534712e-11 2.1216130732318216e-11 1.1894439682650555e-11 7.613232820617857e-12
          8.446624904381728e-12 5.40074056054615e-12 1.2738205764736698e-11 8.163621210077574e-12 9.088448437704967e-12 3.3120314397050377e-12
          5.1120967416004245e-12 2.4720286147713414e-12 1.7736868394747452e-12 3.776925743842841e-12 2.6721400395318658e-12 6.458897529313751e-12
          6.891479107978439e-12 4.800107104557661e-12 3.4024196338648673e-12 5.153388834047031e-12 3.667486413292717e-12 2.4177981758208716e-12
          3.4740469456609098e-12 1.6883958315216874e-12 2.3794458282706208e-12 1.8553487271501464e-12 2.5834186041467464e-12 1.937729305877393e-12
          6.457754019357636e-12 4.4325847815172426e-12 4.708621955496144e-12 1.1512478984837226e-12 1.6043404530754336e-12 7.780463981500803e-13
          1.0773741283160431e-12 1.0300671808142265e-12 1.3649162169713679e-12 9.18433637862887e-13 2.9939457559094055e-12 2.0053955938820355e-12
          2.4553720232444423e-12 1.3817670666768901e-12 1.8531554499534727e-12 1.139445563018275e-12 1.4962733241928783e-12 1.1826329377298967e-12
          1.540723645953022e-12 1.2570413338639556e-12 3.3171531300944984e-12 2.5927199597788265e-12 2.583767641807732e-12 1.1669839116788061e-11
          8.06436478569895e-12 8.3236705559879e-12 5.746733649159043e-12 2.0381218196898526e-11 1.411078734228479e-11 1.4085487560024021e-11
          5.489960031503654e-12 3.6902379458669766e-12 3.896188647655485e-12 2.610840386448177e-12 9.639671094798495e-12 6.4972498358199836e-12
          6.648958516204962e-12 5.768082505722702e-12 3.972519956888186e-12 3.875944923049303e-12 2.668300102556771e-12 9.469339840409079e-12
          6.5422903797521355e-12 6.208876772737253e-12 1.9837581975352762e-12 2.688747049359765e-12 1.317208971100466e-12 1.7900157972295476e-12
          1.3552057609386185e-12 1.7934616111957981e-12 1.3293050192096112e-12 4.469977707381974e-12 3.0036831287879987e-12 2.9086660637131764e-12
          1.9431650442171416e-12 2.5305113323232358e-12 1.3436223375052903e-12 1.7455530312998688e-12 1.5735943111567033e-12 1.9886473357547556e-12
          1.3781016118483373e-12 3.973761375735224e-12 2.740861307449527e-12 2.757885514935225e-12 9.001643245812434e-13 1.1629891807028225e-12
          7.379298079085928e-13 9.288839393070054e-13 7.344012022401968e-13 9.258248245022196e-13 7.591986694704209e-13 1.83820199734908e-12
          1.3608683007093103e-12 1.4242016956324439e-12 3.356832354928538e-11 2.3307638966890314e-11 2.2545982487677962e-11 1.5634888342138774e-11
          4.9346751181300194e-11 3.435771587652075e-11 3.2551045275211626e-11 1.595847411365174e-11 1.0774656012074735e-11 1.0694157085848498e-11
          7.214096275739565e-12 2.3578116292819897e-11 1.5948616103225607e-11 1.5505445988774472e-11 1.4713184594420773e-11 1.019021232256978e-11
          9.369860956086256e-12 6.4778099616048914e-12 2.0793053523782995e-11 1.4428731052977813e-11 1.2935698712256267e-11 6.96920419563908e-12
          4.7004473737585e-12 4.422382588344215e-12 2.9676557509506764e-12 9.872829272617807e-12 6.661368704454348e-12 6.118905061863683e-12
          6.189968741482996e-11 4.319837430782968e-11 4.0680299858562313e-11 2.8328377997510123e-11 6.643454908219506e-11 4.64090759452119e-11
          4.372108470413611e-11 2.9705930161625686e-11 2.0129677245486963e-11 1.9445121888961307e-11 1.3157110299618733e-11 3.1942695334173704e-11
          2.1663321199484108e-11 2.0928950826669302e-11 2.5771825556303466e-11 1.7911689467475416e-11 1.5841783466031514e-11 1.099235433782612e-11
          2.767163615755079e-11 1.9244271231422368e-11 1.6959783434723578e-11 1.227423211832773e-11 8.292933128272411e-12 7.520273279238345e-12
          5.070276692845902e-12 1.319499456911831e-11 8.919479960935758e-12 8.06188694546438e-12 5.863455830087255e-12 4.052433758572193e-12
          3.5337853792049983e-12 2.7539245342915048e-12 7.898282060872761e-12 5.4700206171340945e-12 4.69056072280145e-12 2.735300589719061e-12
          1.8147430204235087e-12 2.0763706133738936e-12 1.3726726750080545e-12 3.71332470903064e-12 2.4852188315092958e-12 2.416896230341486e-12
          1.7971926751751408e-12 2.1111860445900277e-12 1.4442353816313774e-12 1.6985742975613415e-12 1.462604149882811e-12 1.6499993407147095e-12
          1.3614330556707988e-12 2.7292873556754595e-12 2.0430184751961446e-12 2.0374132092073907e-12 9.514113634127764e-12 6.595359699757514e-12
          5.587220805928052e-12 3.844888454010255e-12 1.0128909675643396e-11 7.021306792586622e-12 5.925912832436767e-12 4.515854960018197e-12
          3.039363280324583e-12 2.607985651701065e-12 1.9999704204026855e-12 4.825071723539476e-12 3.2563915227663346e-12 2.80142009901347e-12
          3.2110253214863533e-12 2.219330454332764e-12 2.334781020197358e-12 1.6603557624835513e-12 3.3886553456267013e-12 2.3505898026169635e-12
          2.432130153526542e-12 1.4372487374883202e-12 1.5192169495550208e-12 1.191083631240398e-12 1.2387760087996738e-12 1.1945771373425565e-12
          1.1958026692917338e-12 1.019494394207569e-12 1.6011851616217218e-12 1.2864683863589497e-12 1.197028201240911e-12 5.289370116044271e-13
          7.134000367053045e-13 4.423149008111949e-13 5.726361979791956e-13 4.757642480676928e-13 6.124322053420325e-13 5.038954913822774e-13
          1.328587449915045e-12 1.0023868874874323e-12 1.0848026433201903e-12 2.4558010533402138e-12 1.6086645940785246e-12 1.731403421806876e-12
          1.1332701246568333e-12 4.319826463686526e-12 2.833551549250782e-12 2.9728323945212485e-12 7.337199937138618e-13 1.0330557514193373e-12
          4.661620842666122e-13 6.516008800321123e-13 5.252856640842362e-13 7.257296126038812e-13 5.10577616483401e-13 1.8343557450746777e-12
          1.1649654682736175e-12 1.2616692169046683e-12 8.697387766594695e-13 1.1763327890692025e-12 5.72341008090684e-13 7.703237876062168e-13
          7.159240610813723e-13 9.394637652071722e-13 6.158696622000463e-13 1.981169049629702e-12 1.2960171819883101e-12 1.4340685952367254e-12
          3.6706683546948774e-13 4.953675622513929e-13 2.947246629484848e-13 3.9068186975430286e-13 3.038942947469681e-13 4.0107178480524534e-13
          3.2650690057415676e-13 8.43833977762088e-13 6.143895142819694e-13 6.143746041853054e-13 2.9721897309289313e-13 4.049590082775114e-13
          2.379781556600424e-13 3.1297683592768873e-13 2.5495064035780285e-13 3.354016130171895e-13 2.6611294972868683e-13 7.263067388752867e-13
          5.584444498879534e-13 7.173698763996165e-12 4.710134097618789e-12 4.8000524058192626e-12 3.151658431459586e-12 1.063337102989344e-11
          6.987693705149267e-12 6.9798432606943044e-12 3.0509895083122336e-12 1.947187181194301e-12 2.0438581896059666e-12 1.3015370060721297e-12
          4.525123647939283e-12 2.8873831165986112e-12 2.9678607111538555e-12 3.1207120964718004e-12 2.046695733113914e-12 1.958289308025922e-12
          1.2811508308020952e-12 4.433368226235439e-12 2.911629567596477e-12 2.7349857504655644e-12 1.3334450539858628e-12 8.482365702603733e-13
          8.31769398551267e-13 6.044361645855485e-13 1.8921079279359283e-12 1.2045632320517332e-12 1.1555203671316495e-12 1.344184448188362e-11
          8.844889984258141e-12 8.776035219083885e-12 5.7712609928191174e-12 1.4476981773256156e-11 9.53278525945326e-12 9.456976899316844e-12
          5.734699392571452e-12 3.663407960350514e-12 3.739593231268845e-12 2.3859518313614614e-12 6.184810524864268e-12 3.953532789142783e-12
          4.0340165467560996e-12 5.5248398795521135e-12 3.631596140351559e-12 3.3694313284665977e-12 2.2073485152768686e-12 5.9449562017964796e-12
          3.9095968148831215e-12 3.615868613865308e-12 2.3640223523900528e-12 1.508753769319101e-12 1.425859637062991e-12 1.0339645414575032e-12
          2.5467192903890974e-12 1.6265894819125882e-12 1.53178006811902e-12 1.2240108679661277e-12 8.119239054222802e-13 1.8149532174146648e-12
          1.1867416835231444e-12 4.1072156402027207e-13 5.194326254798417e-13 3.2798545947019373e-13 4.01938349620289e-13 7.45400367334073e-13
          5.648102575678509e-13 2.3060852153006687e-12 1.4990484008256341e-12 2.490371297415819e-12 1.6187208634558976e-12 9.354767982776078e-13
          7.073213890330432e-13 1.008296548826481e-12 7.609135027007689e-13 9.697926800067691e-13 1.192890436284727e-12 6.377031411680736e-13
          7.801909220746328e-13 7.656512443282101e-13 9.049742012007984e-13 5.925583699689326e-13 1.636917796041786e-12 1.0656741978235624e-12
          1.2077393991242786e-12 4.091629430585843e-13 4.992247934064414e-13 3.272489765075561e-13 3.913733012952129e-13 3.2087205994335704e-13
          3.8116372959383426e-13 3.062996751165119e-13 6.792170901120596e-13 5.241780219292327e-13 5.090411618563562e-13 1.9980495591119854e-12
          1.2971570051605712e-12 1.4720116210659605e-12 9.481350325546528e-13 2.138251718703084e-12 1.3856443176552093e-12 1.5728416019567506e-12
          8.264851697078199e-13 6.384269034578301e-13 6.17316910445403e-13 4.981433589768468e-13 8.838228029458188e-13 6.839953891400646e-13
          6.58006896422405e-13 1.332659716284395e-11 6.1993746405704814e-12 5.830348760425493e-12 8.84149696895422e-12 8.858446037241975e-12
          5.63599098690004e-12 9.908908071522654e-12 4.571407749869367e-12 1.3266315675804616e-11 1.0149775094936628e-11 4.824672652879023e-12
          2.283616342198578e-11 1.5872990064484787e-11 1.7111927112805154e-11 1.9604657324338913e-11 4.009965746905187e-12 1.0616721082753457e-11
          1.0868490494067659e-11 3.4988142310417827e-12 4.263400685353455e-12 1.3162448028008188e-11 5.119158801073893e-12 1.2505698092082022e-11
          1.2378255167835875e-11 1.8618825148076134e-12 1.3671911878562744e-12 1.2480211872452537e-12 1.4047624975105406e-12 1.5668297154162211e-12
          1.4469228184873749e-12 2.035287039546656e-12 1.8256019593245677e-12 2.4760032709487107e-12 2.3950264513369187e-12 3.0139229687694154e-12
          2.96445094334927e-12 8.219933938373311e-13 6.231890932208581e-13 7.307212247787384e-13 1.149996689420402e-12 9.419437220874123e-13
          6.452228476458971e-13 7.308191683352648e-13 9.091020832211407e-12 5.8117136447661126e-12 8.453684989149988e-12 8.210719857910359e-12
          6.3217668089666065e-12 1.1451163257623889e-12 1.034684009114483e-12 1.0838153886916879e-12 5.797203009254823e-13 7.490871739300505e-13
          7.718875022989692e-13 6.661968595559943e-13 8.087119239515789e-13 1.202203990209547e-12 1.1379126487401592e-12 1.3010977371355499e-12
          1.3525851876869114e-12 1.5657717270481062e-12 1.0066316203555185e-11 6.953488642146652e-12 5.235147709342241e-12 1.0235907298019243e-11
          1.0728987352582073e-11 7.092553631781489e-12 1.0136323069101375e-11 3.439216499377395e-12 2.542727376810687e-12 3.389860258775594e-12
          8.25434546555011e-13 9.14294426688212e-13 1.0331451561288765e-12 1.1492521340074522e-12 1.240855765702742e-12 6.1529874858352705e-12
          7.0141529070833835e-12 7.677161928562194e-12 4.204623370684481e-12 8.275415974606527e-12 8.730090404314815e-12 1.609240154768141e-12
          1.1651498157930525e-12 1.5248957115736226e-12 7.069436448878528e-13 5.886184175470051e-13 2.478445743391355e-12 3.808338525661496e-12
          7.055191088203009e-12 5.5803285766305425e-12 6.472782479009423e-12 6.50439550090896e-13 4.719752135774865e-12 5.595662283843455e-12
          1.020901125034534e-11 7.062216968584669e-12 8.256766091969181e-12 4.8358294239552936e-12 6.49667555117022e-12 1.9889625537984252e-11
          1.3885972943224687e-11 1.5882963682291032e-11 9.573887055129187e-12 1.2301739768294259e-11 2.1704353272630376e-12 3.282746935235613e-12
          2.2082178885818675e-12 6.52010862501616e-12 4.385416204804682e-12 2.411538255615391e-11 1.6847237624510903e-11 4.738599994818539e-11
          3.32429167791031e-11 3.837281660577627e-11 1.161938353046374e-11 2.3012624480964732e-11 9.101519275571763e-11 6.415400682781419e-11
          5.0882443061608804e-11 7.226347364336394e-11 4.457918448938544e-11 3.53281269849677e-11 7.91388946643559e-12 1.572001424668194e-11
          5.322724366090451e-12 1.0596523068070926e-11 3.0541063880610294e-11 2.418821795838828e-11 2.0630024167132578e-11 3.001055033584993e-11
          2.2710992689444774e-11 5.522827947149106e-11 4.072167596711605e-11 5.512485748915217e-11 3.733832908573192e-11 4.295088812851278e-11
          8.423672487016607e-11 5.7288696597371666e-11 6.548303504568954e-11 1.2674729407521295e-10 8.969864047798857e-11 9.509656857910857e-11
          6.253276994564402e-11 6.857618864762481e-11 1.9045383147824904e-10 1.355509335035413e-10 1.4237483381419404e-10 9.495448019979405e-11
          1.0181271232625118e-10 1.0266466528755834e-10 7.020216929370328e-11 8.109554978960998e-11 1.0691250302238799e-10 7.333348394818214e-11
          8.552553638880026e-11 2.3226925186811853e-10 1.6624699473696964e-10 1.7620112328156324e-10 1.1705316104524578e-10 1.2707259200865154e-10
          2.4307601520454433e-10 1.7446092276739416e-10 1.865622003571861e-10 1.2315196227761892e-10 1.3561475625296526e-10 9.707165240054189e-13