<?xml version="1.0"?>
<VTKFile type="UnstructuredGrid" version="0.1" byte_order="LittleEndian" header_type="UInt32" compressor="vtkZLibDataCompressor">
  <UnstructuredGrid>
    <Piece NumberOfPoints="933" NumberOfCells="596">
      <PointData>
        <DataArray type="Int32" Name="libmesh_node_id" format="ascii" RangeMin="1212" RangeMax="9084">
          1212 1220 1366 1369 1372 1539
          1920 1924 1937 1938 1941 1943
          1959 1960 1964 1972 1973 1975
          1976 1977 2021 2249 2877 2881
          2888 2892 2893 2894 2895 2896
          2897 2898 2899 2900 2901 2914
          2915 2920 2922 2923 2924 2925
          2929 2930 2932 2933 2934 2935
          2936 2937 2938 2939 2940 2941
          3033 3037 3038 3039 3040 3041
          3042 3043 3067 3071 3073 3074
          3075 3077 3140 3141 3143 3145
          3147 3148 3149 3150 3151 3152
          3153 3164 3165 3166 3167 3168
          3169 3170 3171 3172 3173 3175
          3177 3179 3181 3182 3183 3184
          3185 3186 3187 3195 3196 3198
          3199 3200 3417 3418 3419 3661
          3666 3713 3714 3715 3716 3717
          3718 3719 5155 5156 5157 5158
          5159 5160 5161 5162 5163 5164
          5165 5166 5167 5168 5169 5170
          5171 5172 5173 5174 5175 5176
          5179 5180 5181 5182 5184 5185
          5186 5187 5188 5189 5190 5191
          5192 5193 5194 5195 5196 5197
          5198 5199 5200 5201 5202 5203
          5204 5235 5236 5237 5238 5239
          5240 5241 5242 5243 5244 5245
          5246 5247 5248 5249 5250 5251
          5252 5253 5254 5255 5256 5257
          5258 5259 5260 5261 5262 5263
          5264 5265 5266 5267 5268 5269
          5270 5271 5272 5273 5274 5862
          5928 5929 5930 5931 5932 5933
          5934 5956 5957 5958 5959 5960
          5961 5962 5964 5965 5966 5969
          5970 5972 5973 5974 5976 5977
          5978 5979 5980 5981 5982 5983
          5984 5985 5986 5987 5988 5989
          5990 5993 5994 5997 5998 6000
          6001 6002 6004 6005 6006 6007
          6008 6009 6010 6011 6012 6013
          6014 6015 6016 6017 6018 6176
          6177 6178 6179 6180 6181 6182
          6204 6205 6206 6207 6208 6209
          6210 6213 6214 6217 6218 6220
          6222 6224 6225 6226 6227 6228
          6229 6230 6231 6232 6233 6234
          6235 6236 6237 6238 6241 6242
          6245 6246 6248 6250 6252 6253
          6254 6255 6256 6257 6258 6259
          6260 6262 6263 6264 6266 6336
          6337 6338 6339 6340 6341 6353
          6355 6723 6724 6725 6726 6727
          6728 6729 6730 6731 6732 6733
          6734 6735 6736 6737 6739 6740
          6745 6747 6748 6749 6750 6753
          6754 6755 6764 6765 6766 6767
          6768 6769 6770 6778 6779 6781
          6782 6783 6785 6786 6787 6788
          6789 6790 6791 6792 6793 6794
          6795 6796 6797 6798 6799 6800
          6801 6802 6803 6804 6805 6806
          6807 6808 6809 6810 6811 6812
          6813 6814 6815 6816 6817 6818
          6819 6820 6821 6822 6823 6824
          6825 6826 6827 6828 6829 6830
          6831 6832 6833 6834 6835 6836
          6837 6838 6839 6840 6841 6842
          6843 6844 6845 6846 6847 6848
          6849 6862 6863 6866 6868 6878
          6882 6904 6905 6906 6907 6908
          6909 6910 6911 6912 6913 6914
          6915 6916 6917 6918 6919 6920
          6921 6922 6923 6924 6925 6926
          6927 6928 6929 6930 6931 6932
          6933 6934 6935 6936 6937 6938
          6939 6940 6941 6942 6943 6944
          6945 6946 6947 6948 6949 6950
          6951 6952 6953 6954 6955 6956
          6957 6965 6966 6967 6968 6969
          6970 6971 6979 6980 6982 6983
          6984 6993 6994 6995 6996 6997
          6998 6999 7007 7008 7010 7011
          7012 7014 7015 7016 7017 7018
          7019 7020 7021 7022 7023 7024
          7025 7026 7027 7028 7029 7030
          7031 7032 7033 7034 7035 7036
          7037 7038 7039 7040 7041 7042
          7043 7044 7045 7046 7047 7048
          7049 7050 7051 7052 7053 7054
          7055 7056 7057 7058 7059 7060
          7061 7062 7063 7064 7065 7066
          7067 7068 7069 7078 7082 7106
          7110 7126 7127 7128 7129 7130
          7131 7132 7133 7134 7135 7136
          7137 7138 7139 7140 7141 7144
          7145 7147 7148 7149 7150 7151
          7152 7153 7154 7155 7156 7157
          7158 7159 7160 7161 7162 7163
          7164 7165 7166 7167 7168 7169
          7172 7173 7175 7176 7177 7178
          7179 7180 7181 1533 1536 1538
          1361 1364 1367 1912 1915 1918
          1914 1917 1919 1935 1927 1906
          1936 1928 1939 1940 2882 2884
          2886 2883 2885 2887 2875 2863
          2876 2848 2912 2849 2850 2913
          2916 2918 2917 2919 1933 2921
          2926 2927 2928 2931 1942 3156
          1944 3157 3160 3659 2049 2047
          2057 3708 3709 3712 3751 3746
          3752 3747 3753 3754 1974 3549
          3541 3551 3758 3759 3760 3761
          5139 5147 5131 5140 5148 5141
          5151 2889 5144 5153 2890 2891
          5109 5137 5073 5110 5138 5111
          1922 5114 5143 5023 5227 5015
          5024 5228 5025 5231 2853 5028
          5233 1363 5149 5150 5154 5910
          5916 5922 5917 5924 3030 5920
          5926 3031 3032 5938 5944 5950
          5945 5952 3034 5948 5954 3035
          3036 5801 5861 5963 5915 5919
          5967 5968 5943 5991 5992 5947
          5995 5996 6158 6164 6170 6165
          6172 3064 6168 6174 3065 3066
          6186 6192 6198 6193 6200 3068
          6196 6202 3069 3070 6163 6211
          6212 6167 6215 6216 6191 6239
          6240 6195 6243 6244 5484 5490
          6330 5491 6332 2971 5494 6334
          2972 6342 3085 3086 6345 6354
          6346 6356 6357 6358 6349 6359
          6360 6351 6361 5512 5518 6370
          6364 5519 6371 6372 6366 6373
          5923 5927 6738 6741 6742 6743
          6744 3142 6746 6751 6752 6756
          5951 6757 6758 6759 6760 6762
          3144 6771 6385 6772 6774 6773
          6780 6776 6784 3146 6860 6861
          6864 6865 6867 6869 6877 6880
          6879 6881 3162 6883 6896 6897
          6900 6902 6959 6961 6963 3174
          6973 6981 6975 6977 6985 3176
          6987 6989 6991 3178 7001 7009
          7003 7005 7013 3180 7077 7080
          7079 7081 3189 7083 7105 7108
          7107 7109 3193 7111 7092 7142
          7094 7143 7096 7146 3191 3197
          7120 7170 7122 7171 7124 7174
          1978 3201 9052 9030 9053 9031
          9054 9055 9062 9063 9064 9065
          9069 9060 9070 9079 9073 9080
          9083 9077 9084
        </DataArray>
        <DataArray type="Float64" Name="bounds" format="ascii" RangeMin="0" RangeMax="0">
          0 0 0 0 0 0
          0 0 0 0 0 0
          0 0 0 0 0 0
          0 0 0 0 0 0
          0 0 0 0 0 0
          0 0 0 0 0 0
          0 0 0 0 0 0
          0 0 0 0 0 0
          0 0 0 0 0 0
          0 0 0 0 0 0
          0 0 0 0 0 0
          0 0 0 0 0 0
          0 0 0 0 0 0
          0 0 0 0 0 0
          0 0 0 0 0 0
          0 0 0 0 0 0
          0 0 0 0 0 0
          0 0 0 0 0 0
          0 0 0 0 0 0
          0 0 0 0 0 0
          0 0 0 0 0 0
          0 0 0 0 0 0
          0 0 0 0 0 0
          0 0 0 0 0 0
          0 0 0 0 0 0
          0 0 0 0 0 0
          0 0 0 0 0 0
          0 0 0 0 0 0
          0 0 0 0 0 0
          0 0 0 0 0 0
          0 0 0 0 0 0
          0 0 0 0 0 0
          0 0 0 0 0 0
          0 0 0 0 0 0
          0 0 0 0 0 0
          0 0 0 0 0 0
          0 0 0 0 0 0
          0 0 0 0 0 0
          0 0 0 0 0 0
          0 0 0 0 0 0
          0 0 0 0 0 0
          0 0 0 0 0 0
          0 0 0 0 0 0
          0 0 0 0 0 0
          0 0 0 0 0 0
          0 0 0 0 0 0
          0 0 0 0 0 0
          0 0 0 0 0 0
          0 0 0 0 0 0
          0 0 0 0 0 0
          0 0 0 0 0 0
          0 0 0 0 0 0
          0 0 0 0 0 0
          0 0 0 0 0 0
          0 0 0 0 0 0
          0 0 0 0 0 0
          0 0 0 0 0 0
          0 0 0 0 0 0
          0 0 0 0 0 0
          0 0 0 0 0 0
          0 0 0 0 0 0
          0 0 0 0 0 0
          0 0 0 0 0 0
          0 0 0 0 0 0
          0 0 0 0 0 0
          0 0 0 0 0 0
          0 0 0 0 0 0
          0 0 0 0 0 0
          0 0 0 0 0 0
          0 0 0 0 0 0
          0 0 0 0 0 0
          0 0 0 0 0 0
          0 0 0 0 0 0
          0 0 0 0 0 0
          0 0 0 0 0 0
          0 0 0 0 0 0
          0 0 0 0 0 0
          0 0 0 0 0 0
          0 0 0 0 0 0
          0 0 0 0 0 0
          0 0 0 0 0 0
          0 0 0 0 0 0
          0 0 0 0 0 0
          0 0 0 0 0 0
          0 0 0 0 0 0
          0 0 0 0 0 0
          0 0 0 0 0 0
          0 0 0 0 0 0
          0 0 0 0 0 0
          0 0 0 0 0 0
          0 0 0 0 0 0
          0 0 0 0 0 0
          0 0 0 0 0 0
          0 0 0 0 0 0
          0 0 0 0 0 0
          0 0 0 0 0 0
          0 0 0 0 0 0
          0 0 0 0 0 0
          0 0 0 0 0 0
          0 0 0 0 0 0
          0 0 0 0 0 0
          0 0 0 0 0 0
          0 0 0 0 0 0
          0 0 0 0 0 0
          0 0 0 0 0 0
          0 0 0 0 0 0
          0 0 0 0 0 0
          0 0 0 0 0 0
          0 0 0 0 0 0
          0 0 0 0 0 0
          0 0 0 0 0 0
          0 0 0 0 0 0
          0 0 0 0 0 0
          0 0 0 0 0 0
          0 0 0 0 0 0
          0 0 0 0 0 0
          0 0 0 0 0 0
          0 0 0 0 0 0
          0 0 0 0 0 0
          0 0 0 0 0 0
          0 0 0 0 0 0
          0 0 0 0 0 0
          0 0 0 0 0 0
          0 0 0 0 0 0
          0 0 0 0 0 0
          0 0 0 0 0 0
          0 0 0 0 0 0
          0 0 0 0 0 0
          0 0 0 0 0 0
          0 0 0 0 0 0
          0 0 0 0 0 0
          0 0 0 0 0 0
          0 0 0 0 0 0
          0 0 0 0 0 0
          0 0 0 0 0 0
          0 0 0 0 0 0
          0 0 0 0 0 0
          0 0 0 0 0 0
          0 0 0 0 0 0
          0 0 0 0 0 0
          0 0 0 0 0 0
          0 0 0 0 0 0
          0 0 0 0 0 0
          0 0 0 0 0 0
          0 0 0 0 0 0
          0 0 0 0 0 0
          0 0 0 0 0 0
          0 0 0 0 0 0
          0 0 0 0 0 0
          0 0 0 0 0 0
          0 0 0 0 0 0
          0 0 0 0 0 0
          0 0 0 0 0 0
          0 0 0 0 0 0
          0 0 0 0 0 0
          0 0 0
        </DataArray>
        <DataArray type="Float64" Name="gradient_error" format="ascii" RangeMin="3.049504749904907e-12" RangeMax="2.463880531190928e-9">
          5.653780011279238e-11 1.0606633449272087e-11 2.2957262009768696e-11 2.3328248123437783e-11 4.514687069715008e-10 5.87751257838743e-11
          3.5105445557158083e-11 4.292773255355796e-11 3.215604645874833e-11 2.5180046113341145e-11 2.3049520723943268e-11 2.1562246011140984e-11
          4.155776123460707e-10 1.457961910992586e-10 1.1458227146612564e-9 9.99155445591373e-11 3.2966816313529125e-11 1.2068103000814495e-11
          2.4488579656852666e-10 8.572705730179395e-11 1.332659716284395e-11 1.2505698092082022e-11 1.9042460291167625e-11 4.882892747421282e-11
          3.7537270099436184e-11 4.407683570485152e-11 2.8439635751726393e-11 2.350245462122445e-11 1.519374838087664e-11 3.2214643280414663e-11
          2.7743752193854336e-11 2.188174140272552e-11 3.647759643674936e-11 1.9890717354724982e-11 3.0371836936764855e-11 1.1607464962198852e-10
          1.346939226089577e-10 1.2697653984559113e-10 6.969476117855801e-11 8.156081215869174e-11 4.051671596052946e-11 4.751011190414788e-11
          7.791701665462971e-11 4.581034453428359e-11 2.204602828366253e-11 3.3267308967097556e-11 1.1955006452488128e-11 2.5152178542122666e-11
          1.5380122282311743e-11 2.8873921946889145e-11 1.8166762953116627e-11 3.22934958550368e-11 2.4302781179524245e-11 2.6369517238478075e-11
          1.4086960529178044e-10 1.314325196159568e-10 7.37443592469158e-11 8.257377281462665e-11 4.600051925106317e-11 4.365722857075067e-10
          2.546370149821038e-10 2.5354678823988936e-10 9.155978270816068e-10 1.0274262515845237e-9 5.836492583400828e-10 3.476585198637662e-10
          1.2228394886560905e-9 7.450865221095732e-10 1.30857635462454e-10 7.976374195219766e-11 4.0840070968559195e-11 2.1527708573522987e-10
          4.63117073549214e-11 2.5585498125781192e-11 2.3494764991752924e-11 1.587996217103917e-11 1.2891279397108373e-10 7.313551791773698e-11
          5.884520861938976e-11 2.366059697496223e-11 1.9329504323914894e-11 1.8671397886090833e-11 1.3809797581528894e-11 2.546780349409938e-11
          2.6321368476996745e-11 1.4193246206211546e-11 2.4733228465107778e-11 1.3678861456438155e-11 1.75469627623499e-11 4.509797277979112e-10
          1.9262946891292278e-10 5.799538464755259e-10 2.787118395327062e-10 1.6220312675372374e-10 1.1607236243799087e-10 6.627644969107722e-11
          3.6325236755284486e-10 2.1374570019715794e-10 1.4895834927643406e-10 4.425393617875424e-11 2.4862229437243736e-11 1.1136635081150807e-11
          5.487059589251859e-11 3.101559314995914e-11 8.460157053968238e-12 9.373894633903857e-12 8.210719857910359e-12 1.7469846174760743e-11
          6.102474105404816e-12 1.0565564516615022e-11 1.708791979607554e-11 7.979413060163146e-12 1.2168832503126293e-11 8.440489288188743e-12
          1.2372196040307596e-11 9.166093346940807e-12 2.5328963855233704e-11 3.6804150318981876e-11 1.9250420830127387e-11 2.806038659786581e-11
          2.1170345973600653e-11 3.029136130744695e-11 2.306283072169499e-11 6.906973706625256e-11 5.308701382401446e-11 5.5958576719581345e-11
          1.9580171204275768e-11 2.917450040789478e-11 1.4641010282314218e-11 2.18436389597548e-11 1.7069181533953184e-11 2.5186697958622997e-11
          1.885631049642923e-11 5.6885703502158484e-11 4.281756648646775e-11 4.854344243899583e-11 1.0737025382004474e-11 1.6128999268101713e-11
          9.396671981145385e-12 1.3908566496306065e-11 1.0156702684415093e-11 3.185662380782651e-11 2.7095811309780808e-11 1.4709927394600314e-11
          2.1190716100849886e-11 1.1270182312434281e-11 1.577679081933293e-11 1.2517248956242004e-11 1.7321793907382732e-11 1.3825819707710872e-11
          4.032515908436507e-11 3.01477758619464e-11 3.2506329666145194e-11 8.432359084677578e-12 1.1607726933148936e-11 6.19743862207841e-12
          8.482034987296968e-12 8.102270072852483e-12 1.0419228787957034e-11 7.632834120846806e-12 2.223682637953326e-11 1.6267779036280458e-11
          2.0193729388424054e-11 4.910509669995514e-11 6.503403274992274e-11 3.865742777269163e-11 5.152398988081134e-11 4.571138360263851e-11
          5.731504461868426e-11 4.5373034446717385e-11 1.1407346469079242e-10 9.128804117817922e-11 9.897385622947266e-11 3.0290858796927274e-11
          4.048955923192887e-11 2.3540636222788993e-11 3.153036730454115e-11 2.8197894124299554e-11 3.5605706123932035e-11 2.7727382913572256e-11
          7.227219023240328e-11 5.661998263096835e-11 6.24993726805167e-11 1.794099247634905e-11 2.419133153144781e-11 1.3645708113002262e-11
          1.8396034751436583e-11 1.6686974746286582e-11 2.1234437179452026e-11 1.6148382736496844e-11 4.385264508514689e-11 3.358668279908957e-11
          3.782410242299375e-11 1.0599077125494264e-11 1.3788965145563983e-11 9.482721539283243e-12 1.1815000382401232e-11 9.756447781240457e-12
          1.2141175321553998e-11 1.0534819214282396e-11 2.5340063102228235e-11 2.162165410386775e-11 2.1894473167022712e-11 9.540964890523073e-11
          1.270639723768265e-10 9.8540335126982e-11 1.0160649258210021e-10 7.865647669008328e-11 2.2925985821314353e-10 1.7952638168216008e-10
          1.8041818253988164e-10 4.0360837298456773e-10 3.1989264907841e-10 3.121160542857858e-10 2.4630645485831676e-10 6.836211192129251e-10
          5.496759454697823e-10 5.200120476845258e-10 8.279901988735885e-11 9.207095039537712e-11 6.973301448427572e-11 1.7201338964035372e-10
          6.202492714346167e-11 5.2168927960193957e-11 3.8578325837041904e-11 1.1953456031415606e-10 9.909376990024518e-11 7.55541273315101e-11
          5.720757898579494e-11 6.031898053459557e-11 4.565212133454311e-11 1.3870832748502751e-10 1.0575626374238364e-10 1.0855548272423018e-10
          4.270594385548829e-11 3.149971493438295e-11 3.39548051729212e-11 2.4950097003522332e-11 7.959042193298868e-11 5.913804838338224e-11
          6.20215876573203e-11 3.1529385942302186e-10 2.4348737892397804e-10 5.579720226068619e-10 2.2724139703498517e-10 1.8529238629419811e-10
          1.39000020498933e-10 4.1873036242286e-10 3.3606794592840157e-10 2.4984914130654694e-10 1.9234381821109225e-10 1.9165770570555368e-10
          1.4707869509373078e-10 4.3493569048111206e-10 3.387246967612343e-10 3.2706704904889634e-10 1.4599150498213317e-10 1.0928333110217769e-10
          1.1133693507382023e-10 8.315699646763319e-11 2.597264461898352e-10 1.9615825191841246e-10 1.9366357536659464e-10 1.0749121693173701e-9
          8.774903434129139e-10 8.093786952721787e-10 6.554784284270774e-10 1.477469809415459e-9 1.2221700229827792e-9 1.1174920000675942e-9
          1.71323452810367e-9 1.4302675727765295e-9 1.3228577236663204e-9 1.0924409615688927e-9 1.7670763745320386e-9 1.4803334252378035e-9
          1.383568694230898e-9 9.118201577138818e-10 7.238094430123851e-10 1.2770813552101389e-9 7.094825860893873e-10 5.644420237214883e-10
          1.0113704617737074e-9 8.111996173172863e-10 7.040959363908656e-10 5.553313731295329e-10 5.221703914844529e-10 4.0924062038800566e-10
          9.930442725171575e-10 7.924135877271064e-10 7.373400308475698e-10 4.306495445263838e-10 3.284950499424633e-10 3.1563617661655533e-10
          2.396622510968555e-10 6.210771621056716e-10 4.783058482584086e-10 4.542156076869293e-10 1.4687786955644886e-9 1.1938434686550143e-9
          1.498011120784131e-9 1.1513661538436973e-9 9.518569285018022e-10 1.1587670847401615e-9 9.790267050554041e-10 1.1725705187346608e-9
          9.436896137277841e-10 8.863901267121451e-10 7.065782681189797e-10 1.2177840531989423e-9 9.833435192492984e-10 9.322629631583346e-10
          7.455800561700468e-10 5.534571336993895e-10 4.2612697138855387e-10 7.79375480633667e-10 5.850460593725788e-10 1.986067973362594e-10
          1.605848349475606e-10 1.526227916474737e-10 1.22950333639286e-10 3.3167223697486195e-10 2.714029305100316e-10 8.577932540684199e-11
          6.84851884408835e-11 1.2836311004043906e-10 1.0142853451542358e-10 9.793082238246849e-11 7.714466983522814e-11 2.193562224133277e-10
          1.7508363619569598e-10 1.6459822967292837e-10 7.922286084189972e-11 6.118976601556532e-11 6.008554453536105e-11 4.6295949241605064e-11
          1.3800562056450975e-10 1.0742872820120199e-10 1.0278565215193299e-10 5.401561441158158e-11 4.220394368199793e-11 5.715118585033487e-11
          9.53823417810818e-11 3.2611001265023686e-11 4.4387103130162236e-11 2.4977438754378083e-11 3.411729703108055e-11 2.460883383992732e-11
          7.465931916134101e-11 5.775905490949254e-11 2.340805217103247e-10 1.8393813059137146e-10 1.706292315194502e-10 1.3352745515335855e-10
          3.823640179692945e-10 3.0376079383249425e-10 2.7251509711127194e-10 1.211849908249819e-10 9.4458182776523e-11 6.527286143083145e-11
          1.8888600490197987e-10 1.4842929026421052e-10 4.681057486077089e-11 3.5309149279799146e-11 3.5284399126691157e-11 2.655537841237911e-11
          8.256920669815841e-11 6.266468644495919e-11 6.115014402138391e-11 1.8547899553813662e-11 2.616363990194376e-11 1.3433535234179072e-11
          1.9165721166173798e-11 1.4092691562315992e-11 1.9682214014463888e-11 1.4420700642046234e-11 4.6970948531821336e-11 3.476983870140355e-11
          3.464140330932234e-11 1.889623237442275e-11 2.5925116290209302e-11 1.422533151673147e-11 1.9518914597027263e-11 1.3752688665214763e-11
          1.8651847148404465e-11 1.4030675476442174e-11 4.4171734563559476e-11 3.339115951341026e-11 3.115408202032561e-11 1.0675828758105575e-11
          1.456736704818951e-11 7.948059431532949e-12 1.0700682340635826e-11 7.901566105290173e-12 1.0459992859284486e-11 8.455516191516216e-12
          2.4977876543627883e-11 1.8397174182466698e-11 1.750383266043172e-11 1.426019424059119e-10 1.0908910964552198e-10 1.0315291934023152e-10
          7.867439008414605e-11 2.3782955481880803e-10 1.8355519439727276e-10 1.677304723264591e-10 8.235715625913928e-11 6.13708763755271e-11
          5.924086471624552e-11 4.404034401237186e-11 1.396804904584706e-10 1.0482661465257522e-10 9.774997031100805e-11 7.27217330362435e-11
          5.531072009007743e-11 5.0084272587611323e-11 3.7985637216832755e-11 1.1511848581714224e-10 8.812818041958521e-11 7.715683788260202e-11
          4.158483104317139e-11 3.0870606986089214e-11 2.8507929695145782e-11 2.1096738605919264e-11 6.659260124895409e-11 4.9671073847619005e-11
          4.431772581100324e-11 1.3188804717667568e-11 1.7297174966438018e-11 1.4175182430557545e-11 2.8172003089739045e-11 4.420231343914431e-11
          6.586205394848418e-11 9.935796138450877e-12 1.3078499019006143e-11 7.476002312776182e-12 9.820102759107752e-12 8.441161136231219e-12
          1.070007152283855e-11 8.031975898905959e-12 2.1419454345925527e-11 1.6116407832550697e-11 1.6062374265820452e-11 5.635235114742672e-12
          7.26674126625817e-12 4.929952707341581e-12 6.1850472379490236e-12 4.730120943291673e-12 5.9710528059104834e-12 5.163022352328416e-12
          1.1946908840668647e-11 9.808801567052714e-12 8.988197428845338e-12 3.379781101910803e-11 2.5555701650383704e-11 2.222402518325601e-11
          1.675632374906317e-11 5.065068050091371e-11 3.848926004876175e-11 3.266392162604513e-11 1.9114045081954097e-11 1.4090126990349643e-11
          1.2495242545057419e-11 9.20491634316064e-12 2.8894957298975077e-11 2.1438391280918534e-11 1.8509206422446557e-11 1.1514159992625014e-11
          1.4344528997900631e-11 8.648332435130583e-12 1.0784483213069816e-11 9.383472812899377e-12 1.1303204329250713e-11 8.48193288453445e-12
          2.0699341308829695e-11 1.5615179258797736e-11 1.4194078089551396e-11 6.372259533831742e-12 7.990820584510647e-12 4.663848008734428e-12
          5.862480444325405e-12 5.129939071624473e-12 6.2478030913643114e-12 4.574671958839651e-12 1.1666108475744997e-11 8.606608265221353e-12
          7.921824919939758e-12 5.864174302800276e-10 4.712262537687796e-10 4.100841957904555e-10 3.2711943631145983e-10 8.08164553703149e-10
          6.559500417397203e-10 5.605769966280497e-10 2.7796036231678885e-10 2.2023336951853665e-10 1.4450259711734246e-10 3.748413780214959e-10
          2.991257681204516e-10 9.684356619854838e-10 7.91308527904746e-10 6.747329403401226e-10 5.458779624442568e-10 1.021980945577818e-9
          8.370192248057836e-10 7.154631287600875e-10 4.5017672989951906e-10 3.609455803917725e-10 2.3056415418313327e-10 4.780339669082469e-10
          3.839031940931381e-10 3.7279851838098143e-10 2.9042022527012414e-10 2.571289218478333e-10 1.991994630894125e-10 5.237423859879967e-10
          4.1143976128763473e-10 3.5724898511426695e-10 2.2284799355691967e-10 1.6848072090619407e-10 1.5212820333177387e-10 1.1455163046511158e-10
          3.180906799605521e-10 2.42098758148726e-10 2.1419808457061348e-10 1.7209421081320758e-10 1.326430787838835e-10 1.123068924397323e-10
          8.615197736095903e-11 2.3527195527677735e-10 1.8241667188118085e-10 1.5054352260940568e-10 1.0085437493782232e-10 7.56561762172328e-11
          6.523668571856944e-11 4.876596627708439e-11 1.3944651622086472e-10 1.0511361059613338e-10 8.829815901909504e-11 6.357799951417215e-10
          5.023395746425921e-10 4.346740658130886e-10 3.407257027700301e-10 6.739984935300223e-10 5.336379918732994e-10 4.626426510118688e-10
          3.9041050570514787e-10 2.9855014720255837e-10 2.6298078637477887e-10 1.9991242363993685e-10 4.155264533907995e-10 3.183109730613182e-10
          2.807925289303206e-10 2.851268406089015e-10 2.2194377079575266e-10 1.8085076511537031e-10 1.3990887706586144e-10 3.0371521780774283e-10
          2.367356133883975e-10 1.9232598089235534e-10 1.7027000350384456e-10 1.2876498952538372e-10 1.0675805191621228e-10 8.035514482760804e-11
          1.8184333628105661e-10 1.3767313345471203e-10 1.1378431929207382e-10 9.284467299314579e-11 1.2122793037514586e-10 1.4345917364292473e-10
          1.518938905388999e-10 7.179708805580813e-11 5.483448605979808e-11 4.514317940673879e-11 3.4344577876172776e-11 9.419218258522689e-11
          7.225260099319624e-11 5.795235212310441e-11 4.136236608870838e-11 3.081737206461307e-11 2.5816930898474333e-11 1.91673315850777e-11
          5.471679339236117e-11 4.0907041030262e-11 3.3380427343757334e-11 2.799176147603551e-11 2.121279236912343e-11 3.518960574522109e-11
          2.6756667364135777e-11 1.5955170814502344e-11 1.1837989619661688e-11 9.509452195704666e-12 7.914823261086727e-12 2.017370155776963e-11
          1.5007723113685964e-11 1.1917709140547282e-11 1.1181594981238995e-10 8.601894667431658e-11 6.787438284752816e-11 5.194931701097141e-11
          1.185182648100414e-10 9.126593422541869e-11 7.163655693273911e-11 6.531431153510407e-11 4.894786853958137e-11 3.9270032539450686e-11
          2.931721767254368e-11 6.936237376529697e-11 5.202673910042628e-11 4.150884062455374e-11 4.0674442196119074e-11 3.097922845320292e-11
          4.2729411239383833e-11 3.256098238979471e-11 2.3335002990139562e-11 1.73647880274057e-11 1.3668964893621681e-11 1.0052944916180287e-11
          2.4510109177444116e-11 1.823800541623652e-11 1.4321512073200566e-11 3.6239625423608327e-10 1.0140399986002583e-10 2.129901989782624e-10
          5.4815664579019e-10 1.1344610957411189e-10 2.5715452858390216e-10 2.1863524724885616e-10 7.311372268002697e-11 1.5620016635963514e-10
          1.582643006589826e-10 5.1205464271224105e-11 1.0757633561683248e-10 9.179407652823767e-11 2.5226304337534204e-10 2.9925613781936696e-10
          5.946472003502054e-11 1.6466053288967163e-10 4.726816618504237e-11 5.302786645882979e-11 1.3549117355059353e-10 7.914436406730457e-11
          1.0125310860530898e-10 8.723309166327525e-11 5.086972927044562e-11 6.449453764741078e-11 5.4652507291429126e-11 6.351396763605451e-11
          3.5563416780238835e-11 2.7200724270141077e-10 1.887096544481216e-10 1.7236339010655406e-10 1.0679213656441883e-10 2.16009524252138e-10
          1.262032121232577e-10 1.46154330525193e-10 2.343963762554411e-10 1.992658587826159e-10 1.3290207183336822e-10 2.1090500152011918e-10
          4.619163835144976e-11 8.855703322479763e-11 5.176173787040658e-11 8.095731420420074e-11 4.731451994585681e-11 4.237542856292105e-11
          5.958427430552746e-11 3.4088562167365876e-11 4.652627282825571e-11 4.853685197070431e-11 2.1412689919155583e-11 6.173213798790658e-11
          8.84149696895422e-12 1.83197477046155e-11 3.053668254988792e-11 2.185425164857395e-11 1.4526728141110652e-11 2.5753530833893045e-11
          2.0670755982406148e-11 3.663424822858675e-11 8.065068211251024e-12 1.1243466485210013e-11 3.0853676201549385e-11 2.083293910605478e-11
          3.7025425737729084e-11 1.3818830476669362e-11 4.257815835308944e-12 5.9033153223929e-12 3.049504749904907e-12 4.130000150895789e-12
          2.980856783889858e-11 3.3147134962040433e-11 5.66177092769773e-11 4.365774146565964e-11 4.7789119384493665e-11 3.3307701327066074e-11
          3.938993743110048e-11 1.0645803031458004e-10 8.292222882249271e-11 8.881653348066529e-11 6.383028643408197e-11 7.20844713640327e-11
          2.1997336195880235e-11 2.5974699040030637e-11 4.350422262752219e-11 3.294727446395722e-11 3.856343066692218e-11 2.4693980126002146e-11
          8.500921014789776e-11 6.48136425417187e-11 7.468573620436329e-11 5.7717821127618134e-11 6.197242417908896e-11 1.0094675315012072e-10
          8.084978281426649e-11 8.14441480833881e-11 6.417038100353942e-11 7.19339696397728e-11 1.7780007444429e-10 1.4415511926568664e-10
          1.4116899433743648e-10 1.1567831225491594e-10 3.565925560203182e-11 5.0531287216769806e-11 9.182875773786727e-11 1.9642407720779889e-10
          1.5452668186660365e-10 1.618702556552966e-10 1.200379921057608e-10 1.2974381458665272e-10 3.5516442211761254e-10 2.8281069242728194e-10
          2.8886154574392336e-10 2.22085464086419e-10 2.2809833869970203e-10 6.251549332324137e-10 5.052805160466425e-10 5.017613317476318e-10
          4.021916200342876e-10 3.89931897367933e-10 1.0543137406657108e-9 8.6705585660424e-10 8.366907472341459e-10 7.013845273907412e-10
          6.40749861717422e-10 1.633288431045966e-10 1.256401684039331e-10 1.0916140771500116e-10 1.421015475617249e-10 2.663492160855929e-10
          2.0676647339848436e-10 1.5828878941794223e-10 4.888205349113605e-10 3.8456287440208744e-10 2.978721301922566e-10 8.622016628850564e-10
          6.894516301387645e-10 5.418829658871593e-10 1.6386444881061406e-9 1.3713755965894608e-9 1.2946510767003105e-9 1.1282163413453676e-9
          9.831446488168828e-10 2.1970209436306007e-9 1.8660474933586452e-9 1.755465045366784e-9 1.557892939120292e-9 1.3408941595810833e-9
          2.4475436993886155e-9 2.100794663848604e-9 2.0169454940158917e-9 1.7728463571422507e-9 1.5745342277037135e-9 2.463880531190928e-9
          2.1237892893697232e-9 2.0732196763941706e-9 1.800218495372811e-9 1.6420994223985726e-9 1.3921755645880519e-9 1.1328368927304963e-9
          9.048520589833996e-10 1.8974130732063313e-9 1.5684608193559019e-9 1.2718049352679352e-9 2.0817406249843713e-9 1.7429083937608372e-9
          1.430800533214462e-9 2.059529329622143e-9 1.7345787140377397e-9 1.4321052380731407e-9 3.0638986981496316e-10 2.515003677065828e-10
          2.429652300890088e-10 2.041097949770747e-10 1.8750522411930963e-10 5.120375664688761e-10 4.263680192846056e-10 4.004996812395096e-10
          3.506239223621345e-10 2.5123086511654313e-10 3.0504673699626447e-10 2.0455826440268424e-10 1.0651401957997108e-10 1.142501488828765e-10
          1.4096756513052004e-10 9.169915140488322e-11 6.3548966425775e-11 8.375131203600973e-11 1.0379272798557064e-10 6.695178810873081e-11
          1.85565158011754e-10 2.2655368921417804e-10 1.503494932443503e-10 8.254637975161504e-10 6.9854483500165e-10 5.360340762473649e-10
          6.378816306248973e-10 5.832486225007289e-10 4.446466360634791e-10 3.996459188560371e-10 4.78973825119717e-10 3.293524055614919e-10