<?xml version="1.0"?>
<VTKFile type="UnstructuredGrid" version="0.1" byte_order="LittleEndian" header_type="UInt32" compressor="vtkZLibDataCompressor">
  <UnstructuredGrid>
    <Piece NumberOfPoints="987" NumberOfCells="602">
      <PointData>
        <DataArray type="Int32" Name="libmesh_node_id" format="ascii" RangeMin="1118" RangeMax="4469">
          1118 1119 1184 1185 1193 1197
          1198 1205 1206 1208 1294 1295
          1296 1297 1298 1299 1300 1301
          1302 1303 1304 1305 1306 1307
          1308 1309 1310 1311 1312 1313
          1314 1315 1316 1317 1318 1319
          1320 1321 1336 1337 1338 1339
          1340 1341 1343 1344 1345 1346
          1347 1348 1349 1480 1481 1484
          1485 1487 1489 1512 1513 1515
          1516 1518 1519 1631 1632 1633
          1634 1635 1636 1637 1638 1639
          1640 1641 1642 1643 1644 1645
          1646 1647 1648 1649 1654 1655
          1658 1661 1663 1664 1665 1666
          1667 1668 1669 1670 1671 1672
          1675 1676 1679 1681 1683 1684
          1685 1686 1687 1688 1689 1690
          1691 1692 1693 1694 1695 1696
          1697 1698 1699 1700 1701 1702
          1703 1704 1705 1706 1707 1708
          1709 1710 1711 1712 1713 1714
          1715 1716 1717 1718 1719 1720
          1721 1722 1723 1724 1725 1726
          1727 1728 1729 1730 1731 1732
          1733 1734 1735 1736 1737 1738
          1739 1740 1741 1742 1743 1744
          1745 1746 1747 1748 1749 1750
          1751 1752 1753 1754 1755 1756
          1757 1758 1759 1760 1761 1762
          1763 1764 1765 1766 1767 1768
          1769 1770 1773 1774 1779 1781
          1782 1784 1800 1806 1808 1819
          1820 1823 1825 1826 1828 1839
          1841 1843 1845 1853 1854 1855
          1856 1857 1858 1859 1860 1861
          1862 1863 1864 1865 1866 1867
          1868 1869 1870 1871 1872 1873
          1874 1875 1876 2208 2209 2212
          2213 2214 2215 2216 2217 2218
          2219 2220 2221 2222 2223 2333
          2334 2335 2336 2337 2338 2339
          2340 2341 2342 2343 2344 2345
          2346 2347 2348 2349 2350 2351
          2352 2353 2354 2355 2356 2357
          2358 2359 2360 2361 2362 2363
          2364 2365 2366 2367 2368 2369
          2370 2371 2372 2373 2374 2375
          2376 2377 2378 2379 2380 2381
          2382 2383 2384 2385 2386 2387
          2388 2389 2390 2391 2392 2393
          2394 2395 2396 2397 2398 2399
          2400 2401 2402 2403 2404 2405
          2406 2407 2408 2409 2410 2411
          2412 2413 2414 2415 2416 2417
          2418 2419 2420 2421 2422 2423
          2424 2425 2426 2427 2428 2429
          2430 2431 2432 2433 2434 2435
          2436 2437 2438 2439 2440 2441
          2442 2443 2444 2445 2446 2447
          2448 2449 2450 2451 2452 2453
          2454 2455 2456 2457 2458 2459
          2460 2461 2462 2463 2464 2465
          2466 2467 2468 2469 2470 2471
          2472 2473 2474 2475 2476 2477
          2478 2479 2480 2481 2482 2483
          2484 2485 2486 2487 2488 2489
          2490 2491 2492 2493 2494 2495
          2496 2497 2498 2499 2500 2501
          2502 2503 2504 2505 2506 2507
          2508 2509 2510 2511 2512 2513
          2518 2519 2520 2576 2577 2578
          2579 2580 2581 2582 2583 2584
          2585 2596 2597 2598 2599 2600
          2601 2602 2610 2611 2612 2613
          2614 2615 2616 2617 2618 2619
          2630 2631 2632 2633 2634 2635
          2636 2712 2713 2714 2718 2719
          2720 2721 2722 2723 2724 3847
          3848 3849 3850 3851 3852 3853
          3854 3855 3856 3857 3858 3859
          3860 3861 3862 3863 3864 3865
          3866 3867 3868 3869 3870 3871
          3872 3873 3874 3875 3876 3877
          3878 3879 3880 3881 3882 3883
          3884 3885 3886 3887 3888 3889
          3890 3891 3892 3893 3894 3895
          3896 3897 3898 3899 3900 3901
          3902 3903 3904 3905 3906 3907
          3908 3909 3910 3911 3912 3913
          3914 3915 3916 3917 3918 3919
          3920 3921 3922 3923 3924 3925
          3926 3927 3928 3929 3930 3931
          3932 3933 3934 3935 3936 3937
          3938 3939 3940 3941 3942 3943
          3944 3945 3946 3947 3948 3949
          3950 3951 3952 3953 3954 3955
          3956 3957 3958 3959 3960 3961
          3962 3963 3964 3965 3966 3967
          3968 3969 3970 3971 3972 3973
          3974 3975 3976 3977 3978 3979
          3980 3981 3982 3983 3984 3985
          3986 3987 3988 3989 3990 3991
          3992 3993 3994 3995 3996 3997
          3998 3999 4000 4001 4002 4003
          4004 4005 4006 4007 4008 4009
          4010 4011 4012 4013 4014 4015
          4016 4017 4018 4019 4020 4021
          4022 4023 4024 4025 4026 4027
          4028 4029 4030 4031 4032 4033
          4034 4035 4036 4037 4038 4039
          4040 4041 4042 4043 4044 4045
          4046 4047 4048 4049 4050 4051
          4052 4053 4054 4055 4056 4057
          4058 4059 4060 4061 4062 4063
          4064 4065 4066 4067 4068 4069
          4070 4071 4072 4073 4074 4075
          4076 4077 4078 4079 4080 4081
          4082 4083 4084 4085 4086 4087
          4088 4089 4090 4091 4092 4093
          4094 4095 4096 4097 4098 4099
          4100 4101 4102 4103 4104 4105
          4106 4107 4108 4109 4110 4111
          4112 4113 4114 4115 4116 4117
          4118 4119 4120 4121 4122 4123
          4124 4125 4126 4127 4128 4129
          4130 4131 4132 4133 4134 4135
          4136 4137 4138 4139 4140 4141
          4142 4143 4144 4145 4146 4147
          4148 4149 4150 4151 4152 4153
          4154 4155 4156 4157 4158 4159
          4160 4161 4162 4163 4164 4165
          4166 4167 4168 4169 4170 4171
          4172 4173 4174 4175 4176 4177
          4178 4179 4180 4181 4182 4183
          4184 4185 4186 4187 4188 4189
          4190 4191 4192 4193 4194 4195
          4196 4197 4198 4199 4200 4201
          4202 4203 4204 4205 4206 4207
          4208 4209 4210 4211 4212 4213
          4214 4215 4216 4217 4218 4219
          4220 4221 4222 4223 4224 4246
          4247 4248 4249 4250 4251 4252
          4253 4254 4255 4256 4257 4258
          4259 4274 4275 4276 4277 4278
          4279 4286 4287 4288 4289 4290
          4291 4292 4293 4294 4295 4296
          4297 4298 4299 4300 4301 4302
          4303 4304 4305 4306 4307 4308
          4309 4310 4311 4312 4313 4314
          4315 4316 4317 4318 4319 4320
          4321 4322 4323 4324 4325 4326
          4327 4328 4329 4330 4331 4332
          4333 4334 4335 4336 4337 4338
          4339 4340 4341 4342 4343 4344
          4345 4346 4347 4348 4349 4350
          4351 4352 4353 4422 4423 4424
          4425 4426 4427 4428 4429 4430
          4431 4432 4433 4434 4435 4436
          4437 4438 4439 4440 4441 4442
          4443 4444 4445 4446 4447 4448
          4449 4450 4451 4452 4453 4454
          4455 4456 4457 4458 4459 4460
          4461 4462 4463 4464 4465 4466
          4467 4468 4469
        </DataArray>
        <DataArray type="Float64" Name="bounds" format="ascii" RangeMin="0" RangeMax="0">
          0 0 0 0 0 0
          0 0 0 0 0 0
          0 0 0 0 0 0
          0 0 0 0 0 0
          0 0 0 0 0 0
          0 0 0 0 0 0
          0 0 0 0 0 0
          0 0 0 0 0 0
          0 0 0 0 0 0
          0 0 0 0 0 0
          0 0 0 0 0 0
          0 0 0 0 0 0
          0 0 0 0 0 0
          0 0 0 0 0 0
          0 0 0 0 0 0
          0 0 0 0 0 0
          0 0 0 0 0 0
          0 0 0 0 0 0
          0 0 0 0 0 0
          0 0 0 0 0 0
          0 0 0 0 0 0
          0 0 0 0 0 0
          0 0 0 0 0 0
          0 0 0 0 0 0
          0 0 0 0 0 0
          0 0 0 0 0 0
          0 0 0 0 0 0
          0 0 0 0 0 0
          0 0 0 0 0 0
          0 0 0 0 0 0
          0 0 0 0 0 0
          0 0 0 0 0 0
          0 0 0 0 0 0
          0 0 0 0 0 0
          0 0 0 0 0 0
          0 0 0 0 0 0
          0 0 0 0 0 0
          0 0 0 0 0 0
          0 0 0 0 0 0
          0 0 0 0 0 0
          0 0 0 0 0 0
          0 0 0 0 0 0
          0 0 0 0 0 0
          0 0 0 0 0 0
          0 0 0 0 0 0
          0 0 0 0 0 0
          0 0 0 0 0 0
          0 0 0 0 0 0
          0 0 0 0 0 0
          0 0 0 0 0 0
          0 0 0 0 0 0
          0 0 0 0 0 0
          0 0 0 0 0 0
          0 0 0 0 0 0
          0 0 0 0 0 0
          0 0 0 0 0 0
          0 0 0 0 0 0
          0 0 0 0 0 0
          0 0 0 0 0 0
          0 0 0 0 0 0
          0 0 0 0 0 0
          0 0 0 0 0 0
          0 0 0 0 0 0
          0 0 0 0 0 0
          0 0 0 0 0 0
          0 0 0 0 0 0
          0 0 0 0 0 0
          0 0 0 0 0 0
          0 0 0 0 0 0
          0 0 0 0 0 0
          0 0 0 0 0 0
          0 0 0 0 0 0
          0 0 0 0 0 0
          0 0 0 0 0 0
          0 0 0 0 0 0
          0 0 0 0 0 0
          0 0 0 0 0 0
          0 0 0 0 0 0
          0 0 0 0 0 0
          0 0 0 0 0 0
          0 0 0 0 0 0
          0 0 0 0 0 0
          0 0 0 0 0 0
          0 0 0 0 0 0
          0 0 0 0 0 0
          0 0 0 0 0 0
          0 0 0 0 0 0
          0 0 0 0 0 0
          0 0 0 0 0 0
          0 0 0 0 0 0
          0 0 0 0 0 0
          0 0 0 0 0 0
          0 0 0 0 0 0
          0 0 0 0 0 0
          0 0 0 0 0 0
          0 0 0 0 0 0
          0 0 0 0 0 0
          0 0 0 0 0 0
          0 0 0 0 0 0
          0 0 0 0 0 0
          0 0 0 0 0 0
          0 0 0 0 0 0
          0 0 0 0 0 0
          0 0 0 0 0 0
          0 0 0 0 0 0
          0 0 0 0 0 0
          0 0 0 0 0 0
          0 0 0 0 0 0
          0 0 0 0 0 0
          0 0 0 0 0 0
          0 0 0 0 0 0
          0 0 0 0 0 0
          0 0 0 0 0 0
          0 0 0 0 0 0
          0 0 0 0 0 0
          0 0 0 0 0 0
          0 0 0 0 0 0
          0 0 0 0 0 0
          0 0 0 0 0 0
          0 0 0 0 0 0
          0 0 0 0 0 0
          0 0 0 0 0 0
          0 0 0 0 0 0
          0 0 0 0 0 0
          0 0 0 0 0 0
          0 0 0 0 0 0
          0 0 0 0 0 0
          0 0 0 0 0 0
          0 0 0 0 0 0
          0 0 0 0 0 0
          0 0 0 0 0 0
          0 0 0 0 0 0
          0 0 0 0 0 0
          0 0 0 0 0 0
          0 0 0 0 0 0
          0 0 0 0 0 0
          0 0 0 0 0 0
          0 0 0 0 0 0
          0 0 0 0 0 0
          0 0 0 0 0 0
          0 0 0 0 0 0
          0 0 0 0 0 0
          0 0 0 0 0 0
          0 0 0 0 0 0
          0 0 0 0 0 0
          0 0 0 0 0 0
          0 0 0 0 0 0
          0 0 0 0 0 0
          0 0 0 0 0 0
          0 0 0 0 0 0
          0 0 0 0 0 0
          0 0 0 0 0 0
          0 0 0 0 0 0
          0 0 0 0 0 0
          0 0 0 0 0 0
          0 0 0 0 0 0
          0 0 0 0 0 0
          0 0 0 0 0 0
          0 0 0 0 0 0
          0 0 0 0 0 0
          0 0 0 0 0 0
          0 0 0 0 0 0
          0 0 0 0 0 0
          0 0 0 0 0 0
          0 0 0
        </DataArray>
        <DataArray type="Float64" Name="gradient_error" format="ascii" RangeMin="3.5727886991123226e-10" RangeMax="1.240048840240416e-7">
          5.004729457312295e-9 3.2996878555619324e-8 4.548376197891e-8 4.9325107844045784e-8 6.841307337668031e-8 1.8331474051274143e-8
          1.7882377195409825e-8 1.4858263897364068e-9 6.583816838314156e-8 1.1883915824161711e-8 5.805759818332882e-8 4.7242655007067366e-8
          8.866156181950127e-8 7.863806586864453e-8 3.632689397909096e-8 1.0960892566276239e-7 9.148740116614843e-8 6.531405949740031e-8
          6.802290295591362e-8 6.266224245430469e-8 5.539611556409976e-8 8.702429549079491e-8 8.955390978501793e-8 6.315566672955842e-8
          3.149132757293806e-8 2.4762750080128636e-8 5.747774373171821e-8 1.0253186927825576e-7 1.419979813160027e-8 5.4975208920476376e-8
          6.364067349313492e-8 2.9242280729422947e-8 5.3451974918416e-8 4.023413178601868e-8 5.557396367371898e-10 8.855322075264889e-8
          1.690670498589486e-8 7.032726157712224e-8 2.453299098034678e-8 4.330899691628955e-8 3.342895001405269e-8 4.731203984889916e-8
          1.5088191642111574e-8 2.0554513329432664e-8 2.0560348921619755e-8 3.23818713669479e-8 1.1394876146711709e-8 2.3658872045040308e-8
          3.422925991927311e-8 1.4105653114109919e-8 2.920682608918843e-8 3.748194192353813e-8 3.275637247920531e-8 2.6532157243331326e-8
          2.293420938358372e-8 2.803080303487248e-8 1.4778441221578308e-8 1.6559004930970783e-8 1.4117468809330282e-8 8.722503653252474e-9
          7.376303601116851e-9 7.870635722060827e-9 3.876689057398846e-9 4.1585936769014674e-8 3.91125959771062e-8 4.0801593691656826e-8
          6.181338907887012e-8 6.343731309633492e-8 6.010307873028516e-8 5.8875602263164696e-8 3.651161308729454e-8 6.425734897198777e-8
          6.051530229671787e-8 3.264732004552279e-8 5.085969111075685e-8 5.0622413156366005e-8 5.0296595877924236e-8 9.873237909585729e-8
          9.578513384801697e-8 8.66484948943497e-8 1.0548557524373396e-7 8.503349949205534e-8 7.614398391400547e-8 8.261574788807724e-8
          8.878976447888909e-8 6.88841168221276e-8 7.403192932545189e-8 8.869121237316374e-8 7.227921169721186e-8 8.22687568936604e-8
          1.0085941077394611e-7 1.0087228073293028e-7 3.500655247324624e-8 6.683855373110757e-8 3.743257655313576e-8 1.007238847397724e-7
          6.319677311962326e-8 7.972239607392891e-8 5.774591613096677e-8 8.365734077414066e-8 6.599117451717679e-8 8.663884494920355e-8
          6.834113566974901e-8 9.411197873566655e-8 4.908156873566364e-8 5.969056598721719e-8 6.110161763057401e-8 9.215323803337623e-8
          1.0181962390159057e-7 6.599383063590725e-8 3.5352946309551316e-8 3.2947974086721665e-8 6.404011911380628e-8 5.986227167313111e-8
          2.8518225453118985e-8 6.230967979848735e-8 5.7710999314480876e-8 2.6755979071814644e-8 4.871108708699758e-8 4.584713226471553e-8
          8.59474399128573e-8 9.76936718710919e-8 8.728709408877567e-8 9.749468706978028e-8 2.530354302532861e-8 2.3444622059465532e-8
          5.854332054614594e-8 5.379059179241083e-8 1.8076112030086185e-8 5.2566121462698945e-8 4.802395859550695e-8 1.86265653773769e-8
          4.1679270153799053e-8 3.6275463171405254e-8 5.744810971340061e-8 7.078103008364521e-8 4.988717232166488e-8 8.550428133332193e-8
          1.3063604921335164e-8 1.629436054752511e-8 2.704817782079542e-8 3.0917761918817354e-8 9.924588313209542e-9 2.2555969804970158e-8
          1.045978018151898e-8 1.9775678372668465e-8 2.325357813867805e-8 1.604280899544476e-8 6.818890134851527e-8 7.014983532151194e-8
          6.344946989929126e-8 4.194208577784813e-8 4.4908940608552425e-8 6.387415950926141e-8 1.3212250324494384e-8 5.077416945178337e-8
          1.004693634926977e-7 1.1214858795183914e-7 4.142309891903136e-10 9.856349559846702e-9 1.7671524387357154e-9 7.678638059385891e-8
          1.5791323405755555e-8 3.49611161260794e-8 1.8728817636186955e-8 1.75979869508441e-8 8.358071605934695e-8 5.050364531242598e-8
          1.03268061643605e-9 1.7572711514710115e-9 2.5298423176250172e-9 6.140107250421717e-8 6.990013692959988e-8 1.019885997160338e-7
          1.0938169568847792e-7 4.7752935460055834e-8 6.163831223445969e-8 6.095042651196127e-8 1.1277027522069359e-7 1.240048840240416e-7
          6.99872991249908e-8 9.45281317570379e-8 7.45962184989209e-8 5.8756522112937624e-8 5.4669607077911e-8 9.450182909729254e-8
          5.869349726673716e-8 6.914570384101201e-8 4.44951972743058e-8 4.038182016556221e-8 2.97027384516651e-8 4.957837504423506e-8
          4.45444515163808e-8 5.7193449325411915e-8 1.7710951999007612e-8 5.631471670933783e-8 3.111954946148121e-8 2.1667046532929975e-8
          1.9738013319811912e-8 5.063977618461736e-8 1.9075976153466393e-9 3.5078920831193057e-9 1.9161215900119534e-8 6.940871730268491e-8
          4.8427237290429387e-8 5.609114570291899e-8 5.966853880881977e-8 2.61969573011181e-8 2.8428093195210844e-8 3.062871325696605e-8
          3.275451400474665e-8 2.3436057733823557e-8 2.784805241787574e-8 1.7971782207975434e-8 1.9516583256146834e-8 2.2024742785803712e-8
          1.6696557865941825e-8 3.506046921281401e-8 3.708093481428245e-8 3.2260047101927926e-8 2.1061384304318234e-8 2.0225373824854406e-8
          2.4428759964768614e-8 1.670972956216432e-8 2.0504970910943093e-8 1.2467497397319867e-8 1.3688695329354077e-8 1.0692641407872055e-8
          2.8632146104682818e-8 2.430021225972187e-8 1.490989326138829e-8 2.6699171171388595e-8 3.8652633018458966e-8 3.199825517164522e-8
          2.4714784041950707e-8 3.778634060563671e-8 2.2279141371380314e-8 3.62785395705679e-8 2.0774183178053545e-8 3.0622143353995117e-8
          2.8737143006735312e-8 1.9427863531321477e-8 3.40106065895736e-8 1.5886770782905676e-8 2.628346323760801e-8 1.0696048573269464e-8
          1.2260665160088293e-8 1.2108727025608096e-8 1.4723653444892037e-8 1.1956788891127899e-8 1.564917244465658e-8 1.0021043746559618e-8
          1.0188265065820341e-8 1.0355486385081068e-8 9.680481558371218e-9 1.0579252857750451e-8 1.1114427607378001e-8 9.969182705660711e-9
          1.1936445422889806e-8 1.1649602357005556e-8 1.4609472981656703e-8 8.897840555412611e-9 1.0120128189147913e-8 9.155750633829963e-9
          1.1342415822883214e-8 1.5900502498123114e-8 1.5843889835285395e-8 1.6151832551589643e-8 1.9080023518743614e-8 1.9926659513373968e-8
          1.9694678571371334e-8 2.0900886750075666e-8 1.94626976293687e-8 2.212903094339409e-8 2.2023465311625354e-8 2.290904132197011e-8
          2.1917899679856618e-8 2.3914121202138702e-8 2.343356959705304e-8 2.3716817643226015e-8 2.197609163326601e-8 1.9829961076696375e-8
          1.954814598813051e-8 1.920216974771684e-8 1.809712670169638e-8 1.9872734781270107e-8 1.9496195278188768e-8 1.911965577510743e-8
          1.7031491321781808e-8 1.691164693807817e-8 1.6251299141303843e-8 1.6958218020584564e-8 2.0663669119067126e-8 2.032631107548615e-8
          2.2286956362740684e-8 2.1942050593017965e-8 1.998895303190517e-8 2.1597144823295247e-8 1.201026960806736e-8 1.3882883576574032e-8
          1.2938256641310917e-8 1.7571919762523207e-8 1.6852696893894126e-8 1.8952374451428416e-8 1.658076030099366e-8 2.077162332642523e-8
          2.27825523423084e-8 2.032135389612242e-8 9.297168992045025e-9 1.0851555668087535e-8 5.736987981140979e-9 8.032462855305128e-9
          1.45892034188264e-8 1.443150642173318e-8 6.720991244484681e-10 4.567617488097875e-9 9.723940987014572e-10 1.2234267449225399e-8
          1.5564706948005423e-9 4.0474112561247275e-9 1.4249392082970525e-9 1.762479362392821e-9 1.122114347092302e-8 7.667441655729067e-9
          3.5727886991123226e-10 6.945377240816401e-10 7.010067438766876e-10 6.1481481153698495e-9 1.6843298431937122e-8 1.8649536595844945e-8
          1.6901659114750622e-8 1.877642222915892e-8 1.6833899969980118e-8 1.8346698740261468e-8 1.7222557928507586e-8 1.8245437757905473e-8
          1.7926217477167098e-8 2.0611016338959173e-8 2.2826048060827812e-8 1.5741986779080446e-8 1.3056699810708952e-8 2.0900678781795925e-8
          2.3963022837510055e-8 2.351818881215652e-8 2.5665177705277317e-8 2.5147114514470832e-8 2.3073354786802983e-8 2.4292771298626264e-8
          1.4449398715978905e-8 1.4101972228769617e-8 1.5445386132097767e-8 1.7686787563079763e-8 2.7380029503406458e-8 2.6799070033031787e-8
          2.9008215044342072e-8 2.8314842996617085e-8 2.5159230488677426e-8 2.630137036936322e-8 1.7214527309341608e-8 1.699134823869414e-8
          1.85265559245793e-8 1.6152532597535206e-8 2.1953329613628754e-8 2.0286447978707416e-8 2.5087973945294196e-8 2.2066282520596797e-8
          2.4578545574267713e-8 2.235034623402231e-8 2.303553673960152e-8 2.0600342053346895e-8 2.1089803689368705e-8 2.0864100117164006e-8
          2.2461312432283104e-8 2.533215825211587e-8 1.562315349049187e-9 1.8082944915933845e-9 1.861539156516301e-9 2.041643641141522e-9
          8.279244201020285e-9 5.740628915094839e-9 8.074111072864278e-10 9.966601702486562e-10 1.297722493204494e-9 1.6335026140269585e-9
          2.333207484108146e-9 2.4263678314396092e-9 2.9064570899694278e-9 2.946986323227542e-9 2.9783198153746237e-9 3.319481129817114e-9
          1.2621899815620695e-9 1.6084695050406908e-9 1.933977334090605e-9 2.093689193696612e-9 1.9787286043422445e-8 1.842974310562984e-8
          2.526612419841745e-8 2.6371048638924397e-8 1.445617204422252e-8 1.567220569954989e-8 2.5953702822567194e-8 1.3365589370634893e-8
          1.1112580721013435e-8 2.4115824759045126e-8 2.2808593117058906e-8 9.83982060651322e-9 3.5953791462599514e-9 2.1831609930356188e-8
          2.084882501721985e-8 2.1642009878993187e-8 2.2834706256423983e-8 1.977169355527357e-8 2.250345580476525e-8 2.108139681003415e-8
          2.4158086592310653e-8 2.321060897346155e-8 2.4471611574819508e-8 2.11294666821293e-8 2.139940416372912e-8 2.477920806792991e-8
          2.610851689321504e-8 2.2487239808985036e-8 2.458561247661556e-8 2.3786170570331298e-8 2.3451430749906264e-8 2.17112024519315e-8
          1.898682743684075e-8 1.8506032656823676e-8 1.7537978633865533e-8 3.037988266882006e-8 2.9564546253507923e-8 3.1354078655586636e-8
          3.042442260600015e-8 2.7199841146284073e-8 2.7730277857243483e-8 2.02647039201195e-8 1.994864625678135e-8 2.1227398013145223e-8
          1.8768225225525618e-8 2.3456620530380527e-8 2.3524079188403118e-8 2.1262768606388695e-8 2.108236921873293e-8 2.3733497392380192e-8
          2.4697203026477808e-8 2.8722851769571375e-8 3.5213345723413734e-9 3.5462701996961485e-9 4.1773067838619115e-9 4.1840888860952095e-9
          3.785656034101096e-9 4.310450470295147e-9 1.701210526677724e-9 2.2723515016504197e-9 2.6168573835328196e-9 3.0107093478480074e-9
          1.2036129197847728e-8 1.2890817893020779e-8 2.4337003408903563e-8 2.5582383721257068e-8 3.883732358255307e-9 4.221892642305452e-9
          1.8125829556373537e-8 2.3476906835177582e-8 2.3777475358075225e-8 2.0362614535776858e-8 2.543513400475152e-8 2.6056523839759392e-8
          2.1749265505907335e-8 2.1808128612883514e-8 2.7393361174325454e-8 2.833557232144356e-8 2.3135916476037806e-8 1.4595607428749622e-9
          1.4385161937036585e-9 1.4236079493459576e-9 1.408699704988257e-9 1.3876551558169531e-9 2.4483247078496586e-9 2.474405704960749e-9
          2.500392711353553e-9 2.6094228486534235e-9 2.526379717746357e-9 2.7538180451005572e-9 2.7371408887996492e-9 2.8696892850939874e-9
          2.7294490738392696e-9 2.603019744992844e-9 2.7067681032701315e-9 2.8934171436849786e-9 2.675101791360465e-9 1.5648454995002638e-9
          1.5309603427402975e-9 1.5801958660618138e-9 1.4970751859803314e-9 2.343213504643154e-9 2.3982075297115382e-9 2.4532015547799226e-9
          1.4743324846133568e-9 1.5163483904896964e-9 1.7164259993433784e-9 1.7252690943496156e-9 1.898792624464635e-9 1.9415312251257947e-9
          1.974093963068128e-9 1.9908885579183943e-9 1.3150084635551314e-9 1.3816142254859916e-9 1.1174728933783546e-9 1.2655977190508217e-9
          1.4482199874168512e-9 1.5454790159306477e-9 1.0651714276099993e-9 1.2322681082316851e-9 9.509995720398295e-10 1.399364788853371e-9
          9.92914965210405e-10 1.1165391951724432e-9 8.765091881398613e-10 9.750755882411525e-10 1.479271091653088e-9 1.3189708072285576e-9
          5.11497445807453e-10 7.167299998551899e-10 5.495573532539462e-10 1.2332730889565602e-9 1.8728468717148642e-9 1.9367017850843626e-9
          1.8469011189650936e-9 1.8525404430809696e-9 1.7936622300986417e-9 1.986702127990245e-9 2.0230248340826112e-9 1.7635496610361443e-9
          1.6132304971291555e-9 1.982515698062095e-9 2.358255163098592e-9 2.408578387185237e-9 2.383979022505779e-9 2.4254781961561455e-9
          2.458901611271882e-9 2.509652135853697e-9 1.690062979752635e-9 1.774118569298432e-9 1.656558744910734e-9 1.843121084831738e-9
          2.396350008222821e-9 2.439866167767433e-9 2.402702428159481e-9 2.456743808661233e-9 2.5551961311753583e-9 2.6058395657850215e-9
          1.4612901950424813e-9 1.5581546722794033e-9 1.5077928057404193e-9 1.8389248051054638e-9 2.5910925863483472e-9 2.587183504748627e-9
          1.959941922978809e-9 2.1376910104569735e-9 2.1068689091508616e-9 2.6533838785785717e-9 2.7719672476312106e-9 2.679757822118473e-9
          2.843040552855362e-9 2.201465298218564e-9 2.167330699267921e-9 2.4330031569263563e-9 7.493307205330208e-10 8.461700672823029e-10
          6.610613529375951e-10 7.496868516540918e-10 1.1911487122809673e-9 1.068277729906602e-9 3.606401027972065e-10 4.608670589846621e-10
          4.277897571455827e-10 8.13327549713031e-10 6.52567291229704e-10 7.208518434743933e-10 7.359250328821063e-10 7.81545510988191e-10
          9.71142933443664e-10 9.53792591876926e-10 4.214361637195295e-10 4.679857891251977e-10 5.913037427240217e-10 6.453794451878484e-10
          1.7237493175958387e-9 1.6271221112892914e-9 2.008210624661327e-9 2.126296539993434e-9 1.4875567122128684e-9 1.3372904207450482e-9
          1.9095523401717926e-9 1.4787855089287373e-9 1.3613614620643233e-9 2.127684738986199e-9 2.032734929675831e-9 1.1546400753073595e-9
          1.0385788771702473e-9 1.948071669021104e-9 2.4922227976509224e-9 2.577923879483318e-9 2.7058921565739496e-9 2.6170385596726177e-9
          2.5043728651214867e-9 2.5418583365346064e-9 2.516522932592051e-9 2.5439617002591765e-9 2.6038640720609634e-9 2.636975469235184e-9
          2.7845620142393356e-9 2.5099995210350355e-9 2.5018359875479768e-9 2.65691237879775e-9 2.983043249542302e-9 2.9911708949616673e-9
          3.1154223782500455e-9 3.042473388576282e-9 3.2343132957337357e-9 3.2506224847255765e-9 3.389804526096018e-9 3.3452492188358037e-9
          3.0648491667257243e-9 3.243576356352021e-9 3.044050096679917e-9 3.428694917134995e-9 3.6149372671491956e-9 3.433823070315801e-9
          3.4779663591989203e-9 3.521586157077956e-9 3.6464899958980286e-9 3.664113752781862e-9 3.7049215148261104e-9 3.775905299775413e-9
          3.937615517060194e-9 3.972118886686481e-9 3.782582218470874e-9 3.947778269445629e-9 3.783363458283851e-9 4.1364942293210366e-9
          4.339084820086705e-9 4.1693027291284304e-9 3.5855173364723187e-9 3.6841435990107494e-9 3.863470181115373e-9 3.6037031677888115e-9
          4.045773908447956e-9 4.249468216894733e-9 3.928582128632876e-9 2.43239042939803e-9 2.4890572086113472e-9 2.5000092022401735e-9
          2.5526734913960783e-9 2.663037729800141e-9 2.7320613943235233e-9 1.466875729670213e-9 1.534292336081058e-9 1.6206143490511953e-9
          1.7559140084303945e-9 2.5959024972547506e-9 2.6449192887735248e-9 2.7185905247183814e-9 2.7637368052597185e-9 2.8213035465331244e-9
          2.9320090003188332e-9 1.6905734035746227e-9 1.7430204929472567e-9 1.903333510789063e-9 1.906713513612405e-9 2.883045709209344e-9
          2.992417528336734e-9 2.9857399466430695e-9 3.1260500485784037e-9 2.1617710949907154e-9 2.184197475909423e-9 2.4917838974942576e-9
          3.1058588326870865e-9 3.2169713743264578e-9 3.2630466526002236e-9 3.4692267461387484e-9 2.2447760990689447e-9 2.334472605029927e-9
          2.5341354149637356e-9 8.726202502498881e-10 9.100056045136941e-10 1.016903050618122e-9 1.0584238273465668e-9 1.0336258720849212e-9
          1.1700792548199634e-9 6.932266504131082e-10 7.383700591262996e-10 8.655435611328537e-10 8.390257983330535e-10 1.171522873394032e-9
          1.2168863375640618e-9 1.3419953204131533e-9 1.3898954198996686e-9 1.3317525810856373e-9 1.5112881660369282e-9 9.193906384145834e-10
          9.869477820550833e-10 1.1107929026446312e-9 1.1474360091769112e-9 1.3363533883848387e-9 1.3933349021504124e-9 1.970656122059748e-9
          1.9421575244567076e-9 1.0504068384812098e-9 1.159533552803425e-9 1.667351296181221e-9 1.5124212886045544e-9 1.674302926952721e-9
          1.9598835527106894e-9 2.0283093982676028e-9 1.3183131273103969e-9 1.498666125349307e-9 1.6646991004180988e-9 2.874347299633128e-9
          2.915224249673181e-9 3.0616023935644763e-9 3.098356113623005e-9 3.0669672169867608e-9 3.2293559309071987e-9 2.079155654210925e-9
          2.1081621497634708e-9 2.3519442409109276e-9 2.2146011687250068e-9 3.2749166001225537e-9 3.306189611525992e-9 3.5156435193757227e-9
          3.5408086874592937e-9 3.41944513669459e-9 3.6379472563811506e-9 2.6128510760093163e-9 2.6242542860683446e-9 2.9147935209796846e-9
          2.6729525670346477e-9 3.3194582717385425e-9 3.445978936251688e-9 3.5800783603576394e-9 3.6967844329692105e-9 2.4514662449124534e-9
          2.611781853969268e-9 2.8834446931024217e-9 3.6165936156421356e-9 3.817958412875924e-9 3.863628817308312e-9 4.058222327146093e-9
          2.818021810066526e-9 3.0576495846848456e-9 3.1306505132948876e-9 1.5175339519653975e-9 1.5721021450166455e-9 1.6942584883292048e-9
          1.7588478652585714e-9 1.7053325563600829e-9 1.9103096572416293e-9 1.1474848355762808e-9 1.236742332774756e-9 1.3640294800432686e-9
          1.4512834564618113e-9 1.8778962904949118e-9 1.9518737995548327e-9 2.0699740618821125e-9 2.1524962170009383e-9 2.1242637449618888e-9
          2.346149483466916e-9 1.375002114390188e-9 1.491712950249547e-9 1.6194072499009024e-9 1.7693937425571812e-9 1.867462445011086e-9
          2.079706374633414e-9 2.1481541156796357e-9 2.3097279047445093e-9 1.6883267252034768e-9 1.8800286443860387e-9 1.9062121075858563e-9
          2.3069053280519486e-9 2.5471030744588127e-9 2.50356930061272e-9 2.7240662841654293e-9 2.07446003793408e-9 2.2757389852130765e-9
          2.3037924801238577e-9 2.7787688677810823e-9 2.8388146564620535e-9 2.9090322743044806e-9 3.6124606805924953e-9 3.5748567904013557e-9
          2.902245584902823e-9 3.1965247718351647e-9 3.145270431380383e-9 2.6373588971665116e-9 2.6634632566917634e-9 2.8862515415908617e-9
          2.9890673632060215e-9 2.4959489265519405e-9 2.4881118569214737e-9 2.863470808877243e-9 2.6963959090506792e-9 2.7445726635222757e-9
          3.0966119294519062e-9 3.196351571727116e-9 2.4905462331985356e-9 2.514060181648141e-9 3.047953427523429e-9 3.6866522758879682e-9
          3.845673567733335e-9 3.6742311402774535e-9 3.8661341138987596e-9 3.377210280361697e-9 3.4936898994175045e-9 3.59842997220946e-9
          4.030855669276034e-9 4.232258645702934e-9 4.066213284759967e-9 4.274068805646094e-9 3.633987775235313e-9 3.800829472633053e-9