<?xml version="1.0"?>
<VTKFile type="UnstructuredGrid" version="0.1" byte_order="LittleEndian" header_type="UInt32" compressor="vtkZLibDataCompressor">
  <UnstructuredGrid>
    <Piece NumberOfPoints="927" NumberOfCells="596">
      <PointData>
        <DataArray type="Int32" Name="libmesh_node_id" format="ascii" RangeMin="1211" RangeMax="8289">
          1365 1376 1384 1979 1981 1983
          1984 1985 1988 1989 1991 1993
          1995 1996 2001 2003 2004 2005
          2006 2013 2014 2873 2878 3022
          3202 3204 3206 3207 3208 3212
          3213 3214 3216 3217 3218 3219
          3220 3221 3222 3223 3224 3225
          3226 3227 3228 3229 3240 3241
          3242 3243 3248 3250 3251 3252
          3253 3254 3255 3256 3257 3258
          3259 3267 3268 3269 3270 3274
          3287 3288 3289 3290 3291 3292
          3293 3294 3295 3296 3304 3308
          3311 3312 3313 3314 3315 3316
          3317 3318 3319 3320 3321 3322
          3323 3324 3327 3328 3339 3340
          3342 3359 3360 3361 3362 3363
          3364 3365 3366 3367 3368 3720
          3721 3722 3723 3724 3725 3726
          3792 3793 3794 3795 3799 3800
          3812 3813 3816 3817 5089 5091
          5092 5093 5094 5095 5096 5097
          5101 5102 5103 5841 5842 5849
          5850 5851 5852 5855 5856 5857
          7182 7183 7184 7185 7186 7187
          7188 7191 7192 7193 7194 7196
          7197 7198 7199 7200 7201 7202
          7203 7204 7205 7206 7207 7208
          7209 7220 7221 7222 7223 7228
          7230 7231 7232 7233 7234 7235
          7236 7237 7238 7239 7240 7241
          7242 7243 7244 7245 7246 7247
          7248 7249 7250 7251 7252 7253
          7284 7285 7286 7287 7289 7290
          7291 7292 7294 7295 7296 7297
          7298 7299 7300 7301 7302 7303
          7312 7316 7330 7331 7333 7336
          7346 7350 7352 7353 7354 7355
          7356 7357 7358 7359 7360 7361
          7362 7363 7364 7365 7366 7367
          7368 7369 7370 7371 7372 7373
          7374 7375 7376 7377 7378 7379
          7380 7381 7382 7383 7384 7385
          7386 7387 7388 7389 7390 7391
          7392 7393 7394 7395 7396 7397
          7398 7399 7400 7401 7402 7403
          7404 7405 7406 7407 7408 7409
          7410 7411 7412 7413 7414 7415
          7416 7417 7418 7419 7420 7421
          7422 7423 7424 7425 7426 7486
          7487 7488 7489 7490 7491 7492
          7493 7494 7495 7496 7497 7498
          7499 7500 7501 7502 7503 7504
          7505 7526 7527 7530 7531 7532
          7533 7534 7537 7538 7539 7566
          7567 7569 7582 7622 7623 7624
          7625 7626 7627 7628 7629 7630
          7631 7632 7633 7634 7635 7636
          7637 7638 7639 7640 7641 7642
          7643 7644 7645 7646 7647 7648
          7649 7650 7651 7652 7653 7654
          7655 7656 7657 7658 7659 7660
          7661 7662 7663 7664 7665 7666
          7667 7668 7669 7670 7671 7672
          7673 7674 7675 7676 7677 7678
          7679 7680 7681 7682 7683 7684
          7685 7686 7687 7688 7689 7746
          7747 7748 7749 7750 7751 7752
          7753 7754 7755 7757 7758 7759
          7774 7775 7776 7777 7778 7779
          7780 7781 7782 7783 7785 7786
          7787 7802 7803 7804 7805 7806
          7807 7808 7809 7810 7811 7812
          7813 7814 7815 7816 7817 7818
          7819 7820 7821 7822 7823 7824
          7825 7826 7827 7828 7829 7830
          7831 7832 7833 7834 7835 7836
          7837 7838 7839 7840 7841 7842
          7843 7844 7845 7846 7847 7848
          7849 7850 7851 7852 7853 7854
          7855 7856 7857 7858 7859 7860
          7861 7862 7863 7864 7865 7866
          7867 7868 7869 7870 7871 7872
          7873 7874 7875 7876 7877 7878
          7879 7880 7881 7882 7883 7884
          7885 7886 7887 7888 7889 7890
          7891 7892 7893 7894 7895 7896
          7897 7898 7899 7900 7901 7902
          7903 7904 7905 7906 7907 7908
          7909 7910 7911 7912 7913 7914
          7915 7917 7932 7933 7934 7936
          7938 7949 7950 7951 7952 7953
          7954 7955 7956 7957 7958 7959
          7960 7961 7962 7963 7964 7965
          7966 7967 7968 7989 7990 7993
          7994 7996 7997 8000 8001 8017
          8018 8019 8020 8021 8022 8023
          8024 8026 8027 8031 8064 8065
          8066 8067 8068 8069 8070 8071
          8072 8073 8074 8075 8076 8077
          8078 8079 8080 8081 8082 8083
          8084 8085 8086 8087 8088 8089
          8090 8091 8092 8093 8094 8095
          8096 8097 8098 8099 8100 8101
          8102 8103 8104 8105 8106 8107
          8108 8109 8110 8111 8112 8113
          8114 8115 8116 8117 8118 8119
          8120 8121 8122 8123 8124 8125
          8126 8127 8128 8129 8130 8131
          8132 8133 8136 8138 8139 8141
          8152 8154 8156 8158 8166 8167
          8170 8172 8173 8175 8186 8188
          8190 8192 8200 8201 8204 8205
          8207 8208 8211 8212 8228 8229
          8232 8233 8235 8236 8239 8240
          8256 8260 8284 8288 1211 1980
          1915 1916 1982 1917 1374 1375
          1986 1987 2234 2235 2236 2237
          2241 2242 2868 2872 2869 2870
          2874 2871 3203 3205 3209 3211
          3210 3325 1379 3329 3326 3330
          3331 2007 3332 3334 3333 3232
          3233 3236 1990 3238 3796 3797
          3798 3801 3804 3805 3810 3814
          3815 3818 3341 3820 3349 5079
          5082 5083 5080 5087 5088 5086
          5085 2879 5090 5081 5098 5099
          5100 5104 2880 5839 5840 5844
          5843 5845 3020 5847 5846 3021
          5848 5853 5854 5858 3023 5875
          5883 5884 5876 5885 5886 5887
          5878 5888 7189 7190 7195 7212
          7210 7213 7211 7218 7217 7224
          7225 7216 7226 7227 7229 3215
          7288 7293 7305 7304 7309 7308
          7311 7314 7313 7315 3245 7317
          7318 7319 7320 7321 7322 7323
          7328 7329 7332 7334 7335 7337
          7339 7338 7345 7348 7347 7349
          1994 7351 7272 7435 7437 7439
          3261 7466 7470 7564 7565 7568
          7570 3279 7572 7571 3280 7573
          7581 7584 7583 7586 7585 3282
          7587 7600 7601 7603 1999 7606
          3285 7616 7618 7620 2000 7698
          3265 7700 7702 3298 7726 7728
          7730 3302 3335 7916 3336 7918
          7919 7920 7921 7925 7926 7928
          7929 7931 7935 7937 3338 7939
          7940 7943 7944 7946 7948 8025
          3350 8028 8032 8134 8135 8137
          3369 8140 3370 8153 8155 8157
          3373 8168 8169 8171 3375 8174
          3376 8187 8189 8191 3378 8257
          8261 8285 8289
        </DataArray>
        <DataArray type="Float64" Name="bounds" format="ascii" RangeMin="0" RangeMax="0">
          0 0 0 0 0 0
          0 0 0 0 0 0
          0 0 0 0 0 0
          0 0 0 0 0 0
          0 0 0 0 0 0
          0 0 0 0 0 0
          0 0 0 0 0 0
          0 0 0 0 0 0
          0 0 0 0 0 0
          0 0 0 0 0 0
          0 0 0 0 0 0
          0 0 0 0 0 0
          0 0 0 0 0 0
          0 0 0 0 0 0
          0 0 0 0 0 0
          0 0 0 0 0 0
          0 0 0 0 0 0
          0 0 0 0 0 0
          0 0 0 0 0 0
          0 0 0 0 0 0
          0 0 0 0 0 0
          0 0 0 0 0 0
          0 0 0 0 0 0
          0 0 0 0 0 0
          0 0 0 0 0 0
          0 0 0 0 0 0
          0 0 0 0 0 0
          0 0 0 0 0 0
          0 0 0 0 0 0
          0 0 0 0 0 0
          0 0 0 0 0 0
          0 0 0 0 0 0
          0 0 0 0 0 0
          0 0 0 0 0 0
          0 0 0 0 0 0
          0 0 0 0 0 0
          0 0 0 0 0 0
          0 0 0 0 0 0
          0 0 0 0 0 0
          0 0 0 0 0 0
          0 0 0 0 0 0
          0 0 0 0 0 0
          0 0 0 0 0 0
          0 0 0 0 0 0
          0 0 0 0 0 0
          0 0 0 0 0 0
          0 0 0 0 0 0
          0 0 0 0 0 0
          0 0 0 0 0 0
          0 0 0 0 0 0
          0 0 0 0 0 0
          0 0 0 0 0 0
          0 0 0 0 0 0
          0 0 0 0 0 0
          0 0 0 0 0 0
          0 0 0 0 0 0
          0 0 0 0 0 0
          0 0 0 0 0 0
          0 0 0 0 0 0
          0 0 0 0 0 0
          0 0 0 0 0 0
          0 0 0 0 0 0
          0 0 0 0 0 0
          0 0 0 0 0 0
          0 0 0 0 0 0
          0 0 0 0 0 0
          0 0 0 0 0 0
          0 0 0 0 0 0
          0 0 0 0 0 0
          0 0 0 0 0 0
          0 0 0 0 0 0
          0 0 0 0 0 0
          0 0 0 0 0 0
          0 0 0 0 0 0
          0 0 0 0 0 0
          0 0 0 0 0 0
          0 0 0 0 0 0
          0 0 0 0 0 0
          0 0 0 0 0 0
          0 0 0 0 0 0
          0 0 0 0 0 0
          0 0 0 0 0 0
          0 0 0 0 0 0
          0 0 0 0 0 0
          0 0 0 0 0 0
          0 0 0 0 0 0
          0 0 0 0 0 0
          0 0 0 0 0 0
          0 0 0 0 0 0
          0 0 0 0 0 0
          0 0 0 0 0 0
          0 0 0 0 0 0
          0 0 0 0 0 0
          0 0 0 0 0 0
          0 0 0 0 0 0
          0 0 0 0 0 0
          0 0 0 0 0 0
          0 0 0 0 0 0
          0 0 0 0 0 0
          0 0 0 0 0 0
          0 0 0 0 0 0
          0 0 0 0 0 0
          0 0 0 0 0 0
          0 0 0 0 0 0
          0 0 0 0 0 0
          0 0 0 0 0 0
          0 0 0 0 0 0
          0 0 0 0 0 0
          0 0 0 0 0 0
          0 0 0 0 0 0
          0 0 0 0 0 0
          0 0 0 0 0 0
          0 0 0 0 0 0
          0 0 0 0 0 0
          0 0 0 0 0 0
          0 0 0 0 0 0
          0 0 0 0 0 0
          0 0 0 0 0 0
          0 0 0 0 0 0
          0 0 0 0 0 0
          0 0 0 0 0 0
          0 0 0 0 0 0
          0 0 0 0 0 0
          0 0 0 0 0 0
          0 0 0 0 0 0
          0 0 0 0 0 0
          0 0 0 0 0 0
          0 0 0 0 0 0
          0 0 0 0 0 0
          0 0 0 0 0 0
          0 0 0 0 0 0
          0 0 0 0 0 0
          0 0 0 0 0 0
          0 0 0 0 0 0
          0 0 0 0 0 0
          0 0 0 0 0 0
          0 0 0 0 0 0
          0 0 0 0 0 0
          0 0 0 0 0 0
          0 0 0 0 0 0
          0 0 0 0 0 0
          0 0 0 0 0 0
          0 0 0 0 0 0
          0 0 0 0 0 0
          0 0 0 0 0 0
          0 0 0 0 0 0
          0 0 0 0 0 0
          0 0 0 0 0 0
          0 0 0 0 0 0
          0 0 0 0 0 0
          0 0 0 0 0 0
          0 0 0 0 0 0
          0 0 0 0 0 0
          0 0 0 0 0 0
          0 0 0
        </DataArray>
        <DataArray type="Float64" Name="gradient_error" format="ascii" RangeMin="1.7674535507020661e-13" RangeMax="5.69742015598675e-10">
          3.39467800893414e-11 5.277486296688493e-12 1.1369064101681612e-10 2.5166786551151393e-11 1.7166579519904367e-11 7.1150271797219264e-12
          4.760363217008775e-12 4.418053228266635e-12 3.4988142310417827e-12 8.884971019019817e-12 4.317210577122194e-12 1.552419576288323e-10
          3.548262988873997e-11 2.5034009694653096e-11 8.729573994134812e-11 1.0408129324479505e-12 8.434112661368158e-13 6.4261314889548425e-12
          4.527772397997877e-12 2.252770024014857e-11 1.6663007764163164e-11 2.284751096151636e-11 6.179929578376684e-11 1.3786095563703846e-10
          1.813014677852374e-11 1.1882010750771693e-11 8.734700849579551e-12 5.972582630458769e-12 5.690541288239765e-12 1.7787599431121334e-11
          1.674274548200436e-11 8.348573757658076e-12 4.1426275799922066e-12 3.934039124180276e-12 5.1949224317400914e-12 4.946956946476704e-12
          1.800843715204774e-12 4.919103552060641e-12 4.7160097353461954e-12 3.4176920555522254e-12 6.26267707037374e-12 4.185503013676282e-12
          6.348058280790019e-12 6.0018849688443185e-12 5.012163552071088e-12 6.875446645658596e-12 7.396358995282612e-11 6.886660337825058e-11
          3.765422738683495e-11 3.503943163740998e-11 1.424163585232019e-10 1.819240775867902e-11 1.692007154813956e-11 8.340216935513317e-12
          7.755942190717009e-12 1.3637036576223593e-11 6.248217561735679e-12 7.644123848695412e-11 7.005841917518121e-11 3.250158588609528e-11
          5.4042824623945377e-11 7.092553631781489e-12 9.573887055129187e-12 3.389860258775594e-12 4.385416204804682e-12 3.53281269849677e-11
          2.130241692948283e-10 1.9514420243651253e-10 1.0125930587514076e-10 9.254767346784556e-11 1.4938361136811182e-10 7.043804788446975e-11
          2.2945938540795256e-10 2.183221380463861e-10 1.0725294250182501e-10 1.8088488904642375e-10 9.495448019979405e-11 1.2315196227761892e-10
          2.4517915905679217e-12 2.324510330827443e-12 3.6328036776543363e-12 3.3783282848242085e-12 9.879004040901013e-13 1.503086028847867e-12
          1.397835990599381e-12 1.9829176341338386e-12 2.721725267072425e-12 1.1246414932375693e-12 1.5541645897264196e-11 1.4231863632669617e-11
          5.884067888999219e-12 1.095390797784773e-11 8.581430240811453e-13 8.011694413865887e-13 1.5248957115736226e-12 1.908722621059587e-12
          9.419437220874123e-13 4.504731879320698e-11 4.1106694192700285e-11 1.8798823444940453e-11 1.713577458659667e-11 3.1164706334472285e-11
          1.2957473087461635e-11 5.2385344091866647e-11 4.9087582720711173e-11 2.0997110976696685e-11 3.939553032439236e-11 2.9269840257638282e-12
          6.953488642146652e-12 1.564165530070646e-12 3.439216499377395e-12 2.478445743391355e-12 5.235147709342241e-12 2.542727376810687e-12
          1.0627640122792233e-12 1.0315738381840453e-12 2.431359165014716e-12 2.3216691659247855e-12 9.437481127282071e-13 2.023565384930708e-12
          8.107224132561514e-13 1.609240154768141e-12 6.50439550090896e-13 1.1651498157930525e-12 6.089114935380872e-11 1.488933334734067e-11
          1.4685777242858488e-11 2.2728701316595193e-11 2.2412548352610917e-11 1.0677686767975476e-11 1.6629482445181843e-11 1.6397536165748172e-11
          4.6076187732961936e-11 4.539538915754364e-11 3.3442698851511745e-11 1.230719784615936e-10 1.2111740326600787e-10 9.244324938914867e-11
          9.09644695226763e-11 6.855132018637785e-11 6.744831394673662e-11 1.843967426855116e-10 1.8119431379192697e-10 1.3544654922523645e-10
          7.837271968620854e-12 7.732386579095359e-12 1.2057946206432006e-11 1.1889874511730648e-11 5.558248934511245e-12 8.653665242635532e-12
          8.5322776614725e-12 8.18039652073361e-12 2.471826358885941e-11 2.4349178801368434e-11 1.7520051266670727e-11 3.952192037916037e-12
          3.8932189337962726e-12 6.112148786577736e-12 6.023643950603563e-12 2.733408926166806e-12 4.268900683101049e-12 4.2053859028790835e-12
          3.755404715502352e-12 5.7762285645851926e-12 4.037365010361565e-12 1.2651473098637091e-11 1.2460125001033545e-11 8.750063302347732e-12
          1.1897856384915585e-11 3.5861903555880302e-12 5.3810039288094176e-12 2.6184094189211628e-12 3.746512390818993e-12 7.682239126778411e-12
          2.0370303988680115e-12 2.005750089705136e-12 2.928700530328575e-12 2.8865569735548844e-12 1.7560196198991356e-12 2.365276774705913e-12
          2.3329678723840057e-12 1.9387165898529052e-12 2.772835389428583e-12 2.239696973271735e-12 6.146246568647849e-12 6.053572682060299e-12
          4.819663321205224e-12 5.7746058643877e-12 1.9530047476630796e-12 2.5917174591763693e-12 1.6882819062346263e-12 2.125680685496071e-12
          2.003046096162609e-12 2.4821775562767653e-12 2.072626394510769e-12 5.284069866318699e-12 4.2164589686156906e-12 5.366935013160503e-12
          5.0198380003625475e-11 4.938680063859063e-11 3.6308874351296773e-11 3.571894146265322e-11 3.401235110894575e-11 1.0165826432346537e-10
          9.98661623186353e-11 7.265285447808811e-11 2.594816781932816e-11 2.5524034006049e-11 1.8333979908973116e-11 1.803246017874165e-11
          2.4297829982189768e-11 1.7157692933923706e-11 5.311368126081355e-11 5.216822077033334e-11 3.698119205490868e-11 4.943900590104555e-11
          1.583706458030382e-11 3.203585783086008e-11 7.728708387273482e-11 7.577074370467526e-11 7.14060863591299e-11 1.5192727919526852e-10
          6.470966636715987e-11 1.2791470154164342e-10 1.2841529282736676e-11 1.2629806777761736e-11 8.859273682116306e-12 8.71342754244713e-12
          1.2010993399644012e-11 8.283427009011278e-12 2.634636894368522e-11 2.5873674632359847e-11 1.7865036091042716e-11 2.450958411626278e-11
          3.890205173012971e-12 3.829940716510105e-12 5.975165358951616e-12 5.876590830433355e-12 2.5094924107963014e-12 3.97826545972066e-12
          3.912371190722497e-12 3.647417746279391e-12 5.5872718424636065e-12 3.721552023337484e-12 1.2399402292001992e-11 1.2175994942054536e-11
          8.189955895700595e-12 1.1530928009642616e-11 1.105634406453035e-11 7.606056935063049e-12 9.850008965558244e-12 6.751041902230842e-12
          2.2401620006081396e-11 1.5460937697304777e-11 1.9765190746003258e-11 3.354905042620969e-12 5.133666588376047e-12 2.2124506236974202e-12
          3.425249422840174e-12 2.9867633643844867e-12 4.562809039729349e-12 3.052229640608095e-12 1.0534642937683027e-11 7.0855828534403615e-12
          9.289779497205995e-12 5.431548580827156e-11 5.324565103537744e-11 3.765076005592468e-11 3.690694846857501e-11 5.016702198060677e-11
          3.4766942738514695e-11 1.097517446447219e-10 1.0739363591576436e-10 7.479074876660491e-11 1.006302137163289e-10 2.574483754014901e-11
          2.523509587911823e-11 1.736601258823918e-11 1.7021619765872884e-11 2.3768731378018157e-11 1.6031020767194996e-11 5.246152559426383e-11
          5.1324551977720563e-11 3.471151751218014e-11 4.806546491602573e-11 4.544547438403772e-11 3.1485906959716325e-11 3.960792099155184e-11
          2.743120463340364e-11 9.032595558689131e-11 6.285318036608656e-11 7.771485906367571e-11 2.152112473433173e-11 1.4512953452929102e-11
          1.874451398671721e-11 1.2638095596732055e-11 4.310583306013315e-11 2.9139789493229785e-11 3.704551413906936e-11 5.661277404918172e-12
          8.476774094928832e-12 3.8343435960743305e-12 5.799984403074058e-12 4.719752135774865e-12 7.062216968584669e-12 4.8358294239552936e-12
          1.6847237624510903e-11 1.161938353046374e-11 1.3885972943224687e-11 2.5800437049522925e-12 3.9284145574896475e-12 1.7295967368041749e-12
          2.6359640255817223e-12 2.1704353272630376e-12 3.282746935235613e-12 2.2082178885818675e-12 7.91388946643559e-12 5.322724366090451e-12
          6.52010862501616e-12 3.32429167791031e-11 2.3012624480964732e-11 6.415400682781419e-11 4.457918448938544e-11 5.0882443061608804e-11
          1.572001424668194e-11 1.0596523068070926e-11 3.0541063880610294e-11 2.0630024167132578e-11 2.418821795838828e-11 2.840557703786542e-10
          2.777400833293226e-10 2.596177017650243e-10 2.31998157802982e-10 2.0242775320732877e-10 1.9787688528100824e-10 1.4190773356927087e-10
          1.386895091388172e-10 1.84830134286856e-10 1.2946948941580408e-10 3.011002129862241e-10 2.947112525541912e-10 2.084232173304865e-10
          2.762420838686672e-10 9.789753857049953e-11 9.566200281654806e-11 6.647890502704901e-11 6.495261277270371e-11 8.926076567046518e-11
          6.05841893183951e-11 1.4811691416644545e-10 1.4487102277837044e-10 9.90134958150011e-11 1.3551545936556995e-10 1.649787845238234e-10
          1.1545870335047353e-10 1.4075267242529028e-10 9.839021402583483e-11 2.4772055696069303e-10 1.7469857805319647e-10 2.1226847021793548e-10
          7.954337467836752e-11 5.3958300790837154e-11 6.772204015569492e-11 4.590696155499154e-11 1.2114602158491817e-10 8.26370012199811e-11
          1.0341104536666346e-10 3.3021753005460755e-10 3.251517026776746e-10 2.3690220129950706e-10 2.3305968119012476e-10 3.0980440774447643e-10
          2.2151206165864071e-10 3.167358210811202e-10 3.1351118383229735e-10 2.2680659138428665e-10 3.0291909388087765e-10 1.6682166408704667e-10
          1.6398775182246596e-10 1.1537915545692903e-10 1.1334167191688991e-10 1.5552727741908253e-10 1.0729148636097006e-10 1.6303252183485812e-10
          1.6094980258433008e-10 1.1211712043581806e-10 1.54416970291303e-10 2.842298958730287e-10 2.0251047200355263e-10 2.4966131795165914e-10
          1.7716768220105696e-10 2.8318702302156116e-10 2.0305373754389066e-10 2.536770526013448e-10 1.4175031598129057e-10 9.752408325120728e-11
          1.2358007275923932e-10 8.476310552105248e-11 1.4296906375664207e-10 9.890397607862747e-11 1.267394305124995e-10 1.1484015502955147e-10
          8.017097363901621e-11 8.969864047798857e-11 6.253276994564402e-11 1.7363625512165084e-10 1.2191641793969527e-10 1.355509335035413e-10
          5.512485748915217e-11 3.733832908573192e-11 4.295088812851278e-11 8.423672487016607e-11 5.7288696597371666e-11 6.548303504568954e-11
          2.089799629650443e-10 1.4770025043998703e-10 1.6624699473696964e-10 1.1705316104524578e-10 2.161433411843854e-10 1.5330335041092082e-10
          1.7446092276739416e-10 1.0266466528755834e-10 7.020216929370328e-11 8.109554978960998e-11 1.0691250302238799e-10 7.333348394818214e-11
          8.552553638880026e-11 1.6779650035363824e-12 1.6515439711598939e-12 2.6309381092842774e-12 2.5874469774922323e-12 1.0865463740486635e-12
          1.7257763627054894e-12 1.6974035539600941e-12 1.5760486609421038e-12 2.4619710672462396e-12 1.615317536896518e-12 5.539097865785905e-12
          5.439318614562607e-12 3.567354844912841e-12 5.151131914268094e-12 7.132223672448704e-13 7.023014955941733e-13 1.116594096376453e-12
          1.098299103548413e-12 4.550699778207065e-13 7.144900380356343e-13 7.028363269555383e-13 6.703447070886929e-13 1.0451411498010287e-12
          6.688317454194392e-13 2.3527481874698093e-12 2.3103610839944333e-12 1.4760181170867124e-12 2.1879233651038274e-12 1.459275939626482e-12
          2.267406651839291e-12 9.602988869691084e-13 1.487661117117226e-12 1.3107719257195667e-12 2.021868229231007e-12 1.3263964485867392e-12
          4.706070263110978e-12 3.0863407652224436e-12 4.150230170550859e-12 6.199061928536308e-13 9.622076019986748e-13 4.011007750635045e-13
          6.156061122195683e-13 5.577993490461587e-13 8.578824221431695e-13 5.493025211478912e-13 1.9987099258492936e-12 1.2769268216057274e-12
          1.7616342472906419e-12 1.15559859014645e-11 1.1326575671055883e-11 7.586275808520172e-12 7.435580070629164e-12 1.0666738306282533e-11
          7.002141941313712e-12 2.3653381359683344e-11 2.3138327133847996e-11 1.5202781327591685e-11 2.1662449017120126e-11 4.9135305080822895e-12
          4.8159021591984065e-12 3.1411672328994917e-12 3.0787587218432483e-12 4.53507921287248e-12 2.8992261737913827e-12 1.006578078639022e-11
          9.846148539597149e-12 6.285887467504442e-12 9.216883163930972e-12 9.65569801580666e-12 6.338006659338991e-12 8.407366942654116e-12
          5.518380422151586e-12 1.9417948926421297e-11 1.2755600201763177e-11 1.6677824810858337e-11 4.1046792419541715e-12 2.623934504670371e-12
          3.5734443873790716e-12 2.283593188810741e-12 8.26018797519621e-12 5.273139818032749e-12 7.092893199587095e-12 3.027316974134767e-13
          2.9800862805816576e-13 4.464012411856556e-13 4.3909690835061905e-13 2.4355010972716247e-13 3.4057821337309825e-13 3.349659261154351e-13
          2.842246483210767e-13 4.1802807825381585e-13 3.1910882936226254e-13 9.461873784363019e-13 9.29149294454841e-13 6.734331831572564e-13
          8.800453231648802e-13 2.6241804101078326e-13 3.850920135351497e-13 2.1451359330751312e-13 2.944229488761381e-13 2.3622871093959007e-13
          3.4370206024557167e-13 2.625299583498426e-13 8.041728072832306e-13 5.820350551520671e-13 7.080553880968329e-13 1.986496874629528e-12
          1.9470388835851653e-12 1.2338977711961073e-12 1.2093809597968767e-12 1.833483262497545e-12 1.1387704323856219e-12 4.042266657206245e-12
          3.954081773495605e-12 3.701388992949354e-12 1.6593573455709567e-12 1.0305444914651348e-12 1.4435202150068759e-12 3.3170981501128094e-12
          2.848106608353889e-12 1.143183146208513e-12 1.7469825251750987e-12 7.525847482206963e-13 1.1457956113358801e-12 9.707165240054189e-13
          1.4641694124151163e-12 9.607883141643823e-13 3.535817489480081e-12 2.31876114441016e-12 2.912423498863924e-12 4.910457468249597e-13
          7.405627370387737e-13 3.25178674969841e-13 4.711401567055077e-13 4.2400662172055173e-13 6.185292166558192e-13 4.294753370493353e-13
          1.5011732564971822e-12 9.528820509559484e-13 1.2348935799330671e-12 7.04835937306177e-12 4.626758622536928e-12 1.3740045005783409e-11
          9.02296795215984e-12 2.9987622190755423e-12 1.9167434037339156e-12 5.8417740588460964e-12 3.728559699471054e-12 2.1630444800871218e-13
          2.9605981455664484e-13 1.7674535507020661e-13 2.3084377628624516e-13 2.0982381822051216e-13 2.7063595470039656e-13 2.1660951375832826e-13
          5.954833090898303e-13 5.521114046594614e-13 1.2081703367327874e-12 2.345363568652608e-12 4.444730854847028e-11 4.3422675662653927e-11
          2.9264137600545437e-11 2.858746201171612e-11 4.0491062925110874e-11 2.6651919104568298e-11 6.808879153301552e-11 6.656368228798096e-11
          4.403013008186808e-11 6.217698559865228e-11 1.897606554741915e-11 1.853632000363784e-11 1.2119492487903752e-11 1.1838232793594942e-11
          1.7278739321188267e-11 1.103400158173984e-11 2.9330975817676505e-11 2.866424919197541e-11 1.8369149707343865e-11 2.6749331932065492e-11
          3.6047341392683004e-11 2.371949955816105e-11 3.065230466366456e-11 2.016168028152011e-11 5.54648825140867e-11 3.664000601780587e-11
          4.722169483170771e-11 1.5374184188814753e-11 9.816360677394515e-12 1.3064580798794941e-11 8.340288667241942e-12 2.3827108785318227e-11
          1.5255551994535886e-11 2.0250669066281827e-11 7.841538435683729e-11 7.698398193212426e-11 5.239006507398056e-11 5.140639642057991e-11
          7.275290779048294e-11 4.850992697176583e-11 7.785872731160677e-11 7.670716044270959e-11 5.1566605230976726e-11 7.318817845722207e-11
          3.4422034809249024e-11 3.3759842323049037e-11 2.2247780739859458e-11 2.1810647489777284e-11 3.181635053543956e-11 2.053130389204829e-11
          3.4644217971935896e-11 3.407690805213924e-11 2.2143770102651278e-11 3.237199880931339e-11 6.5972880836754e-11 4.3897635394147145e-11
          5.718731958293884e-11 3.796287389489742e-11 6.724957444730151e-11 4.496141260097674e-11 5.912744728502365e-11 2.8738272010327592e-11
          1.851459925192219e-11 2.4801719019955155e-11 1.5949206525821142e-11 2.956676652060929e-11 1.912866304900106e-11 2.5827060881179388e-11
          7.624167920401381e-12 7.447107197631499e-12 6.9408476222245446e-12 1.186150881624973e-11 1.1589172961357871e-11 1.0807804085824061e-11
          6.1744614117333776e-12 5.2456810159279016e-12 9.617683987600282e-12 8.164736273783368e-12 1.4147865061056225e-11 1.386467905266545e-11
          1.303791858244528e-11 1.4407204793347546e-11 1.4153027397790674e-11 1.3397853638644704e-11 1.1740007681402538e-11 1.00967796842981e-11
          1.2177508973480616e-11 1.0581340699549127e-11 2.4916360101110133e-11 1.6381896548008737e-11 3.835826139911348e-11 2.5289503388266535e-11
          1.061232216528063e-11 6.773713335879944e-12 1.641961101573108e-11 1.049936737270342e-11 4.7238351662698405e-11 3.128617985647608e-11
          4.948867638912835e-11 3.286621155882147e-11 2.0398400749635534e-11 1.3094168881425478e-11 2.1483933333087278e-11 1.3824734634259007e-11
          4.260183240183157e-12 6.612542083621923e-12 8.276301203588339e-12 8.758346819384423e-12 1.457529126430497e-10 2.2775325402035828e-11
          7.311372268002697e-11 5.822100156123369e-11 1.5123556098180125e-11 5.1205464271224105e-11 2.3701058986699818e-11 1.9604657324338913e-11
          1.7111927112805154e-11 1.0868490494067659e-11 2.429801572658305e-12 2.2648455388820264e-12 1.4941751602081574e-12 1.3739270158400966e-12
          1.8618825148076134e-12 1.2480211872452537e-12 6.518759778381651e-11 3.336553996567806e-11 6.23728878850291e-11 4.273776756807115e-11
          2.1812995424417955e-11 4.0804098645287536e-11 1.7370975839510313e-11 1.1358017808068415e-11 1.52108202410215e-11 6.84143456079521e-12
          9.921936797065816e-12 7.120833155793023e-13 7.227770605965819e-13 7.003429166615545e-13 6.742181928777608e-13 6.268927041137193e-13
          5.885393263141482e-13 5.897594608539614e-13 5.715784664391488e-13 4.862783836074807e-13 6.538181034947493e-13 5.8677746028676005e-12
          1.0066316203555185e-11 1.0235907298019243e-11 8.553565494132574e-12 1.0728987352582073e-11 5.368552598043166e-13 1.089047890446069e-12
          1.0391985955369196e-12 9.039154702928456e-13 4.3401242881771067e-13 4.152621926514186e-13 3.6289034999965354e-13 4.156758731623338e-13
          7.069436448878528e-13 5.886184175470051e-13 8.219933938373311e-13 2.9095995173716777e-13 6.231890932208581e-13 4.0957788870075016e-11
          3.07313196353088e-11 3.0306131235991474e-11 4.039454311337414e-11 8.190471366392256e-11 8.07088396151991e-11 2.9080046113433796e-11
          3.876817292750379e-11 5.824973063900839e-11 7.722987512791184e-11 2.0012389126557247e-11 1.4112937416559244e-11 2.150143598258073e-11
          1.57281327989622e-11 4.341551705349723e-11 3.197701535621457e-11 1.6171528641115058e-10 1.59169741845618e-10 1.154469293949569e-10
          1.517818682601698e-10 3.1599329208914905e-10 2.4316046492109795e-10 2.389823724516751e-10 3.1063592509305996e-10 2.2689090671653174e-10
          2.95120507627747e-10 8.667571384687512e-11 6.425031645018766e-11 1.7193165953651323e-10 1.2846640310484824e-10 4.736144221957884e-10
          3.638108913874951e-10 3.5697186927331337e-10 4.648591665116366e-10 2.749973966137535e-10 2.697591126686697e-10 3.372389163367325e-10
          4.395706007596834e-10 2.5465684100584564e-10 7.430225262454115e-12 1.1402072062272206e-11 2.3276653743445807e-11 5.01710949060085e-12
          6.956159362047285e-12 7.628519454220909e-12 1.063683000150397e-11 1.552648152212754e-11 2.159816672018329e-11 3.381998036975402e-12
          4.864756989879481e-12 6.933056919492832e-12 3.615330004735296e-12 1.1020069522091468e-11 9.89069317984381e-12 1.3963858879831767e-11
          4.703489339974257e-11 9.468718203840804e-11 3.1361804488830063e-11 4.3374490962847036e-11 6.301377495601042e-11 8.667581893040115e-11
          2.2422032972847734e-11 1.4176022464474639e-11 2.005698299579464e-11 4.5219673656904235e-11 2.8276334231900768e-11 3.9939177748539824e-11
          2.046670439568903e-10 2.0072789917130546e-10 1.5006799819045415e-10 1.4715653492536454e-10 1.8937828806475293e-10 1.387717569234596e-10