<?xml version="1.0"?>
<VTKFile type="UnstructuredGrid" version="0.1" byte_order="LittleEndian" header_type="UInt32" compressor="vtkZLibDataCompressor">
  <UnstructuredGrid>
    <Piece NumberOfPoints="513" NumberOfCells="226">
      <PointData>
        <DataArray type="Int32" Name="libmesh_node_id" format="ascii" RangeMin="28" RangeMax="1717">
          28 29 30 31 32 33
          34 35 36 37 38 39
          40 41 42 43 44 45
          46 47 48 49 50 51
          66 67 68 69 70 71
          72 73 74 75 76 77
          92 93 94 95 96 97
          98 99 100 101 102 103
          111 112 113 114 115 116
          131 132 133 134 135 136
          137 138 139 140 141 142
          150 151 152 153 154 155
          172 173 174 175 176 177
          178 179 180 181 190 191
          192 193 194 211 212 213
          214 215 216 217 218 219
          220 229 230 231 232 233
          250 251 252 253 254 255
          256 257 258 259 268 269
          270 271 272 289 290 291
          292 293 294 295 296 297
          298 307 308 309 310 311
          329 330 331 332 333 334
          335 336 337 346 347 348
          349 350 370 371 372 373
          374 375 376 385 386 387
          388 389 397 400 401 403
          409 410 412 413 414 415
          416 417 418 421 422 423
          424 425 426 427 428 429
          430 431 432 433 434 435
          436 471 473 474 476 477
          478 479 483 484 485 486
          487 488 489 490 491 492
          493 495 496 497 512 514
          516 517 518 519 521 522
          524 525 526 527 528 529
          530 531 532 533 534 535
          566 567 570 572 574 575
          576 577 578 579 580 581
          582 583 697 700 701 702
          709 710 713 717 718 719
          720 721 722 723 724 725
          726 727 728 730 731 732
          733 734 735 736 739 740
          748 749 750 754 755 756
          757 758 759 760 761 762
          763 764 765 766 767 768
          769 770 771 772 773 774
          775 776 777 778 779 780
          781 782 783 784 785 786
          787 788 789 790 791 792
          793 794 795 796 797 798
          817 818 819 822 823 824
          825 826 827 828 829 830
          831 832 833 834 835 836
          837 838 839 840 841 842
          843 844 845 846 847 848
          849 850 851 852 853 854
          855 856 857 858 859 860
          861 862 863 864 865 866
          947 952 953 954 955 956
          957 960 961 964 965 966
          967 968 969 970 971 972
          973 974 975 976 977 978
          979 980 981 982 983 984
          985 986 987 988 989 990
          991 992 993 994 995 996
          997 998 1353 1414 1423 1424
          1425 1431 1432 1435 1437 1469
          1485 1486 1489 1491 1507 1509
          1510 1511 1513 1515 1521 1522
          1523 1524 1525 1526 1529 1541
          1542 1545 1548 1549 1550 1554
          1555 1557 1558 1559 1560 1561
          1563 1564 1572 1573 1574 1575
          1576 1577 1578 1579 1580 1581
          1582 1583 1584 1585 1586 1587
          1588 1589 1590 1591 1592 1593
          1594 1595 1596 1597 1598 1599
          1600 1601 1602 1603 1604 1605
          1606 1607 1608 1609 1610 1611
          1612 1613 1614 1615 1616 1617
          1618 1619 1620 1621 1622 1708
          1709 1710 1711 1712 1713 1714
          1715 1716 1717
        </DataArray>
        <DataArray type="Float64" Name="bounds" format="ascii" RangeMin="0" RangeMax="0">
          0 0 0 0 0 0
          0 0 0 0 0 0
          0 0 0 0 0 0
          0 0 0 0 0 0
          0 0 0 0 0 0
          0 0 0 0 0 0
          0 0 0 0 0 0
          0 0 0 0 0 0
          0 0 0 0 0 0
          0 0 0 0 0 0
          0 0 0 0 0 0
          0 0 0 0 0 0
          0 0 0 0 0 0
          0 0 0 0 0 0
          0 0 0 0 0 0
          0 0 0 0 0 0
          0 0 0 0 0 0
          0 0 0 0 0 0
          0 0 0 0 0 0
          0 0 0 0 0 0
          0 0 0 0 0 0
          0 0 0 0 0 0
          0 0 0 0 0 0
          0 0 0 0 0 0
          0 0 0 0 0 0
          0 0 0 0 0 0
          0 0 0 0 0 0
          0 0 0 0 0 0
          0 0 0 0 0 0
          0 0 0 0 0 0
          0 0 0 0 0 0
          0 0 0 0 0 0
          0 0 0 0 0 0
          0 0 0 0 0 0
          0 0 0 0 0 0
          0 0 0 0 0 0
          0 0 0 0 0 0
          0 0 0 0 0 0
          0 0 0 0 0 0
          0 0 0 0 0 0
          0 0 0 0 0 0
          0 0 0 0 0 0
          0 0 0 0 0 0
          0 0 0 0 0 0
          0 0 0 0 0 0
          0 0 0 0 0 0
          0 0 0 0 0 0
          0 0 0 0 0 0
          0 0 0 0 0 0
          0 0 0 0 0 0
          0 0 0 0 0 0
          0 0 0 0 0 0
          0 0 0 0 0 0
          0 0 0 0 0 0
          0 0 0 0 0 0
          0 0 0 0 0 0
          0 0 0 0 0 0
          0 0 0 0 0 0
          0 0 0 0 0 0
          0 0 0 0 0 0
          0 0 0 0 0 0
          0 0 0 0 0 0
          0 0 0 0 0 0
          0 0 0 0 0 0
          0 0 0 0 0 0
          0 0 0 0 0 0
          0 0 0 0 0 0
          0 0 0 0 0 0
          0 0 0 0 0 0
          0 0 0 0 0 0
          0 0 0 0 0 0
          0 0 0 0 0 0
          0 0 0 0 0 0
          0 0 0 0 0 0
          0 0 0 0 0 0
          0 0 0 0 0 0
          0 0 0 0 0 0
          0 0 0 0 0 0
          0 0 0 0 0 0
          0 0 0 0 0 0
          0 0 0 0 0 0
          0 0 0 0 0 0
          0 0 0 0 0 0
          0 0 0 0 0 0
          0 0 0 0 0 0
          0 0 0
        </DataArray>
        <DataArray type="Float64" Name="gradient_error" format="ascii" RangeMin="2.441909340943851e-12" RangeMax="6.882220629781596e-8">
          2.818645752408141e-10 2.8185453457482994e-10 2.8184874272910374e-10 2.818718910494517e-10 2.818407125344437e-10 2.8184648736142924e-10
          2.818951004441436e-10 2.818827020837637e-10 2.818610398331051e-10 2.818627172016412e-10 2.8184999696217487e-10 2.818456181711772e-10
          2.818618253719313e-10 2.818616527459279e-10 2.8184735093523945e-10 2.818474648622763e-10 2.818575550848807e-10 2.818575598482818e-10
          2.81856981935526e-10 2.818570316025794e-10 2.8185748558007406e-10 2.818574162174727e-10 2.8185757543830517e-10 2.818578307699758e-10
          2.818444939088458e-10 2.8189503936979964e-10 2.8185226218841483e-10 2.818703037233838e-10 2.8186439457017724e-10 2.818412393801795e-10
          2.818614801199245e-10 2.818475787893131e-10 2.818575646116829e-10 2.818570812696328e-10 2.818573468548713e-10 2.818580861016464e-10
          2.818727032448478e-10 2.8177262693983155e-10 2.8169884251795275e-10 2.817487152253159e-10 2.8187724789803947e-10 2.818993213327317e-10
          2.8189398928060214e-10 2.818959226133463e-10 2.8185526972031516e-10 2.818556040823552e-10 2.818508791757344e-10 2.8185008855234656e-10
          2.816725506348152e-10 2.817985879326789e-10 2.819213947674238e-10 2.818978559460905e-10 2.8185593844439536e-10 2.8184929792895884e-10
          2.83351455314095e-10 2.8365170453721147e-10 2.828638479058159e-10 2.8266551358046475e-10 2.818160040663275e-10 2.8171116597358426e-10
          2.8168422818904245e-10 2.8167206324638544e-10 2.8183806379226377e-10 2.81841533472385e-10 2.818624039951175e-10 2.8187242825151074e-10
          2.8395195376032785e-10 2.824671792551136e-10 2.8160632788084114e-10 2.8165989830372844e-10 2.818450031525063e-10 2.81882452507904e-10
          2.8210737367007934e-10 2.83308495846926e-10 2.8177386029179823e-10 2.824298855289364e-10 2.82446533845234e-10 2.825935288227881e-10
          2.8190672999411246e-10 2.819425130818666e-10 2.817987390393186e-10 2.817960262340492e-10 2.8450961802377245e-10 2.830859107660745e-10
          2.827405238003422e-10 2.819782961696206e-10 2.8179331342877983e-10 3.9114880150087566e-10 3.9087895179440706e-10 2.9624213199049804e-10
          2.9498697240609415e-10 2.8001555327942677e-10 2.7960614246907224e-10 2.8089050021915525e-10 2.812070803156531e-10 2.811540244717653e-10
          2.8169920238808234e-10 3.906091020879385e-10 2.9373181282169027e-10 2.791967316587177e-10 2.8152366041215095e-10 2.822443803043994e-10
          1.1996715386992052e-9 1.2321634365904823e-9 4.2704428250587754e-10 4.497464907507389e-10 2.755319187964468e-10 2.8491563098424624e-10
          2.831712220431781e-10 2.8652815348662886e-10 2.8478234874711967e-10 2.867126189824934e-10 1.2646553344817594e-9 4.724486989956001e-10
          2.942993431720457e-10 2.898850849300795e-10 2.886428892178671e-10 1.4033966173667418e-9 3.993502006744593e-9 3.2675470639773237e-10
          1.0454774215529837e-9 2.2508529027824136e-10 3.202420736854073e-10 2.7962178425842716e-10 2.79148695572499e-10 2.657987634160267e-10
          2.6701852929065177e-10 6.329097603848603e-9 1.6987189255555376e-9 4.0990161866988027e-10 2.7867560688657076e-10 2.6823829516527684e-10
          2.537663269198211e-8 5.535754658210412e-10 2.0541863223139927e-9 1.2649619550572932e-10 2.2490352180430476e-10 1.572513727291747e-10
          1.6863959865856684e-10 1.5854398860693964e-10 1.5868712741355184e-10 5.994736035691914e-9 1.4784362501160168e-9 2.9449474986283055e-10
          1.7870508174946626e-10 1.588302662201641e-10 9.353622171663209e-10 1.212204988314108e-11 8.849458529309617e-11 4.145799364644958e-11
          7.235623599187969e-11 7.446386207586933e-11 7.505315718191354e-11 6.021894371079564e-10 1.5261297148387534e-10 8.085068546176012e-11
          9.890366375708475e-11 7.564245228795776e-11 2.64402760418237e-8 6.882220629781596e-8 6.518690418550953e-8 2.7583056883304927e-8
          2.182712300261565e-9 7.46790939842994e-9 1.2596532443887106e-8 1.3934147854961346e-9 6.293802753472261e-10 1.4709360653610408e-9
          8.972693117228953e-9 8.156152391016523e-9 1.6157214431042135e-9 9.186848700807997e-10 3.7244021362739005e-9 1.493227192197892e-10
          2.464789065514816e-10 6.091967689517745e-11 1.8083285693554787e-10 7.653744269402477e-11 3.701677900483186e-11 5.3299270559128914e-11
          3.1688688845722966e-10 2.7994970815440206e-10 7.949370715996303e-11 7.825358375731672e-12 7.734985040476954e-11 4.299843747199989e-11
          2.0032178586307237e-10 2.5070894993490727e-9 8.33042193561736e-10 5.695014010579136e-10 1.7946248234776006e-10 2.5343519163952895e-9
          3.6205531136561163e-9 7.580507057147005e-10 5.0686151750016e-9 1.2707012922513064e-10 1.6355824841872596e-10 2.3275530072757825e-11
          8.937632576079395e-11 6.268704620348502e-11 2.3771965019755467e-11 3.9843259891747955e-11 2.0255507384650468e-10 1.9684352616719558e-10
          7.207275592352186e-11 2.7280267428723592e-11 2.96010749267843e-11 1.7773567492359745e-10 3.765959558717208e-9 9.317907023175714e-9
          1.880111417702183e-9 3.8591582452408e-9 2.602846081185677e-9 2.1370797615856788e-9 9.836762368632708e-10 1.4869854487634222e-8
          5.838205072779417e-9 1.6713134419856803e-9 1.1725258119955325e-9 1.6172405272538319e-9 5.729531261622479e-10 6.121288938602e-10
          5.503976588224634e-10 3.933950667795132e-10 1.772326320338932e-10 2.0619552425121315e-9 6.51304661558152e-10 2.3639247473656294e-10
          8.53285626089243e-9 1.2271804769885087e-8 3.3556635367825652e-9 1.6010753278877744e-8 2.7021393055352905e-9 3.7871778748514825e-9
          7.385795772660586e-10 9.45949565438134e-10 1.3335022568815543e-9 1.5818887893480899e-9 6.162936985912418e-10 4.872216444167674e-9
          1.1533195536102095e-9 1.8302753218146255e-9 8.53850211131949e-11 2.8356236926475267e-10 1.556340842761435e-10 8.16144021243783e-11
          1.1260482989900668e-9 1.1571027762248054e-9 1.9047917325755836e-9 4.022577405765527e-10 3.910820676217847e-10 2.0952503696770087e-10
          1.733739502337936e-10 4.307046540640798e-10 6.070445278770727e-10 2.20834400134928e-10 4.100331585203747e-10 1.401091658741857e-10
          6.954362561758847e-10 3.233365494879815e-11 3.557970051856965e-11 1.0156819330724528e-11 1.9255118117155412e-11 4.035293937006053e-12
          8.285520994732763e-12 4.8146134192450466e-11 2.8757337900904775e-11 1.928200133089736e-11 4.0448646931885e-12 1.2292901730426283e-11
          1.164322304400077e-9 4.192730321126004e-9 3.3451011329799465e-9 2.497471944833889e-9 2.6094354588918825e-10 4.3406427400044437e-10
          1.267237539281765e-9 1.1181721724721821e-9 1.7555506876162746e-10 3.8333591221212676e-10 4.17100769911068e-10 6.071850021117005e-10
          9.691068056625993e-10 4.5086562761000916e-10 5.6942416693682985e-11 7.570601775924993e-11 1.3829032936386538e-10 1.509382104497119e-10
          5.95535406568973e-11 6.756475325319254e-11 8.09713449867999e-11 9.446961882481685e-11 1.635860915355584e-10 9.437793672040728e-11
          1.4559295384065865e-11 1.6399957075898575e-11 1.4538706118365088e-11 1.7149812092730926e-11 1.1805790896510696e-11 8.806215218277552e-12
          1.23043653468828e-11 1.8240618767731285e-11 1.9760918067096763e-11 1.580251547548805e-11 1.4518116852664317e-11 1.7899667109563277e-11
          1.2802939797254907e-11 2.128121736646224e-11 1.6823507837216698e-10 1.748220059434494e-10 7.611210838996276e-11 7.156823918093474e-11
          6.634176522901293e-11 6.441596352332964e-11 4.220058107481166e-11 1.8140893351473182e-10 6.702436997190674e-11 6.249016181764637e-11
          2.2832868711879763e-9 1.0005093602835813e-8 8.144972149050474e-9 6.284850695265139e-9 1.1102113845943973e-9 1.0643377887129479e-9
          3.0884541760210636e-9 2.551880316572704e-9 4.249715090643548e-10 7.688753324246027e-10 6.808028771115783e-10 1.0184641928314985e-9
          2.0153064571243443e-9 5.92730421798554e-10 1.4861889579978117e-10 1.3515601829060857e-10 1.7584489638566564e-10 1.6155729682331362e-10
          6.805346142489878e-11 6.532269824649237e-11 7.822978654636703e-11 1.2169314078143595e-10 1.472696972609616e-10 9.11368748462417e-11
          1.4723919512967765e-11 1.56499534991939e-11 1.1552057780060521e-11 1.467616341506869e-11 1.2444176720300182e-11 7.2429339821314104e-12
          1.0664191104654133e-11 1.6575987485420037e-11 1.7800269050076864e-11 1.4085448227176854e-11 8.380196047153277e-12 1.3702373330943484e-11
          8.88420548900808e-12 1.902455061473369e-11 1.810696969097547e-10 2.171829843679295e-10 1.0220157295205926e-10 9.74018558305284e-11
          1.542924698052688e-10 1.8730467148573649e-10 8.993635145050605e-11 2.5329627182610426e-10 9.260213870899752e-11 2.2031687316620418e-10
          9.83109489024498e-10 1.5434406378440915e-10 1.1500665106011761e-10 1.3921660281356558e-10 3.3609334651463216e-10 3.4642805073419756e-10
          1.7245962032718375e-10 6.47753906327599e-10 9.908357092058501e-10 7.154492629128386e-10 5.563891636354881e-11 5.322892297718671e-11
          5.601135023339326e-11 5.4830884324151486e-11 4.3385109689946624e-11 3.399729325836998e-11 3.818632158845378e-11 5.0818929590824617e-11
          5.365041841490972e-11 4.237534991853758e-11 5.283230601725393e-12 5.658665133115374e-12 4.6316196838497976e-12 5.111941019535501e-12
          4.8156479236637285e-12 3.4438809456688963e-12 4.11093403299761e-12 6.034099664505356e-12 5.592262355221205e-12 4.777987120326324e-12
          3.980008765974203e-12 4.565216905955629e-12 3.4062201423314914e-12 5.1504250459370555e-12 6.666356069823492e-11 5.87729471088745e-11
          4.9393214722678024e-11 4.58482609960167e-11 6.702574350592856e-11 7.505045265263413e-11 5.837405273308511e-11 5.056619924389925e-11
          4.230330726935537e-11 8.307516179933971e-11 5.101346442801128e-10 2.924232452022286e-11 2.499029605902935e-10 2.4046789038568103e-10
          1.3843758134004535e-10 3.404522781521469e-11 3.324240717053624e-11 3.6804738599826906e-11 2.4338257987800123e-11 2.722025218680971e-11
          3.3277217475158763e-10 4.31935692339468e-10 2.944361854759183e-10 4.0984448806528627e-10 2.320367802338601e-10 1.5902857549286539e-10
          1.3191532746007177e-10 2.042488607663922e-10 1.1580769066982523e-10 1.0726460942093134e-10 7.862082953691592e-12 5.940825682170394e-12
          7.339274274668993e-12 1.652114881217127e-11 1.6591534987899005e-11 9.524406281028145e-12 5.193329354844253e-12 2.7323354842077067e-12
          3.47147399694299e-12 2.4760052071133523e-12 4.00700456928648e-12 3.6089298384601684e-12 2.513172550714444e-12 3.010465902920864e-12
          1.6203536878206062e-11 7.687382596095406e-12 5.900344799158626e-12 1.8042008386647595e-11 1.5819093987588714e-11 9.060326470026117e-12
          6.2624455967254554e-12 1.2537371505669219e-11 2.6578307646304597e-10 3.4703201645403253e-10 1.9163577634747357e-10 2.030406029706537e-10
          2.4372221520717814e-10 2.932393618785385e-10 2.1480581299052277e-10 1.7232413510037934e-10 2.1580357482500223e-10 1.2764390818806343e-10
          1.4604447489551403e-10 1.3542437974323885e-10 1.5675359124978346e-10 1.1850511682587934e-10 6.650721345856492e-11 7.247891978240237e-11
          3.335229534383049e-11 3.45412862897233e-11 4.885752296077821e-11 5.0394388729880365e-11 2.833351004574503e-11 7.845062610623984e-11
          3.5730277235616117e-11 5.193125449898252e-11 3.639933600981788e-12 3.4228799030742377e-12 3.755558290749743e-12 3.5774752449906115e-12
          2.885066815960047e-12 2.5448677554813626e-12 2.666540948422546e-12 3.2058262051666878e-12 3.39939219923148e-12 2.7882141413637294e-12
          1.306917741201365e-11 1.6389470557636196e-11 9.924305104109585e-12 1.0923436367147575e-11 1.1357796066626679e-11 1.368653969526723e-11
          1.0728283420753841e-11 3.245309975500826e-12 3.527319241571783e-12 2.5891211854395178e-12 2.5155152631916844e-12 2.876536065150095e-12
          3.1048536718545647e-12 2.5778067285142514e-12 3.80932850764274e-12 2.441909340943851e-12 3.3331712785590334e-12 1.5891351071200412e-11
          1.6138357594789306e-11 1.3224133257817057e-11 1.2102736550823795e-11 1.572897945090089e-11 1.5773914405059407e-11 1.343039309996094e-11
          1.63853641183782e-11 1.0981339843830533e-11 1.581884935921792e-11
        </DataArray>
        <DataArray type="Float64" Name="gradient_matprop_error" format="ascii" RangeMin="0" RangeMax="0">
          0 0 0 0 0 0
          0 0 0 0 0 0
          0 0 0 0 0 0
          0 0 0 0 0 0
          0 0 0 0 0 0
          0 0 0 0 0 0
          0 0 0 0 0 0
          0 0 0 0 0 0
          0 0 0 0 0 0
          0 0 0 0 0 0
          0 0 0 0 0 0
          0 0 0 0 0 0
          0 0 0 0 0 0
          0 0 0 0 0 0
          0 0 0 0 0 0
          0 0 0 0 0 0
          0 0 0 0 0 0
          0 0 0 0 0 0
          0 0 0 0 0 0
          0 0 0 0 0 0
          0 0 0 0 0 0
          0 0 0 0 0 0
          0 0 0 0 0 0
          0 0 0 0 0 0
          0 0 0 0 0 0
          0 0 0 0 0 0
          0 0 0 0 0 0
          0 0 0 0 0 0
          0 0 0 0 0 0
          0 0 0 0 0 0
          0 0 0 0 0 0
          0 0 0 0 0 0
          0 0 0 0 0 0
          0 0 0 0 0 0
          0 0 0 0 0 0
          0 0 0 0 0 0
          0 0 0 0 0 0
          0 0 0 0 0 0
          0 0 0 0 0 0
          0 0 0 0 0 0
          0 0 0 0 0 0
          0 0 0 0 0 0
          0 0 0 0 0 0
          0 0 0 0 0 0
          0 0 0 0 0 0
          0 0 0 0 0 0
          0 0 0 0 0 0
          0 0 0 0 0 0
          0 0 0 0 0 0
          0 0 0 0 0 0
          0 0 0 0 0 0
          0 0 0 0 0 0
          0 0 0 0 0 0
          0 0 0 0 0 0
          0 0 0 0 0 0
          0 0 0 0 0 0
          0 0 0 0 0 0
          0 0 0 0 0 0
          0 0 0 0 0 0
          0 0 0 0 0 0
          0 0 0 0 0 0
          0 0 0 0 0 0
          0 0 0 0 0 0
          0 0 0 0 0 0
          0 0 0 0 0 0
          0 0 0 0 0 0
          0 0 0 0 0 0
          0 0 0 0 0 0
          0 0 0 0 0 0
          0 0 0 0 0 0
          0 0 0 0 0 0
          0 0 0 0 0 0
          0 0 0 0 0 0
          0 0 0 0 0 0
          0 0 0 0 0 0
          0 0 0 0 0 0
          0 0 0 0 0 0
          0 0 0 0 0 0
          0 0 0 0 0 0
          0 0 0 0 0 0
          0 0 0 0 0 0
          0 0 0 0 0 0
          0 0 0 0 0 0
          0 0 0 0 0 0
          0 0 0 0 0 0
          0 0 0
        </DataArray>
        <DataArray type="Float64" Name="initial_marker" format="ascii" RangeMin="0" RangeMax="0.25">
          0 0 0 0 0 0
          0 0 0 0 0 0
          0 0 0 0 0 0
          0 0 0 0 0 0
          0 0 0 0 0 0
          0 0 0 0 0 0
          0 0 0 0 0 0
          0 0 0 0 0 0
          0 0 0 0 0 0
          0 0 0 0 0 0
          0 0 0 0 0 0
          0 0 0 0 0 0
          0 0 0 0 0 0
          0 0 0 0 0 0
          0 0 0 0 0 0
          0 0 0 0 0 0
          0 0 0 0 0 0
          0 0 0 0 0 0
          0 0 0 0 0 0
          0 0 0 0 0 0
          0 0 0 0 0 0
          0 0 0 0 0 0
          0 0 0 0 0 0
          0 0 0 0 0 0
          0 0 0 0 0 0
          0 0 0 0 0 0
          0 0 0 0 0 0
          0 0 0 0 0 0
          0 0 0 0 0 0
          0 0 0 0 0 0
          0 0 0 0 0 0
          0 0 0 0 0 0
          0 0 0 0 0 0
          0 0 0 0 0 0
          0 0 0 0 0 0
          0 0 0 0 0 0
          0 0 0 0 0 0
          0 0 0 0 0 0
          0 0 0 0 0 0
          0 0 0 0 0 0
          0 0 0 0 0.25 0
          0 0 0 0 0 0
          0 0 0 0 0 0
          0 0 0 0 0 0
          0 0 0 0 0 0
          0 0 0 0 0 0
          0 0 0 0 0 0
          0 0 0 0 0 0
          0 0 0 0 0 0
          0 0 0 0 0 0
          0 0 0 0 0 0
          0 0 0 0 0 0
          0 0 0 0 0 0
          0 0 0 0 0 0
          0 0 0 0 0 0
          0 0 0 0 0 0
          0 0 0 0 0 0
          0 0 0 0 0 0
          0 0 0 0 0 0
          0 0 0 0 0 0
          0 0 0 0 0 0
          0 0 0 0 0 0
          0 0 0 0 0 0
          0 0 0 0 0 0
          0 0 0 0 0 0
          0 0 0 0 0 0
          0 0 0 0 0 0
          0 0 0 0 0 0
          0 0 0 0 0 0
          0 0 0 0 0.25 0
          0 0 0 0 0 0
          0 0 0 0 0 0
          0 0 0 0 0.25 0
          0 0 0 0 0 0
          0 0 0 0 0 0
          0 0 0 0 0 0
          0 0 0 0 0 0
          0 0 0 0 0 0
          0 0 0 0 0 0
          0 0 0 0 0 0
          0 0 0 0 0 0
          0 0 0 0 0 0
          0 0 0 0 0 0
          0 0 0 0 0 0
          0 0 0 0 0 0
          0 0 0
        </DataArray>
        <DataArray type="Float64" Name="markers_norefine" format="ascii" RangeMin="0" RangeMax="0">
          0 0 0 0 0 0
          0 0 0 0 0 0
          0 0 0 0 0 0
          0 0 0 0 0 0
          0 0 0 0 0 0
          0 0 0 0 0 0
          0 0 0 0 0 0
          0 0 0 0 0 0
          0 0 0 0 0 0
          0 0 0 0 0 0
          0 0 0 0 0 0
          0 0 0 0 0 0
          0 0 0 0 0 0
          0 0 0 0 0 0
          0 0 0 0 0 0
          0 0 0 0 0 0
          0 0 0 0 0 0
          0 0 0 0 0 0
          0 0 0 0 0 0
          0 0 0 0 0 0
          0 0 0 0 0 0
          0 0 0 0 0 0
          0 0 0 0 0 0
          0 0 0 0 0 0
          0 0 0 0 0 0
          0 0 0 0 0 0
          0 0 0 0 0 0
          0 0 0 0 0 0
          0 0 0 0 0 0
          0 0 0 0 0 0
          0 0 0 0 0 0
          0 0 0 0 0 0
          0 0 0 0 0 0
          0 0 0 0 0 0
          0 0 0 0 0 0
          0 0 0 0 0 0
          0 0 0 0 0 0
          0 0 0 0 0 0
          0 0 0 0 0 0
          0 0 0 0 0 0
          0 0 0 0 0 0
          0 0 0 0 0 0
          0 0 0 0 0 0
          0 0 0 0 0 0
          0 0 0 0 0 0
          0 0 0 0 0 0
          0 0 0 0 0 0
          0 0 0 0 0 0
          0 0 0 0 0 0
          0 0 0 0 0 0
          0 0 0 0 0 0
          0 0 0 0 0 0
          0 0 0 0 0 0
          0 0 0 0 0 0
          0 0 0 0 0 0
          0 0 0 0 0 0
          0 0 0 0 0 0
          0 0 0 0 0 0
          0 0 0 0 0 0
          0 0 0 0 0 0
          0 0 0 0 0 0
          0 0 0 0 0 0
          0 0 0 0 0 0
          0 0 0 0 0 0
          0 0 0 0 0 0
          0 0 0 0 0 0
          0 0 0 0 0 0
          0 0 0 0 0 0
          0 0 0 0 0 0
          0 0 0 0 0 0
          0 0 0 0 0 0
          0 0 0 0 0 0
          0 0 0 0 0 0
          0 0 0 0 0 0
          0 0 0 0 0 0
          0 0 0 0 0 0
          0 0 0 0 0 0
          0 0 0 0 0 0
          0 0 0 0 0 0
          0 0 0 0 0 0
          0 0 0 0 0 0
          0 0 0 0 0 0
          0 0 0 0 0 0
          0 0 0 0 0 0
          0 0 0 0 0 0
          0 0 0
        </DataArray>
        <DataArray type="Float64" Name="markers_mustrefine" format="ascii" RangeMin="0" RangeMax="0.25">
          0 0 0 0 0 0
          0 0 0 0 0 0
          0 0 0 0 0 0
          0 0 0 0 0 0
          0 0 0 0 0 0
          0 0 0 0 0 0
          0 0 0 0 0 0
          0 0 0 0 0 0
          0 0 0 0 0 0
          0 0 0 0 0 0
          0 0 0 0 0 0
          0 0 0 0 0 0
          0 0 0 0 0 0
          0 0 0 0 0 0
          0 0 0 0 0 0
          0 0 0 0 0 0
          0 0 0 0 0 0
          0 0 0 0 0 0
          0 0 0 0 0 0
          0 0 0 0 0 0
          0 0 0 0 0 0
          0 0 0 0 0 0
          0 0 0 0 0 0
          0 0 0 0 0 0
          0 0 0 0 0 0
          0 0 0 0 0 0
          0 0 0 0 0 0
          0 0 0 0 0 0
          0 0 0 0 0 0
          0 0 0 0 0 0
          0 0 0 0 0 0
          0 0 0 0 0 0
          0 0 0 0 0 0
          0 0 0 0 0 0
          0 0 0 0 0 0
          0 0 0 0 0 0
          0 0 0 0 0 0
          0 0 0 0 0 0
          0 0 0 0 0 0
          0 0 0 0 0 0
          0 0 0 0 0.25 0
          0 0 0 0 0 0
          0 0 0 0 0 0
          0 0 0 0 0 0
          0 0 0 0 0 0
          0 0 0 0 0 0
          0 0 0 0 0 0
          0 0 0 0 0 0
          0 0 0 0 0 0
          0 0 0 0 0 0
          0 0 0 0 0 0
          0 0 0 0 0 0
          0 0 0 0 0 0
          0 0 0 0 0 0
          0 0 0 0 0 0
          0 0 0 0 0 0
          0 0 0 0 0 0
          0 0 0 0 0 0
          0 0 0 0 0 0
          0 0 0 0 0 0
          0 0 0 0 0 0
          0 0 0 0 0 0
          0 0 0 0 0 0
          0 0 0 0 0 0
          0 0 0 0 0 0
          0 0 0 0 0 0
          0 0 0 0 0 0
          0 0 0 0 0 0
          0 0 0 0 0 0
          0 0 0 0 0.25 0
          0 0 0 0 0 0
          0 0 0 0 0 0
          0 0 0 0 0.25 0
          0 0 0 0 0 0
          0 0 0 0 0 0
          0 0 0 0 0 0
          0 0 0 0 0 0
          0 0 0 0 0 0
          0 0 0 0 0 0
          0 0 0 0 0 0
          0 0 0 0 0 0
          0 0 0 0 0 0
          0 0 0 0 0 0
          0 0 0 0 0 0
          0 0 0 0 0 0
          0 0 0
        </DataArray>
        <DataArray type="Float64" Name="gradient_marker" format="ascii" RangeMin="1" RangeMax="1">
          1 1 1 1 1 1
          1 1 1 1 1 1
          1 1 1 1 1 1
          1 1 1 1 1 1
          1 1 1 1 1 1
          1 1 1 1 1 1
          1 1 1 1 1 1
          1 1 1 1 1 1
          1 1 1 1 1 1
          1 1 1 1 1 1
          1 1 1 1 1 1
          1 1 1 1 1 1
          1 1 1 1 1 1
          1 1 1 1 1 1
          1 1 1 1 1 1
          1 1 1 1 1 1
          1 1 1 1 1 1
          1 1 1 1 1 1
          1 1 1 1 1 1
          1 1 1 1 1 1
          1 1 1 1 1 1
          1 1 1 1 1 1
          1 1 1 1 1 1
          1 1 1 1 1 1
          1 1 1 1 1 1
          1 1 1 1 1 1
          1 1 1 1 1 1
          1 1 1 1 1 1
          1 1 1 1 1 1
          1 1 1 1 1 1
          1 1 1 1 1 1
          1 1 1 1 1 1
          1 1 1 1 1 1
          1 1 1 1 1 1
          1 1 1 1 1 1
          1 1 1 1 1 1
          1 1 1 1 1 1
          1 1 1 1 1 1
          1 1 1 1 1 1
          1 1 1 1 1 1
          1 1 1 1 1 1
          1 1 1 1 1 1
          1 1 1 1 1 1
          1 1 1 1 1 1
          1 1 1 1 1 1
          1 1 1 1 1 1
          1 1 1 1 1 1
          1 1 1 1 1 1
          1 1 1 1 1 1
          1 1 1 1 1 1
          1 1 1 1 1 1
          1 1 1 1 1 1
          1 1 1 1 1 1
          1 1 1 1 1 1
          1 1 1 1 1 1
          1 1 1 1 1 1
          1 1 1 1 1 1
          1 1 1 1 1 1
          1 1 1 1 1 1
          1 1 1 1 1 1
          1 1 1 1 1 1
          1 1 1 1 1 1
          1 1 1 1 1 1
          1 1 1 1 1 1
          1 1 1 1 1 1
          1 1 1 1 1 1
          1 1 1 1 1 1
          1 1 1 1 1 1
          1 1 1 1 1 1
          1 1 1 1 1 1
          1 1 1 1 1 1
          1 1 1 1 1 1
          1 1 1 1 1 1
          1 1 1 1 1 1
          1 1 1 1 1 1
          1 1 1 1 1 1
          1 1 1 1 1 1
          1 1 1 1 1 1
          1 1 1 1 1 1
          1 1 1 1 1 1
          1 1 1 1 1 1
          1 1 1 1 1 1
          1 1 1 1 1 1
          1 1 1 1 1 1
          1 1 1 1 1 1
          1 1 1
        </DataArray>
        <DataArray type="Float64" Name="gradient_matprop_marker" format="ascii" RangeMin="0" RangeMax="0">
          0 0 0 0 0 0
          0 0 0 0 0 0
          0 0 0 0 0 0
          0 0 0 0 0 0
          0 0 0 0 0 0
          0 0 0 0 0 0
          0 0 0 0 0 0
          0 0 0 0 0 0
          0 0 0 0 0 0
          0 0 0 0 0 0
          0 0 0 0 0 0
          0 0 0 0 0 0
          0 0 0 0 0 0
          0 0 0 0 0 0
          0 0 0 0 0 0
          0 0 0 0 0 0
          0 0 0 0 0 0
          0 0 0 0 0 0
          0 0 0 0 0 0
          0 0 0 0 0 0
          0 0 0 0 0 0
          0 0 0 0 0 0
          0 0 0 0 0 0
          0 0 0 0 0 0
          0 0 0 0 0 0
          0 0 0 0 0 0
          0 0 0 0 0 0
          0 0 0 0 0 0
          0 0 0 0 0 0
          0 0 0 0 0 0
          0 0 0 0 0 0
          0 0 0 0 0 0
          0 0 0 0 0 0
          0 0 0 0 0 0
          0 0 0 0 0 0
          0 0 0 0 0 0
          0 0 0 0 0 0
          0 0 0 0 0 0
          0 0 0 0 0 0
          0 0 0 0 0 0
          0 0 0 0 0 0
          0 0 0 0 0 0
          0 0 0 0 0 0
          0 0 0 0 0 0
          0 0 0 0 0 0
          0 0 0 0 0 0
          0 0 0 0 0 0
          0 0 0 0 0 0
          0 0 0 0 0 0
          0 0 0 0 0 0
          0 0 0 0 0 0
          0 0 0 0 0 0
          0 0 0 0 0 0
          0 0 0 0 0 0
          0 0 0 0 0 0
          0 0 0 0 0 0
          0 0 0 0 0 0
          0 0 0 0 0 0
          0 0 0 0 0 0
          0 0 0 0 0 0
          0 0 0 0 0 0
          0 0 0 0 0 0
          0 0 0 0 0 0
          0 0 0 0 0 0
          0 0 0 0 0 0
          0 0 0 0 0 0
          0 0 0 0 0 0
          0 0 0 0 0 0
          0 0 0 0 0 0
          0 0 0 0 0 0
          0 0 0 0 0 0
          0 0 0 0 0 0
          0 0 0 0 0 0
          0 0 0 0 0 0
          0 0 0 0 0 0
          0 0 0 0 0 0
          0 0 0 0 0 0
          0 0 0 0 0 0
          0 0 0 0 0 0
          0 0 0 0 0 0
          0 0 0 0 0 0
          0 0 0 0 0 0
          0 0 0 0 0 0
          0 0 0 0 0 0
          0 0 0 0 0 0
          0 0 0
        </DataArray>
        <DataArray type="Float64" Name="combo" format="ascii" RangeMin="1" RangeMax="1">
          1 1 1 1 1 1
          1 1 1 1 1 1
          1 1 1 1 1 1