<?xml version="1.0"?>
<VTKFile type="UnstructuredGrid" version="0.1" byte_order="LittleEndian" header_type="UInt32" compressor="vtkZLibDataCompressor">
  <UnstructuredGrid>
    <Piece NumberOfPoints="397" NumberOfCells="238">
      <PointData>
        <DataArray type="Int32" Name="libmesh_node_id" format="ascii" RangeMin="472" RangeMax="3122">
          472 480 679 680 681 682
          683 684 685 689 690 691
          1309 1310 1311 1312 1313 1314
          1315 1317 1318 1319 1320 1321
          1322 1323 1324 1325 1326 1327
          1328 1329 1330 1331 1332 1333
          1334 1335 1336 1359 1360 1362
          1365 1367 1368 1369 1370 1371
          1372 1373 1374 1375 1376 1401
          1402 1649 1650 1652 1653 1656
          1659 1660 1665 2318 2319 2320
          2323 2326 2328 2329 2330 2331
          2332 2333 2334 2335 2336 2337
          2338 2339 2340 2341 2344 2345
          2350 2352 2353 2354 2355 2358
          2359 2360 2361 2364 2365 2367
          2370 2372 2373 2374 2375 2376
          2377 2378 2379 2380 2381 2383
          2385 2387 2389 2390 2391 2392
          2393 2394 2395 2396 2397 2398
          2399 2400 2401 2402 2403 2404
          2405 2406 2407 2408 2409 2410
          2411 2412 2413 2414 2415 2416
          2417 2418 2419 2420 2421 2422
          2423 2424 2425 2426 2427 2428
          2429 2430 2431 2432 2433 2434
          2435 2436 2437 2438 2439 2440
          2441 2442 2443 2444 2445 2446
          2447 2448 2449 2450 2451 2452
          2453 2454 2455 2456 2457 2458
          2459 2460 2461 2462 2463 2464
          2465 2466 2467 2468 2469 2470
          2471 2472 2473 2474 2475 2476
          2477 2610 2611 2612 2613 2614
          2615 2616 2617 2618 2619 2627
          2628 2629 2630 2631 2632 2644
          2645 2646 2647 2648 2649 2650
          2651 2652 2653 2661 2662 2664
          2665 2666 2668 2669 2670 2671
          2672 2673 2674 2675 2676 2677
          2678 2679 2680 2681 2682 2683
          2684 2685 2686 2687 2688 2689
          2690 2691 2692 2693 2694 2695
          2696 2697 2698 2699 2700 2701
          2702 2703 2704 2705 2706 2707
          2708 2709 2710 2711 2712 2713
          2714 2715 2716 2717 2718 2719
          2720 2721 2722 2723 2724 2725
          2726 2727 2728 2729 2730 2731
          2732 2733 2734 2735 2848 2849
          2850 2851 2855 2856 2858 2859
          2861 2876 2877 2883 2896 2897
          2898 2899 2900 2901 2902 2903
          2904 2905 2916 2917 2920 2921
          3062 3063 3066 3068 3069 3071
          3082 3084 3086 3088 3096 3097
          3100 3102 3103 3105 3116 3118
          3120 3122 1662 1663 1666 1683
          1684 1391 1392 2852 2853 2854
          2857 1393 2860 1394 2878 2879
          2884 2872 2873 2906 2907 2875
          2910 2912 2913 2915 2893 2923
          2927 3064 3065 3067 1439 3070
          1440 3072 3073 3076 3083 3087
          3085 1443 3089 3098 3099 3101
          1445 3104 1446 3117 3119 3121
          1448
        </DataArray>
        <DataArray type="Float64" Name="bounds" format="ascii" RangeMin="0" RangeMax="0">
          0 0 0 0 0 0
          0 0 0 0 0 0
          0 0 0 0 0 0
          0 0 0 0 0 0
          0 0 0 0 0 0
          0 0 0 0 0 0
          0 0 0 0 0 0
          0 0 0 0 0 0
          0 0 0 0 0 0
          0 0 0 0 0 0
          0 0 0 0 0 0
          0 0 0 0 0 0
          0 0 0 0 0 0
          0 0 0 0 0 0
          0 0 0 0 0 0
          0 0 0 0 0 0
          0 0 0 0 0 0
          0 0 0 0 0 0
          0 0 0 0 0 0
          0 0 0 0 0 0
          0 0 0 0 0 0
          0 0 0 0 0 0
          0 0 0 0 0 0
          0 0 0 0 0 0
          0 0 0 0 0 0
          0 0 0 0 0 0
          0 0 0 0 0 0
          0 0 0 0 0 0
          0 0 0 0 0 0
          0 0 0 0 0 0
          0 0 0 0 0 0
          0 0 0 0 0 0
          0 0 0 0 0 0
          0 0 0 0 0 0
          0 0 0 0 0 0
          0 0 0 0 0 0
          0 0 0 0 0 0
          0 0 0 0 0 0
          0 0 0 0 0 0
          0 0 0 0 0 0
          0 0 0 0 0 0
          0 0 0 0 0 0
          0 0 0 0 0 0
          0 0 0 0 0 0
          0 0 0 0 0 0
          0 0 0 0 0 0
          0 0 0 0 0 0
          0 0 0 0 0 0
          0 0 0 0 0 0
          0 0 0 0 0 0
          0 0 0 0 0 0
          0 0 0 0 0 0
          0 0 0 0 0 0
          0 0 0 0 0 0
          0 0 0 0 0 0
          0 0 0 0 0 0
          0 0 0 0 0 0
          0 0 0 0 0 0
          0 0 0 0 0 0
          0 0 0 0 0 0
          0 0 0 0 0 0
          0 0 0 0 0 0
          0 0 0 0 0 0
          0 0 0 0 0 0
          0 0 0 0 0 0
          0 0 0 0 0 0
          0
        </DataArray>
        <DataArray type="Float64" Name="gradient_error" format="ascii" RangeMin="7.675041413819935e-11" RangeMax="1.0962269088207634e-8">
          5.602772358804699e-10 3.321017522449582e-9 2.1045202044744794e-9 1.5432353928994294e-9 4.9568888882957015e-9 2.836459257216575e-9
          4.129290535791364e-10 1.4501309678511767e-9 7.796828146921688e-10 8.12262946780354e-9 6.394797406481202e-9 1.9908890914063446e-9
          3.6049275454838386e-9 3.341073851327396e-9 3.0313099642127467e-9 2.720912897114299e-9 1.946484784747128e-9 1.8719643148788016e-9
          1.6678554559839537e-9 1.982757063691137e-9 1.190894495811679e-9 7.467021647893964e-9 6.5486034547942526e-9 4.303472123616475e-9
          4.4527874583982335e-9 1.1316338165047274e-9 1.046210031225275e-9 1.0255436270051754e-9 9.093141015053332e-10 5.185600725395314e-10
          4.990632948939533e-10 4.4174325942922104e-10 8.277429621186143e-10 6.40466488279178e-10 3.10253511766538e-10 2.885425028365648e-9
          2.477528106867356e-9 1.2359103453852181e-9 1.5882663420034732e-9 8.95505339588074e-9 8.014269727064205e-9 5.300896099611892e-9
          8.477740973797755e-9 5.642048867612153e-9 4.949319247159937e-9 3.046289197116547e-9 2.611702421524327e-9 3.1126414877704963e-9
          1.5729486563271374e-9 5.5871627691361795e-9 5.527991129487178e-9 3.085384258250894e-9 3.85674071277652e-9 6.316956729147941e-10
          5.369787193809564e-10 4.08355761546693e-9 3.818259009710192e-9 2.387384837986409e-9 2.2288494638246283e-9 1.8145462131458036e-9
          1.2914017513926748e-9 1.205208178563385e-9 9.804400000869168e-10 1.3779074614806195e-9 1.864779624675232e-9 1.8193684992739065e-9
          1.6903666876456444e-9 2.9502382438246693e-9 1.0931362556669909e-9 1.0673522645039054e-9 1.4607119534792708e-9 1.4241134174316047e-9
          8.079016934016371e-10 1.1145351236836674e-9 1.0860172515193162e-9 9.940122422908205e-10 1.3202605477016542e-9 1.005112512247465e-9
          2.4174182174466043e-9 2.350408836611202e-9 1.8184568317792706e-9 2.1613341618429414e-9 1.1473672548408693e-9 1.4979126298630544e-9
          2.3812107390730464e-9 8.845506965090585e-10 1.1657964277941594e-9 6.672571906406814e-10 8.849688081741146e-10 7.436156855898983e-10
          1.882690639932354e-9 1.4469275781050137e-9 1.5580461723319656e-9 4.83418327741619e-9 4.691287365132047e-9 4.28914996124378e-9
          7.2251265418663496e-9 3.929315051143581e-9 3.808365467728921e-9 3.0967223090583266e-9 2.9978653272519193e-9 3.4691595139630568e-9
          2.721433011870993e-9 6.172258840926025e-9 5.966783152097231e-9 4.7846957613431345e-9 5.390296886317767e-9 3.7000447744753093e-9
          3.021130986926978e-9 5.567545997135774e-9 2.975269229927221e-9 2.3212037365437056e-9 2.4108245722914086e-9 1.8673936691686666e-9
          4.5537264500334895e-9 3.6105359336813674e-9 3.609258578655155e-9 6.091074933845302e-10 5.94401090486346e-10 8.268052735500536e-10
          8.053000418397766e-10 4.283925770550219e-10 5.979083601394467e-10 5.822025388006693e-10 5.524755746023424e-10 7.443626759564671e-10
          5.377679490020933e-10 1.4066831915514276e-9 1.3654944699611803e-9 9.949899175448067e-10 1.2498047732754257e-9 3.078330343222808e-10
          3.0037160012327934e-10 4.20763903102062e-10 4.09665764574957e-10 2.0701770058152096e-10 2.8924428755479156e-10 2.8159953267184194e-10
          2.7918245614383346e-10 3.783193745441623e-10 2.601267150463335e-10 7.258698418462553e-10 7.040090969745382e-10 4.839482854184971e-10
          6.428143589523687e-10 4.899215867340363e-10 6.540577966218286e-10 3.5299750419571163e-10 4.720361722307903e-10 4.15669566328693e-10
          5.478113764031171e-10 3.9451725506682e-10 1.0806812383571585e-9 7.844048634021136e-10 8.85385040740928e-10 2.4770690513029375e-10
          3.3201902593435185e-10 1.713182779824708e-10 2.2857148330895793e-10 2.0992989185014706e-10 2.7736343935468195e-10 1.9115015429586666e-10
          5.53797345967006e-10 3.8054409806353314e-10 4.5147450178366753e-10 2.362711952770654e-9 2.2848184810106164e-9 1.7433398979745303e-9
          1.684365199934259e-9 2.0676607628260675e-9 1.5204150088914393e-9 3.8500594766754015e-9 3.7107165300497225e-9 2.777219118223237e-9
          3.323170293535637e-9 1.243868073485823e-9 1.201006699954438e-9 8.588286266964564e-10 8.288898923606405e-10 1.082141827412875e-9
          7.460745921374716e-10 2.0838284286455683e-9 2.0033893502522494e-9 1.3929899935993494e-9 1.781513702288321e-9 1.7550386979638178e-9
          1.2855822499886626e-9 1.4031547474037285e-9 1.0228479505547152e-9 2.7697371418580405e-9 2.0528773289529303e-9 2.158006039367607e-9
          9.126004871464631e-10 6.284247473545818e-10 7.238385771542327e-10 4.97861591832548e-10 1.4693944835922902e-9 1.0162500716829041e-9
          1.1309252007983836e-9 8.93484077121588e-9 8.633839637263615e-9 7.263248947994932e-9 7.015210042184014e-9 7.78273362175438e-9
          6.3078017620506995e-9 1.0962269088207634e-8 1.0687539500548096e-8 8.729355675307447e-9 9.814259677677002e-9 6.532261291152822e-9
          5.2603116660012354e-9 5.1042523798679765e-9 4.068204186712588e-9 8.363882422727135e-9 6.810793241877149e-9 1.056922524604158e-8
          1.065129961714068e-8 8.784545934678083e-9 8.808092474182328e-9 1.0427921220003499e-8 8.565883672957889e-9 9.591157494933102e-9
          9.958421036112678e-9 8.341451960013815e-9 1.027435611287894e-8 9.337040923905792e-9 7.651134077438968e-9 6.130189727401304e-9
          9.535586023664968e-9 7.831465878348301e-9 5.751810226879062e-9 5.544953414371868e-9 4.394625532240623e-9 4.227517376806128e-9
          4.9579322519673825e-9 3.757742165507491e-9 7.205674377740566e-9 7.0134917129879285e-9 5.471854843246802e-9 6.404888582750412e-9
          3.2267433052897487e-9 3.09827337022165e-9 2.2749379035675e-9 2.180956226405588e-9 2.7397989237547264e-9 1.9204674855535567e-9
          4.237248935002047e-9 4.0953336450137355e-9 2.9355997025849117e-9 3.6714995372540437e-9 4.0984845853395135e-9 3.080074048860353e-9
          3.1357380992903526e-9 2.3334124517695102e-9 5.388031234475257e-9 4.110304000267764e-9 4.136600888948054e-9 2.229209439292446e-9
          1.5535658557142009e-9 1.6750627888705906e-9 1.1604308571866483e-9 3.014023852715839e-9 2.1229244782894625e-9 2.2551200622903384e-9
          7.204388160095706e-9 7.198815154878544e-9 5.830246517147527e-9 5.782544263471217e-9 6.946537412438007e-9 5.483280671841204e-9
          6.7574896412716335e-9 6.8939676677176e-9 5.636738422939831e-9 6.924783332650559e-9 4.520633627187662e-9 4.449647730152304e-9
          3.3390675272661537e-9 3.2665110591354733e-9 4.147702653579478e-9 3.001661790154088e-9 4.422290372820567e-9 4.4113513452023716e-9
          3.2838197573600507e-9 4.2250879054491835e-9 6.1307088431460016e-9 4.743273215789581e-9 4.830857487969318e-9 3.668557939839048e-9
          6.309759030027378e-9 4.913761484297447e-9 5.059469917691161e-9 3.5225732516087554e-9 2.5089355382157654e-9 2.6796434875213228e-9
          1.881619029161174e-9 3.6706661382834673e-9 2.628239675132742e-9 2.8268471642067285e-9 1.4158363883392703e-10 1.3805927295947663e-10
          1.9340027695629048e-10 1.8825638187998374e-10 1.285895111892541e-10 1.7396614348077689e-10 3.338047148578231e-10 3.236902786205144e-10
          2.953694832445287e-10 1.1502831083218138e-10 1.5312194188115083e-10 2.5491815152650404e-10 5.745457767367907e-10 5.544088974588322e-10
          3.7304138137749424e-10 3.5996188826449645e-10 4.98764127848046e-10 3.2378092378693863e-10 9.735527207403224e-10 9.34703016472712e-10
          6.063457245309327e-10 8.281993574065172e-10 4.204491634818343e-10 2.730205687526269e-10 6.798680363600697e-10 4.4060868449498124e-10
          1.5410365313289905e-9 1.475617325761766e-9 1.2953001006885603e-9 2.097439173172843e-9 2.016159531956898e-9 1.7822324902645114e-9
          1.0436477315858759e-9 7.767322217944571e-10 1.4372624838591513e-9 1.0573165212648616e-9 2.353576189841885e-9 2.290417081078925e-9
          2.0790503822114026e-9 2.37394069335201e-9 2.3302344452992884e-9 2.153969335437203e-9 1.7144078009436067e-9 1.2711940802247018e-9
          1.8041276214613043e-9 1.348235026642892e-9 6.514454249135001e-10 6.089372241714783e-10 4.988173414613935e-10 3.080745851474066e-10
          2.883623004981768e-10 2.5659801509129455e-10 2.374943499981536e-10 9.109754889633574e-11 1.2677623048830153e-10 1.2336780826448938e-10
          1.1414040307233934e-10 2.1739510293184902e-10 2.1081503525097333e-10 1.9235973837498875e-10 7.675041413819935e-11 9.988720563269229e-11
          1.6516089769653692e-10 1.3814769602418293e-10 1.3398051500636258e-10 2.3546799210107107e-10 2.2724219807838875e-10 1.2225035798169584e-10
          2.0444950259720823e-10 3.9693446541333443e-10 3.8101941805707743e-10 3.3749032549167025e-10 1.0439772703992243e-10 1.7214269900968261e-10
          2.770980753156506e-10 1.004652896996554e-9 9.612293034313559e-10 8.420687352801884e-10 1.3847373033746623e-9 1.3283916478688948e-9
          1.1683666546454907e-9 6.316547203099394e-10 6.040941071545757e-10 5.287155439345741e-10 6.769478432335619e-10 9.367616152962965e-10
          5.031243980445566e-10 6.860320733428663e-10 4.2478521910850557e-10 1.5849089360076073e-9 1.5356683390400937e-9 1.3798093730208958e-9
          1.617600264194968e-9 1.5782523138029335e-9 1.43915132658104e-9 1.1254452951513537e-9 8.275382105043924e-10 1.188789016426641e-9
          8.792472243276163e-10
        </DataArray>
        <DataArray type="Float64" Name="gradient_matprop_error" format="ascii" RangeMin="0" RangeMax="0">
          0 0 0 0 0 0
          0 0 0 0 0 0
          0 0 0 0 0 0
          0 0 0 0 0 0
          0 0 0 0 0 0
          0 0 0 0 0 0
          0 0 0 0 0 0
          0 0 0 0 0 0
          0 0 0 0 0 0
          0 0 0 0 0 0
          0 0 0 0 0 0
          0 0 0 0 0 0
          0 0 0 0 0 0
          0 0 0 0 0 0
          0 0 0 0 0 0
          0 0 0 0 0 0
          0 0 0 0 0 0
          0 0 0 0 0 0
          0 0 0 0 0 0
          0 0 0 0 0 0
          0 0 0 0 0 0
          0 0 0 0 0 0
          0 0 0 0 0 0
          0 0 0 0 0 0
          0 0 0 0 0 0
          0 0 0 0 0 0
          0 0 0 0 0 0
          0 0 0 0 0 0
          0 0 0 0 0 0
          0 0 0 0 0 0
          0 0 0 0 0 0
          0 0 0 0 0 0
          0 0 0 0 0 0
          0 0 0 0 0 0
          0 0 0 0 0 0
          0 0 0 0 0 0
          0 0 0 0 0 0
          0 0 0 0 0 0
          0 0 0 0 0 0
          0 0 0 0 0 0
          0 0 0 0 0 0
          0 0 0 0 0 0
          0 0 0 0 0 0
          0 0 0 0 0 0
          0 0 0 0 0 0
          0 0 0 0 0 0
          0 0 0 0 0 0
          0 0 0 0 0 0
          0 0 0 0 0 0
          0 0 0 0 0 0
          0 0 0 0 0 0
          0 0 0 0 0 0
          0 0 0 0 0 0
          0 0 0 0 0 0
          0 0 0 0 0 0
          0 0 0 0 0 0
          0 0 0 0 0 0
          0 0 0 0 0 0
          0 0 0 0 0 0
          0 0 0 0 0 0
          0 0 0 0 0 0
          0 0 0 0 0 0
          0 0 0 0 0 0
          0 0 0 0 0 0
          0 0 0 0 0 0
          0 0 0 0 0 0
          0
        </DataArray>
        <DataArray type="Float64" Name="initial_marker" format="ascii" RangeMin="0" RangeMax="2">
          1 2 1 0.75 2 2
          0 2 2 2 2 2
          1 1 2 2 1 2
          2 2 2 2 2 2
          2 1 1 2 2 0.75
          2 2 0.5 2 2 2
          2 2 2 2 2 2
          2 2 2 2 2 2
          2 2 2 2 2 2
          2 0 0 0 0 0
          0 0 0 2 2 2
          2 2 2 2 2 2
          2 2 2 2 2 2
          2 2 2 2 2 2
          2 2 2 2 2 1.75
          2 2 2 2 2 2
          2 2 2 2 2 2
          2 2 2 2 2 2
          2 2 2 2 2 2
          2 2 2 2 2 2
          2 2 2 2 2 2
          2 2 2 2 2 2
          2 2 2 2 2 2
          2 2 1.75 2 2 2
          2 2 2 2 2 1
          1.5 1.5 2 2 2 1.5
          1.75 0.5 1.25 0.5 1.25 1
          2 2 2 2 2 2
          2 2 2 2 2 2
          2 2 2 2 2 2
          2 2 2 2 2 2
          2 2 2 2 2 2
          2 2 2 2 2 2
          2 2 2 2 2 2
          2 2 2 2 2 2
          2 2 2 2 2 2
          2 2 2 2 2 2
          2 2 2 2 2 2
          2 2 2 2 2 2
          2 2 2 2 2 2
          2 2 2 2 2 2
          2 2 2 2 2 2
          2 2 2 2 2 2
          2 2 2 2 2 2
          2 2 2 2 2 2
          2 2 2 2 2 2
          2 2 2 2 2 2
          2 2 2 2 2 2
          2 2 2 2 2 2
          2 2 2 2 1 1
          1.5 1.5 0.5 1.25 2 2
          2 0 1 2 2 2
          2 2 2 2 2 2
          2 2 2 2 2 2
          2 2 2 2 2 2
          2 2 2 2 2 2
          2 2 2 2 2 2
          2 2 0 0 0 0
          0 0 0 0 1 1
          1 2 2 2 0 1
          2 2 2 2 2 2
          2 2 2 2 2 2
          2 2 2 2 2 2
          2 2 2 2 2 2
          2 2 2 2 2 2
          2 2 2 2 2 2
          2
        </DataArray>
        <DataArray type="Float64" Name="markers_norefine" format="ascii" RangeMin="0" RangeMax="0">
          0 0 0 0 0 0
          0 0 0 0 0 0
          0 0 0 0 0 0
          0 0 0 0 0 0
          0 0 0 0 0 0
          0 0 0 0 0 0
          0 0 0 0 0 0
          0 0 0 0 0 0
          0 0 0 0 0 0
          0 0 0 0 0 0
          0 0 0 0 0 0
          0 0 0 0 0 0
          0 0 0 0 0 0
          0 0 0 0 0 0
          0 0 0 0 0 0
          0 0 0 0 0 0
          0 0 0 0 0 0
          0 0 0 0 0 0
          0 0 0 0 0 0
          0 0 0 0 0 0
          0 0 0 0 0 0
          0 0 0 0 0 0
          0 0 0 0 0 0
          0 0 0 0 0 0
          0 0 0 0 0 0
          0 0 0 0 0 0
          0 0 0 0 0 0
          0 0 0 0 0 0
          0 0 0 0 0 0
          0 0 0 0 0 0
          0 0 0 0 0 0
          0 0 0 0 0 0
          0 0 0 0 0 0
          0 0 0 0 0 0
          0 0 0 0 0 0
          0 0 0 0 0 0
          0 0 0 0 0 0
          0 0 0 0 0 0
          0 0 0 0 0 0
          0 0 0 0 0 0
          0 0 0 0 0 0
          0 0 0 0 0 0
          0 0 0 0 0 0
          0 0 0 0 0 0
          0 0 0 0 0 0
          0 0 0 0 0 0
          0 0 0 0 0 0
          0 0 0 0 0 0
          0 0 0 0 0 0
          0 0 0 0 0 0
          0 0 0 0 0 0
          0 0 0 0 0 0
          0 0 0 0 0 0
          0 0 0 0 0 0
          0 0 0 0 0 0
          0 0 0 0 0 0
          0 0 0 0 0 0
          0 0 0 0 0 0
          0 0 0 0 0 0
          0 0 0 0 0 0
          0 0 0 0 0 0
          0 0 0 0 0 0
          0 0 0 0 0 0
          0 0 0 0 0 0
          0 0 0 0 0 0
          0 0 0 0 0 0
          0
        </DataArray>
        <DataArray type="Float64" Name="markers_mustrefine" format="ascii" RangeMin="0" RangeMax="2">
          1 2 1 0.75 2 2
          0 2 2 2 2 2
          1 1 2 2 1 2
          2 2 2 2 2 2
          2 1 1 2 2 0.75
          2 2 0.5 2 2 2
          2 2 2 2 2 2
          2 2 2 2 2 2
          2 2 2 2 2 2
          2 0 0 0 0 0
          0 0 0 2 2 2
          2 2 2 2 2 2
          2 2 2 2 2 2
          2 2 2 2 2 2
          2 2 2 2 2 1.75
          2 2 2 2 2 2
          2 2 2 2 2 2
          2 2 2 2 2 2
          2 2 2 2 2 2
          2 2 2 2 2 2
          2 2 2 2 2 2
          2 2 2 2 2 2
          2 2 2 2 2 2
          2 2 1.75 2 2 2
          2 2 2 2 2 1
          1.5 1.5 2 2 2 1.5
          1.75 0.5 1.25 0.5 1.25 1
          2 2 2 2 2 2
          2 2 2 2 2 2
          2 2 2 2 2 2
          2 2 2 2 2 2
          2 2 2 2 2 2
          2 2 2 2 2 2
          2 2 2 2 2 2
          2 2 2 2 2 2
          2 2 2 2 2 2
          2 2 2 2 2 2
          2 2 2 2 2 2
          2 2 2 2 2 2
          2 2 2 2 2 2
          2 2 2 2 2 2
          2 2 2 2 2 2
          2 2 2 2 2 2
          2 2 2 2 2 2
          2 2 2 2 2 2
          2 2 2 2 2 2
          2 2 2 2 2 2
          2 2 2 2 2 2
          2 2 2 2 2 2
          2 2 2 2 1 1
          1.5 1.5 0.5 1.25 2 2
          2 0 1 2 2 2
          2 2 2 2 2 2
          2 2 2 2 2 2
          2 2 2 2 2 2
          2 2 2 2 2 2
          2 2 2 2 2 2
          2 2 0 0 0 0
          0 0 0 0 1 1
          1 2 2 2 0 1
          2 2 2 2 2 2
          2 2 2 2 2 2
          2 2 2 2 2 2
          2 2 2 2 2 2
          2 2 2 2 2 2
          2 2 2 2 2 2
          2
        </DataArray>
        <DataArray type="Float64" Name="gradient_marker" format="ascii" RangeMin="1" RangeMax="1">
          1 1 1 1 1 1
          1 1 1 1 1 1
          1 1 1 1 1 1
          1 1 1 1 1 1
          1 1 1 1 1 1
          1 1 1 1 1 1
          1 1 1 1 1 1
          1 1 1 1 1 1
          1 1 1 1 1 1
          1 1 1 1 1 1
          1 1 1 1 1 1
          1 1 1 1 1 1
          1 1 1 1 1 1
          1 1 1 1 1 1
          1 1 1 1 1 1
          1 1 1 1 1 1
          1 1 1 1 1 1
          1 1 1 1 1 1
          1 1 1 1 1 1
          1 1 1 1 1 1
          1 1 1 1 1 1
          1 1 1 1 1 1
          1 1 1 1 1 1
          1 1 1 1 1 1
          1 1 1 1 1 1
          1 1 1 1 1 1
          1 1 1 1 1 1
          1 1 1 1 1 1
          1 1 1 1 1 1
          1 1 1 1 1 1
          1 1 1 1 1 1
          1 1 1 1 1 1
          1 1 1 1 1 1
          1 1 1 1 1 1
          1 1 1 1 1 1
          1 1 1 1 1 1
          1 1 1 1 1 1
          1 1 1 1 1 1
          1 1 1 1 1 1
          1 1 1 1 1 1
          1 1 1 1 1 1
          1 1 1 1 1 1
          1 1 1 1 1 1
          1 1 1 1 1 1
          1 1 1 1 1 1
          1 1 1 1 1 1
          1 1 1 1 1 1
          1 1 1 1 1 1
          1 1 1 1 1 1
          1 1 1 1 1 1
          1 1 1 1 1 1
          1 1 1 1 1 1
          1 1 1 1 1 1
          1 1 1 1 1 1
          1 1 1 1 1 1
          1 1 1 1 1 1
          1 1 1 1 1 1
          1 1 1 1 1 1
          1 1 1 1 1 1
          1 1 1 1 1 1
          1 1 1 1 1 1
          1 1 1 1 1 1
          1 1 1 1 1 1
          1 1 1 1 1 1
          1 1 1 1 1 1
          1 1 1 1 1 1
          1
        </DataArray>
        <DataArray type="Float64" Name="gradient_matprop_marker" format="ascii" RangeMin="0" RangeMax="0">
          0 0 0 0 0 0
          0 0 0 0 0 0
          0 0 0 0 0 0
          0 0 0 0 0 0
          0 0 0 0 0 0
          0 0 0 0 0 0
          0 0 0 0 0 0
          0 0 0 0 0 0
          0 0 0 0 0 0
          0 0 0 0 0 0
          0 0 0 0 0 0
          0 0 0 0 0 0
          0 0 0 0 0 0
          0 0 0 0 0 0
          0 0 0 0 0 0
          0 0 0 0 0 0
          0 0 0 0 0 0
          0 0 0 0 0 0
          0 0 0 0 0 0
          0 0 0 0 0 0
          0 0 0 0 0 0
          0 0 0 0 0 0
          0 0 0 0 0 0
          0 0 0 0 0 0
          0 0 0 0 0 0
          0 0 0 0 0 0
          0 0 0 0 0 0
          0 0 0 0 0 0
          0 0 0 0 0 0
          0 0 0 0 0 0
          0 0 0 0 0 0
          0 0 0 0 0 0
          0 0 0 0 0 0
          0 0 0 0 0 0
          0 0 0 0 0 0
          0 0 0 0 0 0
          0 0 0 0 0 0
          0 0 0 0 0 0
          0 0 0 0 0 0
          0 0 0 0 0 0
          0 0 0 0 0 0
          0 0 0 0 0 0
          0 0 0 0 0 0
          0 0 0 0 0 0
          0 0 0 0 0 0
          0 0 0 0 0 0
          0 0 0 0 0 0
          0 0 0 0 0 0
          0 0 0 0 0 0
          0 0 0 0 0 0
          0 0 0 0 0 0
          0 0 0 0 0 0
          0 0 0 0 0 0
          0 0 0 0 0 0
          0 0 0 0 0 0
          0 0 0 0 0 0
          0 0 0 0 0 0
          0 0 0 0 0 0
          0 0 0 0 0 0
          0 0 0 0 0 0
          0 0 0 0 0 0
          0 0 0 0 0 0
          0 0 0 0 0 0
          0 0 0 0 0 0
          0 0 0 0 0 0
          0 0 0 0 0 0
          0
        </DataArray>
        <DataArray type="Float64" Name="combo" format="ascii" RangeMin="1" RangeMax="1">
          1 1 1 1 1 1
          1 1 1 1 1 1
          1 1 1 1 1 1
          1 1 1 1 1 1
          1 1 1 1 1 1
          1 1 1 1 1 1
          1 1 1 1 1 1
          1 1 1 1 1 1
          1 1 1 1 1 1
          1 1 1 1 1 1
          1 1 1 1 1 1
          1 1 1 1 1 1
          1 1 1 1 1 1
          1 1 1 1 1 1
          1 1 1 1 1 1
          1 1 1 1 1 1
          1 1 1 1 1 1
          1 1 1 1 1 1
          1 1 1 1 1 1
          1 1 1 1 1 1
          1 1 1 1 1 1
          1 1 1 1 1 1
          1 1 1 1 1 1
          1 1 1 1 1 1
          1 1 1 1 1 1
          1 1 1 1 1 1
          1 1 1 1 1 1
          1 1 1 1 1 1
          1 1 1 1 1 1
          1 1 1 1 1 1
          1 1 1 1 1 1
          1 1 1 1 1 1
          1 1 1 1 1 1
          1 1 1 1 1 1
          1 1 1 1 1 1
          1 1 1 1 1 1
          1 1 1 1 1 1
          1 1 1 1 1 1
          1 1 1 1 1 1
          1 1 1 1 1 1
          1 1 1 1 1 1
          1 1 1 1 1 1
          1 1 1 1 1 1
          1 1 1 1 1 1
          1 1 1 1 1 1
          1 1 1 1 1 1
          1 1 1 1 1 1
          1 1 1 1 1 1
          1 1 1 1 1 1
          1 1 1 1 1 1
          1 1 1 1 1 1
          1 1 1 1 1 1
          1 1 1 1 1 1
          1 1 1 1 1 1
          1 1 1 1 1 1
          1 1 1 1 1 1
          1 1 1 1 1 1
          1 1 1 1 1 1
          1 1 1 1 1 1
          1 1 1 1 1 1
          1 1 1 1 1 1
          1 1 1 1 1 1
          1 1 1 1 1 1
          1 1 1 1 1 1
          1 1 1 1 1 1
          1 1 1 1 1 1
          1
        </DataArray>
        <DataArray type="Float64" Name="dHdT" format="ascii" RangeMin="25.843120092390052" RangeMax="37.98201283306948">
          25.925949457281472 28.760945730204142 26.25882248353534 26.134879930057668 29.099024119274297 27.5563117617765
          25.895371115199406 26.625986586418172 26.25044935328098 37.98201283306948 30.857432106743282 27.00543844861953
          26.59518430580914 26.533597198394023 27.861326946324006 27.639087373775027 26.22297829813691 26.992901760344317
          26.864100298630284 27.133745099403143 26.568711917293157 31.863537307879163 30.808349977759967 28.57816600483092
          28.84919272241111 26.046947893808127 26.027986871023725 26.43335296380248 26.36450370797253 25.916935076242556
          26.106162543683947 26.073195469882435 25.981879410768812 26.2076052235088 25.998399298662022 27.521337334419833
          27.262223778003957 26.503462364948124 26.734012999647195 34.84207543270315 33.00139622054862 29.43848322429227
          36.28372550399947 30.24590153574337 29.295901730395105 27.817959781247268 27.425093324939247 27.685874383533296
          26.70342297673187 32.72755229041844 30.985079407280374 28.118097848041906 28.33856066843684 26.15669116893972
          26.104651542386947 26.233964551761872 26.2076227032372 26.05455805140575 26.039212071058344 26.00050044081608
          25.94318203363083 25.935043049531956 25.9147340891979 26.7846473224452 27.092419758130532 27.0612155081757
          26.97366337013525 27.80279484182568 26.570136725215335 26.552796246216484 26.79108246088365 26.766832571022746
          26.365169061297223 26.54473638011042 26.526473404484765 26.504711088731717 26.699060960246115 26.475291236198082
          27.383809698116025 27.338869947512723 26.958941566390987 27.213290418623014 26.628583643515718 26.843783486129098
          27.402953719858687 26.432726987710744 26.59873234087617 26.275013393997796 26.39957846701227 26.310338848396942
          27.03129686005387 26.72644711254977 26.82287650346434 29.21703251431964 29.094595997957185 28.762051163976388
          31.577629797162807 28.405270911725 28.314580849431614 27.75528387017504 27.68878014343269 28.067212462557325
          27.506250661193576 30.29849672389271 30.08927831329049 28.956614545734116 29.54395926082058 28.304823573421793
          27.812767922829472 29.812476920499407 27.722605091539595 27.248943779260912 27.346932203115 26.966029981274115
          28.839099968439054 28.074379408620395 28.133605300160035 26.225882513851385 26.216392818934096 26.34805460620901
          26.334660831851227 26.100279835579975 26.195028902620333 26.185361289603176 26.18979640615447 26.29701613959375
          26.158201782211222 26.679056406549655 26.65401086956026 26.415198423357225 26.58391075900897 26.01764662545927
          26.012866402749516 26.078793013085157 26.072003703732882 25.949330236845412 25.993261832675657 25.988677720847583
          25.999596903368612 26.052931233629934 25.97583283290229 26.24556964083417 26.232803137695704 26.097488733214174
          26.197146546118454 26.149799808171096 26.24124231522648 26.052610435708985 26.11809583097969 26.101921719012275
          26.17562814501271 26.071297847033016 26.48214739251495 26.291184588487916 26.365783467372836 25.979888622925017
          26.02494243654142 25.92697547751837 25.956954698122253 25.956863823829416 25.992676387960458 25.9352781525795
          26.145624509358832 26.038052200437264 26.087139258874508 27.24047218125243 27.192224571682985 26.838612716378677
          26.803560369781405 27.058464687702966 26.70691351008546 28.200890738253733 28.101889370289975 27.45111399656373
          27.834772960375002 26.530465565745423 26.505774560625486 26.300814980397888 26.283970567387357 26.437789682914488
          26.237489319361366 27.007609423687086 26.958723025595987 26.592971309108613 26.827132848135854 26.868990485151855
          26.57032083415589 26.659920559439275 26.419601470041084 27.47304521605247 27.004992736572994 27.095472047377427
          26.34173281535991 26.17169568325631 26.235809374086564 26.099243587022073 26.64728097626898 26.380568836861542
          26.45697866946925 33.548741443146874 33.176783553160206 31.55842831403524 31.23564401158681 32.11436635237021
          30.394826647536735 36.556170552317376 36.253484920712694 34.36708238069239 35.13848751251106 30.658048794262985
          29.35385751792871 29.277941335900593 28.3908011181656 33.08561866068224 31.140324901993466 37.43521444147423
          37.45738426326291 37.2556186970658 36.84521455530554 37.00242620180904 35.373679274840015 37.31352784059195
          37.51509986450667 37.6617781826874 37.46994648132436 35.1310327548468 32.89797430754497 30.430085432236623