<?xml version="1.0"?>
<VTKFile type="UnstructuredGrid" version="0.1" byte_order="LittleEndian" header_type="UInt32" compressor="vtkZLibDataCompressor">
  <UnstructuredGrid>
    <Piece NumberOfPoints="522" NumberOfCells="264">
      <PointData>
        <DataArray type="Int32" Name="libmesh_node_id" format="ascii" RangeMin="356" RangeMax="4325">
          356 357 398 399 400 453
          454 456 457 458 459 460
          461 462 465 466 481 482
          483 484 486 487 488 489
          491 492 493 494 563 570
          571 572 573 574 575 576
          577 578 579 580 581 582
          583 600 601 603 604 623
          625 629 630 674 678 679
          680 682 686 690 691 692
          693 694 695 696 697 698
          699 700 701 702 703 704
          705 706 707 708 709 710
          711 712 713 945 957 958
          959 962 965 967 968 969
          970 971 972 973 974 975
          976 977 978 979 980 981
          982 983 984 985 986 987
          988 989 990 1041 1042 1043
          1044 1045 1046 1047 1048 1049
          1050 1147 1151 1152 1154 1155
          1156 1157 1158 1159 1160 1161
          1162 1163 1164 1165 1166 1167
          1168 1169 1170 1171 1172 1173
          1174 1175 1176 1177 1178 1179
          1180 1181 1182 1183 1184 1185
          1186 1187 1188 1749 1750 1751
          1752 1753 1754 1757 1758 1769
          1770 1771 1772 1773 1774 1775
          1776 1777 1778 1791 1792 1793
          1794 1797 1798 1806 1807 1808
          1809 1810 1811 1812 1813 1814
          1815 1816 1817 1818 1819 1820
          1821 1822 1823 1824 1825 1826
          1827 1828 1829 1830 1831 1832
          1833 1834 1835 1836 1837 1838
          1839 1840 1841 1842 1843 1844
          1845 1846 1911 1912 1913 1914
          1915 1916 1917 1918 1919 1920
          1921 1922 1923 1924 1925 1926
          1927 1928 1929 1930 1931 1980
          1981 1982 1983 1984 1985 1986
          1987 1988 1989 1990 1991 1992
          1993 1994 1995 1996 1997 1998
          1999 2000 2008 2009 2010 2011
          2012 2013 2014 2015 2016 2017
          3862 3863 3864 3865 3866 3867
          3868 3869 3870 3871 3872 3873
          3874 3875 3882 3886 3887 3888
          3889 3890 3891 3892 3893 3894
          3895 3945 3946 3949 3951 3953
          3954 3955 3956 3957 3958 3959
          3960 3961 3962 4041 4042 4043
          4044 4045 4046 4047 4048 4049
          4050 4054 4058 4059 4060 4061
          4062 4063 4064 4075 4076 4077
          4078 4079 4080 4081 4082 4083
          4084 4088 4092 4093 4094 4095
          4096 4097 4098 4156 4158 4160
          4162 4163 4164 4165 4166 4167
          4168 4177 4180 4182 4184 4186
          4187 4188 4189 4190 4191 4192
          4194 4196 4198 4200 4201 4202
          4203 4204 4205 4206 4207 4208
          4209 4210 4211 4212 4213 4214
          4215 4216 4217 4218 4219 4220
          4221 4222 4223 4224 4225 4226
          4227 4228 4229 4230 4231 4232
          4233 4234 4235 4236 4237 4238
          4239 4240 4241 4242 4243 4244
          4245 4246 4247 4248 4249 4250
          4251 4252 4253 4254 4255 4256
          4257 4258 4259 4260 4261 4262
          4263 4264 4265 4266 4267 4268
          4269 4270 4271 4272 4273 4274
          4275 4276 4277 4278 4279 4280
          4281 4282 4283 4284 4285 4286
          4287 4288 4289 4290 4291 4292
          4293 4294 4295 4296 4297 4298
          4299 4300 4301 4302 4303 4304
          4305 4306 4307 4308 4309 4310
          4311 4312 4313 4314 4315 4316
          4317 4318 4319 4320 4321 4322
          4323 4324 4325 673 676 557
          560 564 565 683 681 464
          688 675 455 906 894 907
          1153 1148 908 935 943 947
        </DataArray>
        <DataArray type="Float64" Name="bounds" format="ascii" RangeMin="0" RangeMax="0">
          0 0 0 0 0 0
          0 0 0 0 0 0
          0 0 0 0 0 0
          0 0 0 0 0 0
          0 0 0 0 0 0
          0 0 0 0 0 0
          0 0 0 0 0 0
          0 0 0 0 0 0
          0 0 0 0 0 0
          0 0 0 0 0 0
          0 0 0 0 0 0
          0 0 0 0 0 0
          0 0 0 0 0 0
          0 0 0 0 0 0
          0 0 0 0 0 0
          0 0 0 0 0 0
          0 0 0 0 0 0
          0 0 0 0 0 0
          0 0 0 0 0 0
          0 0 0 0 0 0
          0 0 0 0 0 0
          0 0 0 0 0 0
          0 0 0 0 0 0
          0 0 0 0 0 0
          0 0 0 0 0 0
          0 0 0 0 0 0
          0 0 0 0 0 0
          0 0 0 0 0 0
          0 0 0 0 0 0
          0 0 0 0 0 0
          0 0 0 0 0 0
          0 0 0 0 0 0
          0 0 0 0 0 0
          0 0 0 0 0 0
          0 0 0 0 0 0
          0 0 0 0 0 0
          0 0 0 0 0 0
          0 0 0 0 0 0
          0 0 0 0 0 0
          0 0 0 0 0 0
          0 0 0 0 0 0
          0 0 0 0 0 0
          0 0 0 0 0 0
          0 0 0 0 0 0
          0 0 0 0 0 0
          0 0 0 0 0 0
          0 0 0 0 0 0
          0 0 0 0 0 0
          0 0 0 0 0 0
          0 0 0 0 0 0
          0 0 0 0 0 0
          0 0 0 0 0 0
          0 0 0 0 0 0
          0 0 0 0 0 0
          0 0 0 0 0 0
          0 0 0 0 0 0
          0 0 0 0 0 0
          0 0 0 0 0 0
          0 0 0 0 0 0
          0 0 0 0 0 0
          0 0 0 0 0 0
          0 0 0 0 0 0
          0 0 0 0 0 0
          0 0 0 0 0 0
          0 0 0 0 0 0
          0 0 0 0 0 0
          0 0 0 0 0 0
          0 0 0 0 0 0
          0 0 0 0 0 0
          0 0 0 0 0 0
          0 0 0 0 0 0
          0 0 0 0 0 0
          0 0 0 0 0 0
          0 0 0 0 0 0
          0 0 0 0 0 0
          0 0 0 0 0 0
          0 0 0 0 0 0
          0 0 0 0 0 0
          0 0 0 0 0 0
          0 0 0 0 0 0
          0 0 0 0 0 0
          0 0 0 0 0 0
          0 0 0 0 0 0
          0 0 0 0 0 0
          0 0 0 0 0 0
          0 0 0 0 0 0
          0 0 0 0 0 0
        </DataArray>
        <DataArray type="Float64" Name="gradient_error" format="ascii" RangeMin="2.370021441094405e-13" RangeMax="1.2211854178058204e-9">
          1.4010696641277476e-11 7.466870822287593e-11 9.165841964895896e-13 1.8788798781947612e-11 4.379943659805525e-12 1.3297293961866017e-10
          4.352357889584265e-10 4.55954336505442e-10 3.475792838933288e-11 7.913322586903822e-12 2.540340157050865e-11 5.470119292126345e-10
          4.1458244291197834e-10 3.66425404210405e-11 1.2964918812774863e-11 1.2696487420968233e-10 8.798252697234007e-12 7.511695056832177e-12
          5.32852382926799e-12 6.862358577509064e-12 2.611424541959594e-12 2.407162948931052e-12 6.225137416430346e-12 8.189059348208362e-12
          1.3316404666310652e-12 6.319711673817009e-12 2.2824644315276086e-12 1.0152981279986377e-11 6.202230153043013e-10 2.7735395700436797e-11
          2.6151750022986477e-11 1.1705242013579718e-11 9.859812316885148e-12 8.821081928811133e-12 1.6702500457525648e-12 4.197240807577101e-12
          3.4174494283683193e-11 4.3749170030287706e-11 1.1966420215003029e-11 2.533465816751592e-11 4.681971771118492e-12 2.643840775817933e-12
          5.4897231904137817e-11 1.3121683623733042e-10 1.4070246005339977e-10 1.7163941305829303e-11 2.708227530862177e-11 1.1567383153836222e-10
          2.8758685753719222e-11 1.050523120334447e-10 2.0007285779401995e-11 6.914613330193075e-11 4.92188373309043e-10 1.6748175685432147e-10
          5.447492007795629e-10 2.1326749107642563e-10 8.762149111408036e-11 3.7941093698370294e-11 5.062571392405852e-11 1.5035231174503328e-11
          1.7898890730239762e-11 2.2627982123143485e-11 2.7046577335584048e-11 1.4101701610436866e-11 6.331033414974674e-11 2.0762550285976196e-11
          3.146517254802461e-11 1.907169761792231e-12 2.3381649547890573e-12 1.0899741606414294e-12 2.1609825284087893e-12 1.7867085708027326e-12
          8.452861210482725e-13 1.6298208990983363e-12 2.769160147785883e-12 3.222705614594014e-12 2.4143556771484002e-12 2.8235521099617866e-13
          1.9861481529162823e-12 1.4729332273939402e-12 3.676251081402146e-12 7.411242367284674e-11 8.868063230699139e-12 6.20056666410283e-12
          2.951733834824595e-12 7.778981957326995e-12 9.857881135509008e-12 2.9760913274512565e-12 2.4770514469459153e-12 1.7753174125967574e-12
          1.8196076241171636e-12 1.3050189364009539e-12 1.1410023711307004e-12 1.3738996366623627e-12 2.343019336471584e-12 2.6942403308595377e-12
          1.6131129917454703e-12 2.1604382164441848e-12 2.6122520668952515e-12 1.5137375896413596e-12 3.2913176078233664e-12 2.3041968488659235e-11
          2.3581603513817635e-11 1.1907548131806124e-11 1.0979690112083347e-11 2.4889991106149127e-11 3.556478474336673e-11 1.2885472703995763e-11
          2.466617763503108e-11 9.553451608388136e-12 4.1226316586582176e-11 1.1604055566310542e-11 1.3044410607566781e-11 3.023774161962744e-11
          2.7854674204979976e-11 8.00443379360296e-12 9.873548968841996e-12 1.0993858237750177e-11 1.4484765648823022e-11 2.547160679033251e-11
          1.211416750665836e-11 4.613993357429898e-10 4.873983402778175e-10 1.291815558770014e-10 4.5230835685916594e-11 6.701736153126552e-11
          1.0689383928731194e-10 1.4422495784228967e-10 5.218743545260487e-11 1.9881026556920535e-11 1.831949162017425e-11 1.8411856172758154e-11
          1.6088966362529504e-11 6.312228568879377e-12 1.15716206170216e-11 9.930941650883984e-12 1.574793662263345e-11 1.7565768961925724e-11
          8.42385928729369e-12 2.3022049071118348e-12 2.0276179385895203e-12 3.256834124627705e-12 2.771513889026492e-12 1.5756181706172428e-12
          1.4817963325684899e-12 1.454157073819453e-12 1.753030970067206e-12 2.286193653425279e-12 1.4265178150704161e-12 3.15437555212715e-12
          3.749397061417212e-12 2.126836211403654e-12 2.309774874846447e-12 3.196748033150227e-12 3.927863772184565e-12 3.0451052148082004e-12
          4.3444185707072745e-12 2.49271353828924e-12 4.658979511218902e-12 6.059635707593829e-12 4.344295116106397e-12 3.7956769408885996e-12
          1.256954974551872e-11 7.942003154980212e-12 2.986905587940187e-12 4.967886049912244e-12 9.9587741430761e-12 7.078355363433009e-12
          6.931774614521106e-12 2.540844743596066e-12 2.808881412780326e-12 4.842376746296535e-12 8.274618244993828e-12 2.888832027244395e-12
          7.333815762363446e-12 4.040157950346177e-12 9.07363579618822e-12 1.8551377405821022e-11 1.4547345014874567e-11 2.7641386272527965e-11
          6.979129287121145e-12 2.0328247481652038e-11 3.923618741845664e-11 9.550674276331453e-12 4.442351812246106e-12 7.807706779871007e-12
          5.463485609931557e-12 1.1482454804782848e-11 3.943038001837593e-12 7.732701154941794e-12 2.0136880253357737e-12 1.8063791248829516e-12
          1.7819762831054002e-12 1.5673332984201214e-12 9.263195960866168e-13 1.7153013706206923e-12 1.5147087081656465e-12 1.3152833577372531e-12
          1.5454599061913555e-12 1.074029550173313e-12 1.876959508795108e-12 1.5436331554258354e-12 1.2956225239881704e-12 1.5754841700144591e-12
          4.0809336923551045e-12 3.2091968768742906e-12 1.6421157674968695e-12 1.3374513462465556e-12 2.188185443945559e-12 1.764294433999491e-12
          5.648742629058424e-12 4.49744394609472e-12 1.7523871416257729e-12 2.9526007199707473e-12 1.8916952219847463e-12 2.4631460561561017e-12
          1.3188738737882776e-12 2.2581629566739543e-12 1.7964384978143605e-12 2.817647297082246e-12 1.2162600886473952e-12 2.998489112687343e-12
          2.7410616930004063e-12 3.3180912742927343e-12 1.3973671959993993e-11 1.894243860335423e-11 8.276119638711646e-12 9.585071399334986e-12
          1.3209427358149042e-11 1.654307833514801e-11 1.0479090306281639e-11 3.812969727473948e-13 3.6290227619507535e-13 4.968561876466036e-13
          4.4991782259591196e-13 2.4599605576815963e-13 2.370021441094405e-13 2.531324324086955e-13 3.445075796427559e-13 4.029794575452203e-13
          2.692627207079505e-13 6.124154025458123e-13 5.369333689967486e-13 2.602688090492313e-13 4.614513354476847e-13 8.568140222826733e-13
          1.3612670595607157e-12 5.843797559379683e-13 7.234316415835104e-13 6.821315535209699e-13 9.789026146389668e-13 6.129202285309953e-13
          1.0818055920939964e-12 9.212796848209626e-13 1.440812138385703e-12 1.2199830692772923e-12 5.016543351323589e-13 7.039356772992856e-13
          6.342634206412224e-13 7.607537775479291e-13 9.991540001688817e-13 5.645911639831593e-13 1.7998186846774099e-12 1.518686453733622e-12
          7.668725061500858e-13 1.2375542227898341e-12 5.664469421128775e-12 6.805073597383141e-12 3.16164455333423e-12 3.5442300586125453e-12
          3.4182443492671397e-12 3.6202091261927564e-12 2.3121171042315947e-12 7.945677773637507e-12 3.92681556389086e-12 3.822173903118373e-12
          3.5044550596489558e-12 3.3472080349315152e-12 5.76279709036876e-12 5.480928755607027e-12 1.7415493142574464e-12 2.9285929717823125e-12
          2.787769602301581e-12 2.9289807090206775e-12 4.724495910984558e-12 2.4124521553015487e-12 1.2422450567757608e-11 1.1740077025033515e-11
          5.864918714884647e-12 9.920353452403695e-12 5.067661135355048e-12 2.3707243549152666e-12 3.7128033531531475e-12 1.2490322209171678e-12
          1.890088733856e-12 1.7617533156580707e-12 2.652477000766133e-12 1.547616845901309e-12 7.54222995560591e-12 3.77955197177561e-12
          5.1722530094850644e-12 2.291475732691879e-12 3.3237223253881557e-12 2.567539893346044e-12 6.189404081516517e-12 1.2197577507655071e-12
          1.7305001173556445e-12 8.920390622319628e-13 1.1953779542554663e-12 9.894571722181265e-13 1.3317215383614953e-12 9.523441506665066e-13
          3.19643317054757e-12 1.878686910162212e-12 2.349816810838863e-12 2.378812837167912e-11 2.2382275820888087e-11 1.1738922230792303e-11
          1.1052219514345617e-11 1.865399888296987e-11 9.22932707162177e-12 3.7759413496227676e-11 3.554105259046828e-11 1.746288519923574e-11
          2.958165588084002e-11 1.780668990820426e-11 1.3821424108552022e-11 6.868349508399299e-12 9.155877935261998e-12 4.5609323170983485e-12
          2.17134557808948e-11 1.0709720398157568e-11 1.4094104924978274e-11 4.795258760569583e-11 4.537669818964082e-11 2.3662749806690844e-11
          2.237055157851615e-11 3.819596390657922e-11 1.8803434665781197e-11 5.11388429478679e-11 4.857033826633676e-11 2.4023924247828483e-11
          4.121591802555918e-11 3.600113136349393e-11 2.8263407924978267e-11 1.3925656840054514e-11 1.831871761896707e-11 9.05070849799888e-12
          3.0713174945450186e-11 1.5140613203836102e-11 1.9959675925405655e-11 1.0618904837853706e-11 6.744584933694629e-12 1.6012105006074538e-11
          5.440935409040935e-12 2.7137969686762473e-12 3.881388668819236e-12 1.949290974609791e-12 8.167981340106988e-12 4.05927789825051e-12
          4.861982130651045e-12 4.614273287504271e-12 2.059450937204896e-11 1.0569520692575938e-11 2.237977916270765e-11 1.054342840251828e-11
          5.224643302355775e-12 5.430296227338472e-12 3.2371164470514026e-12 1.1481141085755095e-11 5.689652803459192e-12 5.936184068933182e-12
          5.050487285429008e-12 3.2850352005672475e-12 5.443830848704723e-12 2.4709894867497398e-12 2.6498364928973e-12 1.8139494416992872e-12
          1.858540506956738e-12 1.8241212116980973e-12 1.824198908603976e-12 1.3470662879630433e-12 2.82868349904486e-12 1.9031315722141893e-12
          1.824276605509855e-12 9.249614888961637e-13 8.861348244129047e-13 1.4405464384710146e-12 1.37362469507891e-12 6.285488678035019e-13
          9.461590716552432e-13 9.046858070891598e-13 7.803625550392738e-13 1.193095066535531e-12 7.861091173262738e-13 3.0187324859994166e-12
          2.858170966273567e-12 1.598340119388259e-12 2.42810088911416e-12 6.437204970178825e-13 9.367195031276472e-13 4.676013678671179e-13
          6.389568391248753e-13 5.740240438868631e-13 7.939518248710373e-13 5.689079861202796e-13 1.8421660892710775e-12 1.0379510298131542e-12
          1.4341684079461302e-12 5.640949018647818e-12 5.315141455674796e-12 2.6191667124971935e-12 2.4701206055362006e-12 4.4473185836242574e-12
          2.072007645343032e-12 8.835306739955782e-12 8.319218112811428e-12 3.843620503675025e-12 6.9358027148849006e-12 8.49698989544574e-13
          8.049675447239247e-13 1.1667131226178545e-12 1.101787604240724e-12 5.188678854809896e-13 7.178487084314797e-13 6.792613031055472e-13
          6.835822003146795e-13 9.28748870379421e-13 5.740060537970426e-13 1.825338877819963e-12 1.7188157579716162e-12 1.041897615355999e-12
          1.4380023549441006e-12 3.3194908443728087e-12 1.5433133727566025e-12 2.20163640685237e-12 1.2016624017107698e-12 5.13758351417367e-12
          2.3726841900101615e-12 3.3636376405143268e-12 5.238673503512217e-13 6.95490373747414e-13 3.5238163020138393e-13 4.4782087447210605e-13
          4.4080639997635993e-13 5.703450925995799e-13 3.883035391297417e-13 1.0568684591007863e-12 6.601241474562367e-13 8.500248464366411e-13
          1.1309357443277875e-11 1.0684462366230902e-11 5.241751454400747e-12 4.948387672044634e-12 8.968284723776314e-12 4.149084627197625e-12
          1.2148665859986854e-11 1.150554405138632e-11 5.342676741916639e-12 9.709226984834812e-12 2.3618109940122607e-12 2.2258701588462295e-12
          1.44986256033472e-12 1.3644495562219724e-12 1.8627875332735313e-12 1.1337632203550344e-12 2.5566714880757305e-12 2.4127164655067505e-12
          1.4847586024620512e-12 2.0234858971030232e-12 6.675020820010865e-12 3.079706658958689e-12 4.353613376950471e-12 2.3553984849570527e-12
          7.259242631115266e-12 3.3489012938818458e-12 4.738911477585439e-12 1.3660631553194068e-12 8.518677125654553e-13 1.0964805677719503e-12
          7.152455365300664e-13 1.4855027895808472e-12 9.267472489612652e-13 1.1927952278934182e-12 1.0048065632164447e-12 1.3127149457753303e-12
          7.030525253038545e-13 8.744955694488827e-13 7.585875963176044e-13 9.558354920447972e-13 6.713758405701532e-13 1.9458976501120473e-12
          1.2516679371538739e-12 1.3712111034400515e-12 2.4840186745634585e-12 1.5882330072051277e-12 1.7338500768790035e-12 1.1428064659603974e-12
          2.6968653772370382e-12 1.7190687536964185e-12 1.878361334649894e-12 5.641322525294786e-10 1.540168494938587e-10 8.276348589745128e-10
          1.451260753933435e-10 1.2211854178058204e-9 2.377746026185126e-10 2.415985595595811e-10 8.0878675495314e-10 3.078364402327897e-10
          2.6992962804273663e-10 1.4055194213339587e-10 1.5233324794955632e-10 1.8701587269949814e-10 8.741841988088836e-10 2.227057642329671e-10
          2.242665808923696e-10 8.42271889506046e-10 5.879543761856245e-11 1.0267941012836154e-9 2.724961320925175e-10 2.81502418724373e-10
        </DataArray>
        <DataArray type="Float64" Name="gradient_matprop_error" format="ascii" RangeMin="0" RangeMax="0">
          0 0 0 0 0 0
          0 0 0 0 0 0
          0 0 0 0 0 0
          0 0 0 0 0 0
          0 0 0 0 0 0
          0 0 0 0 0 0
          0 0 0 0 0 0
          0 0 0 0 0 0
          0 0 0 0 0 0
          0 0 0 0 0 0
          0 0 0 0 0 0
          0 0 0 0 0 0
          0 0 0 0 0 0
          0 0 0 0 0 0
          0 0 0 0 0 0
          0 0 0 0 0 0
          0 0 0 0 0 0
          0 0 0 0 0 0
          0 0 0 0 0 0
          0 0 0 0 0 0
          0 0 0 0 0 0
          0 0 0 0 0 0
          0 0 0 0 0 0
          0 0 0 0 0 0
          0 0 0 0 0 0
          0 0 0 0 0 0
          0 0 0 0 0 0
          0 0 0 0 0 0
          0 0 0 0 0 0
          0 0 0 0 0 0
          0 0 0 0 0 0
          0 0 0 0 0 0
          0 0 0 0 0 0
          0 0 0 0 0 0
          0 0 0 0 0 0
          0 0 0 0 0 0
          0 0 0 0 0 0
          0 0 0 0 0 0
          0 0 0 0 0 0
          0 0 0 0 0 0
          0 0 0 0 0 0
          0 0 0 0 0 0
          0 0 0 0 0 0
          0 0 0 0 0 0
          0 0 0 0 0 0
          0 0 0 0 0 0
          0 0 0 0 0 0
          0 0 0 0 0 0
          0 0 0 0 0 0
          0 0 0 0 0 0
          0 0 0 0 0 0
          0 0 0 0 0 0
          0 0 0 0 0 0
          0 0 0 0 0 0
          0 0 0 0 0 0
          0 0 0 0 0 0
          0 0 0 0 0 0
          0 0 0 0 0 0
          0 0 0 0 0 0
          0 0 0 0 0 0
          0 0 0 0 0 0
          0 0 0 0 0 0
          0 0 0 0 0 0
          0 0 0 0 0 0
          0 0 0 0 0 0
          0 0 0 0 0 0
          0 0 0 0 0 0
          0 0 0 0 0 0
          0 0 0 0 0 0
          0 0 0 0 0 0
          0 0 0 0 0 0
          0 0 0 0 0 0
          0 0 0 0 0 0
          0 0 0 0 0 0
          0 0 0 0 0 0
          0 0 0 0 0 0
          0 0 0 0 0 0
          0 0 0 0 0 0
          0 0 0 0 0 0
          0 0 0 0 0 0
          0 0 0 0 0 0
          0 0 0 0 0 0
          0 0 0 0 0 0
          0 0 0 0 0 0
          0 0 0 0 0 0
          0 0 0 0 0 0
          0 0 0 0 0 0
        </DataArray>
        <DataArray type="Float64" Name="initial_marker" format="ascii" RangeMin="0" RangeMax="2">
          0 0 0 0 0 0
          0 0 0 0 0 0
          0 0 0 0 0 0
          0 0 0 0 0 0
          0 0 0 0 0 0
          0 0 0 0 0 0
          0 0 0 2 0 0
          0 0 0 0 0 0
          0 0 0 0 0 0
          0 0 0 0 0 0
          0 0 0 0 0 0
          0 0 0 0 0 0
          0 0 0 0 0 0
          0 0 0 0 0 2
          1 0 2 0 0 0
          0 0 0 0 0 0
          0 1 0 0 0 0
          0 0 0 0 0 0
          0 0 0 0 0 0
          0 0 0 0 0 0
          0 0 0 0 0 0
          0 0 0 0 0 0
          0 0 0 0 0 0
          0 0 0 0 0 0
          0 0 0 0 0 0
          0 0 0 0 0 0
          0 0 0 0 0 0
          0 0.25 0 2 2 0
          0 0 0 0 0 0
          0.5 0 0 2 2 2
          2 2 2 1.75 0.5 0
          0 2 1 0 0 0
          0 0 0 0 0 0
          0 0 1 0.5 0 0
          2 2 0.5 0.5 1 0
          2 2 1 1.5 0 0
          0 0 0 0 0 0
          0 0 0 0 0 0
          0 0 0 0 0 0
          0 0 0 0 0 0
          0 0 0 0 0 0
          0 0 0 0 0 0
          0 0 0 0 0 0
          0 0 0 0 0 0
          0 0 0 0 0 0
          0 0 0 0 0 0
          1 1 1.5 1.5 0 1
          1 0.5 1.25 1 2 2
          2 2 1.25 0 1 0
          0.75 0 0.75 0.3333333333333333 2 1.75
          1.75 0 0.5 0 1.5 0
          0.25 0 0 0 0 0
          1 0.3333333333333333 0.5 2 2 2
          2 2 2 2 2 2
          2 2 2 2 2 1.75
          2 2 2 2 2 2
          2 2 2 2 2 2
          2 2 2 2 2 2
          2 2 2 2 1.6666666666666667 2
          1.75 1 1.5 0.5 2 1.5
          1.6666666666666667 1 2 2 2 2
          1.75 1.5 1 2 2 1.5
          1 0 1 0.5 0.5 0
          0 0 0 0 0.5 0
          0 0 0 0.5 0.5 0
          0 0 0 0.5 0 1.5
          1.5 1 1.5 0 0.25 0
          0 0 0 0 1 0.3333333333333333
          0.3333333333333333 2 2 2 1.75 2
          1.5 2 2 2 2 1
          0.5 1 0.75 0 0 0
          0 0.5 0 1.5 1.5 1
          1.5 1.75 1 1 0.3333333333333333 2
          1.75 1.75 0 0.25 0 0
          0 0 0 1 0.5 0.5
          2 2 2 2 2 2
          2 2 2 2 2 2
          2 2 2 2 2 2
          2 2 2 2 2 2
          2 2 2 1.5 1 1
          0 1.5 1 1 0 0.25
          0 0 0 0 0 0.75
          0.5 0 1.25 1 0.5 0
          1.5 1 1 0 0 0
          0 0 0 0 0 0
          0 0 0 0 0 0
          0 0 0 0 0 0
        </DataArray>
        <DataArray type="Float64" Name="markers_norefine" format="ascii" RangeMin="0" RangeMax="0">
          0 0 0 0 0 0
          0 0 0 0 0 0
          0 0 0 0 0 0
          0 0 0 0 0 0
          0 0 0 0 0 0
          0 0 0 0 0 0
          0 0 0 0 0 0
          0 0 0 0 0 0
          0 0 0 0 0 0
          0 0 0 0 0 0
          0 0 0 0 0 0
          0 0 0 0 0 0
          0 0 0 0 0 0
          0 0 0 0 0 0
          0 0 0 0 0 0
          0 0 0 0 0 0
          0 0 0 0 0 0
          0 0 0 0 0 0
          0 0 0 0 0 0
          0 0 0 0 0 0
          0 0 0 0 0 0
          0 0 0 0 0 0
          0 0 0 0 0 0
          0 0 0 0 0 0
          0 0 0 0 0 0
          0 0 0 0 0 0
          0 0 0 0 0 0
          0 0 0 0 0 0
          0 0 0 0 0 0
          0 0 0 0 0 0
          0 0 0 0 0 0
          0 0 0 0 0 0
          0 0 0 0 0 0
          0 0 0 0 0 0
          0 0 0 0 0 0
          0 0 0 0 0 0
          0 0 0 0 0 0
          0 0 0 0 0 0
          0 0 0 0 0 0
          0 0 0 0 0 0
          0 0 0 0 0 0
          0 0 0 0 0 0
          0 0 0 0 0 0
          0 0 0 0 0 0
          0 0 0 0 0 0
          0 0 0 0 0 0
          0 0 0 0 0 0
          0 0 0 0 0 0
          0 0 0 0 0 0
          0 0 0 0 0 0
          0 0 0 0 0 0
          0 0 0 0 0 0
          0 0 0 0 0 0
          0 0 0 0 0 0
          0 0 0 0 0 0
          0 0 0 0 0 0
          0 0 0 0 0 0
          0 0 0 0 0 0
          0 0 0 0 0 0
          0 0 0 0 0 0
          0 0 0 0 0 0
          0 0 0 0 0 0
          0 0 0 0 0 0
          0 0 0 0 0 0
          0 0 0 0 0 0
          0 0 0 0 0 0
          0 0 0 0 0 0
          0 0 0 0 0 0
          0 0 0 0 0 0
          0 0 0 0 0 0
          0 0 0 0 0 0
          0 0 0 0 0 0
          0 0 0 0 0 0
          0 0 0 0 0 0
          0 0 0 0 0 0
          0 0 0 0 0 0
          0 0 0 0 0 0
          0 0 0 0 0 0
          0 0 0 0 0 0
          0 0 0 0 0 0
          0 0 0 0 0 0
          0 0 0 0 0 0
          0 0 0 0 0 0
          0 0 0 0 0 0
          0 0 0 0 0 0
          0 0 0 0 0 0
          0 0 0 0 0 0
        </DataArray>
        <DataArray type="Float64" Name="markers_mustrefine" format="ascii" RangeMin="0" RangeMax="2">
          0 0 0 0 0 0
          0 0 0 0 0 0
          0 0 0 0 0 0
          0 0 0 0 0 0
          0 0 0 0 0 0
          0 0 0 0 0 0
          0 0 0 2 0 0
          0 0 0 0 0 0
          0 0 0 0 0 0
          0 0 0 0 0 0
          0 0 0 0 0 0
          0 0 0 0 0 0
          0 0 0 0 0 0
          0 0 0 0 0 2
          1 0 2 0 0 0
          0 0 0 0 0 0
          0 1 0 0 0 0
          0 0 0 0 0 0
          0 0 0 0 0 0
          0 0 0 0 0 0
          0 0 0 0 0 0
          0 0 0 0 0 0
          0 0 0 0 0 0
          0 0 0 0 0 0
          0 0 0 0 0 0
          0 0 0 0 0 0
          0 0 0 0 0 0
          0 0.25 0 2 2 0
          0 0 0 0 0 0
          0.5 0 0 2 2 2
          2 2 2 1.75 0.5 0
          0 2 1 0 0 0
          0 0 0 0 0 0
          0 0 1 0.5 0 0
          2 2 0.5 0.5 1 0
          2 2 1 1.5 0 0
          0 0 0 0 0 0
          0 0 0 0 0 0
          0 0 0 0 0 0
          0 0 0 0 0 0
          0 0 0 0 0 0
          0 0 0 0 0 0
          0 0 0 0 0 0
          0 0 0 0 0 0
          0 0 0 0 0 0
          0 0 0 0 0 0
          1 1 1.5 1.5 0 1
          1 0.5 1.25 1 2 2
          2 2 1.25 0 1 0
          0.75 0 0.75 0.3333333333333333 2 1.75
          1.75 0 0.5 0 1.5 0
          0.25 0 0 0 0 0
          1 0.3333333333333333 0.5 2 2 2
          2 2 2 2 2 2
          2 2 2 2 2 1.75
          2 2 2 2 2 2
          2 2 2 2 2 2
          2 2 2 2 2 2
          2 2 2 2 1.6666666666666667 2
          1.75 1 1.5 0.5 2 1.5
          1.6666666666666667 1 2 2 2 2
          1.75 1.5 1 2 2 1.5
          1 0 1 0.5 0.5 0
          0 0 0 0 0.5 0
          0 0 0 0.5 0.5 0
          0 0 0 0.5 0 1.5
          1.5 1 1.5 0 0.25 0
          0 0 0 0 1 0.3333333333333333
          0.3333333333333333 2 2 2 1.75 2
          1.5 2 2 2 2 1
          0.5 1 0.75 0 0 0
          0 0.5 0 1.5 1.5 1
          1.5 1.75 1 1 0.3333333333333333 2
          1.75 1.75 0 0.25 0 0
          0 0 0 1 0.5 0.5
          2 2 2 2 2 2
          2 2 2 2 2 2
          2 2 2 2 2 2
          2 2 2 2 2 2
          2 2 2 1.5 1 1
          0 1.5 1 1 0 0.25
          0 0 0 0 0 0.75
          0.5 0 1.25 1 0.5 0
          1.5 1 1 0 0 0
          0 0 0 0 0 0
          0 0 0 0 0 0
          0 0 0 0 0 0
        </DataArray>
        <DataArray type="Float64" Name="gradient_marker" format="ascii" RangeMin="1" RangeMax="1">
          1 1 1 1 1 1
          1 1 1 1 1 1
          1 1 1 1 1 1
          1 1 1 1 1 1
          1 1 1 1 1 1
          1 1 1 1 1 1
          1 1 1 1 1 1
          1 1 1 1 1 1
          1 1 1 1 1 1
          1 1 1 1 1 1
          1 1 1 1 1 1
          1 1 1 1 1 1
          1 1 1 1 1 1
          1 1 1 1 1 1
          1 1 1 1 1 1
          1 1 1 1 1 1
          1 1 1 1 1 1
          1 1 1 1 1 1
          1 1 1 1 1 1
          1 1 1 1 1 1
          1 1 1 1 1 1
          1 1 1 1 1 1
          1 1 1 1 1 1
          1 1 1 1 1 1
          1 1 1 1 1 1
          1 1 1 1 1 1
          1 1 1 1 1 1
          1 1 1 1 1 1
          1 1 1 1 1 1
          1 1 1 1 1 1
          1 1 1 1 1 1
          1 1 1 1 1 1
          1 1 1 1 1 1
          1 1 1 1 1 1
          1 1 1 1 1 1
          1 1 1 1 1 1
          1 1 1 1 1 1
          1 1 1 1 1 1
          1 1 1 1 1 1
          1 1 1 1 1 1
          1 1 1 1 1 1
          1 1 1 1 1 1
          1 1 1 1 1 1
          1 1 1 1 1 1
          1 1 1 1 1 1
          1 1 1 1 1 1
          1 1 1 1 1 1
          1 1 1 1 1 1
          1 1 1 1 1 1
          1 1 1 1 1 1
          1 1 1 1 1 1
          1 1 1 1 1 1
          1 1 1 1 1 1
          1 1 1 1 1 1
          1 1 1 1 1 1
          1 1 1 1 1 1
          1 1 1 1 1 1
          1 1 1 1 1 1
          1 1 1 1 1 1
          1 1 1 1 1 1
          1 1 1 1 1 1
          1 1 1 1 1 1
          1 1 1 1 1 1
          1 1 1 1 1 1
          1 1 1 1 1 1
          1 1 1 1 1 1
          1 1 1 1 1 1
          1 1 1 1 1 1
          1 1 1 1 1 1
          1 1 1 1 1 1
          1 1 1 1 1 1
          1 1 1 1 1 1
          1 1 1 1 1 1
          1 1 1 1 1 1
          1 1 1 1 1 1
          1 1 1 1 1 1
          1 1 1 1 1 1
          1 1 1 1 1 1
          1 1 1 1 1 1
          1 1 1 1 1 1
          1 1 1 1 1 1
          1 1 1 1 1 1
          1 1 1 1 1 1
          1 1 1 1 1 1
          1 1 1 1 1 1
          1 1 1 1 1 1
          1 1 1 1 1 1
        </DataArray>
        <DataArray type="Float64" Name="gradient_matprop_marker" format="ascii" RangeMin="0" RangeMax="0">
          0 0 0 0 0 0
          0 0 0 0 0 0
          0 0 0 0 0 0
          0 0 0 0 0 0
          0 0 0 0 0 0
          0 0 0 0 0 0
          0 0 0 0 0 0
          0 0 0 0 0 0
          0 0 0 0 0 0
          0 0 0 0 0 0
          0 0 0 0 0 0
          0 0 0 0 0 0
          0 0 0 0 0 0
          0 0 0 0 0 0
          0 0 0 0 0 0
          0 0 0 0 0 0
          0 0 0 0 0 0
          0 0 0 0 0 0
          0 0 0 0 0 0
          0 0 0 0 0 0
          0 0 0 0 0 0
          0 0 0 0 0 0
          0 0 0 0 0 0
          0 0 0 0 0 0
          0 0 0 0 0 0
          0 0 0 0 0 0
          0 0 0 0 0 0
          0 0 0 0 0 0
          0 0 0 0 0 0
          0 0 0 0 0 0
          0 0 0 0 0 0
          0 0 0 0 0 0
          0 0 0 0 0 0
          0 0 0 0 0 0