<?xml version="1.0"?>
<VTKFile type="UnstructuredGrid" version="0.1" byte_order="LittleEndian" header_type="UInt32" compressor="vtkZLibDataCompressor">
  <UnstructuredGrid>
    <Piece NumberOfPoints="480" NumberOfCells="264">
      <PointData>
        <DataArray type="Int32" Name="libmesh_node_id" format="ascii" RangeMin="449" RangeMax="2324">
          449 533 538 540 544 553
          779 780 781 784 785 786
          787 827 828 829 830 845
          846 848 849 850 851 852
          854 1233 1234 1235 1236 1237
          1238 1239 1240 1241 1242 1243
          1244 1245 1246 1257 1258 1259
          1260 1261 1262 1263 1264 1265
          1266 1267 1268 1269 1270 1272
          1273 1274 1275 1277 1278 1279
          1280 1281 1282 1283 1284 1285
          1286 1292 1294 1295 1296 1297
          1298 1299 1300 1301 1302 1303
          1304 1305 1318 1319 1320 1321
          1322 1323 1324 1325 1326 1327
          1328 1329 1330 1331 1332 1334
          1335 1336 1337 1338 1340 1341
          1342 1343 1344 1345 1346 1347
          1348 1349 1350 1351 1352 1353
          1354 1355 1356 1357 1358 1359
          1360 1361 1362 1363 1364 1365
          1366 1367 1368 1369 1370 1371
          1372 1375 1377 1378 1380 1381
          1382 1383 1384 1385 1386 1387
          1388 1389 1390 1391 1392 1393
          1394 2035 2036 2037 2038 2039
          2040 2041 2042 2043 2044 2045
          2046 2047 2048 2049 2050 2051
          2052 2053 2054 2055 2056 2057
          2058 2059 2060 2061 2062 2063
          2064 2065 2066 2067 2068 2069
          2070 2071 2072 2073 2074 2075
          2076 2077 2078 2079 2080 2081
          2082 2083 2084 2085 2086 2087
          2088 2089 2090 2091 2092 2093
          2094 2095 2096 2097 2098 2099
          2100 2101 2102 2103 2104 2105
          2106 2107 2108 2109 2110 2111
          2112 2113 2114 2115 2116 2117
          2118 2119 2120 2121 2122 2123
          2124 2125 2126 2127 2128 2129
          2130 2131 2132 2133 2134 2135
          2136 2137 2138 2139 2140 2141
          2142 2143 2144 2145 2146 2147
          2148 2149 2150 2151 2152 2153
          2154 2155 2156 2157 2158 2159
          2160 2161 2162 2163 2164 2169
          2170 2171 2175 2176 2177 2178
          2179 2180 2181 2182 2183 2184
          2185 2186 2187 2188 2189 2190
          2191 2192 2193 2194 2195 2196
          2197 2198 2199 2200 2201 2202
          2203 2204 2205 2206 2207 2208
          2209 2210 2211 2212 2213 2214
          2215 2216 2217 2218 2219 2220
          2221 2222 2223 2224 2225 2226
          2227 2228 2229 2230 2231 2232
          2233 2234 2235 2236 2237 2238
          2239 2240 2241 2242 2243 2244
          2245 2246 2247 2248 2249 2250
          2251 2252 2259 2260 2262 2263
          2264 2265 2266 2267 2268 2269
          2274 2276 2277 2278 2279 2280
          2281 2282 2283 2284 2285 2286
          2287 2288 2291 2293 2294 2296
          2297 2298 2299 2300 2301 2302
          2303 2304 2306 2308 2310 2311
          2312 2314 2315 2316 2317 2318
          2319 2320 2321 2322 2323 2324
          782 534 805 803 783 806
          804 788 811 810 816 817
          818 819 821 822 824 825
          826 545 865 866 867 868
          872 873 1135 1136 775 776
          1138 1206 1208 1209 1207 1212
          1214 1213 1223 1224 1225 1228
          777 1231 778 1249 1250 1253
          1255 766 1229 1230 1196 1232
          767 1271 1211 1276 773 1254
          1288 1287 1291 1290 1289 1293
        </DataArray>
        <DataArray type="Float64" Name="bounds" format="ascii" RangeMin="0" RangeMax="0">
          0 0 0 0 0 0
          0 0 0 0 0 0
          0 0 0 0 0 0
          0 0 0 0 0 0
          0 0 0 0 0 0
          0 0 0 0 0 0
          0 0 0 0 0 0
          0 0 0 0 0 0
          0 0 0 0 0 0
          0 0 0 0 0 0
          0 0 0 0 0 0
          0 0 0 0 0 0
          0 0 0 0 0 0
          0 0 0 0 0 0
          0 0 0 0 0 0
          0 0 0 0 0 0
          0 0 0 0 0 0
          0 0 0 0 0 0
          0 0 0 0 0 0
          0 0 0 0 0 0
          0 0 0 0 0 0
          0 0 0 0 0 0
          0 0 0 0 0 0
          0 0 0 0 0 0
          0 0 0 0 0 0
          0 0 0 0 0 0
          0 0 0 0 0 0
          0 0 0 0 0 0
          0 0 0 0 0 0
          0 0 0 0 0 0
          0 0 0 0 0 0
          0 0 0 0 0 0
          0 0 0 0 0 0
          0 0 0 0 0 0
          0 0 0 0 0 0
          0 0 0 0 0 0
          0 0 0 0 0 0
          0 0 0 0 0 0
          0 0 0 0 0 0
          0 0 0 0 0 0
          0 0 0 0 0 0
          0 0 0 0 0 0
          0 0 0 0 0 0
          0 0 0 0 0 0
          0 0 0 0 0 0
          0 0 0 0 0 0
          0 0 0 0 0 0
          0 0 0 0 0 0
          0 0 0 0 0 0
          0 0 0 0 0 0
          0 0 0 0 0 0
          0 0 0 0 0 0
          0 0 0 0 0 0
          0 0 0 0 0 0
          0 0 0 0 0 0
          0 0 0 0 0 0
          0 0 0 0 0 0
          0 0 0 0 0 0
          0 0 0 0 0 0
          0 0 0 0 0 0
          0 0 0 0 0 0
          0 0 0 0 0 0
          0 0 0 0 0 0
          0 0 0 0 0 0
          0 0 0 0 0 0
          0 0 0 0 0 0
          0 0 0 0 0 0
          0 0 0 0 0 0
          0 0 0 0 0 0
          0 0 0 0 0 0
          0 0 0 0 0 0
          0 0 0 0 0 0
          0 0 0 0 0 0
          0 0 0 0 0 0
          0 0 0 0 0 0
          0 0 0 0 0 0
          0 0 0 0 0 0
          0 0 0 0 0 0
          0 0 0 0 0 0
          0 0 0 0 0 0
        </DataArray>
        <DataArray type="Float64" Name="gradient_error" format="ascii" RangeMin="1.0842538330903238e-9" RangeMax="1.7413201992750937e-7">
          1.9507422349948735e-9 1.430599196015484e-7 1.656689934399136e-8 1.7009251806402067e-7 1.1600539349003896e-7 1.5699046239620587e-7
          1.1825153728215444e-7 4.5275641870637727e-8 6.551254605881015e-8 1.386541653402886e-7 1.2797094317226827e-9 4.708106370517428e-8
          4.402436393832886e-8 1.340928166067609e-7 1.078310813327081e-7 9.078358761469148e-8 1.0432599622406314e-7 5.568493058405018e-8
          6.817671498353392e-8 7.814305161317975e-8 1.323564850736934e-7 1.1785085611846629e-7 4.133981619876293e-9 5.463709287947914e-8
          1.6845936085114325e-7 6.112535508917731e-8 5.832608076220884e-8 6.697619405274788e-8 6.49736901543653e-8 6.118241389680738e-8
          7.26718501019026e-8 7.005378734711e-8 5.0931829646670133e-8 5.860377671402703e-8 6.214317675646515e-8 4.0813138254694046e-8
          5.530734117787753e-8 5.22210255126681e-8 6.811788746933005e-8 4.16853485596674e-8 4.827439851716692e-8 4.2505391035885634e-8
          5.0082558687153404e-8 3.7033844261234916e-8 4.2312429862262503e-8 4.331448845369389e-8 5.980553097052511e-8 6.385012243500498e-8
          5.326908904822146e-8 2.986210646744136e-8 4.254049499042549e-8 1.8029005074173905e-8 3.267960768284934e-8 5.5405706532754335e-8
          2.0987199195573906e-9 2.828703766883711e-8 1.6793450918262755e-8 4.773568912159042e-9 2.2167260283680323e-8 4.491751519651261e-9
          1.4942090067422388e-8 5.482149099670521e-8 5.182085027249816e-8 1.0877407691350473e-9 3.891455967775052e-9 3.590729921936673e-9
          3.9674895980251185e-8 6.208254333164085e-8 6.643908546460433e-8 7.235630698661223e-8 6.20246378808842e-8 6.623066025237291e-8
          6.813055746282486e-8 7.467209544163567e-8 6.51021131286156e-8 7.04120048408543e-8 6.574608799501413e-8 6.532400679707561e-8
          6.446043960265092e-8 5.350620811624647e-8 6.74810661789573e-8 6.366180438728008e-8 7.85288328099085e-8 7.526246695922033e-8
          8.454553953760426e-8 8.04533108662814e-8 5.383498052623632e-8 6.55541004994341e-8 6.855264985178008e-8 5.0174397781108393e-8
          4.902889678011862e-8 5.415259247491238e-8 6.278294307509865e-8 9.036345358118344e-8 8.524284002726012e-8 8.888498461316551e-8
          7.079335440539085e-8 7.181032386851284e-8 6.172775136886292e-8 5.959349145045292e-8 7.348577383282501e-8 4.225436991071522e-8
          5.119174129674951e-8 4.110921643841973e-8 5.154836036498924e-8 3.668132136456064e-8 4.327138270316295e-8 4.2352503221376844e-8
          6.791269971732963e-8 7.179408231651172e-8 5.7861590418402116e-8 3.9235384537609254e-8 5.1087241626213225e-8 3.64894572268891e-8
          4.955929047111616e-8 3.253852399189953e-8 4.071000091498156e-8 3.8197193344682376e-8 7.507210087838265e-8 7.721714506746024e-8
          5.989783507924613e-8 5.186880577373236e-9 7.147327671319227e-9 6.704556429673086e-9 8.194256709245682e-9 4.881828920036605e-8
          5.4401107539630096e-8 2.9867352384939323e-9 4.363866536887376e-9 5.953230247205107e-9 4.8853762099447285e-8 9.075101389136716e-9
          1.0090827586009494e-8 4.753431657966958e-8 5.4572012685620365e-9 7.99205846982492e-9 3.5547042768438144e-8 7.876309687924214e-8
          8.570326972369609e-8 7.044183177680588e-8 7.435120619255921e-8 8.182990700660883e-8 8.980587910592749e-8 7.502192675857279e-8
          7.965632846370813e-8 7.164776055534517e-8 7.760435567813241e-8 7.948919832458057e-8 7.225514951695525e-8 5.1629743141253895e-8
          8.429451903583614e-8 4.565049943355159e-9 4.375819875381132e-9 4.441045782941414e-9 4.5062716905016965e-9 4.317041622527668e-9
          7.791646218947738e-9 8.228206412450894e-9 8.128470638268417e-9 8.706985548299313e-9 8.02873486408594e-9 9.266320580824911e-9
          9.181074106565928e-9 9.684408844477754e-9 9.095827632306944e-9 9.944433992519616e-9 4.86080240595999e-9 4.816434683781106e-9
          5.02190089805955e-9 4.7720669616022225e-9 7.622949113213944e-9 7.609597199381443e-9 7.596245285548939e-9 4.605106083016025e-9
          4.893710732902589e-9 5.554573938373577e-9 5.182315382789152e-9 7.1828483720634805e-9 4.025128299488585e-9 4.373130500344766e-9
          3.485771635145013e-9 4.177628953598699e-9 4.721132701200948e-9 4.8694862720523844e-9 3.1894541930171804e-9 3.9298263169084265e-9
          3.333357009137848e-9 4.670198440799673e-9 3.118499933890157e-9 3.910210800473785e-9 2.7088635929236903e-9 3.5441665436294916e-9
          4.701921667057413e-9 5.206253227665553e-9 1.631893784764288e-9 2.926710868044982e-9 2.470246269606192e-9 4.221527951325675e-9
          7.133539788693009e-9 7.407258883059946e-9 7.0842312053225375e-9 7.661064378466765e-9 7.740357581459845e-9 7.743696796881849e-9
          7.967305086693646e-9 7.819650784452925e-9 8.190913376505441e-9 5.271699501730465e-9 5.73359256620399e-9 5.410274707043945e-9
          6.509456855664184e-9 7.815706239777897e-9 8.143922833195547e-9 7.913806877342177e-9 8.314302254940719e-9 8.472139426613197e-9
          9.132392553744692e-9 4.502398218627557e-9 5.19736418816269e-9 5.137481843015328e-9 6.318766798900896e-9 7.399293241862004e-9
          7.704950995580213e-9 7.661187178086485e-9 9.925757725158883e-9 9.88393305416221e-9 7.869703316755028e-9 8.635459359635664e-9
          8.567766552203022e-9 2.266865246034308e-9 3.0538447328535664e-9 1.973364246379528e-9 2.6507849167249804e-9 5.246056785613911e-9
          4.828203976462991e-9 1.0842538330903238e-9 1.992748857950427e-9 1.7086450444500482e-9 4.5332116401415e-9 2.019324803731048e-9
          2.5411009411938945e-9 2.412162372000049e-9 2.7765497979813503e-9 4.577981088014884e-9 4.492842850465664e-9 1.3989450689378651e-9
          1.794245065887574e-9 2.222331575335728e-9 3.602037588138149e-9 7.188533048208926e-9 7.263513692603426e-9 7.725776744862854e-9
          8.198825019351301e-9 6.977772854555847e-9 6.822076389626638e-9 7.790366311639225e-9 7.3054659500166656e-9 7.354093753839651e-9
          8.517846802660305e-9 8.863439030710624e-9 6.741228583278301e-9 6.708539197124882e-9 8.467927053117587e-9 1.021837235455757e-8
          1.025891024040247e-8 1.0876792142872194e-8 1.0443572028132279e-8 1.1333182634116014e-8 1.1504749707208678e-8 1.2133638306691524e-8
          1.1936271531223306e-8 1.0405365674532292e-8 1.1231217270092484e-8 1.0223035419047397e-8 1.1976244015846311e-8 1.2780390131473062e-8
          1.1756261749547353e-8 1.2420780788908556e-8 1.2781534137668409e-8 1.3552444230675479e-8 1.3555748630841662e-8 1.3667273614249847e-8
          1.4608286908211933e-8 1.336533745324463e-8 8.136834034094754e-9 8.541962991632958e-9 8.49739448022696e-9 8.888131648131337e-9
          9.538215829403048e-9 9.915033811094183e-9 4.746782977155956e-9 5.28726820541341e-9 5.647569891676589e-9 7.017194918254113e-9
          8.985744927415556e-9 9.36938411341557e-9 9.6448012380819e-9 1.000091018811806e-8 1.0435289086538772e-8 1.1070261467420686e-8
          5.823189561094182e-9 6.226591378452433e-9 7.035564757470906e-9 7.562328148977826e-9 1.0226202225685659e-8 1.0835408924224504e-8
          1.0323064741736384e-8 1.1119619042296356e-8 9.077957242885334e-9 9.369306277856111e-9 9.949278082933308e-9 1.1481853065517998e-8
          1.2197163004786877e-8 1.184615125737403e-8 1.2610822212886601e-8 9.812386841957626e-9 1.0384411078824925e-8 1.1130110581770286e-8
          2.960982218470853e-9 3.268698729827357e-9 3.5689517770718036e-9 3.895980892824459e-9 4.627062027231575e-9 5.011559143207073e-9
          2.4836941962617336e-9 2.78787679169134e-9 3.3962931556862226e-9 3.852593848628738e-9 4.271884759853584e-9 4.634557181526177e-9
          5.062649366481735e-9 5.4763850313705915e-9 5.63905311792667e-9 6.4618953725963285e-9 3.5356976182339006e-9 4.049950125769949e-9
          4.749822617343963e-9 5.087756579751929e-9 7.4407329518788385e-9 7.647385724964329e-9 9.203757090478391e-9 9.494663172091626e-9
          6.772590194826034e-9 6.995759472572962e-9 8.932052079515536e-9 8.024567530394613e-9 8.593023708717521e-9 9.76825842813465e-9
          1.0152377368501831e-8 7.41182349206365e-9 8.03116113788588e-9 9.212336457929442e-9 1.0490398300427518e-8 1.0802991743235362e-8
          1.153257873373362e-8 1.1794436591833117e-8 1.1827070881012992e-8 1.2723921470712777e-8 7.80721292035965e-9 8.067651952807577e-9
          9.293947726671703e-9 9.038730587363831e-9 1.0476862754581678e-8 1.0678074197034182e-8 1.1346161898205655e-8 1.2985349967619867e-8
          1.3859166650825842e-8 1.3432143359256958e-8 1.4326784810158741e-8 1.1101010035691524e-8 1.1954951059875329e-8 1.24526498819109e-8
          1.2964641343703916e-8 1.4479754682147776e-8 5.91572893961297e-9 6.411642774135439e-9 6.841423497790755e-9 7.444424066226085e-9
          7.447927714229024e-9 8.586630770909028e-9 4.777047850453121e-9 5.5124309914580376e-9 6.3373816320995195e-9 6.916787384914707e-9
          7.852384031689828e-9 8.57311758608279e-9 9.875664765779413e-9 6.161434918350108e-9 7.220904788221192e-9 9.201298146170216e-9
          9.364373996996349e-9 1.0255645267936093e-8 1.0740449174192557e-8 1.2533519535133936e-8 8.83015424359953e-9 9.711434809561275e-9
          1.00745478498326e-8 1.1255578693714114e-8 1.3735598404487834e-8 1.0677145806771308e-8 1.3430165309539303e-8 1.4312469221304288e-8
          1.4888300956110773e-8 1.4569826926744655e-8 1.4599365018007647e-8 1.4369078688044571e-8 1.4886260814711007e-8 1.509705473774058e-8
          1.604358172270393e-8 1.4776591662850642e-8 1.558754529968999e-8 1.5305808519370388e-8 1.61857594915307e-8 1.498335639895663e-8
          1.1240729716653332e-7 1.2024827087207924e-7 8.884353597200331e-8 8.616307649869013e-8 1.3861848373759667e-7 1.3885404093977794e-7
          1.4802709806444358e-7 1.6470250802962932e-7 1.6670758463991075e-7 1.7413201992750937e-7 1.314763508789105e-7 1.133154798984056e-7
          9.4985302403816e-8 1.1180009109867045e-7 8.983046283648215e-8 7.425727580194703e-8 7.66551249092264e-8 7.612322454348117e-8
          5.868408876741191e-8 9.910784052912549e-8 9.55027121387777e-8 1.2360131381110916e-7 7.615520208060069e-8 1.0234191263554926e-7
          1.516999154834406e-7 1.285286231904978e-7 1.4318641610275843e-7 1.2360391738206026e-7 1.4424316908841593e-7 1.2258064012471022e-7
          7.681670652252411e-8 3.695745658095961e-8 3.3630497844042405e-8 4.1766209299694824e-8 3.95486372328555e-8 3.100303366024324e-8
          3.253927329825868e-8 3.6276425427411376e-8 5.5341548104739537e-8 6.16620010910991e-8 6.017170662265836e-8 5.505402796630935e-8
          4.894173998664082e-8 5.6390826028779595e-8 6.248546306816468e-8 4.0393906658742904e-8 4.613170083612981e-8 4.083675789385857e-8
          5.582360419204167e-8 1.340357682401089e-7 5.7231511824694636e-8 5.754895527024576e-8 5.2467368839865216e-8 5.6764270778330255e-8
          1.6799452721839826e-7 5.639997221274948e-8 5.157172081321893e-8 5.510885658862442e-8 1.315065103162983e-7 5.1700923522629334e-8
          6.093012835110372e-8 5.5692618975876854e-8 5.711478110105355e-8 5.7908859007088955e-8 5.365509949233747e-8 5.601793026381417e-8
        </DataArray>
        <DataArray type="Float64" Name="gradient_matprop_error" format="ascii" RangeMin="0" RangeMax="0">
          0 0 0 0 0 0
          0 0 0 0 0 0
          0 0 0 0 0 0
          0 0 0 0 0 0
          0 0 0 0 0 0
          0 0 0 0 0 0
          0 0 0 0 0 0
          0 0 0 0 0 0
          0 0 0 0 0 0
          0 0 0 0 0 0
          0 0 0 0 0 0
          0 0 0 0 0 0
          0 0 0 0 0 0
          0 0 0 0 0 0
          0 0 0 0 0 0
          0 0 0 0 0 0
          0 0 0 0 0 0
          0 0 0 0 0 0
          0 0 0 0 0 0
          0 0 0 0 0 0
          0 0 0 0 0 0
          0 0 0 0 0 0
          0 0 0 0 0 0
          0 0 0 0 0 0
          0 0 0 0 0 0
          0 0 0 0 0 0
          0 0 0 0 0 0
          0 0 0 0 0 0
          0 0 0 0 0 0
          0 0 0 0 0 0
          0 0 0 0 0 0
          0 0 0 0 0 0
          0 0 0 0 0 0
          0 0 0 0 0 0
          0 0 0 0 0 0
          0 0 0 0 0 0
          0 0 0 0 0 0
          0 0 0 0 0 0
          0 0 0 0 0 0
          0 0 0 0 0 0
          0 0 0 0 0 0
          0 0 0 0 0 0
          0 0 0 0 0 0
          0 0 0 0 0 0
          0 0 0 0 0 0
          0 0 0 0 0 0
          0 0 0 0 0 0
          0 0 0 0 0 0
          0 0 0 0 0 0
          0 0 0 0 0 0
          0 0 0 0 0 0
          0 0 0 0 0 0
          0 0 0 0 0 0
          0 0 0 0 0 0
          0 0 0 0 0 0
          0 0 0 0 0 0
          0 0 0 0 0 0
          0 0 0 0 0 0
          0 0 0 0 0 0
          0 0 0 0 0 0
          0 0 0 0 0 0
          0 0 0 0 0 0
          0 0 0 0 0 0
          0 0 0 0 0 0
          0 0 0 0 0 0
          0 0 0 0 0 0
          0 0 0 0 0 0
          0 0 0 0 0 0
          0 0 0 0 0 0
          0 0 0 0 0 0
          0 0 0 0 0 0
          0 0 0 0 0 0
          0 0 0 0 0 0
          0 0 0 0 0 0
          0 0 0 0 0 0
          0 0 0 0 0 0
          0 0 0 0 0 0
          0 0 0 0 0 0
          0 0 0 0 0 0
          0 0 0 0 0 0
        </DataArray>
        <DataArray type="Float64" Name="initial_marker" format="ascii" RangeMin="0" RangeMax="2">
          2 1 2 2 2 2
          1 2 2 1.5 2 2
          2 1.5 1.25 1.5 1 2
          2 2 1.75 2 2 2
          2 2 2 2 2 2
          2 2 2 2 2 2
          2 2 2 1 1.5 1
          1.5 0 1 1 2 2
          2 2 2 2 2 2
          2 2 2 2 2 2
          2 2 2 2 2 2
          2 2 2 2 2 2
          2 2 2 2 2 2
          2 2 2 2 2 2
          2 2 2 2 2 2
          2 2 2 2 2 2
          2 2 2 2 2 1.5
          1.75 2 2 1 1.5 2
          2 2 2 2 2 2
          2 2 2 2 2 2
          2 2 2 2 2 2
          2 2 2 2 2 2
          2 2 2 2 2 2
          2 2 2 2 2 2
          2 2 2 2 2 2
          2 2 2 2 2 2
          2 2 2 2 2 2
          2 2 2 2 2 2
          2 2 2 2 2 2
          2 2 2 2 2 2
          2 2 2 2 2 2
          2 2 2 2 2 2
          2 2 2 2 2 2
          2 2 2 2 2 2
          2 2 2 2 2 2
          2 2 2 2 2 2
          2 2 2 2 2 2
          2 2 2 2 2 2
          2 2 2 2 2 2
          2 2 2 2 2 2
          2 2 2 2 2 2
          2 2 2 2 2 2
          2 2 2 2 2 2
          2 2 2 2 2 2
          2 2 2 2 2 2
          2 2 2 2 2 2
          2 2 2 2 2 2
          2 2 2 2 2 2
          2 2 2 2 2 2
          2 2 2 2 2 2
          2 2 2 2 2 2
          2 2 2 2 2 2
          2 2 2 2 2 2
          2 2 2 2 2 2
          2 2 2 2 2 2
          2 2 2 2 2 2
          2 2 2 2 2 2
          2 2 2 2 2 2
          2 2 2 2 2 2
          2 2 2 2 2 2
          2 2 2 2 2 2
          2 2 2 2 2 2
          2 2 2 2 2 2
          2 2 2 2 2 2
          2 2 2 2 2 2
          2 2 2 2 2 2
          2 2 2 2 2 2
          2 2 2 2 2 2
          2 2 2 2 2 2
          0 0 0 0 1.5 0.5
          0.5 2 1 1 0 0.5
          0.25 0 1 0.5 0 0
          0 1 0.5 0.75 1 1
          1 1 0 0 1 1
          0 2 2 2 2 2
          2 2 2 2 2 2
          2 2 2 1 1.5 1
          2 2 2 2 2 2
          2 2 2 2 2 2
          2 2 2 2 2 2
        </DataArray>
        <DataArray type="Float64" Name="markers_norefine" format="ascii" RangeMin="0" RangeMax="2">
          2 0 1 0 0 0
          0 0 0 0 2 0
          0.5 0 0 0 0 1
          0 0 0 0 2 1
          0 0 0 0 0 0
          0 0 0 0 0 0
          0 0 0 0 0 0
          0 0 0 0 0 0
          0 0.5 0 1 0.5 0
          2 1 1.5 2 1.25 2
          1.5 0 0 2 2 2
          0 0 0 0 0 0
          0 0 0 0 0 0
          0 0 0 0 0 0
          0 0 0 0 0 0.5
          0 0.5 0 0 0 0
          0 0 1 0.5 0 0
          0 0 0 0 0 0
          0 0 0 0 0 0
          0 0 0 0 0 0
          0 2 2 2 2 0.5
          0.5 2 2 2 1 2
          2 1 2 2 1.5 0
          0 0 0 0 0 0
          0 0 0 0 0 0
          0 0 1 0.5 0 1
          0 0 0 0 0 0
          0 0 0 0 0 0
          0.5 0 0 0 0 2
          1.5 1.3333333333333333 1 0 1 0.75
          1.5 1.25 0.5 1 2 1.5
          2 1 2 1.75 2 2
          1.5 1.6666666666666667 2 2 2 2
          0.5 0 1 0.5 0.25 1
          0.75 0 0.5 1.5 1.25 1.75
          1 1 1 1 1 1
          0.6666666666666666 2 2 2 2 0.5
          1 0 0 0 1 0.6666666666666666
          0 2 2 2 2 1.75
          2 2 2 2 2 2
          2 2 2 2 2 2
          2 2 2 0.75 1 0
          0 1 1 0 1 1.25
          0 0.5 1 1.5 0 0
          0 0.5 0 2 1.5 2
          0.5 0 0 0 0 0
          0 2 2 2 1 0
          0 0 1 1 1.5 1.25
          0.75 1 2 2 2 1.75
          2 1.75 2 2 1.25 1.5
          2 2 2 2 0.25 0.5
          0 0 1 1.5 0.5 0.5
          0.5 0 0 1.5 1.5 1
          2 2 2 2 2 2
          2 2 2 2 2 2
          2 2 2 2 2 2
          2 2 1.75 2 1.5 2
          2 2 2 2 2 2
          2 2 2 2 2 2
          2 2 1.5 1.5 2 2
          2 2 2 2 2 0.75
          1 0.5 1 1.75 2 1.5
          2 1.3333333333333333 2 2 2 2
          2 2 2 2 2 2
          2 2 2 2 2 2
          2 2 2 1.6666666666666667 2 2
          2 2 1.5 2 2 0
          0 0 0.5 0 1 0.5
          0.5 0 0 1 1 0
          0 0 0 0 0 0
          0 0 0 0 0 0
          0 0 0 0 0 0
          0 0 0 0 0 0
          0 0 0 0 0 0
          0 0 0 0 0 0
          0 0 0 0 0 0
          0 0 0 0 0 0
          0 0 0 0 0 0
          0 0 0 0 0 0
          0 0 0 0 0 0
        </DataArray>
        <DataArray type="Float64" Name="markers_mustrefine" format="ascii" RangeMin="0" RangeMax="2">
          2 1 2 2 2 2
          1 2 2 1.5 2 2
          2 1.5 1.25 1.5 1 2
          2 2 1.75 2 2 2
          2 2 2 2 2 2
          2 2 2 2 2 2
          2 2 2 1 1.5 1
          1.5 0 1 1 2 2
          2 2 2 2 2 2
          2 2 2 2 2 2
          2 2 2 2 2 2
          2 2 2 2 2 2
          2 2 2 2 2 2
          2 2 2 2 2 2
          2 2 2 2 2 2
          2 2 2 2 2 2
          2 2 2 2 2 1.5
          1.75 2 2 1 1.5 2
          2 2 2 2 2 2
          2 2 2 2 2 2
          2 2 2 2 2 2
          2 2 2 2 2 2
          2 2 2 2 2 2
          2 2 2 2 2 2
          2 2 2 2 2 2
          2 2 2 2 2 2
          2 2 2 2 2 2
          2 2 2 2 2 2
          2 2 2 2 2 2
          2 2 2 2 2 2
          2 2 2 2 2 2
          2 2 2 2 2 2
          2 2 2 2 2 2
          2 2 2 2 2 2
          2 2 2 2 2 2
          2 2 2 2 2 2
          2 2 2 2 2 2
          2 2 2 2 2 2
          2 2 2 2 2 2
          2 2 2 2 2 2
          2 2 2 2 2 2
          2 2 2 2 2 2
          2 2 2 2 2 2
          2 2 2 2 2 2
          2 2 2 2 2 2
          2 2 2 2 2 2
          2 2 2 2 2 2
          2 2 2 2 2 2
          2 2 2 2 2 2
          2 2 2 2 2 2
          2 2 2 2 2 2
          2 2 2 2 2 2
          2 2 2 2 2 2
          2 2 2 2 2 2
          2 2 2 2 2 2
          2 2 2 2 2 2
          2 2 2 2 2 2
          2 2 2 2 2 2
          2 2 2 2 2 2
          2 2 2 2 2 2
          2 2 2 2 2 2
          2 2 2 2 2 2
          2 2 2 2 2 2
          2 2 2 2 2 2
          2 2 2 2 2 2
          2 2 2 2 2 2
          2 2 2 2 2 2
          2 2 2 2 2 2
          2 2 2 2 2 2
          0 0 0 0 1.5 0.5
          0.5 2 1 1 0 0.5
          0.25 0 1 0.5 0 0
          0 1 0.5 0.75 1 1
          1 1 0 0 1 1
          0 2 2 2 2 2
          2 2 2 2 2 2
          2 2 2 1 1.5 1
          2 2 2 2 2 2
          2 2 2 2 2 2
          2 2 2 2 2 2
        </DataArray>
        <DataArray type="Float64" Name="gradient_marker" format="ascii" RangeMin="0" RangeMax="1">
          0 1 0 1 1 1
          0.75 0.5 0.875 0.75 0 0.5
          0.5 1 0.75 0.75 0.6666666666666666 0.5
          0.75 0.75 0.75 0.75 0 0.5
          1 1 0.75 1 0.875 1
          1 1 0.25 0.625 0.75 0.5
          0.75 0.625 1 0 0.25 0
          0.25 0 0 0 0.75 0.75
          0.5 0.25 0.375 0.25 0.375 0.75
          0 0 0 0 0.25 0
          0.125 0.75 0.625 0 0 0
          0.5 1 1 1 1 1
          1 1 1 1 1 1
          1 0.5 1 1 1 1
          1 1 0.5 0.75 0.75 0.5
          0.5 0.5 0.75 1 1 1
          0.75 0.75 0.5 0.5 0.75 0
          0.25 0 0.25 0 0 0
          0.75 0.75 0.5 0 0.25 0
          0.25 0 0 0 0.75 0.75
          0.5 0 0 0 0 0.5
          0.5 0 0 0 0.5 0
          0 0.375 0 0 0.25 1
          1 1 1 1 1 1
          0.875 0.75 1 1 0.75 0.5
          1 0 0 0 0 0
          0 0 0 0 0 0
          0 0 0 0 0 0
          0 0 0 0 0 0
          0 0 0 0 0 0
          0 0 0 0 0 0
          0 0 0 0 0 0
          0 0 0 0 0 0
          0 0 0 0 0 0
          0 0 0 0 0 0
          0 0 0 0 0 0
          0 0 0 0 0 0
          0 0 0 0 0 0
          0 0 0 0 0 0
          0 0 0 0 0 0
          0 0 0 0 0 0
          0 0 0 0 0 0
          0 0 0 0 0 0
          0 0 0 0 0 0
          0 0 0 0 0 0
          0 0 0 0 0 0
          0 0 0 0 0 0
          0 0 0 0 0 0
          0 0 0 0 0 0
          0 0 0 0 0 0
          0 0 0 0 0 0
          0 0 0 0 0 0
          0 0 0 0 0 0
          0 0 0 0 0 0
          0 0 0 0 0 0
          0 0 0 0 0 0
          0 0 0 0 0 0
          0 0 0 0 0 0
          0 0 0 0 0 0
          0 0 0 0 0 0
          0 0 0 0 0 0
          0 0 0 0 0 0
          0 0 0 0 0 0
          0 0 0 0 0 0
          0 0 0 0 0 0
          0 0 0 0 0 0
          0 0 0 0 0 0
          0 0 0 0 0 0
          0 0 0 0 0 0
          0.75 0.75 0.5 0.625 0.625 0.625
          0.875 1 0.75 1 0.5 0.5
          0.5 0.5 0.5 0.5 0.5 0.5
          0.5 0.75 0.5 0.5 0.5 0.5
          0.5 0.5 0.75 0.625 1 0.5
          0.5 0 0 0.125 0 0
          0 0 0.5 1 0.75 0.5
          0.75 0.875 1 0 0.25 0
          0.625 0.5 0.75 0.75 0.3333333333333333 0.625
          0.5 0.625 0.3333333333333333 0.5 0.5 0.25
          0.875 0.5 0.75 0.75 0.25 0.5
        </DataArray>
        <DataArray type="Float64" Name="gradient_matprop_marker" format="ascii" RangeMin="0" RangeMax="0">
          0 0 0 0 0 0
          0 0 0 0 0 0
          0 0 0 0 0 0
          0 0 0 0 0 0
          0 0 0 0 0 0
          0 0 0 0 0 0
          0 0 0 0 0 0
          0 0 0 0 0 0
          0 0 0 0 0 0
          0 0 0 0 0 0
          0 0 0 0 0 0
          0 0 0 0 0 0
          0 0 0 0 0 0
          0 0 0 0 0 0
          0 0 0 0 0 0
          0 0 0 0 0 0
          0 0 0 0 0 0
          0 0 0 0 0 0
          0 0 0 0 0 0
          0 0 0 0 0 0
          0 0 0 0 0 0
          0 0 0 0 0 0
          0 0 0 0 0 0
          0 0 0 0 0 0
          0 0 0 0 0 0
          0 0 0 0 0 0
          0 0 0 0 0 0
          0 0 0 0 0 0
          0 0 0 0 0 0
          0 0 0 0 0 0
          0 0 0 0 0 0
          0 0 0 0 0 0
          0 0 0 0 0 0
          0 0 0 0 0 0
          0 0 0 0 0 0
          0 0 0 0 0 0
          0 0 0 0 0 0
          0 0 0 0 0 0
          0 0 0 0 0 0
          0 0 0 0 0 0
          0 0 0 0 0 0
          0 0 0 0 0 0
          0 0 0 0 0 0
          0 0 0 0 0 0
          0 0 0 0 0 0
          0 0 0 0 0 0
          0 0 0 0 0 0
          0 0 0 0 0 0
          0 0 0 0 0 0
          0 0 0 0 0 0
          0 0 0 0 0 0
          0 0 0 0 0 0
          0 0 0 0 0 0
          0 0 0 0 0 0
          0 0 0 0 0 0
          0 0 0 0 0 0
          0 0 0 0 0 0
          0 0 0 0 0 0
          0 0 0 0 0 0
          0 0 0 0 0 0
          0 0 0 0 0 0
          0 0 0 0 0 0
          0 0 0 0 0 0
          0 0 0 0 0 0
          0 0 0 0 0 0
          0 0 0 0 0 0
          0 0 0 0 0 0
          0 0 0 0 0 0
          0 0 0 0 0 0
          0 0 0 0 0 0
          0 0 0 0 0 0
          0 0 0 0 0 0
          0 0 0 0 0 0
          0 0 0 0 0 0
          0 0 0 0 0 0
          0 0 0 0 0 0
          0 0 0 0 0 0
          0 0 0 0 0 0
          0 0 0 0 0 0
          0 0 0 0 0 0
        </DataArray>
        <DataArray type="Float64" Name="combo" format="ascii" RangeMin="0" RangeMax="2">
          2 1 1 1 1 1
          0.75 0.5 0.875 0.75 2 0.5
          1 1 0.75 0.75 0.6666666666666666 1.5
          0.75 0.75 0.75 0.75 2 1.5
          1 1 0.75 1 0.875 1
          1 1 0.25 0.625 0.75 0.5
          0.75 0.625 1 0 0.25 0
          0.25 0 0 0 0.75 0.75
          0.5 0.75 0.375 1.25 0.875 0.75
          2 1 1.5 2 1.5 2
          1.625 0.75 0.625 2 2 2
          0.5 1 1 1 1 1
          1 1 1 1 1 1
          1 0.5 1 1 1 1
          1 1 0.5 0.75 0.75 1
          0.5 1 0.75 1 1 1
          0.75 0.75 1.5 1 0.75 0
          0.25 0 0.25 0 0 0
          0.75 0.75 0.5 0 0.25 0
          0.25 0 0 0 0.75 0.75
          0.5 2 2 2 2 1
          1 2 2 2 1.5 2
          2 1.375 2 2 1.75 1
          1 1 1 1 1 1
          0.875 0.75 1 1 0.75 0.5
          1 0 1 0.5 0 1
          0 0 0 0 0 0
          0 0 0 0 0 0
          0.5 0 0 0 0 2
          1.5 1.3333333333333333 1 0 1 0.75
          1.5 1.25 0.5 1 2 1.5
          2 1 2 1.75 2 2
          1.5 1.6666666666666667 2 2 2 2
          0.5 0 1 0.5 0.25 1
          0.75 0 0.5 1.5 1.25 1.75
          1 1 1 1 1 1
          0.6666666666666666 2 2 2 2 0.5
          1 0 0 0 1 0.6666666666666666
          0 2 2 2 2 1.75
          2 2 2 2 2 2
          2 2 2 2 2 2
          2 2 2 0.75 1 0
          0 1 1 0 1 1.25
          0 0.5 1 1.5 0 0
          0 0.5 0 2 1.5 2
          0.5 0 0 0 0 0