<?xml version="1.0"?>
<VTKFile type="UnstructuredGrid" version="0.1" byte_order="LittleEndian" header_type="UInt32" compressor="vtkZLibDataCompressor">
  <UnstructuredGrid>
    <Piece NumberOfPoints="1743" NumberOfCells="1053">
      <PointData>
        <DataArray type="Int32" Name="libmesh_node_id" format="ascii" RangeMin="1886" RangeMax="16294">
          2004 2005 2006 2007 2008 2009
          2010 2011 2046 2047 2048 2049
          2075 2076 2077 2078 2120 2121
          2122 2123 2124 2125 2126 2127
          2162 2163 2164 2165 2191 2192
          2193 2194 2236 2237 2238 2239
          2240 2241 2242 2243 2278 2279
          2280 2281 2307 2308 2309 2310
          2320 2321 2322 2323 2324 2325
          2326 2327 2328 2329 2330 2331
          2332 2333 2334 2335 2336 2337
          2338 2339 2340 2341 2342 2343
          2344 2345 2346 2347 2348 2349
          2350 2351 2352 2353 2354 2360
          2361 2366 2395 2396 2397 2398
          2399 2400 2401 2402 2403 2404
          2405 2406 2407 2408 2409 2410
          2413 2414 2416 2418 2429 2430
          2431 2432 2433 2434 2435 2436
          2437 2438 2439 2440 2441 2442
          2443 2444 2445 2446 2447 2448
          2449 2450 2451 2452 2453 2454
          2455 2456 2457 2458 2459 2460
          2461 2462 2463 2464 2465 2466
          2467 2468 2469 2470 2471 2472
          2473 2474 2475 2476 2477 2478
          2479 2480 2481 2482 2483 2484
          2485 2486 2487 2488 2489 2490
          2491 2492 2493 2494 2495 2496
          2497 2498 2499 2500 2501 2502
          2503 2507 2508 2510 2511 2513
          2528 2529 2532 2533 2534 2535
          2537 2610 2611 2612 2613 2614
          2615 2616 2617 2618 2619 2620
          2621 2622 2623 2624 2625 2626
          2627 2631 2632 2644 2645 2646
          2647 2648 2649 2650 2651 2652
          2653 2654 2655 2656 2657 2672
          2673 2674 2675 2676 2677 2678
          2679 2680 2681 2692 2693 2694
          2695 2696 2697 2698 2699 2700
          2701 2702 2703 2704 2705 2706
          2707 2708 2709 2710 2711 2712
          2713 2714 2715 2716 2717 2718
          2719 2720 2721 2722 2723 2724
          2725 2726 2727 2728 2729 2730
          2731 2732 2733 2734 2735 2736
          2737 2738 2739 2740 2741 2742
          2743 2744 2745 2746 2747 2748
          2749 2804 2805 2806 2807 2808
          2809 2810 2811 2812 2813 2814
          2815 2816 2817 2818 2819 2820
          2821 2822 2823 2824 2825 2826
          2827 2828 2829 2830 2831 2832
          2833 2834 2835 2836 2837 2838
          2839 2840 2841 2842 2843 2844
          2845 2846 2847 2848 2849 2850
          2851 2852 2853 2854 2855 2856
          2857 2858 2859 2860 2861 2862
          2863 2864 2865 2866 2867 2868
          2869 2870 2871 2872 2873 2874
          2875 2876 2877 2878 2879 2880
          2881 2882 2883 2884 2885 2886
          2887 2888 2889 2890 2891 2892
          2893 2894 2895 2896 2897 2898
          2899 2900 2901 2902 2903 2904
          2905 2906 2907 2908 2909 2910
          2911 2912 2913 2914 2915 2916
          2917 2918 2919 2920 2921 2922
          2923 2924 2925 2926 2927 2928
          2929 2930 2931 2932 2933 2934
          2935 2936 2937 2938 2939 2940
          2941 2942 2943 2944 2945 2946
          2947 2948 2949 2950 2951 2952
          2953 2954 2955 2956 2957 2958
          2959 2960 2961 2962 2963 2964
          2965 2966 2967 2968 2969 2970
          2971 2972 2973 2974 2975 2976
          2977 2978 2979 2980 2981 2982
          2983 2984 2985 2986 2987 2988
          2989 2990 2991 2992 2993 2994
          2995 2996 2997 2998 2999 3000
          3001 3002 3003 3004 3005 3006
          3007 3008 3009 3010 3011 3012
          3013 3014 3015 3016 3017 3018
          3019 3020 3021 3022 3023 3024
          3025 3026 3027 3028 3029 3030
          3031 3032 3033 3034 3035 3036
          3037 3038 3039 3040 3041 3042
          3043 3044 3045 3046 3047 3048
          3049 3050 3051 3052 3053 3054
          3055 3056 3057 3058 3059 3060
          3061 3062 3063 3064 3065 3066
          3070 3071 3073 3074 3076 3077
          3078 3079 3080 3081 3082 3083
          3084 3085 3086 3087 3088 3091
          3092 3094 3096 3097 3098 3099
          3100 3101 3102 3103 3104 3105
          3106 3107 3108 3111 3113 3114
          3116 3117 3118 3119 3120 3121
          3122 3123 3124 3126 3128 3130
          3213 3214 3215 3216 3217 3218
          3219 3220 3221 3222 3478 3479
          3480 3481 3482 3483 3484 3485
          3486 3487 3498 3499 3500 3501
          3502 3503 3504 3505 3506 3507
          3508 3509 3510 3511 3512 3513
          3514 3515 3516 3517 3518 3519
          3520 3521 3522 3523 3524 3549
          3550 3551 3552 3553 3554 3555
          3556 3557 3558 3559 3560 3561
          3562 3563 3564 3567 3568 3570
          3572 3573 3574 3575 3576 3577
          3578 3579 3580 3581 3582 3583
          3584 3585 3586 3587 3588 3589
          3590 3591 3592 3593 3594 3595
          3596 3597 3598 3599 3600 3601
          3602 3603 3604 3605 3606 3607
          3608 3609 3610 3611 3612 3613
          3614 3615 3616 3617 3618 3619
          3620 3621 3622 3623 3624 3625
          3626 3627 3628 3629 3630 3631
          3632 3633 3740 3741 3742 3743
          3744 3745 3746 3747 3748 3749
          3750 3751 3752 3753 3754 3755
          3756 3757 3758 3759 3760 3761
          3762 3763 3764 3765 3766 3767
          3768 3769 3770 3771 3772 3773
          3774 3775 3776 3777 3778 3779
          3780 3781 3782 3783 3784 3785
          3786 3787 3788 3789 3790 3791
          3792 3793 3794 3795 3796 3797
          3798 3799 3800 3801 3802 3803
          3804 3805 3806 3807 3808 3809
          3810 3811 3812 3813 3814 3815
          3816 3817 3818 3819 3820 3821
          3822 3823 3824 3825 3826 3827
          3828 3829 3830 3831 3832 3833
          3834 3835 3836 3837 3838 3839
          3840 3841 3842 3843 3844 3845
          3846 3847 3848 3849 3858 3859
          3860 3875 3876 3877 3878 3879
          3880 3881 3882 3883 3884 3885
          3886 3887 3888 3889 3890 3891
          3892 3893 3894 3895 3896 3897
          3898 3899 3900 3901 3902 3903
          3904 3905 3906 3907 3908 3909
          3910 3911 3912 3913 3914 3915
          3916 3917 3918 3919 3920 3921
          3922 3923 3924 3925 3926 3927
          3928 3929 3930 3931 3932 3933
          3934 3935 3936 3937 3938 3939
          3940 3941 3942 3943 3944 3945
          3946 3947 3948 3949 3950 3951
          3952 3963 3964 3965 3966 3967
          3968 3969 3977 3978 3979 3980
          3981 3982 3983 3984 3985 3986
          3997 3998 3999 4000 4001 4002
          4003 4011 4012 4013 4014 4015
          4016 4017 4018 4019 4020 4021
          4022 4023 4024 4025 4026 4027
          4028 4029 4030 4031 4032 4033
          4042 4043 4044 4045 4046 4047
          4048 5567 5568 5569 5570 5571
          5572 5573 5581 5582 5583 5584
          5585 5586 5587 5588 5589 5590
          5601 5602 5603 5604 5605 5606
          5607 5608 5609 5610 5611 5612
          5613 5614 5615 5616 5617 5645
          5646 5647 5648 5649 5650 5651
          5652 5653 5654 5655 5656 5657
          5658 5659 5660 5661 5662 5663
          5664 5665 5666 5667 5668 5669
          5670 5671 5672 5673 5674 5675
          5676 5677 5678 5679 5680 5681
          5682 5683 5684 5685 5686 5687
          5688 5689 5690 5691 5692 6202
          6203 6204 6205 6206 6207 6208
          6209 6210 6211 6212 6213 6214
          6215 6216 6217 6218 6219 6220
          6221 6222 6223 6224 6225 6226
          6227 6228 6229 6230 6231 6232
          6233 6234 6235 6236 6237 6238
          6239 6240 6241 6242 6243 6244
          6245 6246 6247 6248 6249 6250
          6251 6252 6253 6254 6255 6256
          6257 6258 6259 6260 6261 6262
          6263 6264 6265 6266 6267 6268
          6269 6270 6271 6272 6273 6274
          6275 6276 6277 6278 6279 6280
          6281 6282 6283 6284 6285 6286
          6287 6288 6289 6290 6291 6292
          6293 6294 6295 6296 6297 6298
          6299 6300 6301 6302 6303 6304
          6305 6306 6307 6308 6309 6310
          6311 6312 6313 6314 6315 6316
          6317 6318 6319 6320 6321 6322
          6323 6324 6325 6326 6327 6328
          6329 6330 6331 6332 6333 6334
          6335 6336 6337 6338 6339 6340
          6341 6342 6343 6344 6345 6346
          6347 6348 6349 6350 6351 6352
          6353 6354 6355 6356 6357 6358
          6359 6360 6361 6362 6363 6364
          6365 6366 6367 6368 6369 6370
          6371 6372 6373 6374 6375 6376
          6377 6378 6379 6380 6381 6382
          6383 6384 6385 6386 6387 6388
          6389 6390 6391 6392 6393 6394
          6395 6396 6397 6398 6399 6400
          6401 6402 6403 6404 6405 6406
          6407 6408 6409 6410 6411 6412
          6413 6414 6415 6416 6417 6418
          6419 6420 6421 6422 6423 6424
          6425 6426 6427 6428 6429 6430
          6431 6432 6433 6434 6435 6436
          6437 6438 6439 6440 6441 6442
          6443 6444 6445 6446 6447 6448
          6449 6450 6451 6452 6453 6454
          6455 6456 6457 6458 6459 6460
          6461 6462 6463 6464 6465 6466
          6467 6468 6469 6470 6471 6472
          6473 6474 6475 6476 6477 6478
          6479 6480 6481 6482 6483 6484
          6485 6486 6487 6488 6489 6490
          6491 6492 6493 6494 6495 6496
          6497 6498 6499 6500 6501 6502
          6503 6504 6505 6506 6507 6508
          6509 6510 6511 6512 6513 6514
          6515 6516 6517 6518 6519 6520
          6521 6522 6523 6524 6525 6526
          6527 6528 6540 6541 6542 6543
          6544 6545 6546 6547 6548 6549
          6550 6551 6552 6553 6554 6555
          6556 6557 6558 6559 6560 6561
          6562 6563 6564 6565 6566 6567
          6568 6569 6570 6571 6572 6573
          6574 6575 6576 6577 6578 6579
          6580 6581 6582 6583 6584 6585
          6586 6587 6588 6589 6590 6591
          6592 6593 6594 6595 6596 6597
          6598 6599 6600 6601 6602 6603
          6604 6605 6606 6607 6672 6673
          6674 6675 6676 6677 6678 6679
          6680 6681 6682 6683 6684 6685
          6686 6687 6688 6689 6690 6691
          15669 15670 15671 15672 15673 15674
          15675 15676 15677 15678 15679 15680
          15681 15682 15683 15684 15685 15686
          15687 15926 15927 15928 15929 15930
          15931 16061 16062 16063 16064 16065
          16066 16067 16068 16069 16070 16071
          16072 16073 16074 16075 16076 16077
          16078 16079 16080 16081 16082 16083
          16084 16085 16086 16087 16088 16089
          16090 16091 16092 16093 16094 16095
          16096 16097 16098 16099 16100 16101
          16102 16103 16104 16105 16106 16107
          16108 16109 16110 16111 16112 16113
          16114 16115 16116 16117 16118 16119
          16120 16121 16122 16123 16124 16125
          16126 16127 16128 16129 16130 16131
          16132 16133 16134 16135 16136 16137
          16138 16139 16140 16141 16142 16143
          16144 16145 16146 16147 16148 16149
          16150 16151 16152 16153 16154 16155
          16156 16157 16158 16159 16160 16161
          16162 16163 16164 16240 16241 16242
          16243 16244 16245 16246 16247 16248
          16249 16250 16251 16252 16253 16254
          16255 16256 16257 16258 16259 16260
          16261 16262 16263 16264 16265 16266
          16267 16268 16269 16270 16271 16272
          16273 16274 16275 16276 16277 16278
          16279 16280 16281 16282 16283 16284
          16285 16286 16287 16288 16289 16290
          16291 16292 16293 16294 1886 1888
          1889 1887 2002 2003 1890 1891
          1892 1893 1894 1895 1896 1897
          2012 2013 1930 1929 2045 1931
          1932 1933 1934 2050 1959 1958
          2074 1960 1961 1962 1963 2079
          2119 2161 2129 2166 2190 2195
          2277 2306 2282 2311 2411 2412
          2415 2417 2628 2629 2630 2633
          3565 3566 3569 3571 15659 15660
          15661 15664 2118 15667 15919 15921
          16053 16054 16057 2235 16059 16191
          16192 16193 16197 15918 16201 16218
          16219 16221 2234 16224 15924 16230
          16231 16235 16238
        </DataArray>
        <DataArray type="Float64" Name="bounds" format="ascii" RangeMin="0" RangeMax="0">
          0 0 0 0 0 0
          0 0 0 0 0 0
          0 0 0 0 0 0
          0 0 0 0 0 0
          0 0 0 0 0 0
          0 0 0 0 0 0
          0 0 0 0 0 0
          0 0 0 0 0 0
          0 0 0 0 0 0
          0 0 0 0 0 0
          0 0 0 0 0 0
          0 0 0 0 0 0
          0 0 0 0 0 0
          0 0 0 0 0 0
          0 0 0 0 0 0
          0 0 0 0 0 0
          0 0 0 0 0 0
          0 0 0 0 0 0
          0 0 0 0 0 0
          0 0 0 0 0 0
          0 0 0 0 0 0
          0 0 0 0 0 0
          0 0 0 0 0 0
          0 0 0 0 0 0
          0 0 0 0 0 0
          0 0 0 0 0 0
          0 0 0 0 0 0
          0 0 0 0 0 0
          0 0 0 0 0 0
          0 0 0 0 0 0
          0 0 0 0 0 0
          0 0 0 0 0 0
          0 0 0 0 0 0
          0 0 0 0 0 0
          0 0 0 0 0 0
          0 0 0 0 0 0
          0 0 0 0 0 0
          0 0 0 0 0 0
          0 0 0 0 0 0
          0 0 0 0 0 0
          0 0 0 0 0 0
          0 0 0 0 0 0
          0 0 0 0 0 0
          0 0 0 0 0 0
          0 0 0 0 0 0
          0 0 0 0 0 0
          0 0 0 0 0 0
          0 0 0 0 0 0
          0 0 0 0 0 0
          0 0 0 0 0 0
          0 0 0 0 0 0
          0 0 0 0 0 0
          0 0 0 0 0 0
          0 0 0 0 0 0
          0 0 0 0 0 0
          0 0 0 0 0 0
          0 0 0 0 0 0
          0 0 0 0 0 0
          0 0 0 0 0 0
          0 0 0 0 0 0
          0 0 0 0 0 0
          0 0 0 0 0 0
          0 0 0 0 0 0
          0 0 0 0 0 0
          0 0 0 0 0 0
          0 0 0 0 0 0
          0 0 0 0 0 0
          0 0 0 0 0 0
          0 0 0 0 0 0
          0 0 0 0 0 0
          0 0 0 0 0 0
          0 0 0 0 0 0
          0 0 0 0 0 0
          0 0 0 0 0 0
          0 0 0 0 0 0
          0 0 0 0 0 0
          0 0 0 0 0 0
          0 0 0 0 0 0
          0 0 0 0 0 0
          0 0 0 0 0 0
          0 0 0 0 0 0
          0 0 0 0 0 0
          0 0 0 0 0 0
          0 0 0 0 0 0
          0 0 0 0 0 0
          0 0 0 0 0 0
          0 0 0 0 0 0
          0 0 0 0 0 0
          0 0 0 0 0 0
          0 0 0 0 0 0
          0 0 0 0 0 0
          0 0 0 0 0 0
          0 0 0 0 0 0
          0 0 0 0 0 0
          0 0 0 0 0 0
          0 0 0 0 0 0
          0 0 0 0 0 0
          0 0 0 0 0 0
          0 0 0 0 0 0
          0 0 0 0 0 0
          0 0 0 0 0 0
          0 0 0 0 0 0
          0 0 0 0 0 0
          0 0 0 0 0 0
          0 0 0 0 0 0
          0 0 0 0 0 0
          0 0 0 0 0 0
          0 0 0 0 0 0
          0 0 0 0 0 0
          0 0 0 0 0 0
          0 0 0 0 0 0
          0 0 0 0 0 0
          0 0 0 0 0 0
          0 0 0 0 0 0
          0 0 0 0 0 0
          0 0 0 0 0 0
          0 0 0 0 0 0
          0 0 0 0 0 0
          0 0 0 0 0 0
          0 0 0 0 0 0
          0 0 0 0 0 0
          0 0 0 0 0 0
          0 0 0 0 0 0
          0 0 0 0 0 0
          0 0 0 0 0 0
          0 0 0 0 0 0
          0 0 0 0 0 0
          0 0 0 0 0 0
          0 0 0 0 0 0
          0 0 0 0 0 0
          0 0 0 0 0 0
          0 0 0 0 0 0
          0 0 0 0 0 0
          0 0 0 0 0 0
          0 0 0 0 0 0
          0 0 0 0 0 0
          0 0 0 0 0 0
          0 0 0 0 0 0
          0 0 0 0 0 0
          0 0 0 0 0 0
          0 0 0 0 0 0
          0 0 0 0 0 0
          0 0 0 0 0 0
          0 0 0 0 0 0
          0 0 0 0 0 0
          0 0 0 0 0 0
          0 0 0 0 0 0
          0 0 0 0 0 0
          0 0 0 0 0 0
          0 0 0 0 0 0
          0 0 0 0 0 0
          0 0 0 0 0 0
          0 0 0 0 0 0
          0 0 0 0 0 0
          0 0 0 0 0 0
          0 0 0 0 0 0
          0 0 0 0 0 0
          0 0 0 0 0 0
          0 0 0 0 0 0
          0 0 0 0 0 0
          0 0 0 0 0 0
          0 0 0 0 0 0
          0 0 0 0 0 0
          0 0 0 0 0 0
          0 0 0 0 0 0
          0 0 0 0 0 0
          0 0 0 0 0 0
          0 0 0 0 0 0
          0 0 0 0 0 0
          0 0 0 0 0 0
          0 0 0 0 0 0
          0 0 0 0 0 0
          0 0 0 0 0 0
          0 0 0 0 0 0
          0 0 0 0 0 0
          0 0 0 0 0 0
          0 0 0 0 0 0
          0 0 0 0 0 0
          0 0 0 0 0 0
          0 0 0 0 0 0
          0 0 0 0 0 0
          0 0 0 0 0 0
          0 0 0 0 0 0
          0 0 0 0 0 0
          0 0 0 0 0 0
          0 0 0 0 0 0
          0 0 0 0 0 0
          0 0 0 0 0 0
          0 0 0 0 0 0
          0 0 0 0 0 0
          0 0 0 0 0 0
          0 0 0 0 0 0
          0 0 0 0 0 0
          0 0 0 0 0 0
          0 0 0 0 0 0
          0 0 0 0 0 0
          0 0 0 0 0 0
          0 0 0 0 0 0
          0 0 0 0 0 0
          0 0 0 0 0 0
          0 0 0 0 0 0
          0 0 0 0 0 0
          0 0 0 0 0 0
          0 0 0 0 0 0
          0 0 0 0 0 0
          0 0 0 0 0 0
          0 0 0 0 0 0
          0 0 0 0 0 0
          0 0 0 0 0 0
          0 0 0 0 0 0
          0 0 0 0 0 0
          0 0 0 0 0 0
          0 0 0 0 0 0
          0 0 0 0 0 0
          0 0 0 0 0 0
          0 0 0 0 0 0
          0 0 0 0 0 0
          0 0 0 0 0 0
          0 0 0 0 0 0
          0 0 0 0 0 0
          0 0 0 0 0 0
          0 0 0 0 0 0
          0 0 0 0 0 0
          0 0 0 0 0 0
          0 0 0 0 0 0
          0 0 0 0 0 0
          0 0 0 0 0 0
          0 0 0 0 0 0
          0 0 0 0 0 0
          0 0 0 0 0 0
          0 0 0 0 0 0
          0 0 0 0 0 0
          0 0 0 0 0 0
          0 0 0 0 0 0
          0 0 0 0 0 0
          0 0 0 0 0 0
          0 0 0 0 0 0
          0 0 0 0 0 0
          0 0 0 0 0 0
          0 0 0 0 0 0
          0 0 0 0 0 0
          0 0 0 0 0 0
          0 0 0 0 0 0
          0 0 0 0 0 0
          0 0 0 0 0 0
          0 0 0 0 0 0
          0 0 0 0 0 0
          0 0 0 0 0 0
          0 0 0 0 0 0
          0 0 0 0 0 0
          0 0 0 0 0 0
          0 0 0 0 0 0
          0 0 0 0 0 0
          0 0 0 0 0 0
          0 0 0 0 0 0
          0 0 0 0 0 0
          0 0 0 0 0 0
          0 0 0 0 0 0
          0 0 0 0 0 0
          0 0 0 0 0 0
          0 0 0 0 0 0
          0 0 0 0 0 0
          0 0 0 0 0 0
          0 0 0 0 0 0
          0 0 0 0 0 0
          0 0 0 0 0 0
          0 0 0 0 0 0
          0 0 0 0 0 0
          0 0 0 0 0 0
          0 0 0 0 0 0
          0 0 0 0 0 0
          0 0 0 0 0 0
          0 0 0 0 0 0
          0 0 0 0 0 0
          0 0 0 0 0 0
          0 0 0 0 0 0
          0 0 0 0 0 0
          0 0 0 0 0 0
          0 0 0 0 0 0
          0 0 0 0 0 0
          0 0 0 0 0 0
          0 0 0 0 0 0
          0 0 0 0 0 0
          0 0 0 0 0 0
          0 0 0 0 0 0
          0 0 0 0 0 0
          0 0 0 0 0 0
          0 0 0 0 0 0
          0 0 0 0 0 0
          0 0 0 0 0 0
          0 0 0
        </DataArray>
        <DataArray type="Float64" Name="gradient_error" format="ascii" RangeMin="1.5893408178526533e-11" RangeMax="1.2162048728972613e-7">
          4.557805637651618e-9 1.9047777500236653e-8 2.7498827158378308e-9 1.0241225214799602e-8 1.6695668816682742e-9 4.408858705557754e-9
          3.0812716209075035e-10 1.2127867930691272e-9 1.6971333612972737e-8 9.22604411883178e-9 3.946093790218491e-9 1.13537913422001e-9
          2.438421104819718e-9 1.5840415218092965e-9 7.792442492350517e-10 2.446986635633362e-10 6.572554396484492e-8 1.0157286803230918e-7
          4.8516616351585364e-8 7.914727366106137e-8 2.438899269833461e-8 3.225483824413487e-8 5.239156371572635e-9 2.855689420735941e-9
          1.869723525853862e-8 9.850227260091469e-9 4.170583744515114e-9 1.1602319914540905e-9 4.0152669900015336e-9 2.459702913035089e-9
          1.2095190146253304e-9 3.653747571433168e-10 3.868219309173857e-8 8.530686376497678e-8 6.90610390803253e-8 7.093884123297383e-8
          1.2837892335980366e-8 4.482327824323778e-8 3.953345812761346e-10 9.735285848816998e-9 7.06858652141015e-9 2.6297623016010057e-9
          1.4916256349847954e-9 3.670677102480284e-10 4.388423895985519e-9 2.5549348368838353e-9 1.2884436305972794e-9 3.88627678420764e-10
          3.6960089241589784e-8 7.079761801369221e-8 8.539625799592526e-8 9.568653908928889e-8 8.408443377195157e-8 1.1926248963646463e-7
          1.168963759492639e-7 3.805429435970057e-8 6.041961446318767e-8 6.836787756884804e-8 7.910705596138112e-8 8.346028914486132e-8
          9.923454408298355e-8 4.845278569246998e-8 8.296327707994056e-9 8.839957492575353e-8 9.603771711817449e-8 2.104268338157014e-8
          5.90896026462344e-8 1.3299598886314955e-8 8.206759994568337e-9 3.984537375811777e-8 2.7672523785160052e-8 3.4682568990975646e-9
          2.635321985153447e-8 2.1194538211112232e-8 5.1457502661933575e-9 1.4308834798045e-8 4.735562418068982e-9 2.900949193230737e-8
          2.6678904916084555e-8 2.958897035835648e-8 2.56855119442236e-8 1.5297599309264384e-9 1.1123060095987025e-9 8.020668320476006e-10
          1.4560886497148932e-9 2.404744048026079e-9 4.857439909618451e-9 8.420403262339646e-9 7.1745072356505396e-9 1.605537688562184e-8
          2.3153541577322515e-9 1.3796074399323628e-9 8.228387556710957e-10 8.679331897278738e-10 1.6606196201452537e-9 3.2545197929265767e-10
          9.66209211655192e-9 2.3690350508904033e-8 4.200335567711951e-10 9.130276237846517e-10 7.10127569488518e-10 4.268414660090757e-10
          1.1718847172916298e-10 1.321252132622565e-10 1.207650998466147e-10 1.4706195479535004e-10 5.869786868336857e-8 6.55872226904339e-8
          9.154181059313276e-8 4.5318901078531206e-8 2.023588916783561e-8 3.540610405955022e-8 7.324289831034708e-8 5.1669774271260124e-8
          2.4966122660623984e-8 2.4986377617546196e-8 7.521850748733364e-8 5.980091089190385e-8 9.623738236657816e-8 3.490241137503128e-8
          9.989165385541492e-9 1.8455562652567265e-8 4.331788860732545e-8 2.2721660545889366e-8 4.158407277782968e-8 6.00112766438947e-8
          5.108513476370307e-8 3.187135217977271e-8 3.0274511384934895e-8 3.8972523583790444e-8 4.194301185803283e-8 3.711619717570444e-8
          3.961839648858951e-8 2.7885944711558148e-8 2.0898599175517213e-8 1.841991025086205e-8 2.9370506078912845e-8 4.008171095987437e-8
          2.3881042083550216e-8 2.004703392217637e-8 2.552965202624632e-8 5.5377260875696354e-8 4.488334294273112e-8 2.4993039605215976e-8
          3.0558472247672116e-8 4.193663380767833e-8 2.232292157186315e-8 2.0974099705336963e-8 2.361097026315868e-8 2.9565090471507336e-9
          4.231792791117326e-8 2.4390056228633337e-8 2.8925937299499048e-8 2.8971343665318495e-8 4.6124667857289935e-8 3.0917143336555843e-8
          4.267470278330891e-8 1.56477555904985e-8 1.8088117218642584e-8 2.041359528515875e-8 3.2894745949339326e-8 3.8241991781859406e-8
          1.8897165735690155e-8 2.582930265624742e-8 2.847734435845802e-8 2.223597751037782e-8 3.8828157964093095e-8 1.1490392982390369e-8
          1.4172621555490458e-8 1.268776553657798e-8 1.5095044835670935e-8 7.725825463358744e-9 1.1422831470621992e-8 7.63608113180412e-9
          1.7860244626046344e-8 1.2995590357699055e-8 1.4047090651997984e-8 2.8274934554722296e-8 2.2202976703493383e-8 2.9664766385440794e-8
          3.210286263819562e-8 1.5679440261142784e-8 2.0450908695724864e-8 5.990466698565735e-10 1.2844881342977557e-8 2.746015359262962e-8
          9.675634930659464e-9 1.147731123622525e-8 2.816749888682939e-9 4.58265512922026e-9 2.0541759475385595e-9 8.394709239763813e-9
          5.995066221313996e-9 6.626601323602911e-10 7.741326722445895e-10 1.5978106115547525e-9 1.1945444133706333e-8 5.720127981063078e-9
          3.966189220587172e-9 7.73077196784056e-9 2.2536720604247042e-10 2.2755656633649636e-9 1.8210001436337726e-9 8.85605212128888e-10
          2.2122504601112654e-9 3.5160998019747856e-9 1.3664346239025812e-9 5.4519310914728315e-11 8.530594964352086e-11 7.799691257458239e-10
          6.204306676885005e-10 1.1609258837231339e-10 4.60892209631177e-10 5.8240495175927347e-8 9.622951079419665e-8 1.0353345513985172e-7
          6.538814468653052e-8 7.863247803973667e-8 1.1176850272162892e-7 1.0544601698790785e-7 1.0775860469979968e-7 1.1017758684924173e-7
          1.1689892143968988e-7 5.065238023089096e-8 7.794952346322466e-8 6.433605474930968e-8 7.96088536183632e-8 1.405613199843422e-8
          2.1297092921217434e-8 2.4641949467793106e-8 3.391753987400323e-8 2.647796991973931e-9 2.309998501677482e-9 3.4358234193128075e-9
          3.522776693715199e-8 4.653798682678903e-8 1.9722000113810336e-9 1.0577697208521783e-7 9.910868436655177e-8 9.056031872855564e-8
          8.815411000838924e-8 8.305835450133941e-8 1.003489004000747e-7 9.611112352764335e-8 8.67608715402923e-8 1.0192549410981601e-7
          9.239277992434383e-8 4.233424457100631e-8 8.046745524140956e-8 8.572822092672338e-8 1.0727145171884129e-7 5.895624751141224e-8
          5.9443400528037236e-8 5.652417280115122e-8 6.831559839272529e-8 3.70149044684707e-8 4.218414644338784e-8 4.492192046900637e-8
          5.4356708708226423e-8 7.718779625741333e-8 4.735338841830498e-8 2.1058646806388478e-8 1.9445268666138856e-8 2.542018479610145e-8
          6.21098837679385e-8 5.770482651254931e-8 4.998778058050657e-8 5.43299391883423e-8 1.3776594739301023e-8 3.326971461533699e-8
          3.440208565891509e-8 1.5219365826906064e-8 3.20176069485849e-8 3.9079981955333436e-8 2.6359182302350432e-8 1.0954548338029504e-8
          9.160348057294347e-9 8.783612344147935e-9 1.829980014461147e-8 5.1861212746666225e-9 1.572591478441865e-8 1.7638443182570727e-8
          5.806062881450139e-9 1.9996400526549334e-8 1.3897364050897448e-8 2.7661692799525143e-9 2.5956068678956077e-9 1.9578421335749795e-8
          1.617093196470559e-8 1.4433784084504004e-9 8.373060132247192e-9 6.8136832645066235e-9 2.0116978858590634e-9 8.784775592498071e-9
          3.86424009043089e-9 1.8534215698319556e-8 1.8709736820745364e-8 1.6947042126285723e-8 1.1967832164243432e-8 1.2979559192976526e-8
          1.4941356290251806e-8 1.3703533925452619e-8 2.059353817779992e-8 1.42070391046625e-8 1.634494323158073e-8 1.8949728465481818e-8
          1.7974383935622428e-8 1.636170443130868e-8 1.9664139138366125e-8 9.028898016465518e-9 1.2183121681176795e-8 1.1361781351873422e-8
          1.3219468373676752e-8 1.7174952401610247e-8 2.2389785249823227e-8 2.274822769096045e-8 1.5873102142138255e-8 1.815422278701935e-8
          2.5234491879306008e-8 1.8061648671058306e-8 2.045054006076386e-8 2.2810521349510495e-8 2.1658278346436985e-8 2.4019130360058956e-8
          1.1169141236006511e-8 1.469227193048675e-8 1.6672843186180832e-8 2.0365989387799584e-8 2.1163782600558728e-8 2.0118805852098225e-8
          2.2130812178887616e-8 2.0472778779205993e-8 2.2770443414604688e-8 2.407530304009351e-8 1.8253199074613566e-8 1.8795454292077884e-8
          1.854698355675349e-8 2.01489321892169e-8 2.21949743974372e-8 2.054529384984043e-8 2.4187082301035493e-8 1.9580577831748975e-8
          2.441327313709479e-8 2.3485089281368907e-8 2.2224591873570454e-8 2.4858001124088034e-8 2.6921480977703738e-8 2.615607497211966e-8
          2.4232669348417798e-8 2.4658879562300662e-8 2.9114890253442542e-8 2.8178277254949732e-8 2.091912440745713e-8 2.3804789146249717e-8
          2.237800501140047e-8 2.525753920209909e-8 2.808116156970076e-8 2.819676505749154e-8 3.1746404229371183e-8 2.7445785894370112e-8
          2.6746045285433213e-8 2.5613907803891895e-8 3.13815902800392e-8 3.022393979689134e-8 2.142928539167677e-8 3.353359556198565e-8
          3.2128331923265454e-8 2.218726088118064e-8 2.6672429042330968e-8 2.7937839465552436e-8 3.645445969992266e-8 3.598088557604091e-8
          4.097399324712521e-8 3.3503946146055614e-8 1.745819021851308e-8 1.7436930132622175e-8 2.1292059435492132e-8 2.069388880903351e-8
          1.7346777521480868e-8 2.1776708351547125e-8 1.2305650344625925e-8 1.5044027339961568e-8 1.5981966735179963e-8 1.5006216927845272e-8
          2.795698670706856e-8 2.6169471170070904e-8 2.9815323533319386e-8 2.0239916319447247e-8 2.0956807549144134e-8 2.345258044253418e-8
          2.4802190586300814e-8 2.736559699345811e-8 2.6927117092535177e-8 3.052221373855814e-8 1.5180980777199427e-8 1.9338691432955696e-8
          2.2936060475772646e-8 2.5653116281372446e-8 2.98920442105874e-8 3.245635845309729e-8 3.6567636232013405e-8 3.902860451119521e-8
          3.497247791480473e-8 4.043430035334424e-8 2.289230429597466e-8 2.778491754400354e-8 3.4274326674639625e-8 3.409466074097953e-8
          2.444764408792847e-8 2.6356070861556085e-8 2.8889958351773116e-8 2.0386206509532948e-8 2.1416786751073022e-8 2.270690663837814e-8
          2.659304832029505e-8 2.9391821848849286e-8 2.24522208795582e-8 3.171627593725746e-8 3.489809409532287e-8 2.4000725937115675e-8
          2.51728132986273e-8 3.264450711284897e-8 3.637218030562035e-8 2.5304023570634063e-8 2.0395322974619606e-8 1.9158206494882167e-8
          3.544187234644007e-8 3.377882635410707e-8 1.8738141699715975e-8 3.705392478962575e-8 3.5091450108811306e-8 1.8563001137739167e-8
          2.8950334180760486e-8 2.9545551748989768e-8 4.839456227827951e-8 4.6720484993247814e-8 5.279864390325848e-8 4.101147208233599e-8
          1.8804902059689026e-8 1.75236132450286e-8 3.825355371174099e-8 3.589769752333764e-8 1.8930454875186162e-8 3.849721036842089e-8
          3.579043252026338e-8 1.6880234241095486e-8 2.9523079949019348e-8 2.8716227111768585e-8 4.451837039866505e-8 4.9597530166359105e-8
          3.605948130303827e-8 4.8201238304623117e-8 1.6976905020535364e-8 2.1989126797656577e-8 1.626540559462616e-8 2.1802305356189772e-8
          1.1257212962308992e-8 1.4604060236677081e-8 1.389812669888709e-8 3.15977609615644e-8 3.311282824226695e-8 2.1134298191453337e-8
          1.517660785343286e-8 2.112869987012906e-8 1.3707848487183542e-8 1.9892515823030375e-8 9.560877691313126e-9 1.2840243106501703e-8
          1.3024607600764679e-8 3.418755196042725e-8 3.4365562344631724e-8 2.0294949935579953e-8 3.628229553185849e-8 4.296688210044584e-8
          3.6166877265628446e-8 4.047623721228389e-8 4.707016593816802e-8 4.738630394366258e-8 1.88858965826655e-8 3.391226831202712e-8