<?xml version="1.0"?>
<VTKFile type="UnstructuredGrid" version="0.1" byte_order="LittleEndian" header_type="UInt32" compressor="vtkZLibDataCompressor">
  <UnstructuredGrid>
    <Piece NumberOfPoints="1571" NumberOfCells="1082">
      <PointData>
        <DataArray type="Int32" Name="libmesh_node_id" format="ascii" RangeMin="2370" RangeMax="14982">
          2370 2375 2378 2380 2555 2556
          2557 2561 2569 2570 2575 2576
          2577 2578 2579 2580 2581 2582
          2583 2584 2585 2586 2587 2590
          2591 2593 2595 2768 2769 2778
          3287 3289 3295 3296 3297 3298
          3299 3300 3322 3324 3326 3328
          3329 3330 3331 3332 3333 3334
          3363 3364 3365 3366 3367 3368
          3369 3370 3371 3372 3393 3394
          3395 3396 3397 3398 3399 3412
          3413 3416 3418 3420 3421 3422
          3423 3424 3425 3426 3427 3428
          3429 3430 3431 3432 3433 3434
          3435 3436 3437 3438 3439 3533
          3535 3691 3692 3695 3696 3697
          3698 3699 3700 3701 3702 4730
          4731 4734 4736 4747 4754 4757
          4758 4759 4760 4761 4762 4763
          4764 4765 4766 4767 4914 4926
          4928 4930 4942 4954 4956 4958
          4962 4963 4966 4969 4970 4973
          4974 4975 4976 4977 4978 4979
          4980 4981 4982 4983 4984 4985
          4986 4987 4988 4989 4990 4993
          4994 4995 4996 4997 4998 4999
          5000 5001 5002 5003 5004 5005
          5006 5007 5008 5009 5010 5011
          5012 5013 5014 5015 5016 5017
          5018 5085 5086 5087 5090 5239
          5240 5243 5248 5249 5250 5253
          5254 5255 5256 5257 5258 5259
          5260 5261 5262 5263 5264 5265
          5266 5267 5268 5269 5270 5271
          5272 5273 5274 5275 5276 5277
          5278 5279 5280 5281 5282 5283
          5284 5285 5286 5287 5288 5289
          5290 5291 5292 5293 5294 5295
          5296 5297 5298 5299 5300 5301
          5375 5376 5379 5381 5391 5393
          5395 5397 5398 5399 5400 5401
          5402 5403 5404 5405 5406 5407
          5408 5409 5410 5411 5412 5413
          5414 5415 5416 5417 5418 5419
          5420 5421 5422 5423 5424 5425
          5426 5427 5428 5429 5430 5431
          5432 5433 5434 5435 5436 5437
          5438 5439 5440 5441 5442 5443
          5444 5445 5446 5447 5448 5449
          5450 5575 5592 5594 5598 5599
          5620 5621 5624 5626 5628 5629
          5630 5631 5632 5633 5634 5635
          5636 5637 5638 5639 5640 5641
          5642 5643 5644 5976 5977 5978
          5979 5980 5981 5982 6011 6012
          6013 6014 6015 6016 6017 6018
          6019 6020 6021 6022 6023 6024
          6025 6026 6027 6053 6063 6065
          6067 6069 6070 6071 6072 6073
          6074 6075 6076 6077 6078 6079
          6080 6081 6082 6083 6084 6085
          6086 6087 6088 6089 6090 6091
          6092 6093 6094 6095 6096 6097
          6098 6099 6100 6101 6102 10575
          10576 10579 10581 10612 10622 10647
          10648 10649 10652 10653 10654 10655
          10656 10657 10658 10659 10660 10661
          10662 10663 10664 10665 10666 10667
          10668 10669 10670 10671 10672 11745
          11773 11847 11849 11851 11865 11866
          11869 11871 11881 11883 11885 11895
          11897 11899 11981 11983 12007 12009
          12011 12077 12079 12081 12091 12093
          12095 12105 12107 12109 12119 12121
          12123 12141 12142 12145 12148 12149
          12152 12169 12170 12173 12176 12177
          12180 12197 12198 12201 12203 12204
          12205 12207 12208 12225 12226 12228
          12229 12231 12232 12233 12234 12235
          12236 12237 12238 12239 12240 12241
          12242 12243 12244 12245 12246 12247
          12248 12249 12250 12251 12252 12253
          12254 12255 12256 12257 12258 12259
          12260 12261 12262 12263 12264 12265
          12266 12267 12268 12269 12270 12271
          12272 12273 12274 12275 12276 12277
          12278 12279 12280 12281 12282 12283
          12284 12285 12286 12287 12288 12289
          12290 12291 12292 12293 12294 12295
          12296 12297 12298 12299 12300 12301
          12302 12303 12304 12305 12306 12307
          12308 12309 12310 12311 12312 12313
          12314 12315 12316 12317 12318 12319
          12320 12321 12322 12323 12324 12325
          12326 12327 12328 12329 12330 12331
          12332 12333 12334 12335 12336 12337
          12338 12339 12340 12341 12342 12343
          12344 12345 12346 12347 12348 12349
          12350 12351 12352 12353 12354 12355
          12356 12357 12358 12359 12360 12361
          12362 12363 12364 12365 12366 12367
          12368 12369 12386 12387 12388 12389
          12390 12393 12394 12395 12396 12397
          12400 12401 12404 12407 12408 12411
          12412 12413 12414 12415 12416 12417
          12418 12419 12420 12421 12422 12423
          12424 12425 12439 12441 12442 12443
          12444 12445 12446 12447 12448 12449
          12450 12451 12452 12453 12456 12457
          12460 12463 12464 12467 12468 12469
          12470 12471 12472 12473 12474 12475
          12476 12477 12478 12479 12480 12481
          12482 12483 12484 12485 12486 12487
          12488 12489 12490 12491 12492 12493
          12494 12495 12496 12497 12498 12499
          12500 12501 12502 12503 12504 12505
          12506 12507 12508 12509 12510 12511
          12512 12513 12514 12515 12516 12517
          12518 12519 12520 12521 12522 12523
          12524 12525 12526 12527 12528 12529
          12530 12531 12532 12533 12534 12535
          12536 12537 12538 12539 12540 12541
          12542 12543 12544 12545 12546 12547
          12548 12549 12550 12551 12552 12553
          12554 12555 12556 12557 12558 12559
          12560 12561 12562 12563 12564 12565
          12566 12567 12568 12569 12570 12571
          12572 12573 12574 12575 12576 12577
          12578 12579 12580 12581 12582 12583
          12584 12585 12586 12587 12588 12589
          12590 12591 12592 12593 13851 13852
          13853 13854 13855 13856 13857 13858
          13859 13860 13861 13862 13863 13864
          13865 13866 13867 13868 13869 13870
          13885 13886 13887 13888 13889 13890
          13891 13892 13893 13894 13895 13896
          13897 13898 13919 13920 13921 13922
          13923 13924 13925 13926 13927 13928
          13929 13930 13931 13932 13933 13934
          13935 13936 13937 13938 13953 13954
          13955 13956 13957 13958 13959 13960
          13961 13962 13963 13964 13965 13966
          13967 13968 13969 13970 13971 13972
          13973 13974 13975 13976 13977 13978
          13979 13980 13981 13982 13983 13984
          13985 13986 13987 13988 13989 13990
          13991 13992 13993 13994 13995 13996
          13997 13998 13999 14000 14001 14002
          14003 14004 14005 14006 14007 14008
          14009 14010 14011 14012 14013 14014
          14015 14016 14017 14018 14019 14020
          14021 14022 14023 14024 14025 14026
          14027 14028 14029 14030 14031 14032
          14033 14034 14035 14036 14037 14038
          14039 14040 14041 14042 14043 14044
          14045 14046 14047 14048 14049 14050
          14051 14052 14053 14054 14055 14056
          14057 14061 14064 14067 14068 14071
          14072 14073 14074 14075 14076 14077
          14078 14079 14080 14081 14082 14083
          14084 14085 14088 14089 14092 14095
          14096 14099 14100 14101 14102 14103
          14104 14105 14106 14107 14108 14109
          14110 14111 14112 14113 14116 14117
          14120 14123 14124 14127 14128 14129
          14130 14131 14132 14133 14134 14135
          14136 14137 14138 14139 14140 14141
          14144 14145 14148 14151 14152 14155
          14156 14157 14158 14159 14160 14161
          14162 14163 14164 14165 14166 14167
          14168 14169 14170 14171 14172 14173
          14174 14175 14176 14177 14178 14179
          14180 14181 14182 14183 14184 14185
          14186 14187 14188 14189 14190 14191
          14192 14193 14194 14195 14196 14197
          14198 14199 14200 14201 14202 14203
          14204 14205 14206 14207 14208 14209
          14210 14211 14212 14213 14214 14215
          14216 14217 14218 14219 14220 14221
          14222 14223 14224 14225 14226 14227
          14228 14229 14230 14231 14232 14233
          14234 14235 14236 14237 14238 14239
          14240 14241 14242 14243 14244 14245
          14246 14247 14248 14249 14250 14251
          14252 14253 14254 14255 14256 14257
          14258 14259 14260 14261 14262 14263
          14264 14265 14266 14267 14268 14269
          14270 14271 14272 14273 14274 14275
          14276 14277 14278 14279 14280 14281
          14282 14283 14284 14666 14667 14670
          14672 14748 14750 14752 14763 14764
          14767 14769 14779 14781 14783 14793
          14795 14797 14799 14800 14801 14802
          14803 14804 14805 14806 14807 14808
          14809 14810 14811 14812 14813 14814
          14815 14816 14817 14818 14819 14820
          14821 14822 14823 14824 14825 14826
          14827 14828 14829 14830 14831 14832
          14833 14834 14835 14836 14837 14838
          14839 14840 14841 14842 14843 14844
          14845 14846 14847 14848 14849 14850
          14851 14852 14853 14854 14855 14856
          14857 14858 14859 14860 14861 14862
          14863 14864 14865 14866 14867 14868
          14869 14870 14871 14872 14873 14874
          14875 14876 14877 14878 14879 14880
          14881 14882 14883 14884 14885 14886
          14887 14888 14889 14890 14891 14892
          14893 14894 14895 14896 14897 14898
          14899 14900 14901 14902 14903 14904
          14905 14906 14907 14908 14909 14910
          14911 14912 14913 14914 14915 14916
          14917 14918 14919 14920 14921 14922
          14923 14924 14925 14926 14927 14928
          14929 14930 14931 14932 14933 14934
          14935 14936 14937 14938 14939 14940
          14941 14942 14943 14944 14945 14946
          14947 14948 14949 14950 14951 14952
          14953 14954 14955 14956 14957 14958
          14959 14960 14961 14962 14963 14964
          14965 14966 14967 14968 14969 14970
          14971 14972 14973 14974 14975 14976
          14977 14978 14979 14980 14981 14982
          2766 2773 2552 2563 3283 3291
          3284 3292 3293 3294 3342 3276
          3343 3344 4748 4750 4752 4749
          4751 4753 4742 4714 4743 4744
          5081 5082 5083 5084 4756 5088
          5089 6007 6008 6009 6010 5244
          5246 10536 10604 10608 10539 10541
          10610 10606 10609 10611 10614 10618
          10620 10616 10619 10621 10615 10643
          10644 10645 10646 10650 10651 10637
          10629 10638 10639 4755 10642 10607
          11743 12139 12140 11747 12143 12144
          12146 12147 12150 12151 11771 12167
          12168 11775 12171 12172 12174 12175
          12178 12179 12195 12196 12199 12200
          12184 12190 12202 12191 12194 4968
          12206 12223 12224 12211 12212 12215
          4971 12227 12218 12219 12230 12222
          4972 11979 12384 12385 12372 12373
          12376 4991 12391 12392 12379 12383
          12380 4992 12374 12375 12398 12399
          12402 12403 12381 12405 12382 12406
          12409 12410 12426 12427 12429 12428
          12430 12431 12432 12433 12435 12437
          12434 12436 12438 12440 12454 12455
          12458 12459 12461 12462 12465 12466
          12793 13839 13840 13843 5237 12803
          13846 13847 13850 5238 13873 13874
          13877 5241 13880 13881 13884 5242
          13903 13904 13905 13908 5245 13913
          13914 13915 13918 5247 13941 13942
          13945 5251 13948 13949 13952 5252
          13875 13876 14058 14059 14060 14062
          14063 13882 14065 13883 14066 14069
          14070 14086 14087 14090 14091 14093
          14094 14097 14098 13943 14114 13944
          14115 14118 14119 13950 14121 13951
          14122 14125 14126 14142 14143 14146
          14147 14149 14150 14153 14154
        </DataArray>
        <DataArray type="Float64" Name="bounds" format="ascii" RangeMin="0" RangeMax="0">
          0 0 0 0 0 0
          0 0 0 0 0 0
          0 0 0 0 0 0
          0 0 0 0 0 0
          0 0 0 0 0 0
          0 0 0 0 0 0
          0 0 0 0 0 0
          0 0 0 0 0 0
          0 0 0 0 0 0
          0 0 0 0 0 0
          0 0 0 0 0 0
          0 0 0 0 0 0
          0 0 0 0 0 0
          0 0 0 0 0 0
          0 0 0 0 0 0
          0 0 0 0 0 0
          0 0 0 0 0 0
          0 0 0 0 0 0
          0 0 0 0 0 0
          0 0 0 0 0 0
          0 0 0 0 0 0
          0 0 0 0 0 0
          0 0 0 0 0 0
          0 0 0 0 0 0
          0 0 0 0 0 0
          0 0 0 0 0 0
          0 0 0 0 0 0
          0 0 0 0 0 0
          0 0 0 0 0 0
          0 0 0 0 0 0
          0 0 0 0 0 0
          0 0 0 0 0 0
          0 0 0 0 0 0
          0 0 0 0 0 0
          0 0 0 0 0 0
          0 0 0 0 0 0
          0 0 0 0 0 0
          0 0 0 0 0 0
          0 0 0 0 0 0
          0 0 0 0 0 0
          0 0 0 0 0 0
          0 0 0 0 0 0
          0 0 0 0 0 0
          0 0 0 0 0 0
          0 0 0 0 0 0
          0 0 0 0 0 0
          0 0 0 0 0 0
          0 0 0 0 0 0
          0 0 0 0 0 0
          0 0 0 0 0 0
          0 0 0 0 0 0
          0 0 0 0 0 0
          0 0 0 0 0 0
          0 0 0 0 0 0
          0 0 0 0 0 0
          0 0 0 0 0 0
          0 0 0 0 0 0
          0 0 0 0 0 0
          0 0 0 0 0 0
          0 0 0 0 0 0
          0 0 0 0 0 0
          0 0 0 0 0 0
          0 0 0 0 0 0
          0 0 0 0 0 0
          0 0 0 0 0 0
          0 0 0 0 0 0
          0 0 0 0 0 0
          0 0 0 0 0 0
          0 0 0 0 0 0
          0 0 0 0 0 0
          0 0 0 0 0 0
          0 0 0 0 0 0
          0 0 0 0 0 0
          0 0 0 0 0 0
          0 0 0 0 0 0
          0 0 0 0 0 0
          0 0 0 0 0 0
          0 0 0 0 0 0
          0 0 0 0 0 0
          0 0 0 0 0 0
          0 0 0 0 0 0
          0 0 0 0 0 0
          0 0 0 0 0 0
          0 0 0 0 0 0
          0 0 0 0 0 0
          0 0 0 0 0 0
          0 0 0 0 0 0
          0 0 0 0 0 0
          0 0 0 0 0 0
          0 0 0 0 0 0
          0 0 0 0 0 0
          0 0 0 0 0 0
          0 0 0 0 0 0
          0 0 0 0 0 0
          0 0 0 0 0 0
          0 0 0 0 0 0
          0 0 0 0 0 0
          0 0 0 0 0 0
          0 0 0 0 0 0
          0 0 0 0 0 0
          0 0 0 0 0 0
          0 0 0 0 0 0
          0 0 0 0 0 0
          0 0 0 0 0 0
          0 0 0 0 0 0
          0 0 0 0 0 0
          0 0 0 0 0 0
          0 0 0 0 0 0
          0 0 0 0 0 0
          0 0 0 0 0 0
          0 0 0 0 0 0
          0 0 0 0 0 0
          0 0 0 0 0 0
          0 0 0 0 0 0
          0 0 0 0 0 0
          0 0 0 0 0 0
          0 0 0 0 0 0
          0 0 0 0 0 0
          0 0 0 0 0 0
          0 0 0 0 0 0
          0 0 0 0 0 0
          0 0 0 0 0 0
          0 0 0 0 0 0
          0 0 0 0 0 0
          0 0 0 0 0 0
          0 0 0 0 0 0
          0 0 0 0 0 0
          0 0 0 0 0 0
          0 0 0 0 0 0
          0 0 0 0 0 0
          0 0 0 0 0 0
          0 0 0 0 0 0
          0 0 0 0 0 0
          0 0 0 0 0 0
          0 0 0 0 0 0
          0 0 0 0 0 0
          0 0 0 0 0 0
          0 0 0 0 0 0
          0 0 0 0 0 0
          0 0 0 0 0 0
          0 0 0 0 0 0
          0 0 0 0 0 0
          0 0 0 0 0 0
          0 0 0 0 0 0
          0 0 0 0 0 0
          0 0 0 0 0 0
          0 0 0 0 0 0
          0 0 0 0 0 0
          0 0 0 0 0 0
          0 0 0 0 0 0
          0 0 0 0 0 0
          0 0 0 0 0 0
          0 0 0 0 0 0
          0 0 0 0 0 0
          0 0 0 0 0 0
          0 0 0 0 0 0
          0 0 0 0 0 0
          0 0 0 0 0 0
          0 0 0 0 0 0
          0 0 0 0 0 0
          0 0 0 0 0 0
          0 0 0 0 0 0
          0 0 0 0 0 0
          0 0 0 0 0 0
          0 0 0 0 0 0
          0 0 0 0 0 0
          0 0 0 0 0 0
          0 0 0 0 0 0
          0 0 0 0 0 0
          0 0 0 0 0 0
          0 0 0 0 0 0
          0 0 0 0 0 0
          0 0 0 0 0 0
          0 0 0 0 0 0
          0 0 0 0 0 0
          0 0 0 0 0 0
          0 0 0 0 0 0
          0 0 0 0 0 0
          0 0 0 0 0 0
          0 0 0 0 0 0
          0 0 0 0 0 0
          0 0 0 0 0 0
          0 0 0 0 0 0
          0 0 0 0 0 0
          0 0 0 0 0 0
          0 0 0 0 0 0
          0 0 0 0 0 0
          0 0 0 0 0 0
          0 0 0 0 0 0
          0 0 0 0 0 0
          0 0 0 0 0 0
          0 0 0 0 0 0
          0 0 0 0 0 0
          0 0 0 0 0 0
          0 0 0 0 0 0
          0 0 0 0 0 0
          0 0 0 0 0 0
          0 0 0 0 0 0
          0 0 0 0 0 0
          0 0 0 0 0 0
          0 0 0 0 0 0
          0 0 0 0 0 0
          0 0 0 0 0 0
          0 0 0 0 0 0
          0 0 0 0 0 0
          0 0 0 0 0 0
          0 0 0 0 0 0
          0 0 0 0 0 0
          0 0 0 0 0 0
          0 0 0 0 0 0
          0 0 0 0 0 0
          0 0 0 0 0 0
          0 0 0 0 0 0
          0 0 0 0 0 0
          0 0 0 0 0 0
          0 0 0 0 0 0
          0 0 0 0 0 0
          0 0 0 0 0 0
          0 0 0 0 0 0
          0 0 0 0 0 0
          0 0 0 0 0 0
          0 0 0 0 0 0
          0 0 0 0 0 0
          0 0 0 0 0 0
          0 0 0 0 0 0
          0 0 0 0 0 0
          0 0 0 0 0 0
          0 0 0 0 0 0
          0 0 0 0 0 0
          0 0 0 0 0 0
          0 0 0 0 0 0
          0 0 0 0 0 0
          0 0 0 0 0 0
          0 0 0 0 0 0
          0 0 0 0 0 0
          0 0 0 0 0 0
          0 0 0 0 0 0
          0 0 0 0 0 0
          0 0 0 0 0 0
          0 0 0 0 0 0
          0 0 0 0 0 0
          0 0 0 0 0 0
          0 0 0 0 0 0
          0 0 0 0 0 0
          0 0 0 0 0 0
          0 0 0 0 0 0
          0 0 0 0 0 0
          0 0 0 0 0 0
          0 0 0 0 0 0
          0 0 0 0 0 0
          0 0 0 0 0 0
          0 0 0 0 0 0
          0 0 0 0 0 0
          0 0 0 0 0 0
          0 0 0 0 0 0
          0 0 0 0 0 0
          0 0 0 0 0 0
          0 0 0 0 0 0
          0 0 0 0 0 0
          0 0 0 0 0 0
          0 0 0 0 0 0
          0 0 0 0 0
        </DataArray>
        <DataArray type="Float64" Name="gradient_error" format="ascii" RangeMin="2.2925766575509403e-13" RangeMax="1.6178742407774001e-10">
          3.34992652142003e-11 3.251561084898082e-11 2.411046517194308e-12 1.0132497826397604e-11 8.76465612552177e-11 2.564593284486044e-11
          7.386558551441206e-12 1.5051129858064934e-11 8.562299541064981e-12 1.9803093244522143e-12 7.827962219046142e-13 7.694743008016209e-11
          4.008872557300596e-11 2.0273320012892193e-11 1.1892803925818031e-11 6.013509653980501e-11 4.113461162602047e-11 1.5154831990000823e-11
          1.4146115222274503e-11 5.8329219088816725e-12 1.9608876471141244e-11 5.949398947667076e-12 4.002145698705661e-12 5.246755841609194e-12
          5.661732426742783e-12 3.855022172849214e-12 5.729683848824873e-12 7.9376689950348e-11 3.497975587081336e-11 9.985053482933518e-12
          4.640936398284953e-11 1.2067601577500647e-11 2.9439154279939975e-11 2.7033435393781235e-11 1.1379644254406693e-11 9.448446094373862e-12
          4.581747088744308e-12 1.6768261176821994e-11 4.12684016265032e-11 9.721417443370292e-12 7.48972518000527e-11 1.7690709462375805e-11
          6.786446781930347e-12 4.024905290756112e-12 1.9907088301443504e-12 3.311716644132564e-11 1.300497544410831e-11 6.3736895966813524e-12
          9.605606506132413e-12 5.79569983589738e-12 3.623711911974606e-12 2.4206633836722765e-12 5.2002233609687624e-12 4.490762352247473e-12
          2.407922051502329e-12 2.2281011185303426e-12 1.2909024390634661e-12 3.120644753805332e-12 2.32885188100786e-12 7.10413817573609e-13
          1.229934520909985e-12 1.035156189552241e-12 4.537982711077773e-12 1.4060238802681634e-12 8.189765444436194e-13 2.5161122107700074e-11
          1.4394310438523078e-11 1.6268822322333012e-11 8.828930053982058e-12 2.1401440101930694e-11 1.0548590012945534e-11 9.165310609251574e-12
          5.6850465120758865e-12 1.485549184456099e-11 1.089393173534315e-11 6.779625650029649e-12 3.546694062530367e-12 5.040398845886588e-12
          6.042896492284853e-12 3.5549446113334363e-12 2.9612338869686343e-12 1.7514785497956776e-12 1.3097409319133887e-12 3.429258185058977e-12
          4.666120533439826e-12 1.7430529419226e-12 3.4859252086772663e-12 1.2516442800986471e-12 5.27924557083562e-12 6.608724323011704e-11
          1.9278905724004215e-11 2.941073306895938e-11 3.065085627102854e-11 2.460245506798384e-11 1.2911032024296401e-11 2.026724219563148e-11
          6.456638726387382e-12 9.205523892254285e-12 8.796620071604019e-12 1.1055254229480829e-11 5.6659559320014085e-12 2.2485859894808862e-11
          2.0183874868556105e-11 2.1458331620644405e-11 1.3287592912228373e-11 1.0496798926934506e-11 6.147857229705409e-12 5.882901948002211e-12
          1.4382483527701311e-11 1.5788052354265163e-11 9.185527665564291e-12 1.3086140489687055e-11 1.1320426194581355e-11 1.5281172000974495e-11
          9.704379880917888e-12 1.1270057561578166e-11 1.0078762679980486e-11 1.3306727774425172e-11 2.3120527758188832e-11 1.2361343308915558e-11
          1.1912663552645836e-11 2.0555627306869235e-11 6.420773962306888e-11 3.004822410371348e-11 1.3362279643512709e-11 3.460767307525352e-11
          1.515094016688403e-11 9.663608826689568e-12 2.739822240705519e-11 6.012703038920017e-12 3.638941032411937e-12 1.1111043172624718e-11
          8.027528834267085e-12 5.086194096302091e-12 7.632962527492386e-12 4.799328381553697e-12 1.3521663824720393e-11 8.66480302011875e-12
          6.3336258019698975e-12 6.312196424261736e-12 3.1507486240833386e-12 4.445253269437325e-12 2.5127130097229344e-12 5.213110885540602e-12
          2.9613423638761577e-12 2.9669865068090524e-12 5.4110046763110576e-12 3.284930152546187e-12 2.4914979776829826e-12 4.313376814926951e-11
          2.8137676725749763e-11 1.000688061670919e-10 6.633895893461639e-11 5.055335049397482e-11 3.6173937260006526e-11 2.241301724771209e-11
          1.7827582046028796e-11 1.0971221302241773e-11 4.2610301880850515e-11 2.652772033717793e-11 2.1061439421564896e-11 1.99567134686562e-11
          1.2894232928047217e-11 8.78363730832528e-12 5.625379991736783e-12 2.307170797635009e-11 1.4956602810216536e-11 9.921595819966749e-12
          8.103392759729625e-12 4.952592738167267e-12 3.499923159583545e-12 2.116072996925347e-12 9.42662599639551e-12 5.776137444628258e-12
          3.979122477235582e-12 3.2337120895777593e-12 4.8051334790576135e-12 2.8648348963532963e-12 3.806654142161254e-12 2.1409842617232645e-12
          1.2313745302316878e-12 4.030057671664107e-12 1.4863567773490543e-12 9.01619338937395e-13 7.096125379617947e-13 1.3059162006235282e-12
          3.3201741352831507e-12 2.1291323781617282e-12 1.9683331726665887e-12 1.2402953404463422e-12 3.3403135621463524e-12 2.9881605298784273e-12
          1.7700017013776262e-12 1.938294527525261e-12 1.1156870557004829e-12 1.6932610727872232e-12 1.3485628527316397e-12 1.13710484889846e-12
          1.1449250869861773e-12 1.0727003019684058e-12 1.1363011941788239e-12 1.2094287714670227e-12 1.050801187367494e-12 8.174458319232691e-13
          6.476219917947104e-13 1.1515269948924294e-12 1.347049883116874e-11 7.85399740831933e-12 6.55795269483358e-12 3.8069603554741706e-12
          1.6012931799329564e-11 9.373508547053042e-12 7.796863021663636e-12 4.442500075275723e-12 2.4377720042771744e-12 2.1456052644303167e-12
          1.174252552569667e-12 5.3214049708098116e-12 2.929901874881156e-12 2.5637335147377425e-12 2.944497761488601e-12 1.7020315051226445e-12
          1.2483785755805394e-12 9.478985515848663e-13 3.441366111382231e-12 1.993677346974604e-12 1.4243400731264757e-12 9.534322816353826e-13
          5.187163347946975e-13 9.432794495418493e-13 6.924709144379421e-13 1.120380451207314e-12 6.104194399734562e-13 7.849945123367472e-13
          1.9135277473842726e-11 1.679160671785924e-11 1.494247660198539e-11 8.831239288603556e-12 5.7781747543681854e-12 8.040086221474001e-12
          6.3634002238017944e-12 1.3680773617419573e-11 1.0906869832675006e-11 8.626835470077949e-12 6.833421632117187e-12 9.811398389921849e-12
          1.1706552960807366e-11 7.322783986547187e-12 5.712302078018579e-12 4.4600961512214515e-12 7.616843758782735e-12 5.318728894162298e-12
          4.206820083876342e-12 3.1925745760014296e-12 3.0726367154984617e-12 3.836676195682446e-12 4.5024462341725354e-12 2.7166529258527875e-12
          3.692072718163238e-12 2.7912274388440305e-12 4.997428208605502e-12 3.753856485417623e-12 3.229437995037501e-12 5.160162220358485e-12
          4.18972605242688e-12 4.147086720460223e-12 2.635620432625646e-12 5.696538659314872e-12 3.589319741315132e-12 2.8808877357430904e-12
          4.215208687424638e-12 3.9126514419908875e-12 2.9460980890031583e-12 3.1477091937225005e-12 3.5133010634265576e-12 2.1990183549838782e-12
          1.700467778117138e-12 1.5399546660499328e-12 1.2189617122559957e-12 2.162364622949258e-12 2.775300660888503e-12 1.5573933674325111e-12
          1.8661985277334153e-12 1.044329878905686e-12 3.034945079588668e-12 1.129848968751514e-12 1.1187286084897539e-12 7.215397354768802e-13
          8.170179664173062e-13 7.226683210230311e-13 8.588176661239965e-13 5.092313796567838e-13 9.286936325897323e-13 8.94419944071672e-13
          9.173058190453088e-13 6.297035781593827e-12 2.1429973836246675e-11 1.1600857360457693e-11 2.069359746815446e-11 9.231978450507477e-12
          1.3080091467905136e-11 1.3884744403461554e-11 8.397169353986399e-12 1.4689397339017975e-11 5.6523431499299004e-12 6.079551954033105e-12
          4.1410045928259196e-12 4.0236285039875544e-12 4.194338528056469e-12 3.921006922639047e-12 2.699180806348633e-12 6.506760758136309e-12
          3.9062524151491885e-12 3.6476753172216255e-12 2.9767511857563183e-12 3.809669399398981e-12 2.1211602198198234e-12 2.3327101666597885e-12
          2.2683458892416605e-12 2.536933381657792e-12 1.6988229834622373e-12 5.80352102791971e-12 8.238157938239217e-12 3.581681398426127e-12
          4.986267075724286e-12 4.6602806983200434e-12 6.158193402821796e-12 3.785859524930272e-12 1.1403327878133626e-12 1.6225410058118518e-12
          1.0433167341744552e-12 2.17638569227164e-12 2.9778836308169767e-12 1.3462837657679724e-12 1.8033874806368055e-12 1.7672572447042628e-12
          2.2533192971102683e-12 1.3630458982127056e-12 7.754886831945366e-13 1.024468401446336e-12 6.000977237560846e-13 7.502526389685999e-13
          6.256565005136602e-13 7.875839424171443e-13 6.104660437568459e-13 8.923552680750897e-12 9.811837828581643e-12 6.514140746619229e-12
          1.0497199727844486e-11 5.995196988586674e-12 6.381854452345339e-12 3.8400192668088064e-12 4.044081297341546e-12 4.490456175609877e-12
          4.356825534252153e-12 2.8386201907575015e-12 6.768511916104e-12 4.2481433278742854e-12 4.223194892894428e-12 2.391356126520039e-12
          2.4845198953019978e-12 1.9334820709759315e-12 1.926999997942168e-12 1.9201994857682493e-12 1.8590886929185427e-12 1.529720373017085e-12
          2.577683664083957e-12 1.9205179249084043e-12 1.7979779000688353e-12 1.882381454200791e-12 2.376665966569189e-12 1.1763966201856374e-12
          1.4348492374987231e-12 1.4034493265380408e-12 1.6062611651241093e-12 9.860601579276015e-13 6.723140907693604e-13 8.11927610357564e-13
          5.124880289902016e-13 5.989376289474808e-13 5.05459713138584e-13 5.752334209909809e-13 4.480944312128399e-13 5.461131668026738e-12
          6.5128434192091455e-12 5.620780010135085e-12 9.1161651722946e-12 9.752004591681457e-12 6.732461554402759e-12 2.559092495898122e-12
          3.01763493875566e-12 2.3712298272166406e-12 4.17568085188461e-12 1.7438560047181614e-12 2.0903160956304302e-12 1.5546519883747663e-12
          1.8257270985145715e-12 1.564941331739138e-12 1.834419663910158e-12 1.6247934737705293e-12 3.063803852355494e-12 2.597130875385246e-12
          2.554180018278492e-12 4.448405626080554e-12 5.237943368087334e-12 4.0505789950415916e-12 4.679248522769387e-12 3.94843954205393e-12
          4.558958781376657e-12 4.1341045976318325e-12 7.345295665362483e-12 6.38402344834065e-12 5.9747792003448035e-12 1.6842923319905194e-11
          3.1204927836838354e-11 1.2610224071834777e-11 9.280776302629124e-12 1.7036134079391575e-11 5.925404306353634e-12 6.806635845832651e-12
          5.799743771155483e-12 8.836515883086945e-12 2.2604792386642538e-11 1.612378273170328e-11 2.934810083786623e-11 1.1336830017208777e-11
          7.809745735262529e-12 1.420862170505244e-11 5.28862590264646e-11 9.117042711605962e-11 1.0258562123343296e-10 7.216944308002275e-11
          1.0627862279395416e-10 3.694565451195156e-11 2.541685146615362e-11 4.4290698263278456e-11 1.7273786722134275e-11 1.1629430310974102e-11
          2.0130177319046384e-11 4.9564951265096746e-11 3.339877935290422e-11 5.1433602935781086e-11 2.219069770815064e-11 1.4600457548139245e-11
          2.293986646592752e-11 1.368302750283307e-11 1.1010798301722379e-11 1.8781056906618674e-11 8.758022043668846e-12 6.931556335473598e-12
          1.2139986042931158e-11 2.5429166961832252e-11 2.0581358388512275e-11 3.374341994290955e-11 1.6545354862952843e-11 1.3212284494897721e-11
          2.209208240306608e-11 5.468033048011556e-12 4.2957270751051435e-12 7.645979433766567e-12 3.4549625823000142e-12 3.3534240860308347e-12
          2.5935347681107024e-12 4.909367211342508e-12 4.695245129025301e-12 1.0480828709743888e-11 8.259036887491401e-12 1.5523280006416325e-11
          1.40687042713786e-11 6.895136956518874e-12 6.4634750622255936e-12 5.022530995316531e-12 1.2190407683954846e-11 9.505254821425429e-12
          8.714234214396094e-12 1.0219759890414652e-11 8.192565330473039e-12 7.489310583455463e-12 5.992362047415977e-12 1.3810319439245039e-11
          1.1119467887331717e-11 9.994256668888326e-12 5.44145694792363e-12 6.496560979603419e-12 4.281645478553459e-12 5.135119131609957e-12
          4.0189925504007055e-12 4.754787063847466e-12 3.759408938534847e-12 8.89332684620627e-12 7.068157677622653e-12 6.4090165532781585e-12
          4.679846277845545e-12 5.426027667626409e-12 3.675114773704773e-12 4.299613687684477e-12 4.035236596541871e-12 4.574457408787744e-12