<?xml version="1.0"?>
<VTKFile type="UnstructuredGrid" version="0.1" byte_order="LittleEndian" header_type="UInt32" compressor="vtkZLibDataCompressor">
  <UnstructuredGrid>
    <Piece NumberOfPoints="1324" NumberOfCells="810">
      <PointData>
        <DataArray type="Int32" Name="libmesh_node_id" format="ascii" RangeMin="1225" RangeMax="5734">
          1225 1256 1316 1317 1348 1371
          1408 1409 1440 1463 1491 1492
          1493 1494 1495 1496 1497 1498
          1499 1500 1501 1502 1503 1504
          1505 1506 1507 1508 1512 1513
          1515 1516 1518 1561 1563 1565
          1566 1570 1571 1573 1575 1576
          1579 1580 1582 1584 1628 1629
          1630 1633 1636 1638 1639 1640
          1641 1642 1643 1644 1645 1646
          1647 1648 1649 1650 1651 1652
          1653 1654 1655 1656 1657 1658
          1659 1660 1661 1662 1663 1664
          1665 1666 1667 1668 1669 1670
          1671 1672 1673 1674 1675 1676
          1677 1678 1679 1690 1694 1695
          1696 1697 1698 1699 1700 1701
          1702 1703 1708 1804 1805 1808
          1809 1811 1813 1816 1817 1822
          1896 1897 1898 1899 1900 1901
          1902 1903 1904 1905 1906 1907
          1908 1909 1916 1917 1918 1919
          1920 1921 1922 1923 1924 1925
          1926 1927 1933 2041 2042 2043
          2046 2049 2063 2064 2067 2069
          2071 2072 2073 2074 2075 2076
          2077 2078 2079 2080 2081 2082
          2083 2084 2085 2086 2087 2088
          2089 2090 2091 2092 2093 2094
          2095 2096 2097 2098 2099 2100
          2101 2102 2103 2104 2105 2106
          2107 2108 2109 2110 2111 2112
          2113 2114 2115 2116 2117 2118
          2119 2120 2121 2122 2123 2124
          2125 2126 2127 2128 2129 2130
          2131 2132 2133 2134 2135 2136
          2137 2138 2139 2140 2141 2142
          2143 2144 2145 2146 2147 2148
          2149 2150 2151 2152 2153 2154
          2155 2156 2157 2158 2159 2160
          2161 2162 2163 2164 2165 2166
          2167 2168 2169 2170 2171 2172
          2173 2174 2175 2176 2177 2178
          2179 2180 2181 2182 2183 2184
          2185 2186 2187 2188 2189 2190
          2191 2192 2193 2194 2195 2196
          2197 2198 2199 2200 2201 2202
          2203 2204 2205 2206 2207 2208
          2209 2210 2211 2212 2213 2214
          2215 2216 2217 2218 2219 2220
          2221 2222 2223 2224 2225 2226
          2227 2228 2229 2230 2231 2232
          2233 2234 2235 2236 2237 2238
          2239 2240 2241 2242 2243 2244
          2245 2249 2250 2252 2253 2255
          2270 2271 2274 2275 2277 2279
          2290 2291 2294 2296 2297 2298
          2299 2310 2312 2314 2316 2324
          2325 2326 2327 2328 2329 2330
          2331 2332 2333 2334 2335 2336
          2337 2338 2339 2340 2341 2342
          2343 2344 2345 2348 2349 2351
          2353 2690 2691 2692 2693 2694
          2695 2696 2697 2698 2699 2700
          2701 2704 2705 2787 2788 2791
          2792 2793 2794 2795 2796 2797
          2798 2799 2800 2801 2802 2803
          2804 2805 2806 2807 2808 2809
          2810 2811 2812 2905 2906 2907
          2908 2909 2910 2911 2912 2913
          2914 2915 2916 2917 2918 2919
          2920 2921 2922 2923 2924 2925
          2926 2927 2928 2929 2930 2931
          2932 2933 2934 2935 2936 2937
          2938 2939 2940 2941 2942 2943
          2944 2945 2946 2947 2948 2949
          2950 2951 2952 2953 2954 2955
          2956 2957 2958 2959 2960 2961
          2962 2963 2964 2965 2966 2967
          2968 2969 2970 2971 2972 2973
          2974 2975 2976 2977 2978 2979
          2980 2981 2982 2983 2984 2985
          2986 2987 2988 2989 2990 2991
          2992 2993 2994 2995 2996 2997
          2998 2999 3000 3001 3002 3003
          3004 3005 3006 3007 3008 3009
          3010 3011 3012 3013 3014 3015
          3016 3017 3018 3019 3020 3021
          3022 3023 3024 3025 3026 3027
          3028 3029 3030 3031 3032 3033
          3034 3035 3036 3038 3039 3040
          3041 3042 3044 3059 3060 3061
          3062 3063 3064 3065 3066 3067
          3068 3069 3070 3073 3075 3076
          3078 3079 3080 3081 3082 3083
          3084 3085 3086 3088 3090 3092
          3093 3094 3095 3096 3097 3098
          3099 3100 3101 3102 3103 3104
          3105 3106 3107 3108 3109 3110
          3111 3112 3113 3114 3115 3116
          3117 3118 3119 3120 3122 3124
          3125 3126 3195 3196 3197 3198
          3200 3201 3202 3203 3204 3205
          3206 3207 3208 3210 3212 3214
          4482 4483 4484 4485 4486 4487
          4488 4496 4497 4498 4499 4500
          4501 4502 4503 4504 4505 4506
          4507 4508 4509 4510 4511 4514
          4515 4517 4519 4919 4920 4921
          4922 4923 4924 4925 4926 4927
          4928 4929 4930 4931 4932 4933
          4934 4935 4936 4937 4938 4939
          4940 4941 4942 4943 4944 4945
          4946 4947 4948 4949 4950 4951
          4952 4953 4954 4955 4956 4957
          4958 4959 4960 4961 4962 4963
          4964 4965 4966 4967 4968 4969
          4970 4971 4972 4973 4974 4975
          4976 4977 4978 4979 4980 4981
          4982 4983 4984 4985 4986 4987
          4988 4989 4990 4991 4992 4993
          4994 4995 4996 4997 4998 4999
          5000 5001 5002 5003 5004 5005
          5006 5007 5008 5009 5010 5011
          5012 5013 5014 5015 5016 5017
          5018 5019 5020 5021 5022 5023
          5024 5025 5026 5027 5028 5029
          5030 5031 5032 5033 5034 5035
          5036 5037 5038 5039 5040 5041
          5042 5043 5044 5045 5046 5047
          5048 5049 5050 5051 5052 5053
          5054 5055 5056 5057 5058 5059
          5060 5061 5062 5063 5064 5065
          5066 5067 5068 5069 5070 5071
          5072 5073 5074 5075 5076 5077
          5078 5079 5080 5081 5082 5083
          5084 5085 5086 5087 5088 5089
          5090 5091 5092 5093 5094 5095
          5096 5097 5098 5099 5100 5101
          5102 5103 5104 5105 5106 5107
          5108 5109 5110 5111 5112 5113
          5114 5115 5116 5117 5118 5119
          5120 5121 5122 5123 5124 5125
          5126 5127 5128 5129 5130 5131
          5132 5133 5134 5135 5136 5137
          5138 5139 5140 5141 5142 5143
          5144 5145 5146 5147 5148 5149
          5150 5151 5152 5153 5154 5155
          5156 5157 5158 5159 5160 5161
          5162 5163 5164 5165 5166 5167
          5168 5169 5170 5171 5172 5173
          5174 5175 5176 5177 5178 5179
          5180 5181 5182 5183 5184 5185
          5186 5187 5188 5189 5190 5191
          5192 5193 5194 5195 5196 5197
          5198 5199 5200 5201 5202 5203
          5204 5205 5206 5207 5209 5210
          5211 5212 5213 5214 5215 5216
          5217 5218 5221 5223 5224 5226
          5227 5228 5229 5230 5231 5232
          5233 5234 5235 5236 5237 5238
          5239 5240 5241 5242 5243 5244
          5245 5246 5247 5248 5249 5250
          5251 5252 5253 5254 5255 5256
          5257 5258 5259 5260 5261 5262
          5263 5264 5265 5266 5267 5268
          5269 5270 5271 5272 5273 5274
          5275 5276 5277 5278 5279 5280
          5281 5282 5283 5284 5285 5286
          5287 5288 5289 5290 5291 5292
          5293 5294 5295 5296 5297 5298
          5299 5300 5301 5302 5303 5304
          5305 5306 5307 5308 5309 5310
          5311 5312 5313 5314 5315 5316
          5317 5318 5319 5320 5321 5322
          5323 5324 5325 5326 5327 5328
          5329 5330 5331 5332 5333 5334
          5335 5336 5337 5338 5339 5340
          5341 5342 5343 5344 5345 5346
          5347 5348 5349 5350 5351 5352
          5353 5354 5355 5356 5357 5358
          5359 5360 5361 5362 5363 5364
          5365 5366 5367 5368 5369 5370
          5371 5372 5373 5374 5375 5376
          5377 5378 5379 5380 5381 5382
          5383 5384 5385 5386 5387 5388
          5389 5390 5391 5392 5393 5394
          5395 5396 5397 5398 5399 5400
          5401 5402 5403 5404 5405 5406
          5407 5408 5409 5410 5411 5412
          5413 5414 5415 5416 5417 5418
          5419 5420 5421 5422 5423 5424
          5425 5426 5427 5428 5429 5430
          5431 5432 5433 5434 5435 5436
          5437 5438 5439 5440 5442 5443
          5444 5445 5446 5447 5448 5449
          5450 5451 5452 5453 5454 5455
          5456 5457 5458 5459 5460 5461
          5462 5463 5464 5466 5468 5470
          1227 1257 1319 1349 1372 1441
          1464 1577 1514 1578 1581 1583
          1687 1704 1688 1705 1709 1706
          1707 1710 1711 1713 1819 1820
          1318 1509 1823 1928 1929 1930
          1931 1932 1934 1935 1680 1681
          2246 2247 2248 2251 1682 2254
          1683 2272 2273 2276 2278 2295
          2311 2313 2315 1693 2346 2347
          2350 2352 2702 2703 2706 1511
          3037 3071 3072 3074 3077 2293
          3043 3087 3089 3091 3121 3123
          3199 3209 3211 1691 3213 4512
          4513 4516 1411 4518 5208 5219
          5220 5222 2292 5225 5441 5465
          5467 5469 5485 5486 5558 5559
          5488 5562 5564 5565 5567 5499
          5578 5501 5580 5582 5584 5592
          5593 5596 5598 5599 5601 5612
          5614 5616 5618 5539 5694 5541
          5696 5698 5700 5716 5718 5720
          5722 5708 5730 5734
        </DataArray>
        <DataArray type="Float64" Name="bounds" format="ascii" RangeMin="0" RangeMax="0">
          0 0 0 0 0 0
          0 0 0 0 0 0
          0 0 0 0 0 0
          0 0 0 0 0 0
          0 0 0 0 0 0
          0 0 0 0 0 0
          0 0 0 0 0 0
          0 0 0 0 0 0
          0 0 0 0 0 0
          0 0 0 0 0 0
          0 0 0 0 0 0
          0 0 0 0 0 0
          0 0 0 0 0 0
          0 0 0 0 0 0
          0 0 0 0 0 0
          0 0 0 0 0 0
          0 0 0 0 0 0
          0 0 0 0 0 0
          0 0 0 0 0 0
          0 0 0 0 0 0
          0 0 0 0 0 0
          0 0 0 0 0 0
          0 0 0 0 0 0
          0 0 0 0 0 0
          0 0 0 0 0 0
          0 0 0 0 0 0
          0 0 0 0 0 0
          0 0 0 0 0 0
          0 0 0 0 0 0
          0 0 0 0 0 0
          0 0 0 0 0 0
          0 0 0 0 0 0
          0 0 0 0 0 0
          0 0 0 0 0 0
          0 0 0 0 0 0
          0 0 0 0 0 0
          0 0 0 0 0 0
          0 0 0 0 0 0
          0 0 0 0 0 0
          0 0 0 0 0 0
          0 0 0 0 0 0
          0 0 0 0 0 0
          0 0 0 0 0 0
          0 0 0 0 0 0
          0 0 0 0 0 0
          0 0 0 0 0 0
          0 0 0 0 0 0
          0 0 0 0 0 0
          0 0 0 0 0 0
          0 0 0 0 0 0
          0 0 0 0 0 0
          0 0 0 0 0 0
          0 0 0 0 0 0
          0 0 0 0 0 0
          0 0 0 0 0 0
          0 0 0 0 0 0
          0 0 0 0 0 0
          0 0 0 0 0 0
          0 0 0 0 0 0
          0 0 0 0 0 0
          0 0 0 0 0 0
          0 0 0 0 0 0
          0 0 0 0 0 0
          0 0 0 0 0 0
          0 0 0 0 0 0
          0 0 0 0 0 0
          0 0 0 0 0 0
          0 0 0 0 0 0
          0 0 0 0 0 0
          0 0 0 0 0 0
          0 0 0 0 0 0
          0 0 0 0 0 0
          0 0 0 0 0 0
          0 0 0 0 0 0
          0 0 0 0 0 0
          0 0 0 0 0 0
          0 0 0 0 0 0
          0 0 0 0 0 0
          0 0 0 0 0 0
          0 0 0 0 0 0
          0 0 0 0 0 0
          0 0 0 0 0 0
          0 0 0 0 0 0
          0 0 0 0 0 0
          0 0 0 0 0 0
          0 0 0 0 0 0
          0 0 0 0 0 0
          0 0 0 0 0 0
          0 0 0 0 0 0
          0 0 0 0 0 0
          0 0 0 0 0 0
          0 0 0 0 0 0
          0 0 0 0 0 0
          0 0 0 0 0 0
          0 0 0 0 0 0
          0 0 0 0 0 0
          0 0 0 0 0 0
          0 0 0 0 0 0
          0 0 0 0 0 0
          0 0 0 0 0 0
          0 0 0 0 0 0
          0 0 0 0 0 0
          0 0 0 0 0 0
          0 0 0 0 0 0
          0 0 0 0 0 0
          0 0 0 0 0 0
          0 0 0 0 0 0
          0 0 0 0 0 0
          0 0 0 0 0 0
          0 0 0 0 0 0
          0 0 0 0 0 0
          0 0 0 0 0 0
          0 0 0 0 0 0
          0 0 0 0 0 0
          0 0 0 0 0 0
          0 0 0 0 0 0
          0 0 0 0 0 0
          0 0 0 0 0 0
          0 0 0 0 0 0
          0 0 0 0 0 0
          0 0 0 0 0 0
          0 0 0 0 0 0
          0 0 0 0 0 0
          0 0 0 0 0 0
          0 0 0 0 0 0
          0 0 0 0 0 0
          0 0 0 0 0 0
          0 0 0 0 0 0
          0 0 0 0 0 0
          0 0 0 0 0 0
          0 0 0 0 0 0
          0 0 0 0 0 0
          0 0 0 0 0 0
          0 0 0 0 0 0
          0 0 0 0 0 0
          0 0 0 0 0 0
          0 0 0 0 0 0
          0 0 0 0 0 0
          0 0 0 0 0 0
          0 0 0 0 0 0
          0 0 0 0 0 0
          0 0 0 0 0 0
          0 0 0 0 0 0
          0 0 0 0 0 0
          0 0 0 0 0 0
          0 0 0 0 0 0
          0 0 0 0 0 0
          0 0 0 0 0 0
          0 0 0 0 0 0
          0 0 0 0 0 0
          0 0 0 0 0 0
          0 0 0 0 0 0
          0 0 0 0 0 0
          0 0 0 0 0 0
          0 0 0 0 0 0
          0 0 0 0 0 0
          0 0 0 0 0 0
          0 0 0 0 0 0
          0 0 0 0 0 0
          0 0 0 0 0 0
          0 0 0 0 0 0
          0 0 0 0 0 0
          0 0 0 0 0 0
          0 0 0 0 0 0
          0 0 0 0 0 0
          0 0 0 0 0 0
          0 0 0 0 0 0
          0 0 0 0 0 0
          0 0 0 0 0 0
          0 0 0 0 0 0
          0 0 0 0 0 0
          0 0 0 0 0 0
          0 0 0 0 0 0
          0 0 0 0 0 0
          0 0 0 0 0 0
          0 0 0 0 0 0
          0 0 0 0 0 0
          0 0 0 0 0 0
          0 0 0 0 0 0
          0 0 0 0 0 0
          0 0 0 0 0 0
          0 0 0 0 0 0
          0 0 0 0 0 0
          0 0 0 0 0 0
          0 0 0 0 0 0
          0 0 0 0 0 0
          0 0 0 0 0 0
          0 0 0 0 0 0
          0 0 0 0 0 0
          0 0 0 0 0 0
          0 0 0 0 0 0
          0 0 0 0 0 0
          0 0 0 0 0 0
          0 0 0 0 0 0
          0 0 0 0 0 0
          0 0 0 0 0 0
          0 0 0 0 0 0
          0 0 0 0 0 0
          0 0 0 0 0 0
          0 0 0 0 0 0
          0 0 0 0 0 0
          0 0 0 0 0 0
          0 0 0 0 0 0
          0 0 0 0 0 0
          0 0 0 0 0 0
          0 0 0 0 0 0
          0 0 0 0 0 0
          0 0 0 0 0 0
          0 0 0 0 0 0
          0 0 0 0 0 0
          0 0 0 0 0 0
          0 0 0 0 0 0
          0 0 0 0 0 0
          0 0 0 0 0 0
          0 0 0 0 0 0
          0 0 0 0 0 0
          0 0 0 0 0 0
          0 0 0 0 0 0
          0 0 0 0 0 0
          0 0 0 0 0 0
          0 0 0 0
        </DataArray>
        <DataArray type="Float64" Name="gradient_error" format="ascii" RangeMin="2.248736765470089e-11" RangeMax="1.0067195499887261e-7">
          4.758667527385446e-10 2.554960937799653e-10 2.749977409943128e-9 2.142645132338964e-9 3.567312241794248e-10 3.4665255989647133e-10
          2.7956371235108574e-8 2.9423411710307324e-8 9.805116677133969e-10 5.5064025658469e-10 8.086408564191565e-9 2.765729377446064e-8
          7.282695633729271e-8 7.72292006693643e-8 2.9477393480561456e-9 5.581172524228421e-8 4.825269513411848e-8 2.97729778567376e-8
          3.8827322719609074e-8 1.0331757474554837e-8 2.947931677843087e-8 4.863140759962414e-8 5.778630410405759e-8 5.303151118700661e-8
          8.643051810117419e-10 5.090699036162017e-10 3.1749781948463676e-8 2.6855393476903962e-8 6.181059210565129e-10 3.104163060721824e-9
          4.3577947581956017e-10 6.405551077683768e-8 1.1582683177367882e-8 2.8187332570900947e-9 1.1315771033625494e-8 1.659684632193201e-9
          4.248128716669148e-9 8.145573669163306e-10 1.9812808810160893e-8 6.9671710484880184e-9 7.853680146076324e-10 5.230147704843669e-10
          9.651487187816106e-11 2.1862381788343685e-10 2.7810045654978746e-10 3.407327638887126e-10 6.033996710751361e-8 5.988291326185442e-8
          5.720322873005921e-8 6.465565022264635e-8 5.38245030146204e-8 6.539206454102371e-8 5.385498591400388e-8 7.119281927364786e-8
          6.548078560021597e-8 4.53626061773507e-8 8.553506286490916e-8 7.511461288491008e-8 5.667352170185135e-8 6.387364274329929e-8
          6.135800488052034e-8 3.852254220736262e-8 6.57299112814491e-8 8.241770227883813e-8 5.317656418224178e-8 4.592474614221124e-8
          6.320453971999873e-8 5.899224211770026e-8 6.678973231147837e-8 3.810784486103844e-8 4.969285490466376e-8 1.8951757753747437e-8
          4.366595951578345e-8 5.381394379766607e-8 2.2806092113261502e-8 4.1805665698907954e-8 4.805610020114699e-8 3.4642539499178807e-8
          5.825505137830048e-8 4.436049352629132e-8 3.52476544579223e-8 7.475095648135991e-8 8.534452924907904e-8 2.4587744186647494e-8
          5.5394590288499093e-8 7.865808549157416e-8 3.7732073899211206e-8 5.660177895108874e-8 4.916028459529224e-8 2.2826227716174556e-10
          6.011807206482354e-8 4.5420313049728765e-8 6.180220239939972e-8 1.0052839858758293e-9 2.9600456725262485e-8 3.925325484757977e-8
          2.1183641409553702e-8 2.8408401564095105e-8 5.99783807508018e-9 1.2516009992452944e-8 8.008736563715786e-9 2.686556064292254e-8
          1.8975277267462996e-8 1.7626722208120247e-8 1.9947104895456586e-9 7.099591491964896e-9 7.010250436289613e-9 2.465037666762032e-9
          2.4411659903571417e-9 6.920909380614331e-9 2.417294313952252e-9 2.34528759702621e-10 1.7953528597616307e-10 1.2454181224970518e-10
          1.985410318395577e-9 3.849218134430889e-9 8.207642029471845e-9 5.3718362795672034e-8 4.466846060650687e-8 3.82209270657327e-8
          4.67312723079866e-8 1.63980922802014e-9 3.522130347449913e-8 2.9525770107541502e-8 6.050413914066516e-9 2.2500581831192964e-8
          3.175386861770109e-8 1.6199781907534475e-8 1.5553411490199706e-9 1.3864698120153793e-9 2.563994361781645e-8 2.1221998566147805e-8
          1.1592509258844194e-9 1.6469902056580848e-8 1.3550902631347351e-8 9.152295759784181e-10 1.0898695950241339e-8 6.609737676665751e-9
          7.757228196925101e-10 7.14516415337208e-10 4.984846820086953e-10 5.969279709139333e-8 4.4159698002052595e-8 4.951800916673873e-8
          5.7272060160617184e-8 3.8865252512647426e-8 4.980807726004347e-8 5.649877255623935e-8 4.5674137635896045e-8 5.729427214476508e-8
          4.317074117593446e-8 4.1075835191180114e-8 4.059371310630038e-8 5.174938909710885e-8 5.4085801306388855e-8 5.1990319022999324e-8
          4.990427073412851e-8 4.1221759523965697e-8 5.6360377037765335e-8 5.398477854434853e-8 3.542524765190472e-8 4.5886003668509e-8
          4.455593589101516e-8 4.70713562070599e-8 6.517821104097927e-8 6.466774702665418e-8 7.02611280475053e-8 6.116130948253491e-8
          4.3274447641046473e-8 4.091898564250409e-8 5.847705146291869e-8 5.578451131905617e-8 4.008066435108347e-8 6.031805554940516e-8
          5.727750775868466e-8 3.4439554717315165e-8 4.803105501500116e-8 4.8659517841276076e-8 7.799271178374872e-8 7.651366562131057e-8
          8.339429925340193e-8 7.014506274704829e-8 4.939999727819924e-8 5.5007481216806734e-8 5.5810022433278464e-8 6.161693261661723e-8
          6.263071121243864e-8 6.883305294936724e-8 3.344443391128318e-8 4.3584271235123646e-8 4.945940670295521e-8 5.928556314492073e-8
          6.376844833344614e-8 6.967230239203053e-8 6.089392496883862e-8 7.303887663517075e-8 7.603644780322518e-8 8.432068686687236e-8
          4.523112838418575e-8 5.6967310537048173e-8 5.368598259581582e-8 7.340532542504098e-8 5.218110929252718e-8 6.04785671229994e-8
          5.462207302744272e-8 6.483237853130626e-8 4.224402983861131e-8 4.754212798022189e-8 4.9399512975595994e-8 6.169907213912941e-8
          6.660321635576029e-8 5.087998013199539e-8 5.706985404648032e-8 6.95481043445848e-8 5.945477711336818e-8 7.461283255395752e-8
          4.409722021377208e-8 5.1183151618278254e-8 5.284893263851314e-8 7.204032987699121e-8 7.800980424558647e-8 5.5491956237206327e-8
          2.8225235018193905e-8 2.8726067866237305e-8 3.148842963663558e-8 3.1754665692325865e-8 2.7468402466336144e-8 3.094475030101065e-8
          2.192721351054455e-8 2.321002557004874e-8 2.413279939729375e-8 2.202367143384249e-8 3.4751624255077254e-8 3.478326351841442e-8
          3.442109813568516e-8 2.449283762955292e-8 4.120485144662321e-8 3.8607929961655204e-8 6.18007464219471e-8 5.8383830949282775e-8
          3.636368917912499e-8 6.277460872527005e-8 5.895170317542279e-8 3.167007606106167e-8 4.885353650217851e-8 4.8469986872237205e-8
          9.35080395053488e-8 9.063052281173355e-8 8.448315198243215e-8 8.023576961913004e-8 3.588726325085181e-8 3.3310960427504424e-8
          6.292874886505284e-8 5.868983835149482e-8 2.9459888565871327e-8 6.189453355879536e-8 5.7314796046687035e-8 2.6613522287345345e-8
          4.731441320090962e-8 4.523889222686097e-8 5.343968016010605e-8 7.718382882322032e-8 6.569862014693233e-8 9.0335412760876e-8
          2.310143087512351e-8 2.4770355480470572e-8 3.5479843304720126e-8 3.623202442243918e-8 2.106287426527227e-8 3.4231181533116004e-8
          1.887371810481088e-8 2.821952908170169e-8 2.9381973130290376e-8 2.6651186947333134e-8 6.168626825146769e-8 6.360909275624323e-8
          4.495807245290387e-8 1.8678748682664252e-8 3.240690764675124e-8 1.6014571921815574e-8 2.9961436469208375e-8 1.4865110394794848e-8
          2.463591672962005e-8 2.2180147019273505e-8 6.49865656531132e-8 6.531825763254404e-8 4.390233067473245e-8 5.793232301708358e-8
          6.639609135131301e-8 3.509206267619812e-8 5.056356649196535e-8 8.304237664761994e-8 8.167116272495795e-8 5.894254810242255e-10
          2.6838373935952294e-8 7.02306471488112e-9 7.177097250631947e-8 9.482236023897871e-9 3.973989309586771e-8 1.0852614469558083e-8
          2.6713175027425337e-8 9.010075286955813e-8 6.782664319258075e-8 1.933609745046763e-10 1.1878966042216957e-9 8.961420655647218e-10
          6.76227260004082e-8 8.012405119143824e-8 8.61145458814631e-8 5.430131508654097e-8 5.5376855306011004e-8 8.473382161425785e-8
          9.241039505139946e-8 5.994819152302238e-8 9.225500984713039e-8 8.252030872426429e-8 5.592870302888044e-8 5.579736575031088e-8
          1.0067195499887261e-7 7.871862692386009e-8 6.320727157788481e-8 2.7105616934861265e-8 2.4923777120950376e-8 5.9337928163539743e-8
          5.455892443965301e-8 1.9418996195272215e-8 4.2093500537169454e-8 5.624992111384584e-8 5.1743943011951676e-8 6.42273479402254e-8
          1.3181548150076866e-8 2.688470934161265e-8 1.0267041216648783e-8 1.936233832465265e-8 6.424973160343041e-8 3.9756543933689804e-8
          1.25738161719512e-8 1.2577656930063754e-8 4.3116534230062425e-8 7.058423599941786e-10 1.1797343889710135e-9 1.7441272087581077e-9
          1.1857383856235688e-8 7.041814752496752e-8 5.4677383420818065e-8 5.352747252101529e-8 6.39487686574297e-8 2.640511408309319e-8
          3.006939288942163e-8 2.4997864399015966e-8 2.8814239027884982e-8 1.9244017573061992e-8 2.0554379912148908e-8 1.8795330772046715e-8
          3.373367169575007e-8 3.2630613656754e-8 2.186474225123582e-8 2.322400479621742e-8 2.7135641778948496e-8 2.1079685154429128e-8
          2.498913163100889e-8 1.5553063313922193e-8 1.6768607918443046e-8 1.4531684964661643e-8 3.104727876167957e-8 2.889857810758866e-8
          1.7984152522963902e-8 1.8607667373785677e-8 2.2382618124048544e-8 1.1189330041583385e-8 1.217225137520352e-8 2.6157568874311415e-8
          1.3155172708823653e-8 4.724753010827391e-10 1.3230069501122631e-9 3.3754213422239335e-9 5.7440327400023276e-9 2.9249372722359036e-10
          1.852634083044665e-9 3.3208992521943004e-10 1.7575042984443453e-9 2.9187384055195857e-9 1.117696018871684e-9 2.186535625213352e-10
          9.301085511452935e-10 9.364777200718558e-11 6.895721792086969e-10 2.8838900290331156e-8 3.637589092135223e-8 3.169906243182232e-8
          2.8112644112560158e-8 3.660840029537255e-8 2.7144313724024426e-8 3.666345953602881e-8 2.435572212773665e-8 3.133962999333691e-8
          3.079338670886954e-8 2.608031769724187e-8 3.658207348901207e-8 2.1845049603815107e-8 3.0194008123215476e-8 2.9024053651242105e-8
          2.9131569967049566e-8 3.1800413130322236e-8 3.166098317261646e-8 2.370978305127756e-8 2.4827247276736487e-8 2.5303436196110016e-8
          3.4576772609402366e-8 3.419039637818335e-8 2.594471150219542e-8 8.355040443478349e-9 7.661740138066479e-9 7.866950523590524e-9
          8.072160909114569e-9 7.378860603702698e-9 1.5120164124299205e-8 1.5892038029838807e-8 1.5683052333629435e-8 1.6733386238924895e-8
          1.5474066637420064e-8 1.7893770391044494e-8 1.7699348917588942e-8 1.8646965792971364e-8 1.7504927444133398e-8 1.6652471019146714e-8
          9.527381613873724e-9 9.421254466689929e-9 1.116482732024286e-8 9.315127319506132e-9 1.540201959440045e-8 1.5185925046696136e-8
          1.4969830498991817e-8 1.2328416822226168e-8 1.2306754474670327e-8 1.1884006606347011e-8 1.2594653785561888e-8 1.1999751434646152e-8
          1.2770954080475931e-8 1.4027442640577417e-8 1.2637692716942576e-8 6.7197810909153116e-9 7.852561659475335e-9 6.165262111440525e-9
          7.212652497765848e-9 9.007165616841694e-9 9.577083789212525e-9 3.9014908906644394e-9 6.2956858700592636e-9 3.1719852207201965e-9
          8.699203914177253e-9 6.661583431459512e-9 6.753242394306644e-9 3.974432526278408e-9 5.624665310526751e-9 9.727118510410835e-9
          1.0358797215226354e-8 3.322397843565494e-10 8.344531305025551e-10 5.998887404651572e-10 6.810842430571711e-9 1.2118402196437772e-8
          1.2070543312156469e-8 1.223705295822939e-8 1.2668005226805497e-8 1.3649513207869337e-8 1.274645332231164e-8 1.387284633495346e-8
          1.2565056373135065e-8 1.3271583775161256e-8 1.2855213927680703e-8 1.5915966689520084e-8 1.5746759604208514e-8 1.698771705223809e-8
          1.6846993098260788e-8 1.5577552518896948e-8 1.6706269144283487e-8 8.879526680537372e-9 1.0271823091439955e-8 9.45235245117218e-9
          1.280980169819673e-8 1.8114238627277153e-8 1.793908525796188e-8 1.9305566123434586e-8 1.9103322642302135e-8 1.776393188864661e-8
          1.882404962303937e-8 1.0141129347252786e-8 1.011075818130534e-8 1.0848298663605927e-8 1.2461893133571716e-8 1.500918042045627e-8
          1.6094965452551554e-8 1.4895950218526783e-8 1.7692358678037075e-8 1.671472680929542e-8 1.7329702980562326e-8 1.5878724404761438e-8
          1.7393880619582662e-8 9.710066545721181e-10 2.739560500858121e-9 8.150871390834085e-10 1.0802148562098624e-9 7.888579825091866e-9
          5.254788160756125e-9 1.9326620389340284e-10 4.323132092795075e-10 3.464002176133445e-10 4.2775850727723124e-9 7.498191083576316e-10
          9.710794607249421e-10 8.222244723762008e-10 9.71077278301903e-10 5.4920782495379615e-9 3.6279172076857474e-9 2.8653446084936974e-10
          3.7803789721702793e-10 5.458289884836003e-10 9.942839415457452e-10 1.306530761522654e-8 1.256820824610695e-8 1.4883370610917825e-8
          1.6128938489875528e-8 1.1134443683487602e-8 9.035988125666738e-9 1.4870791003308869e-8 1.3567024807029523e-8 1.2435308376390246e-8
          1.7521468756749908e-8 1.845630820655869e-8 9.788268661277597e-9 1.0379201096624394e-8 1.7649056893917153e-8 1.6405311700001597e-8
          1.7186702847914237e-8 1.659406372305341e-8 1.7968093995826876e-8 1.990098290559392e-8 1.9571113840563803e-8 2.050416756806219e-8
          1.8584711017621082e-8 2.1943983904950644e-8 2.1431508473886146e-8 2.0017561877803682e-8 1.6900762748885834e-8 1.7422542274106432e-8
          1.5873348238063187e-8 1.7929265768603893e-8 1.6742440824422058e-8 2.0606231953248464e-8 2.0380519671208265e-8 2.2013135837819452e-8
          2.174635217529615e-8 1.9670317195985446e-8 2.0866875905813732e-8 1.1644800009190508e-8 1.1696811778434025e-8 1.2632004897194291e-8
          1.1637530375492757e-8 1.7785788360755637e-8 2.0310281560527393e-8 2.2098738725551152e-8 7.92537148417633e-9 1.0807237871974866e-8
          1.3551973423959865e-8 1.8197309875008133e-8 1.9176108895285235e-8 1.720879274721343e-8 1.809803449171585e-8 1.544724200713839e-8
          1.6652066920010567e-8 1.892501902167837e-8 2.0091531901638427e-8 1.882534759577198e-8 1.7865228311021146e-8 2.1893031130861528e-8
          1.0221878562878208e-9 1.1052965550138664e-9 1.2840916493989912e-9 1.3438956109773804e-9 1.6134217314702453e-9 1.6931218975782578e-9
          5.684791687136181e-10 7.189524093671299e-10 8.956140109285846e-10 9.707806646395513e-10 1.583887149569263e-9 1.6486495934311234e-9
          1.958745859573753e-9 2.0106743975404705e-9 1.8849781534511345e-9 2.1729142294465472e-9 8.509938689768752e-10 1.0892726883971975e-9
          1.3005252172370814e-9 1.4497762207327454e-9 8.953258810225556e-9 7.380169969966446e-9 1.7104113277591525e-8 1.6317753217759516e-8
          6.370116323739451e-9 2.0880442162261526e-9 1.5110700518757036e-8 7.959735860842496e-9 1.7606907976458808e-8 2.127384913158686e-9
          2.2585020507418253e-9 1.2835240971433158e-8 1.7121348541355535e-8 1.8337733360855087e-8 1.6271871612874352e-8 1.9309300609186507e-8
          1.7792118490151764e-8 1.7798598518050264e-8 1.8991926053506133e-8 1.6952901747428812e-8 1.7714602622177697e-8 1.8475848494744994e-8
          1.9646118746157184e-8 1.7633931881983272e-8 2.013764313883061e-8 1.8514994198147035e-8 2.0965985668474712e-8 1.9237869906142306e-8
          4.646735973751664e-9 7.251430340117871e-9 9.546964549729948e-9 1.1903892460085517e-8 2.9056700698364966e-9 5.866158962032481e-9
          8.03454270767007e-9 8.443199634958029e-10 1.0766500018429539e-9 1.0305330303480224e-9 1.3883341363758497e-9 4.707159823435394e-10
          5.040948544709504e-10 5.402882915998033e-10 6.872647843176598e-10 1.0699040562215185e-9 1.9802921902217607e-10 1.2167460972002422e-9
          1.7000182709087456e-9 5.374737265983614e-10 8.342412770355164e-10 2.5831130732540993e-10 2.5982498261369644e-10 6.489466306681885e-11
          6.630613707945648e-11 2.61338657901983e-10 6.77176110920941e-11 1.7150335399597836e-9 9.401073919950235e-10 1.0376241367034152e-9
          1.0083305303108727e-9 1.0845383184693108e-9 9.790369239183303e-10 1.4364449956976727e-9 9.730644923152317e-10 9.465795711473152e-10
          9.200946499793986e-10 9.530517502996068e-10 9.338374286069824e-10 9.604081282193706e-10 8.373706415823671e-10 9.369109600899006e-10
          9.869788278317586e-10 1.1278774015876183e-9 8.300507205105497e-10 9.124857261278683e-10 7.892836017104909e-10 9.94920731745187e-10