<?xml version="1.0"?>
<VTKFile type="UnstructuredGrid" version="0.1" byte_order="LittleEndian" header_type="UInt32" compressor="vtkZLibDataCompressor">
  <UnstructuredGrid>
    <Piece NumberOfPoints="1338" NumberOfCells="802">
      <PointData>
        <DataArray type="Int32" Name="libmesh_node_id" format="ascii" RangeMin="0" RangeMax="12744">
          0 1 2 3 4 5
          6 7 8 9 10 11
          12 13 14 15 16 17
          18 19 20 21 22 23
          24 25 26 27 92 93
          94 95 96 97 98 99
          100 101 102 103 104 105
          138 139 140 141 142 143
          144 145 146 147 148 149
          150 151 184 185 186 187
          188 189 190 191 192 193
          194 195 196 197 230 231
          232 233 234 235 236 253
          254 255 256 257 258 259
          276 277 278 279 280 281
          282 283 284 285 286 287
          288 289 322 323 324 325
          326 327 328 345 346 347
          348 349 350 351 368 369
          370 371 372 373 374 375
          376 377 378 379 380 381
          414 415 416 417 418 419
          420 437 438 439 440 441
          442 443 460 461 462 463
          464 465 466 467 468 469
          470 471 472 473 506 507
          508 509 510 511 512 529
          530 531 532 533 534 535
          552 553 554 555 556 557
          558 559 560 561 562 563
          564 565 566 567 598 599
          600 601 602 603 604 605
          621 622 623 624 625 626
          627 628 644 645 646 647
          648 649 650 651 652 653
          654 655 656 657 658 659
          690 691 692 693 694 695
          696 697 713 714 715 716
          717 718 719 720 736 737
          738 739 740 741 742 743
          744 745 746 747 748 749
          750 751 752 753 754 755
          756 757 782 783 784 785
          786 787 788 789 790 791
          792 805 806 807 808 809
          810 811 812 813 814 815
          828 829 830 831 832 833
          834 835 836 837 838 839
          840 841 842 843 844 845
          846 847 848 849 850 851
          852 853 874 875 876 877
          878 879 880 881 882 883
          884 885 886 897 898 899
          900 901 902 903 904 905
          906 907 908 909 920 921
          922 923 924 925 926 927
          928 929 930 931 932 933
          934 935 936 937 938 939
          940 941 942 943 944 945
          966 967 968 969 970 971
          972 973 974 975 976 977
          978 989 990 991 992 993
          994 995 996 997 998 999
          1000 1001 1012 1013 1014 1015
          1016 1017 1018 1019 1020 1021
          1022 1023 1024 1025 1026 1027
          1028 1029 1030 1031 1032 1033
          1034 1035 1036 1037 1058 1059
          1060 1061 1062 1063 1064 1065
          1066 1067 1068 1069 1070 1081
          1082 1083 1084 1085 1086 1087
          1088 1089 1090 1091 1092 1093
          1104 1105 1106 1107 1108 1109
          1110 1111 1112 1113 1114 1115
          1116 1117 1118 1119 1120 1121
          1122 1123 1124 1125 1126 1127
          1128 1129 1150 1151 1152 1153
          1154 1155 1156 1157 1158 1159
          1160 1161 1162 1173 1174 1175
          1176 1177 1178 1179 1180 1181
          1182 1183 1184 1185 1196 1197
          1198 1199 1200 1201 1202 1203
          1204 1205 1206 1207 1208 1209
          1210 1211 1212 1213 1214 1215
          1216 1217 1218 1219 1220 1221
          1242 1243 1244 1245 1246 1247
          1248 1249 1250 1251 1252 1253
          1254 1265 1266 1267 1268 1269
          1270 1271 1272 1273 1274 1275
          1276 1277 1288 1289 1290 1291
          1292 1293 1294 1295 1296 1297
          1298 1299 1300 1301 1302 1303
          1304 1305 1306 1307 1308 1309
          1310 1311 1312 1313 1334 1335
          1336 1337 1338 1339 1340 1341
          1342 1343 1344 1345 1346 1357
          1358 1359 1360 1361 1362 1363
          1364 1365 1366 1367 1368 1369
          1380 1381 1382 1383 1384 1385
          1386 1387 1388 1389 1390 1391
          1392 1393 1394 1395 1396 1397
          1398 1399 1400 1401 1402 1403
          1404 1405 1426 1427 1428 1429
          1430 1431 1432 1433 1434 1435
          1436 1437 1438 1449 1450 1451
          1452 1453 1454 1455 1456 1457
          1458 1459 1460 1461 1474 1475
          1478 1484 1488 1844 1845 1846
          1847 1848 1849 1850 1851 1852
          1853 1854 1855 1856 1857 1859
          1861 1864 1866 1870 1871 1874
          1877 1880 2662 2663 2666 2669
          12067 12068 12069 12070 12071 12072
          12073 12074 12075 12076 12077 12078
          12079 12080 12081 12082 12083 12084
          12085 12086 12087 12088 12089 12090
          12091 12092 12093 12094 12095 12096
          12097 12098 12099 12100 12101 12102
          12103 12104 12105 12106 12107 12108
          12109 12110 12111 12112 12113 12114
          12115 12116 12117 12118 12119 12120
          12121 12122 12123 12124 12125 12126
          12127 12128 12129 12130 12131 12132
          12133 12134 12135 12136 12137 12138
          12139 12140 12141 12142 12143 12144
          12145 12146 12147 12148 12149 12150
          12151 12152 12153 12154 12155 12156
          12157 12158 12159 12160 12161 12162
          12163 12164 12165 12166 12167 12168
          12169 12170 12171 12172 12173 12174
          12175 12176 12177 12178 12179 12180
          12181 12182 12183 12184 12185 12186
          12187 12188 12189 12190 12191 12192
          12193 12194 12195 12196 12197 12198
          12199 12200 12201 12202 12203 12204
          12205 12206 12207 12208 12209 12210
          12211 12212 12213 12214 12215 12216
          12217 12218 12219 12220 12221 12222
          12223 12224 12225 12226 12227 12228
          12229 12230 12231 12232 12233 12234
          12235 12236 12237 12238 12239 12240
          12241 12242 12243 12244 12245 12246
          12247 12248 12249 12250 12251 12252
          12253 12254 12255 12256 12257 12258
          12259 12260 12261 12262 12263 12264
          12265 12266 12267 12268 12269 12270
          12271 12272 12273 12274 12275 12276
          12277 12278 12279 12280 12281 12282
          12283 12284 12285 12286 12287 12288
          12289 12290 12291 12292 12293 12294
          12295 12296 12297 12298 12299 12300
          12301 12302 12303 12304 12305 12306
          12307 12308 12309 12310 12311 12312
          12313 12314 12315 12316 12317 12318
          12319 12320 12321 12322 12323 12324
          12325 12326 12327 12328 12329 12330
          12331 12332 12333 12334 12335 12336
          12337 12338 12339 12340 12341 12342
          12343 12344 12345 12346 12347 12348
          12349 12350 12351 12352 12353 12354
          12355 12356 12357 12358 12359 12360
          12361 12362 12363 12364 12365 12366
          12367 12368 12369 12370 12371 12372
          12373 12374 12375 12376 12377 12378
          12379 12380 12381 12382 12383 12384
          12385 12386 12387 12388 12389 12390
          12391 12392 12393 12394 12395 12396
          12397 12398 12399 12400 12401 12402
          12403 12404 12405 12406 12407 12408
          12409 12410 12411 12412 12413 12414
          12417 12418 12421 12424 12426 12428
          12431 12433 12435 12436 12437 12438
          12439 12440 12441 12442 12443 12444
          12445 12446 12447 12448 12449 12450
          12451 12452 12453 12454 12455 12456
          12457 12458 12459 12460 12461 12462
          12463 12464 12465 12466 12467 12468
          12469 12470 12471 12472 12473 12474
          12475 12476 12477 12478 12479 12480
          12481 12482 12483 12484 12485 12486
          12487 12488 12489 12490 12491 12492
          12493 12494 12495 12496 12497 12498
          12499 12500 12501 12502 12503 12504
          12505 12506 12507 12508 12509 12510
          12511 12512 12513 12514 12515 12516
          12517 12518 12519 12520 12521 12522
          12523 12524 12525 12526 12527 12528
          12529 12530 12531 12532 12533 12534
          12535 12536 12537 12538 12539 12540
          12541 12542 12543 12544 12545 12546
          12547 12548 12549 12550 12551 12552
          12553 12554 12555 12556 12557 12558
          12559 12560 12561 12562 12563 12564
          12565 12566 12567 12568 12569 12570
          12571 12572 12573 12574 12575 12576
          12577 12578 12579 12580 12581 12582
          12583 12584 12585 12586 12587 12588
          12589 12590 12591 12592 12593 12594
          12595 12596 12597 12598 12599 12600
          12601 12602 12603 12604 12605 12606
          12607 12608 12609 12610 12611 12612
          12613 12614 12615 12616 12617 12618
          12619 12620 12621 12622 12623 12624
          12625 12626 12627 12628 12629 12630
          12631 12632 12633 12634 12635 12636
          12637 12638 12639 12640 12641 12642
          12643 12644 12645 12646 12647 12648
          12649 12650 12651 12652 12653 12654
          12655 12656 12657 12658 12659 12660
          12661 12662 12663 12664 12665 12666
          12667 12668 12669 12670 12671 12672
          12673 12674 12675 12676 12677 12678
          12679 12680 12681 12682 12683 12684
          12685 12686 12687 12688 12689 12690
          12691 12692 12693 12694 12695 12696
          12697 12698 12699 12700 12701 12702
          12703 12704 12705 12706 12707 12708
          12709 12710 12711 12712 12713 12714
          12715 12716 12717 12718 12719 12720
          12721 12722 12723 12724 12725 12726
          12727 12728 12729 12730 12731 12732
          12733 12734 12735 12736 12737 12738
          12739 12740 12741 12742 12743 12744
        </DataArray>
        <DataArray type="Float64" Name="bounds" format="ascii" RangeMin="0" RangeMax="0">
          0 0 0 0 0 0
          0 0 0 0 0 0
          0 0 0 0 0 0
          0 0 0 0 0 0
          0 0 0 0 0 0
          0 0 0 0 0 0
          0 0 0 0 0 0
          0 0 0 0 0 0
          0 0 0 0 0 0
          0 0 0 0 0 0
          0 0 0 0 0 0
          0 0 0 0 0 0
          0 0 0 0 0 0
          0 0 0 0 0 0
          0 0 0 0 0 0
          0 0 0 0 0 0
          0 0 0 0 0 0
          0 0 0 0 0 0
          0 0 0 0 0 0
          0 0 0 0 0 0
          0 0 0 0 0 0
          0 0 0 0 0 0
          0 0 0 0 0 0
          0 0 0 0 0 0
          0 0 0 0 0 0
          0 0 0 0 0 0
          0 0 0 0 0 0
          0 0 0 0 0 0
          0 0 0 0 0 0
          0 0 0 0 0 0
          0 0 0 0 0 0
          0 0 0 0 0 0
          0 0 0 0 0 0
          0 0 0 0 0 0
          0 0 0 0 0 0
          0 0 0 0 0 0
          0 0 0 0 0 0
          0 0 0 0 0 0
          0 0 0 0 0 0
          0 0 0 0 0 0
          0 0 0 0 0 0
          0 0 0 0 0 0
          0 0 0 0 0 0
          0 0 0 0 0 0
          0 0 0 0 0 0
          0 0 0 0 0 0
          0 0 0 0 0 0
          0 0 0 0 0 0
          0 0 0 0 0 0
          0 0 0 0 0 0
          0 0 0 0 0 0
          0 0 0 0 0 0
          0 0 0 0 0 0
          0 0 0 0 0 0
          0 0 0 0 0 0
          0 0 0 0 0 0
          0 0 0 0 0 0
          0 0 0 0 0 0
          0 0 0 0 0 0
          0 0 0 0 0 0
          0 0 0 0 0 0
          0 0 0 0 0 0
          0 0 0 0 0 0
          0 0 0 0 0 0
          0 0 0 0 0 0
          0 0 0 0 0 0
          0 0 0 0 0 0
          0 0 0 0 0 0
          0 0 0 0 0 0
          0 0 0 0 0 0
          0 0 0 0 0 0
          0 0 0 0 0 0
          0 0 0 0 0 0
          0 0 0 0 0 0
          0 0 0 0 0 0
          0 0 0 0 0 0
          0 0 0 0 0 0
          0 0 0 0 0 0
          0 0 0 0 0 0
          0 0 0 0 0 0
          0 0 0 0 0 0
          0 0 0 0 0 0
          0 0 0 0 0 0
          0 0 0 0 0 0
          0 0 0 0 0 0
          0 0 0 0 0 0
          0 0 0 0 0 0
          0 0 0 0 0 0
          0 0 0 0 0 0
          0 0 0 0 0 0
          0 0 0 0 0 0
          0 0 0 0 0 0
          0 0 0 0 0 0
          0 0 0 0 0 0
          0 0 0 0 0 0
          0 0 0 0 0 0
          0 0 0 0 0 0
          0 0 0 0 0 0
          0 0 0 0 0 0
          0 0 0 0 0 0
          0 0 0 0 0 0
          0 0 0 0 0 0
          0 0 0 0 0 0
          0 0 0 0 0 0
          0 0 0 0 0 0
          0 0 0 0 0 0
          0 0 0 0 0 0
          0 0 0 0 0 0
          0 0 0 0 0 0
          0 0 0 0 0 0
          0 0 0 0 0 0
          0 0 0 0 0 0
          0 0 0 0 0 0
          0 0 0 0 0 0
          0 0 0 0 0 0
          0 0 0 0 0 0
          0 0 0 0 0 0
          0 0 0 0 0 0
          0 0 0 0 0 0
          0 0 0 0 0 0
          0 0 0 0 0 0
          0 0 0 0 0 0
          0 0 0 0 0 0
          0 0 0 0 0 0
          0 0 0 0 0 0
          0 0 0 0 0 0
          0 0 0 0 0 0
          0 0 0 0 0 0
          0 0 0 0 0 0
          0 0 0 0 0 0
          0 0 0 0 0 0
          0 0 0 0 0 0
          0 0 0 0 0 0
          0 0 0 0 0 0
          0 0 0 0 0 0
          0 0 0 0 0 0
          0 0 0 0 0 0
          0 0 0 0 0 0
          0 0 0 0 0 0
          0 0 0 0 0 0
          0 0 0 0 0 0
          0 0 0 0 0 0
          0 0 0 0 0 0
          0 0 0 0 0 0
          0 0 0 0 0 0
          0 0 0 0 0 0
          0 0 0 0 0 0
          0 0 0 0 0 0
          0 0 0 0 0 0
          0 0 0 0 0 0
          0 0 0 0 0 0
          0 0 0 0 0 0
          0 0 0 0 0 0
          0 0 0 0 0 0
          0 0 0 0 0 0
          0 0 0 0 0 0
          0 0 0 0 0 0
          0 0 0 0 0 0
          0 0 0 0 0 0
          0 0 0 0 0 0
          0 0 0 0 0 0
          0 0 0 0 0 0
          0 0 0 0 0 0
          0 0 0 0 0 0
          0 0 0 0 0 0
          0 0 0 0 0 0
          0 0 0 0 0 0
          0 0 0 0 0 0
          0 0 0 0 0 0
          0 0 0 0 0 0
          0 0 0 0 0 0
          0 0 0 0 0 0
          0 0 0 0 0 0
          0 0 0 0 0 0
          0 0 0 0 0 0
          0 0 0 0 0 0
          0 0 0 0 0 0
          0 0 0 0 0 0
          0 0 0 0 0 0
          0 0 0 0 0 0
          0 0 0 0 0 0
          0 0 0 0 0 0
          0 0 0 0 0 0
          0 0 0 0 0 0
          0 0 0 0 0 0
          0 0 0 0 0 0
          0 0 0 0 0 0
          0 0 0 0 0 0
          0 0 0 0 0 0
          0 0 0 0 0 0
          0 0 0 0 0 0
          0 0 0 0 0 0
          0 0 0 0 0 0
          0 0 0 0 0 0
          0 0 0 0 0 0
          0 0 0 0 0 0
          0 0 0 0 0 0
          0 0 0 0 0 0
          0 0 0 0 0 0
          0 0 0 0 0 0
          0 0 0 0 0 0
          0 0 0 0 0 0
          0 0 0 0 0 0
          0 0 0 0 0 0
          0 0 0 0 0 0
          0 0 0 0 0 0
          0 0 0 0 0 0
          0 0 0 0 0 0
          0 0 0 0 0 0
          0 0 0 0 0 0
          0 0 0 0 0 0
          0 0 0 0 0 0
          0 0 0 0 0 0
          0 0 0 0 0 0
          0 0 0 0 0 0
          0 0 0 0 0 0
          0 0 0 0 0 0
          0 0 0 0 0 0
          0 0 0 0 0 0
          0 0 0 0 0 0
          0 0 0 0 0 0
          0 0 0 0 0 0
          0 0 0 0 0 0
        </DataArray>
        <DataArray type="Float64" Name="gradient_error" format="ascii" RangeMin="1.120290614839989e-14" RangeMax="5.525032035112493e-7">
          1.3567372362480618e-14 1.349840380151831e-14 1.3207084967332529e-14 1.324622274967665e-14 1.120290614839989e-14 1.1362037575832712e-14
          1.187082384296983e-14 1.1776942732571828e-14 1.3259073601967793e-14 1.3072449290760688e-14 1.1911389750707418e-14 1.2185595917544299e-14
          1.2822837127662223e-14 1.2826788815447209e-14 1.2932967643794715e-14 1.2760053415031882e-14 1.230037292717141e-14 1.2528269539953652e-14
          1.4155819251114965e-14 1.3452009159274158e-14 1.2092899233674666e-14 1.2393963376466366e-14 1.45288149078804e-14 1.3700744822030794e-14
          1.2286078507138194e-14 1.2479161208383683e-14 1.3834074900070158e-14 1.336978752690797e-14 1.2821362253836273e-14 1.2826048067171581e-14
          1.2565668634096855e-14 1.255139139497473e-14 1.2807202414192111e-14 1.260388235659443e-14 1.2782349267157149e-14 1.2661987684813784e-14
          1.2749059070424577e-14 1.2734815962019123e-14 1.2721346059897928e-14 1.2792191464596681e-14 1.2710300695010065e-14 1.2808987324673544e-14
          1.2726958374525802e-14 1.272702299747048e-14 1.275172715808676e-14 1.2751803473205692e-14 1.2728579848830637e-14 1.2747962628807687e-14
          1.2733958031082104e-14 1.2736836183358513e-14 1.2741951988113264e-14 1.2721432856604895e-14 1.2747664600537792e-14 1.2711708193012171e-14
          1.2748357480390958e-14 1.2712474495601308e-14 1.9001409681808154e-14 1.79295335429945e-14 1.6155859858831424e-14 1.6802615124645928e-14
          1.528523535216917e-14 1.4551938191763487e-14 1.372957271226408e-14 1.3427561310632281e-14 1.56994306200043e-14 1.4117041847778033e-14
          1.6145922579691585e-14 1.4183752839265752e-14 1.2753362588250917e-14 1.2464035645054897e-14 1.3551491504214102e-14 1.3662092780460249e-14
          1.3276502520252284e-14 1.294940912459665e-14 1.2680028544541629e-14 1.2536509365136272e-14 1.2504673842257074e-14 1.2720796833759855e-14
          1.2720364993436791e-14 1.2734364009146763e-14 1.2773268340192815e-14 1.28254040135315e-14 1.2851435631432622e-14 1.2834638982655273e-14
          3.6127286465671726e-14 2.968287388758465e-14 2.2499462938558922e-14 2.6350818629050343e-14 2.450820199825635e-14 1.8869789740196217e-14
          3.766156570236868e-14 2.5595372289337143e-14 5.939636577910806e-14 3.7812510906935953e-14 5.976870325156803e-14 3.887577554933323e-14
          3.4923687541694997e-14 2.6096154265333727e-14 1.3986220260385083e-14 1.4614673178947314e-14 1.2922798771753375e-14 1.3010229684096248e-14
          1.429086126450863e-14 1.5145508220340127e-14 1.482799195262689e-14 1.2656388531236977e-14 1.2654995565465673e-14 1.2614220061370659e-14
          1.2491280491886883e-14 1.2353066494253406e-14 1.2308168593581826e-14 1.2387362916281322e-14 9.63851877535599e-14 7.655524249445668e-14
          5.679823041647392e-14 7.028310703712568e-14 8.241548555271137e-14 5.2694281411833286e-14 1.6626359010396792e-13 9.390990228189521e-14
          2.574987965700528e-13 1.461758949703212e-13 2.416045268649088e-13 1.4164399312007018e-13 1.1752205928614126e-13 7.57096387433294e-14
          2.532186025117183e-14 2.888562401762726e-14 1.8357075580309337e-14 1.783591510522817e-14 2.4743375784423953e-14 2.8193081921031323e-14
          2.4038572459573307e-14 1.360250216385252e-14 1.3590221714563049e-14 1.3741073889663488e-14 1.4115615750633843e-14 1.4633758198258273e-14
          1.470270446683107e-14 1.4179926718629105e-14 1.8044538702949078e-13 2.36307046510401e-13 1.5528450385130234e-13 1.3646967350773107e-13
          4.757129441782939e-13 2.7299529728646506e-13 8.625767086611104e-13 4.905045659284677e-13 1.143184489136082e-12 6.589135474756719e-13
          9.841706571750299e-13 5.831613664083518e-13 4.5271916613949926e-13 2.9195847986090807e-13 4.5662751135965827e-14 5.401907773996495e-14
          4.434716920890025e-14 6.746501289599958e-14 9.43663264128237e-14 9.85928393704023e-14 7.531722257922581e-14 1.706354107972803e-14
          1.5544195493958564e-14 1.841668802316427e-14 1.6497602596173925e-14 1.4090047010385828e-14 1.5033603099130743e-14 1.943665157613473e-14
          1.1960377637367594e-12 1.6762866861910132e-12 9.761726774891815e-13 7.022795998900306e-13 2.8946347040296e-12 1.6810839364875396e-12
          4.256976854878485e-12 2.4783333775620634e-12 4.934772867651467e-12 2.887393748385634e-12 3.88997415616442e-12 2.3264518856611572e-12
          1.8288575377202584e-12 1.1544093894847225e-12 1.532066151282502e-12 8.828079536077997e-13 1.8565854907978394e-13 1.4907384235479358e-13
          2.826586171158671e-13 3.9208046347219076e-13 4.539825387847349e-13 4.1606095338244784e-13 2.8528023770244065e-13 1.7224213503541825e-13
          9.525842937221781e-14 8.962624866628539e-14 9.778406528625472e-14 8.44710266987385e-14 6.795044844966756e-14 6.919229160700082e-14
          9.059923415569436e-14 1.1093451413773917e-13 1.0501965677240353e-11 1.220611836804947e-11 7.425766208467792e-12 6.432113111018465e-12
          1.6179087863669952e-11 9.712800037534334e-12 1.992751217095259e-11 1.1822883723728566e-11 2.0480775914942648e-11 1.2099813078216865e-11
          1.470159610838764e-11 8.816600456582389e-12 7.733266326020057e-12 4.672041046468487e-12 8.442803317714024e-12 4.700355298074215e-12
          1.6578490741607285e-12 1.5110698458744533e-12 1.9488419183784635e-12 2.1396036197304354e-12 2.0876286318161307e-12 1.6915256907495624e-12
          1.0775911031719548e-12 7.818553705582975e-13 6.702840994353405e-13 6.598791469523309e-13 6.51171625358214e-13 5.609519629563299e-13
          4.564070221411806e-13 4.514465767219867e-13 5.443664394269936e-13 6.058034626821892e-13 6.76664077989022e-11 7.198492667536475e-11
          4.477615303382611e-11 4.249233941511802e-11 8.134902924766613e-11 4.9562401263836453e-11 8.743008484672529e-11 5.220540237539682e-11
          7.996437001013878e-11 4.720251385853055e-11 5.299394295296798e-11 3.1361947180074106e-11 3.550997228621709e-11 2.0598950976892187e-11
          4.703548403318003e-11 2.643135836908025e-11 6.484152589457111e-11 3.646209014155616e-11 5.716925149660012e-11 3.260470310291341e-11
          2.767519852494255e-11 1.6304088999165426e-11 1.0841556770801744e-11 1.0734130720273741e-11 1.0821851632989577e-11 1.0156775462297045e-11
          8.613177119092229e-12 6.213533378777468e-12 4.345711145213019e-12 4.471252894745207e-12 5.549669362541744e-12 5.292087326487598e-12
          3.2159921657745568e-12 4.115734149316019e-12 4.14999040921364e-12 3.867929985972385e-12 3.3328310205257355e-12 2.785696531262138e-12
          2.697115350374703e-12 3.0034926228587534e-12 3.115273084509947e-12 3.016684336542262e-12 2.5440199437484984e-12 1.499004858160812e-12
          3.5714684536171074e-10 3.614411317674061e-10 2.2432880369695119e-10 2.2388363809912615e-10 3.662559969274648e-10 2.2191694682894721e-10
          3.4962423671021915e-10 2.0622216701789295e-10 2.802728174370274e-10 1.6213832673289993e-10 1.813483888620901e-10 1.053606939236499e-10
          1.7963138236784927e-10 1.0546801146657034e-10 2.591677301208759e-10 1.5076868719519486e-10 3.0821196241877926e-10 1.7820006449632186e-10
          2.5205512115626396e-10 1.471536207936513e-10 1.1535277751717556e-10 7.026845945641756e-11 3.704459165077344e-11 2.3971558396415752e-11
          1.6905714034532888e-11 1.1370126970148138e-11 5.4686722048904225e-11 5.662811077409827e-11 4.900398151053088e-11 4.0230310628971146e-11
          2.954182861334614e-11 2.1925945410953016e-11 2.3320223389101123e-11 2.8776491924308486e-11 3.107519410948997e-11 2.6744690200705937e-11
          1.5844283318723386e-11 6.905813385745171e-12 3.873007243650545e-12 2.2156968471312202e-11 2.263579071165501e-11 2.0430066290632206e-11
          1.7640523932375615e-11 1.5079821197919888e-11 1.4478891836696357e-11 1.5335806212910843e-11 1.5183339579103115e-11 1.396222164511539e-11
          1.1237259970373142e-11 6.5044252417872336e-12 2.9131016294322788e-12 1.9114745815377023e-12 1.5707559498588547e-9 1.531047640307667e-9
          9.180386920062626e-10 9.524248468783943e-10 1.4113238976256827e-9 8.22796576389692e-10 1.1827712285316789e-9 6.724002286421133e-10
          7.872354955199235e-10 4.6188344739355686e-10 6.404733993823851e-10 4.1005899112175336e-10 1.0340341914339216e-9 6.4351731652376e-10
          1.4133310873478028e-9 8.530464564530611e-10 1.4835335989358934e-9 8.830465819121718e-10 1.1312647006879247e-9 6.778028648192634e-10
          4.918980579379007e-10 3.1111197352683644e-10 1.467821496502171e-10 1.0225368351141898e-10 7.221860293500166e-11 5.0834176842880824e-11
          2.029287230383443e-10 2.1879228194441875e-10 1.6340585766771564e-10 1.2139075268898014e-10 1.0374120230477879e-10 1.2439046015090254e-10
          1.6259383329322766e-10 1.8133745876082288e-10 1.7239951146481207e-10 1.3636296112255981e-10 7.893005221987762e-11 3.502865944206084e-11
          1.8723158234549998e-11 1.0082770237183055e-10 1.0349081999090367e-10 9.254246018172988e-11 8.075227662541256e-11 7.095100534236732e-11
          6.913633744068355e-11 7.21872249728572e-11 6.991309196332601e-11 6.223945804117366e-11 4.8384893294517533e-11 2.75342153239832e-11
          1.2332101511500824e-11 7.996565718340006e-12 5.188827809687278e-9 4.842991238655049e-9 2.8202303083947926e-9 2.9704218782239277e-9
          3.9592191826803886e-9 2.45210965326838e-9 2.8457635171203496e-9 2.008681624575375e-9 2.266088948313154e-9 1.8529422970470586e-9
          3.792749418875586e-9 2.765512739741961e-9 6.482579495146919e-9 4.215764826963767e-9 7.65882366275605e-9 4.782860529710893e-9
          7.23331676232356e-9 4.434742757781777e-9 5.175679308656988e-9 3.188422473910827e-9 2.1465420684950026e-9 1.4144623577027104e-9
          5.871710198454485e-10 4.475575853525511e-10 3.092428725048721e-10 2.3027936085281675e-10 5.671373434337334e-10 5.473606274803503e-10
          6.310279914318844e-10 7.305246756037469e-10 8.560206656832305e-10 1.0110876850764739e-9 1.1279487342595692e-9 1.10335507847483e-9
          9.500185171593328e-10 7.009055457472165e-10 3.973241620719521e-10 1.7890659365679063e-10 9.180310734795634e-11 3.3680530873293026e-10
          3.4270530820012317e-10 3.170558590073972e-10 2.894496191770935e-10 2.722456855854982e-10 2.838993095446119e-10 3.0694730973852497e-10
          2.998127602839256e-10 2.6386828107867266e-10 2.0064545232976787e-10 1.1226567723348606e-10 4.9869036453927643e-11 3.229036549515128e-11
          1.3442876315712715e-8 1.3518603193551362e-8 1.2964819780104018e-8 1.2744076260979575e-8 1.417359268930339e-8 1.3708844777231386e-8
          1.62296625235919e-8 1.5123660427411413e-8 2.1020855381048187e-8 1.770800194661005e-8 3.0619625474154825e-8 2.24884920599649e-8
          4.009955722221563e-8 2.688441210259507e-8 4.13961822359019e-8 2.6657107906054447e-8 3.574705989417407e-8 2.256329333830724e-8
          2.4171666278046078e-8 1.5322626373025294e-8 9.628390936381388e-9 6.618722847997097e-9 2.387818958148872e-9 2.020669994754246e-9
          1.3241793774830499e-9 1.057561927238588e-9 6.5725598462849365e-9 6.429349613349074e-9 6.913479106827702e-9 7.280452138479544e-9
          7.530352475300506e-9 7.624795854308518e-9 7.38919071640419e-9 6.53554354715351e-9 5.2076466028392164e-9 3.628538543618302e-9
          2.019828292681516e-9 9.203959005988082e-10 4.570708562160887e-10 7.340833259131977e-10 8.134230204517137e-10 5.828613484960197e-10
          5.43245945728158e-10 6.655564384290918e-10 8.922330628420686e-10 1.109114449833871e-9 1.1530535181000224e-9 1.0357664232380165e-9
          7.83490619232091e-10 4.306018257502254e-10 1.8727076983799601e-10 1.2319723543805168e-10 3.264204131932273e-8 3.2320984232966834e-8
          9.35373386379926e-8 9.570894450014365e-8 3.2880636736811016e-8 8.866236745563582e-8 3.567015493231722e-8 8.324287881051723e-8
          4.175730441214666e-8 7.829269886185211e-8 5.287656167679644e-8 7.47907279088078e-8 1.5641295857263304e-7 1.1966122686335046e-7
          2.3142156467002453e-7 1.510036151287819e-7 1.8673042313240682e-7 1.1912221458634593e-7 9.243509183294574e-8 6.163952469820536e-8
          1.0558520157616283e-8 1.3504055527194377e-8 4.649266012075563e-9 4.829854774734695e-9 3.1123140926811486e-9 2.3744069966984858e-9
          8.357121157253871e-8 8.616786642506712e-8 7.721397209177236e-8 6.938032158815721e-8 6.109945734444773e-8 5.3175769271336756e-8
          4.5696119911023364e-8 3.72712277110895e-8 2.766014375040762e-8 1.7832097008947267e-8 9.182729805072114e-9 3.714836065939191e-9
          1.4470200372028704e-9 1.2013546436972095e-8 1.3272486902079263e-8 9.052324201073708e-9 5.8493134923920185e-9 3.2557001272759956e-9
          2.3029821435181884e-9 3.130561150025656e-9 3.956789834639724e-9 3.80628146053019e-9 2.80765603958769e-9 1.3970553674486391e-9
          4.785211697098366e-10 2.631923332344117e-10 1.9836154896018463e-7 2.0470532788553417e-7 1.9883644086877417e-7 1.9869636669012922e-7
          2.1632376242564857e-7 1.9795352977389278e-7 2.2871170984091832e-7 1.9560455129756757e-7 2.4140083954161627e-7 1.918779997144358e-7
          2.5433244062956194e-7 1.865359776037801e-7 3.5770462225809027e-7 2.2648525726562526e-7 4.47596861685609e-7 2.585791565191777e-7
          4.236889201632168e-7 2.286111232482125e-7 2.378700519218501e-7 1.7429732733543205e-7 5.4484634443681804e-8 1.250432295031264e-7
          4.0082409173420966e-8 1.0349962027180807e-7 2.790012130222614e-8 8.070214982638415e-8 1.253611415952715e-7 1.3045833714936187e-7
          1.1337042704460169e-7 9.894125114075031e-8 8.397343002002443e-8 6.957685303289773e-8 5.6410884804796924e-8 4.375214564635669e-8
          3.161029428660927e-8 2.057102126263315e-8 1.0884071045021566e-8 4.364996629858254e-9 1.5236408733439896e-9 6.906815549458407e-8
          7.387120392279729e-8 5.758813642250181e-8 4.426332886467791e-8 3.15446163177848e-8 2.109031430417747e-8 1.3955179561309137e-8
          9.393820336621567e-9 6.924636454478837e-9 5.76878521606122e-9 4.151248917627285e-9 2.061676666736993e-9 8.431436669783074e-10
          1.701571491962769e-7 1.8248373635426216e-7 2.4232780498578727e-7 2.3188337077882025e-7 2.0672840458081e-7 2.6223553426271706e-7
          2.368356207319238e-7 2.8510869437859135e-7 2.739029322678875e-7 3.107689529734759e-7 3.199441860615969e-7 3.3939156421272447e-7
          3.7852905264950845e-7 3.709826206951924e-7 2.441944072455538e-7 4.040886142998134e-7 4.374101537005458e-8 1.7407754730996395e-7
          5.5402768586758995e-8 1.7270810540530725e-7 7.59745830692852e-8 1.644713901859467e-7 1.0779440814586045e-7 1.4647799857324854e-7
          1.614370731492929e-7 1.1643285455644536e-7 1.1094120637841163e-7 1.1563547543205644e-7 1.004367817969665e-7 8.781515178621361e-8
          7.442011244346689e-8 6.068955742380279e-8 4.743899126885445e-8 3.5677070126310584e-8 2.5482777699410542e-8 1.706062449169735e-8
          9.034819040478033e-9 3.65129458789543e-9 4.028826650167816e-9 1.1506817746458684e-7 1.2230772244572693e-7 9.775406741618167e-8
          7.74675426635162e-8 5.7480980066092516e-8 3.8905264190237e-8 2.337235109562363e-8 1.269520996866676e-8 7.882044304836039e-9
          7.1664036050807045e-9 6.189561066192151e-9 3.461040706117217e-9 1.3546109228569525e-9 8.64127970433229e-8 1.8481658792548995e-7