<?xml version="1.0"?>
<VTKFile type="UnstructuredGrid" version="0.1" byte_order="LittleEndian" header_type="UInt32" compressor="vtkZLibDataCompressor">
  <UnstructuredGrid>
    <Piece NumberOfPoints="1125" NumberOfCells="784">
      <PointData>
        <DataArray type="Int32" Name="libmesh_node_id" format="ascii" RangeMin="1729" RangeMax="9353">
          1731 1734 1739 2447 2449 2453
          2454 2455 2459 2467 2468 2469
          2473 2481 2482 2498 2499 2503
          2508 2513 2514 2515 2518 2519
          3585 3586 3589 3591 3593 3594
          3597 3598 3599 3600 3602 3635
          3636 3637 3640 3645 3646 3647
          3650 3653 3654 3659 3661 3662
          3663 3664 3668 3669 3670 3671
          3672 3673 3674 3678 3679 3681
          3682 3683 3684 3688 3689 3712
          3714 3716 3718 3720 3721 3722
          3724 3746 3748 3750 3752 3754
          3755 3756 3758 3781 3782 3785
          3788 3789 3815 3816 3819 3828
          3830 3832 3834 3835 3836 3837
          3838 3839 3840 3862 3864 3866
          3868 3869 3870 3871 3872 3873
          3874 3889 3890 3893 3894 3896
          3897 3923 3924 3927 3928 7118
          7119 7120 7121 7122 7123 7124
          7125 7127 7138 7139 7140 7141
          7142 7143 7144 7145 7146 7147
          7148 7149 7150 7151 7152 7153
          7154 7157 7158 7159 7162 7163
          7167 7168 7169 7170 7171 7172
          7173 7174 7175 7176 7177 7178
          7179 7180 7181 7182 7183 7184
          7185 7186 7187 7304 7305 7306
          7307 7308 7309 7310 7311 7312
          7313 7314 7315 7316 7317 7318
          7319 7320 7321 7322 7323 7344
          7345 7346 7347 7348 7349 7350
          7351 7352 7353 7354 7355 7356
          7357 7358 7359 7360 7361 7362
          7363 7376 7377 7380 7382 7396
          7397 7400 7402 7404 7405 7406
          7407 7408 7409 7410 7411 7412
          7413 7414 7415 7416 7417 7418
          7419 7420 7421 7422 7423 7424
          7425 7426 7427 7428 7429 7430
          7431 7432 7433 7434 7435 7436
          7437 7438 7439 7440 7441 7442
          7443 7444 7445 7446 7447 7448
          7449 7450 7451 7452 7453 7454
          7455 7456 7457 7458 7459 7460
          7461 7462 7463 7464 7465 7466
          7467 7468 7469 7470 7471 7472
          7473 7474 7475 7476 7477 7478
          7479 7480 7481 7482 7484 7485
          7486 7487 7488 7489 7490 7491
          7492 7493 7494 7495 7496 7497
          7498 7499 7500 7501 7502 7503
          7647 7649 7650 7661 7662 7663
          7664 7666 7678 7690 7692 7694
          7698 7699 7702 7705 7709 7710
          7711 7712 7713 7714 7715 7716
          7717 7718 7719 7720 7721 7722
          7723 7726 7727 7730 7733 7737
          7738 7739 7740 7741 7742 7743
          7744 7745 7746 7747 7748 7749
          7750 7751 7898 7910 7912 7914
          7926 7938 7940 7942 7946 7947
          7950 7953 7957 7958 7959 7960
          7961 7962 7963 7964 7965 7966
          7967 7968 7969 7970 7971 7974
          7975 7978 7981 7985 7986 7987
          7988 7989 7990 7991 7992 7993
          7994 7995 7996 7997 7998 7999
          8150 8151 8152 8153 8154 8155
          8156 8157 8158 8159 8160 8161
          8162 8163 8178 8179 8180 8181
          8182 8183 8184 8185 8186 8187
          8188 8189 8190 8191 8206 8207
          8208 8209 8210 8211 8212 8213
          8214 8215 8216 8217 8218 8219
          8234 8235 8236 8237 8238 8240
          8241 8242 8243 8244 8398 8399
          8400 8401 8402 8403 8404 8405
          8406 8407 8408 8409 8410 8411
          8426 8427 8428 8429 8430 8431
          8432 8433 8434 8435 8436 8437
          8438 8439 8454 8456 8458 8460
          8482 8484 8486 8488 8504 8506
          8508 8518 8520 8522 8532 8534
          8536 8546 8548 8550 8552 8553
          8554 8555 8556 8557 8558 8559
          8560 8561 8562 8563 8564 8565
          8566 8567 8568 8569 8570 8571
          8572 8573 8574 8575 8576 8577
          8578 8579 8580 8581 8582 8583
          8584 8585 8586 8587 8588 8589
          8590 8591 8592 8593 8594 8595
          8596 8597 8598 8599 8600 8601
          8602 8603 8604 8605 8606 8607
          8752 8754 8756 8766 8768 8770
          8780 8782 8784 8794 8796 8798
          8800 8801 8802 8803 8804 8805
          8806 8807 8808 8809 8810 8811
          8812 8813 8814 8815 8816 8817
          8818 8819 8820 8821 8822 8823
          8824 8825 8826 8827 8828 8829
          8830 8831 8832 8833 8834 8835
          8836 8837 8838 8839 8840 8841
          8842 8843 8844 8845 8846 8847
          8848 8849 8850 8851 8852 8853
          8854 8855 8968 8969 8970 8971
          8972 8973 8974 8975 8976 8977
          8978 8979 8980 8981 8982 8983
          8984 8986 8987 8988 8989 8990
          8993 8994 8996 8997 8998 8999
          9000 9001 9002 9003 9004 9005
          9006 9007 9008 9009 9010 9011
          9012 9014 9015 9016 9017 9018
          9021 9022 9024 9025 9026 9027
          9028 9029 9030 9031 9032 9033
          9034 9035 9036 9037 9038 9039
          9045 9058 9059 9060 9061 9062
          9064 9065 9066 9067 9068 9072
          9076 9208 9209 9210 9211 9212
          9213 9214 9215 9216 9217 9218
          9219 9220 9221 9222 9223 9224
          9226 9227 9228 9229 9230 9233
          9234 9236 9237 9238 9239 9240
          9241 9242 9243 9244 9245 9246
          9247 9248 9249 9250 9251 9252
          9254 9255 9256 9257 9258 9261
          9262 9264 9266 9268 9270 9278
          9292 9294 9296 9298 2450 1729
          2452 2461 2463 2464 1732 2466
          2476 2474 2477 2475 2484 2485
          2486 2487 3576 3564 3577 3595
          3578 3596 3631 3632 3633 3634
          3641 3642 3643 3644 3665 3666
          3657 3667 3675 3676 3677 3685
          3686 3687 3690 2491 2492 4694
          4689 3851 3843 4696 3853 4701
          3680 3903 7025 7055 7056 7059
          2457 7126 7092 7093 7094 7097
          7155 3582 7156 7102 7103 7160
          7104 7161 7164 7107 7165 2458
          7166 3601 7288 7289 7290 7293
          3638 7298 7299 7300 7303 3639
          7328 7329 7330 7333 3648 7338
          7339 7340 7343 3649 7483 7648
          7696 7697 7652 7700 7701 7703
          7704 7706 7707 7708 3719 7676
          7724 7725 7680 7728 7729 7731
          7732 7734 7735 7736 3723 7896
          7944 7945 7900 7948 7949 7951
          7952 7954 7955 7956 3753 7924
          7972 7973 7928 7976 7977 7979
          7980 7982 7983 7984 3757 8138
          8139 8142 3779 8145 8146 8149
          3780 8166 8167 8170 3783 8173
          8174 8177 3784 8194 8195 8198
          3786 8201 8202 8205 3787 8222
          8223 8226 3790 8239 3792 8229
          8230 8233 8245 3791 8246 8247
          2509 8386 8387 8390 3813 8393
          8394 8397 3814 8414 8415 8418
          3817 8421 8422 8425 3818 8442
          8443 8455 8457 8446 3820 8459
          3822 8470 8471 8483 8485 8474
          3824 8487 3826 8676 8620 8677
          8621 8678 8679 8683 8626 8684
          8686 8687 8688 8689 8693 8694
          8716 8656 8717 8720 8660 8721
          8723 8724 8727 8728 8912 8864
          8913 8916 8868 8917 8919 8920
          8923 8924 8940 8892 8941 8944
          8896 8945 8947 8948 8951 8952
          8985 3891 8991 8992 8995 3892
          9013 3895 9019 9020 9023 2521
          9040 9041 9042 9043 9044 9046
          9047 3898 9048 9049 9050 9051
          9055 9056 9063 3900 9069 9070
          9071 3901 9073 9074 9075 9077
          9078 3902 9079 9080 9083 9084
          9086 9087 9088 9089 9093 9094
          9126 9127 9130 9131 9225 3925
          9231 9232 9235 3926 9253 3929
          9259 9260 9263 2525 9265 9267
          9269 3930 9279 9280 9281 9282
          9283 9284 3932 9293 9295 9297
          3934 9306 9307 9308 9310 9311
          9312 9320 9321 9324 9325 9348
          9349 9352 9353
        </DataArray>
        <DataArray type="Float64" Name="bounds" format="ascii" RangeMin="0" RangeMax="0">
          0 0 0 0 0 0
          0 0 0 0 0 0
          0 0 0 0 0 0
          0 0 0 0 0 0
          0 0 0 0 0 0
          0 0 0 0 0 0
          0 0 0 0 0 0
          0 0 0 0 0 0
          0 0 0 0 0 0
          0 0 0 0 0 0
          0 0 0 0 0 0
          0 0 0 0 0 0
          0 0 0 0 0 0
          0 0 0 0 0 0
          0 0 0 0 0 0
          0 0 0 0 0 0
          0 0 0 0 0 0
          0 0 0 0 0 0
          0 0 0 0 0 0
          0 0 0 0 0 0
          0 0 0 0 0 0
          0 0 0 0 0 0
          0 0 0 0 0 0
          0 0 0 0 0 0
          0 0 0 0 0 0
          0 0 0 0 0 0
          0 0 0 0 0 0
          0 0 0 0 0 0
          0 0 0 0 0 0
          0 0 0 0 0 0
          0 0 0 0 0 0
          0 0 0 0 0 0
          0 0 0 0 0 0
          0 0 0 0 0 0
          0 0 0 0 0 0
          0 0 0 0 0 0
          0 0 0 0 0 0
          0 0 0 0 0 0
          0 0 0 0 0 0
          0 0 0 0 0 0
          0 0 0 0 0 0
          0 0 0 0 0 0
          0 0 0 0 0 0
          0 0 0 0 0 0
          0 0 0 0 0 0
          0 0 0 0 0 0
          0 0 0 0 0 0
          0 0 0 0 0 0
          0 0 0 0 0 0
          0 0 0 0 0 0
          0 0 0 0 0 0
          0 0 0 0 0 0
          0 0 0 0 0 0
          0 0 0 0 0 0
          0 0 0 0 0 0
          0 0 0 0 0 0
          0 0 0 0 0 0
          0 0 0 0 0 0
          0 0 0 0 0 0
          0 0 0 0 0 0
          0 0 0 0 0 0
          0 0 0 0 0 0
          0 0 0 0 0 0
          0 0 0 0 0 0
          0 0 0 0 0 0
          0 0 0 0 0 0
          0 0 0 0 0 0
          0 0 0 0 0 0
          0 0 0 0 0 0
          0 0 0 0 0 0
          0 0 0 0 0 0
          0 0 0 0 0 0
          0 0 0 0 0 0
          0 0 0 0 0 0
          0 0 0 0 0 0
          0 0 0 0 0 0
          0 0 0 0 0 0
          0 0 0 0 0 0
          0 0 0 0 0 0
          0 0 0 0 0 0
          0 0 0 0 0 0
          0 0 0 0 0 0
          0 0 0 0 0 0
          0 0 0 0 0 0
          0 0 0 0 0 0
          0 0 0 0 0 0
          0 0 0 0 0 0
          0 0 0 0 0 0
          0 0 0 0 0 0
          0 0 0 0 0 0
          0 0 0 0 0 0
          0 0 0 0 0 0
          0 0 0 0 0 0
          0 0 0 0 0 0
          0 0 0 0 0 0
          0 0 0 0 0 0
          0 0 0 0 0 0
          0 0 0 0 0 0
          0 0 0 0 0 0
          0 0 0 0 0 0
          0 0 0 0 0 0
          0 0 0 0 0 0
          0 0 0 0 0 0
          0 0 0 0 0 0
          0 0 0 0 0 0
          0 0 0 0 0 0
          0 0 0 0 0 0
          0 0 0 0 0 0
          0 0 0 0 0 0
          0 0 0 0 0 0
          0 0 0 0 0 0
          0 0 0 0 0 0
          0 0 0 0 0 0
          0 0 0 0 0 0
          0 0 0 0 0 0
          0 0 0 0 0 0
          0 0 0 0 0 0
          0 0 0 0 0 0
          0 0 0 0 0 0
          0 0 0 0 0 0
          0 0 0 0 0 0
          0 0 0 0 0 0
          0 0 0 0 0 0
          0 0 0 0 0 0
          0 0 0 0 0 0
          0 0 0 0 0 0
          0 0 0 0 0 0
          0 0 0 0 0 0
          0 0 0 0 0 0
          0 0 0 0 0 0
          0 0 0 0 0 0
          0 0 0 0 0 0
          0 0 0 0 0 0
          0 0 0 0 0 0
          0 0 0 0 0 0
          0 0 0 0 0 0
          0 0 0 0 0 0
          0 0 0 0 0 0
          0 0 0 0 0 0
          0 0 0 0 0 0
          0 0 0 0 0 0
          0 0 0 0 0 0
          0 0 0 0 0 0
          0 0 0 0 0 0
          0 0 0 0 0 0
          0 0 0 0 0 0
          0 0 0 0 0 0
          0 0 0 0 0 0
          0 0 0 0 0 0
          0 0 0 0 0 0
          0 0 0 0 0 0
          0 0 0 0 0 0
          0 0 0 0 0 0
          0 0 0 0 0 0
          0 0 0 0 0 0
          0 0 0 0 0 0
          0 0 0 0 0 0
          0 0 0 0 0 0
          0 0 0 0 0 0
          0 0 0 0 0 0
          0 0 0 0 0 0
          0 0 0 0 0 0
          0 0 0 0 0 0
          0 0 0 0 0 0
          0 0 0 0 0 0
          0 0 0 0 0 0
          0 0 0 0 0 0
          0 0 0 0 0 0
          0 0 0 0 0 0
          0 0 0 0 0 0
          0 0 0 0 0 0
          0 0 0 0 0 0
          0 0 0 0 0 0
          0 0 0 0 0 0
          0 0 0 0 0 0
          0 0 0 0 0 0
          0 0 0 0 0 0
          0 0 0 0 0 0
          0 0 0 0 0 0
          0 0 0 0 0 0
          0 0 0 0 0 0
          0 0 0 0 0 0
          0 0 0 0 0 0
          0 0 0 0 0 0
          0 0 0 0 0 0
          0 0 0 0 0 0
          0 0 0 0 0 0
          0 0 0
        </DataArray>
        <DataArray type="Float64" Name="gradient_error" format="ascii" RangeMin="2.062826448156252e-12" RangeMax="3.772704003129309e-9">
          5.420338401512791e-11 7.0951460363246675e-12 1.392731128846776e-9 1.7127547315755781e-10 2.525408158396403e-10 2.49117442633947e-10
          2.6134289421218194e-10 1.0123005186827313e-10 1.3043904577374723e-10 5.087614373336234e-11 3.644407183278379e-11 1.1413101302241778e-11
          1.9234389807527297e-11 7.63167728445216e-11 3.017251726809413e-11 1.0863191159705334e-9 5.649431041689362e-10 2.306678478169738e-9
          2.3791270912283026e-10 6.759034804767107e-10 3.012987209721579e-10 1.4003252935925655e-10 6.95251650838604e-10 3.580077165665974e-10
          2.3377545300740277e-10 1.5187251466950996e-10 1.0972897304547202e-10 1.920104971118728e-10 1.4790082881238412e-10 9.642845061748633e-11
          1.0733470655897885e-10 6.932532356751632e-11 4.217975689956701e-11 1.2731100015118236e-10 8.574540659261592e-11 3.855532388476415e-11
          2.497414099011943e-11 1.4245748031286477e-11 3.293906433442913e-11 1.2062755442137148e-11 7.850205913216551e-12 5.65357019426282e-12
          1.0790146717135713e-11 1.1500114214650585e-10 7.313627965834979e-11 7.977308004209005e-11 7.20557772384363e-11 4.5978179136809225e-11
          4.36585039978957e-11 2.7873131334963462e-11 5.191695478054157e-11 3.2552171404713857e-11 4.8812086286929826e-11 2.561983771030943e-11
          1.6431889495044946e-11 1.4376879563735224e-11 1.238490383479862e-11 1.9631652115284147e-11 1.4018395250142877e-11 7.734656385315374e-12
          9.90005342108637e-12 4.084650374971006e-12 6.845968309741591e-12 1.0659498422764658e-11 7.187695582420295e-12 6.193179226030223e-10
          4.074456832423688e-10 1.6819737387005371e-9 4.3604576306470556e-10 2.8195515226234707e-10 1.8641713099906427e-10 1.2761641615461346e-9
          8.036935798908934e-10 3.122774384372971e-9 2.0487465701566207e-9 3.2540530695455947e-9 2.4586061508073627e-9 1.6019152905367282e-9
          1.1919540896345537e-9 2.5388344243785675e-9 1.8325171753205037e-9 1.1777307161474568e-10 7.116035056165464e-11 3.7648147354215547e-10
          4.116926091782726e-11 2.2819043696240948e-11 8.378147154389917e-10 5.548033043512958e-10 1.000255616580123e-9 2.3802608245482015e-10
          1.2453369993129838e-10 6.113437620055841e-10 1.6173616826821113e-10 1.053456712181637e-10 8.313044442834188e-11 5.335775628527306e-11
          4.3878157239027515e-10 3.0008253221745394e-10 2.0994187651237102e-10 1.1686291264246094e-9 5.636972520190221e-10 1.4035131951915586e-9
          8.815729959937134e-10 6.315172105073698e-10 4.085544160594963e-10 2.8237070622568435e-10 1.0771374795432844e-9 7.848535414681767e-10
          5.112174424755662e-10 6.578499722999015e-11 3.937851252880527e-11 1.9548134773156144e-10 1.2139903026849653e-10 2.261704758629137e-11
          1.2464686980054066e-11 4.287107824891482e-10 2.758672509833551e-10 5.412493838244715e-10 3.5315870432981064e-10 1.0080304047831236e-10
          1.45414597903713e-10 8.151132044272314e-11 1.1875248652811985e-10 8.661914734044157e-11 1.252776098757835e-10 1.0216771226601783e-10
          2.7009453381922406e-10 2.322431274176752e-10 7.339066629612912e-11 1.0561836736972713e-10 5.921004232949108e-11 8.599486092530271e-11
          6.078974692270599e-11 8.69348705602045e-11 7.064864440851241e-11 1.9442950337805315e-10 1.6035905804923303e-10 1.5857428359703557e-10
          6.536540244008863e-11 9.607700678828288e-11 5.198074609635263e-11 7.700664063862676e-11 5.6296401080308044e-11 8.268216442772902e-11
          6.631370862961523e-11 1.5714968112629356e-10 4.090729183240931e-11 6.111362750151625e-11 3.538147330826138e-11 5.259354205567351e-11
          1.0209676143216671e-10 4.7615852497694137e-11 6.951125973081349e-11 3.800357522696037e-11 5.5689217821986814e-11 3.931355190612747e-11
          5.699936137317311e-11 4.558371911588722e-11 1.3096335302933267e-10 1.058926554075398e-10 1.0627444751106594e-10 2.9867017257703635e-11
          4.410806406021639e-11 2.3253574197313556e-11 3.46047735858379e-11 2.457076182180169e-11 3.604679876873536e-11 2.824453143637511e-11
          8.477238666096367e-11 6.718629188378282e-11 6.851027497131629e-11 1.8021481554092056e-11 2.693408744260526e-11 1.3859208853961404e-11
          2.0774426538304685e-11 1.48075069864939e-11 2.196296549201436e-11 1.6927183816682762e-11 5.271584179688238e-11 4.0948612336749374e-11
          4.24636093526014e-11 1.0479019158659487e-11 1.583480608888234e-11 7.855129933952096e-12 1.1958416649506241e-11 8.6260710344998e-12
          1.2893695868338872e-11 9.733916196978093e-12 3.1496335079858154e-11 2.398795622174434e-11 2.5296633143489626e-11 5.878220662404622e-12
          8.966840247184583e-12 4.390460370014913e-12 6.668447683698974e-12 4.851778833500969e-12 7.290568233515741e-12 5.4132368200435926e-12
          1.8090028389756104e-11 1.350564477463175e-11 1.448139166759441e-11 3.25572045682498e-12 4.894054819940077e-12 2.427342030977883e-12
          3.5470734686698975e-12 2.759338454613578e-12 3.949762874166807e-12 3.0824484805587405e-12 9.981531278546734e-12 7.276251172386523e-12
          7.946692590270628e-12 3.9493829885284465e-11 5.659737235746279e-11 4.427746231361225e-11 1.0337255786468459e-10 2.4891860571289284e-11
          3.357082371578776e-11 2.8598286922082995e-11 5.967150314087398e-11 3.166103615900373e-11 4.557923257599374e-11 2.5195653308292853e-11
          3.6392732503085307e-11 2.5036682077464058e-11 3.558967876484319e-11 2.836647115156903e-11 8.400666718988971e-11 6.762165558366198e-11
          6.465503575341404e-11 1.9742386991766967e-11 2.8732906198355498e-11 1.534028073447023e-11 2.2482723629375095e-11 1.5573018676616204e-11
          2.2358642897625794e-11 1.7467822669118804e-11 5.391684762704677e-11 4.257813343164236e-11 4.130446091483453e-11 1.9895213441976172e-11
          2.6916702336357475e-11 1.5793920199201686e-11 2.1416290760639715e-11 1.7852293248339502e-11 2.2888346468837037e-11 1.819681134997494e-11
          4.821628473934086e-11 3.861600692094969e-11 3.95917296721382e-11 1.234757368842355e-11 1.6846851203506855e-11 9.582164503181231e-12
          1.3143906503903355e-11 1.1073316893724034e-11 1.4294530454226416e-11 1.114674375714395e-11 3.064841724522998e-11 2.410634570603386e-11
          2.50904654356428e-11 1.1883890376720849e-11 1.7463392003115806e-11 9.171156961935537e-12 1.344941603211727e-11 9.358957824440571e-12
          1.3548860914576586e-11 1.0417262684020111e-11 3.3299952389671954e-11 2.578814750250388e-11 2.5410430475432987e-11 7.016441264078686e-12
          1.0228081741184642e-11 5.367099044697657e-12 7.67921181180008e-12 5.648233653652139e-12 7.87099706280134e-12 6.372035257597642e-12
          1.9781590011863304e-11 1.4979681730182838e-11 1.4988371443795612e-11 7.40596927952502e-12 1.0173066214996356e-11 5.727134494067885e-12
          7.813586093115795e-12 6.636233748271664e-12 8.613058519573347e-12 6.61957979465184e-12 1.8773398392716123e-11 1.4474037659061234e-11
          1.533074338546875e-11 4.503150613755587e-12 5.903844715801281e-12 4.044476836572784e-12 5.068755447518281e-12 4.00551729662623e-12
          5.039670919957894e-12 4.39119832468066e-12 1.0998814215411807e-11 9.481518489248426e-12 4.076692006185881e-12 5.728556421056097e-12
          3.0617831233385125e-12 4.2503160637595846e-12 3.781352730773643e-12 4.9664045595721556e-12 3.690243467059187e-12 1.120332858114741e-11
          8.31222905580298e-12 9.637180485585792e-12 2.3347924294494653e-12 3.1014105651972224e-12 2.062826448156252e-12 2.6085696741827406e-12
          2.150675040984186e-12 2.7090278007853407e-12 2.3085215876172295e-12 6.099513171559437e-12 5.1390547520149214e-12 5.2335310123219906e-12
          4.880060744627347e-10 4.1757979104273314e-10 3.5044538973380935e-10 3.4731856242750155e-10 2.90478616606911e-10 2.808789867437208e-10
          2.340497315031849e-10 5.10010840896769e-10 1.050033232752413e-9 8.606116595175667e-10 6.828953351924904e-10 1.374826416560651e-9
          2.9090405372641945e-10 2.3881628952597146e-10 5.227732079246926e-10 1.9388215342884176e-10 3.593338465800589e-10 2.403633364010067e-10
          1.967567878274589e-10 1.930197830345352e-10 1.5752108808803642e-10 4.286462698983463e-10 3.5608539215449773e-10 3.408677298652979e-10
          1.5932178696714413e-10 1.2761788338178565e-10 1.2720247838454446e-10 1.016430231569078e-10 2.9234093699414864e-10 2.3718556914424433e-10
          2.305763223695977e-10 9.031907959533338e-10 7.67373526906332e-10 1.4738700312617345e-9 6.437150558049612e-10 1.0910910064879478e-9
          7.363049605220398e-10 6.222758290108756e-10 5.807982340689133e-10 4.880523511605798e-10 1.197880567948127e-9 1.0310408218748852e-9
          9.401632477670975e-10 5.193308077144559e-10 4.279099173292344e-10 4.0511735184538843e-10 3.321362149392159e-10 8.761227962795901e-10
          7.34579932735956e-10 6.782802042729874e-10 2.461469900913432e-9 2.011649361490442e-9 1.5913175723553858e-9 2.5638659824450173e-9
          3.3139716300613366e-9 2.7822448531577777e-9 2.2718667530807533e-9 2.784624065163169e-9 2.1852915212147906e-9 1.9217635116961085e-9
          2.779379462339707e-9 1.6713318106215725e-9 2.1606210692252427e-9 1.7800457281735894e-9 1.5574557627620082e-9 1.3991167433053825e-9
          1.2153635397021357e-9 2.286625390928491e-9 2.0226105692282187e-9 1.8217059172370936e-9 1.3459263627498522e-9 1.1476973174802568e-9
          1.0422552333127983e-9 8.817707882025309e-10 1.7704679979673202e-9 1.530307345054191e-9 1.3911890540191047e-9 2.942231795583092e-9
          2.5957552872119365e-9 2.8859594954255643e-9 2.2861726241101685e-9 2.2337235312833395e-9 2.4811267613686495e-9 2.2031373315155564e-9
          2.0310802043630903e-9 1.7987052891642246e-9 2.4788570762859083e-9 2.2013674053185284e-9 2.0646924156229513e-9 1.94265028548528e-9
          1.6941014116418485e-9 1.574279036865227e-9 1.3596443329498656e-9 1.9453993608921473e-9 1.7020907550042637e-9 1.6081193252655736e-9
          1.0112527869496403e-10 7.927774791607899e-11 8.037167899982571e-11 6.28933191490934e-11 1.9018058514585968e-10 1.5071849069218915e-10
          1.4900999433117062e-10 6.149308391178019e-11 4.7200479864567536e-11 4.8704266622763866e-11 3.7325889126044276e-11 1.1807457208303432e-10
          9.145740043923766e-11 9.205229523859478e-11 3.480686727261704e-10 2.795065457432007e-10 2.689449449263824e-10 2.1510761121941092e-10
          6.074650254663917e-10 4.953658557260902e-10 4.6428903305511867e-10 2.2161466871834037e-10 1.7353521261327375e-10 1.6996601846613812e-10
          1.3270123302920485e-10 3.983509710706343e-10 3.1595762960938557e-10 3.012452158763176e-10 3.5857993329364015e-11 2.696951728007081e-11
          2.831750761159405e-11 2.127789814709343e-11 7.005576007442163e-11 5.307813587183003e-11 5.4415417707437936e-11 2.009552738074132e-11
          1.4819346662382073e-11 1.5868726706451276e-11 1.170849538217686e-11 3.978049954928934e-11 2.94946577563703e-11 3.0814491725003085e-11
          1.3423999982246514e-10 1.0261348601671037e-10 1.0239884033386262e-10 7.811047611843467e-11 2.4726092729620134e-10 1.855081904690165e-10
          7.75285675622062e-11 5.7907531600245343e-11 5.891082062301005e-11 4.393491226356531e-11 9.648739462076215e-10 7.99288112194101e-10
          7.355837546499429e-10 6.049153478507263e-10 1.3041461037778483e-9 1.0948010132058385e-9 1.0067396468295361e-9 6.522797647746101e-10
          5.244329455878766e-10 4.903895547220267e-10 3.9196445056650796e-10 9.049000833709844e-10 7.36337971796021e-10 6.868764702442226e-10
          1.4570421465009973e-9 1.2343931494608791e-9 1.1576131582000286e-9 9.709891502322077e-10 1.469051669216661e-9 1.248952810929433e-9
          1.1891409304130397e-9 1.0294486855237044e-9 8.449341515537592e-10 8.021269570153616e-10 6.525767532281121e-10 1.0452190756669524e-9
          8.607853664712375e-10 8.285936853495095e-10 4.155166115727994e-10 3.089822830693271e-10 5.899679678527866e-10 4.4159770152638573e-10
          6.825425951410468e-10 5.229417333667565e-10 6.976204923369839e-10 5.430046836557418e-10 1.8342473131371305e-10 1.3992582064475533e-10
          3.159428899814818e-10 1.0421527423701444e-10 7.548009311890276e-11 1.744210562177985e-10 5.246486925128396e-10 3.905458164579285e-10
          8.291571537849601e-10 2.820867475129003e-10 1.9809090128343872e-10 4.3592192333156923e-10 1.5074387201984424e-10 1.2263337763127695e-10
          1.1458808621705294e-10 9.292034894105898e-11 2.6306270494479e-10 2.1664829040733592e-10 1.9724382099844447e-10 9.87500564055473e-11
          7.870953027032396e-11 7.460655640423083e-11 5.93108636521355e-11 1.7646925705740206e-10 1.4216818100148393e-10 1.3122338810609362e-10
          8.503072805405091e-11 6.871850717397723e-11 6.13594117194398e-11 4.942529517517175e-11 1.4386023664619258e-10 1.174593871444364e-10
          1.0224413586942333e-10 5.500901517466209e-11 4.3614444008029764e-11 3.9442808361375855e-11 3.118772261580693e-11 9.493102106454885e-11
          7.59443586517606e-11 6.692983245258352e-11 4.434359522993476e-10 3.704354770549641e-10 3.280191219991535e-10 2.7241583648343116e-10
          7.122295966550039e-10 6.043519470969047e-10 5.210162748162345e-10 3.0580685359223693e-10 2.4946587685681605e-10 2.2368145308240862e-10
          1.8158675066366346e-10 5.064166554319134e-10 4.189752738275451e-10 3.6508272048609725e-10 2.354666763555531e-10 1.9444387884964723e-10
          1.6437669414287603e-10 1.3500532008638016e-10 3.686188465462211e-10 3.0816776458148265e-10 2.528749522121464e-10 1.5883518433112e-10
          1.2834571123371793e-10 1.0973933398748346e-10 8.828064249751612e-11 2.546753655921368e-10 2.0804769495656122e-10 1.7240224033702558e-10
          1.2138524381945667e-9 8.91590042640833e-10 1.5798844910594398e-9 6.307920692437953e-10 4.308014771738635e-10 8.28343934487553e-10
          1.7921467946508687e-9 1.3488252150508508e-9 1.8451320427924844e-9 9.66526436393561e-10 6.608939040949234e-10 1.0127740072792387e-9
          1.0586604510958066e-9 9.119496153295944e-10 7.706260358912299e-10 6.579183604370486e-10 1.3940233459021308e-9 1.2151162862389757e-9
          1.0213474937329224e-9 7.754634032780482e-10 6.506496375586982e-10 5.546264567778779e-10 4.6157294928990634e-10 1.0454919831140118e-9
          8.873639510883031e-10 7.511239132315679e-10 5.401698518737368e-10 4.5708011522389425e-10 3.6559479530090084e-10 3.067509483832946e-10
          7.165783212518162e-10 6.123423433900305e-10 4.827221679242563e-10 3.8210843524633557e-10 3.155551568358574e-10 2.544397194375851e-10
          2.0863238500700736e-10 5.167490995477968e-10 4.3057779652002376e-10 3.4169117412738086e-10 1.5919432648197666e-9 1.3973969515365771e-9
          1.1865373858716206e-9 1.0309057047088664e-9 1.6424198800788846e-9 1.444944296148946e-9 1.237158684808306e-9 1.2109633445418472e-9
          1.0351926980628005e-9 8.840915205772256e-10 7.480298491429811e-10 1.2551012545795557e-9 1.075489573323609e-9 9.256872753249342e-10
          8.412437660685922e-10 7.231862527404353e-10 5.691064732771217e-10 4.842456010294519e-10 8.832128575674629e-10 7.607251652241876e-10
          5.997668422054848e-10 6.138272464400071e-10 5.143004407218473e-10 4.0706575912443496e-10 3.380259442681923e-10 6.468980842034146e-10
          5.429847624347714e-10 4.3045092184167887e-10 6.210189498137807e-11 4.8514443067625435e-11 4.668934079478666e-11 3.640743991671833e-11
          1.1328728897975466e-10 8.929845397357198e-11 8.368432312525179e-11 3.7552360056879686e-11 2.877232516574652e-11 2.817678299197919e-11
          2.1575301574555957e-11 6.962930727549668e-11 5.3710321468431036e-11 5.116654524893301e-11 3.4245694005937606e-11 2.6639497170577336e-11
          2.4423438647809326e-11 6.014039403062645e-11 4.714417065225714e-11 4.2123163473694797e-11 2.0559695248973373e-11 1.5683886074436496e-11
          3.657533647350845e-11 2.8084366899387937e-11 2.0110216227671407e-10 1.6021471236249243e-10 1.4575097872120538e-10 1.1567560730651859e-10
          3.422171207919345e-10 2.7597529540543394e-10 2.436683862829596e-10 1.2616277404386476e-10 9.821495356558769e-11 9.078727346980412e-11
          7.047090894825739e-11 2.1976533024861207e-10 1.7284685354646874e-10 1.5496033082671633e-10 1.0259042874583498e-10 8.112130501538734e-11
          7.028507900616726e-11 1.6800783848872186e-10 1.341279417737108e-10 1.125031727499834e-10 6.345882413807783e-11 4.911417835684062e-11
          1.0586971195060144e-10 8.26284255694304e-11 2.1782274958326708e-11 1.632301364593008e-11 1.627423939959535e-11 1.2148409665453743e-11
          4.0995847944638296e-11 3.0966563250998015e-11 2.9997532782190954e-11 1.214980418211818e-11 8.945287836494681e-12 9.010480722504175e-12
          6.619898896102455e-12 2.3144654351739497e-11 1.7117534605838654e-11 1.687714165960712e-11 8.30128793826355e-12 1.1788909830739758e-11
          2.134672469410598e-11 7.559809428508219e-11 5.754277628872445e-11 5.410535559656517e-11 4.109276496967036e-11 1.3430054269104432e-10
          9.400643800318407e-11 4.331849482948046e-11 3.225467378082321e-11 3.087563252613863e-11 2.2951305127709468e-11 3.7610776018717936e-11
          6.377236611076268e-11 5.385510481217489e-10 4.397229297661473e-10 3.791917657543812e-10 3.0752211411296294e-10 7.426403675757916e-10
          6.127308593587917e-10 5.238479689687997e-10 3.5419953576558773e-10 2.8152760654596395e-10 2.462358801670827e-10 1.9469929981123004e-10
          4.984051188478111e-10 3.997469367363552e-10 3.461821384832845e-10 2.574303245294022e-10 2.0747820657295947e-10 1.691166231448413e-10
          3.542353581432555e-10 2.8775451515449275e-10 2.3057496071195785e-10 1.6522123762497803e-10 1.3001596951944272e-10 2.3082967444281504e-10