<?xml version="1.0"?>
<VTKFile type="UnstructuredGrid" version="0.1" byte_order="LittleEndian" header_type="UInt32" compressor="vtkZLibDataCompressor">
  <UnstructuredGrid>
    <Piece NumberOfPoints="1550" NumberOfCells="965">
      <PointData>
        <DataArray type="Int32" Name="libmesh_node_id" format="ascii" RangeMin="52" RangeMax="15107">
          52 53 54 55 56 57
          58 59 60 61 62 63
          64 65 66 67 68 69
          70 71 72 73 74 75
          76 77 78 79 80 81
          82 83 84 85 86 87
          88 89 90 91 92 93
          94 95 96 97 98 99
          100 101 102 103 104 105
          106 107 108 109 110 111
          138 139 140 141 142 143
          144 145 146 147 148 149
          150 151 152 153 154 155
          156 157 158 159 160 161
          162 163 164 165 166 167
          194 195 196 197 198 199
          200 201 202 203 204 205
          206 207 208 209 210 211
          212 213 214 215 216 217
          218 219 220 221 222 223
          250 251 252 253 254 255
          256 257 258 259 260 261
          262 263 264 265 266 267
          268 269 270 271 272 273
          274 275 276 277 278 279
          293 294 295 296 297 298
          299 300 301 302 303 304
          305 306 307 321 322 323
          324 325 326 327 328 329
          330 331 332 333 334 335
          362 363 364 365 366 367
          368 369 370 371 372 373
          374 375 376 377 378 379
          380 381 382 383 384 385
          386 387 388 389 390 391
          405 406 407 408 409 410
          411 412 413 414 415 416
          417 418 419 433 434 435
          436 437 438 439 440 441
          442 443 444 445 446 447
          478 479 480 481 482 483
          484 485 486 487 488 489
          490 491 492 493 494 495
          496 497 498 499 500 501
          502 503 519 520 521 522
          523 524 525 526 527 528
          529 530 531 547 548 549
          550 551 552 553 554 555
          556 557 558 559 590 591
          592 593 594 595 596 597
          598 599 600 601 602 603
          604 605 606 607 608 609
          610 611 612 613 614 615
          631 632 633 634 635 636
          637 638 639 640 641 642
          643 659 660 661 662 663
          664 665 666 667 668 669
          670 671 702 703 704 705
          706 707 708 709 710 711
          712 713 714 715 716 717
          718 719 720 721 722 723
          724 725 726 727 743 744
          745 746 747 748 749 750
          751 752 753 754 755 771
          772 773 774 775 776 777
          778 779 780 781 782 783
          814 815 816 817 818 819
          820 821 822 823 824 825
          826 827 828 829 830 831
          832 833 834 835 836 837
          838 839 855 856 857 858
          859 860 861 862 863 864
          865 866 867 883 884 885
          886 887 888 889 890 891
          892 893 894 895 926 927
          928 929 930 931 932 933
          934 935 936 937 938 939
          940 941 942 943 944 945
          946 947 948 949 950 951
          967 968 969 970 971 972
          973 974 975 976 977 978
          979 995 996 997 998 999
          1000 1001 1002 1003 1004 1005
          1006 1007 1038 1039 1040 1041
          1042 1043 1044 1045 1046 1047
          1048 1049 1050 1051 1052 1053
          1054 1055 1056 1057 1058 1059
          1060 1061 1062 1063 1079 1080
          1081 1082 1083 1084 1085 1086
          1087 1088 1089 1090 1091 1107
          1108 1109 1110 1111 1112 1113
          1114 1115 1116 1117 1118 1119
          1146 1147 1148 1149 1150 1151
          1152 1153 1154 1155 1156 1157
          1158 1159 1160 1161 1162 1163
          1164 1165 1166 1167 1168 1169
          1170 1171 1172 1173 1174 1175
          1189 1190 1191 1192 1193 1194
          1195 1196 1197 1198 1199 1200
          1201 1202 1203 1217 1218 1219
          1220 1221 1222 1223 1224 1225
          1226 1227 1228 1229 1230 1231
          1258 1259 1260 1261 1262 1263
          1264 1265 1266 1267 1268 1269
          1270 1271 1272 1273 1274 1275
          1276 1277 1278 1279 1280 1281
          1282 1283 1284 1285 1286 1287
          1301 1302 1303 1304 1305 1306
          1307 1308 1309 1310 1311 1312
          1313 1314 1315 1329 1330 1331
          1332 1333 1334 1335 1336 1337
          1338 1339 1340 1341 1342 1343
          1370 1371 1372 1373 1374 1375
          1376 1377 1378 1379 1380 1381
          1382 1383 1384 1385 1386 1387
          1388 1389 1390 1391 1392 1393
          1394 1395 1396 1397 1398 1399
          1413 1414 1415 1416 1417 1418
          1419 1420 1421 1422 1423 1424
          1425 1426 1427 1441 1442 1443
          1444 1445 1446 1447 1448 1449
          1450 1451 1452 1453 1454 1455
          1482 1483 1484 1485 1486 1487
          1488 1489 1490 1491 1492 1493
          1494 1495 1496 1497 1498 1499
          1500 1501 1502 1503 1504 1505
          1506 1507 1508 1509 1510 1511
          1525 1526 1527 1528 1529 1530
          1531 1532 1533 1534 1535 1536
          1537 1538 1539 1553 1554 1555
          1556 1557 1558 1559 1560 1561
          1562 1563 1564 1565 1566 1567
          1594 1595 1596 1597 1598 1599
          1600 1601 1602 1603 1604 1605
          1606 1607 1608 1609 1610 1611
          1612 1613 1614 1615 1616 1617
          1618 1619 1620 1621 1622 1623
          1637 1638 1639 1640 1641 1642
          1643 1644 1645 1646 1647 1648
          1649 1650 1651 1665 1666 1667
          1668 1669 1670 1671 1672 1673
          1674 1675 1676 1677 1678 1679
          1714 1715 1716 1717 1724 1725
          1726 1727 1728 1729 1730 1731
          1732 1733 1734 1735 1753 1754
          1755 1756 1757 1758 1759 1760
          1761 1762 1763 1781 1782 1783
          1784 1785 1786 1787 1788 1789
          1790 1791 1826 1827 1828 1838
          1839 1840 1841 1842 1843 1844
          1845 1846 1847 1865 1871 1872
          1873 1874 1875 1893 1894 1899
          1900 1901 1902 1903 1938 1939
          1952 1953 1954 1955 1956 1957
          1958 1959 1977 1983 1984 1985
          1986 1987 2005 2011 2012 2013
          2014 2015 2050 2051 2064 2065
          2066 2067 2068 2069 2070 2071
          2089 2095 2096 2097 2098 2099
          2117 2123 2124 2125 2126 2127
          2128 2129 2130 2131 2132 2133
          2134 2138 2139 2140 2142 2143
          2144 2146 2189 2190 2193 2194
          2196 2197 2199 2200 2202 2217
          2218 2219 2220 2223 2224 2225
          2227 2228 2230 2251 2252 2253
          2254 2255 2256 2257 2258 2259
          2260 2261 2262 2263 2264 2265
          2266 2267 2268 2269 2270 2271
          2272 2273 2277 2278 2280 2281
          2283 2284 2285 2286 2287 2290
          2291 2292 2294 2295 2297 2422
          2423 2424 2425 2426 2427 2428
          2429 2432 2433 2434 2436 2437
          2443 2476 2477 2478 2479 2480
          2481 2482 2486 2487 2488 2490
          2491 2492 2493 2494 2495 2496
          2497 2498 2499 2560 2561 2562
          2563 2564 2565 2566 2567 2568
          2569 2570 2571 2572 2573 2574
          2575 2576 2577 2578 2579 2580
          2581 2582 2583 2584 2585 2586
          2587 2588 2589 2590 2591 2592
          2593 2594 2595 2596 2597 2598
          2599 2600 2601 2602 2603 2604
          2605 2606 2607 2608 2609 2610
          2611 2612 2613 2614 2615 2616
          2617 2618 2619 2620 2621 2622
          2623 2624 2625 2626 2627 2628
          2629 2630 2631 2632 2633 2634
          2635 2636 2637 2638 2639 2640
          2641 2642 2643 2644 2645 2646
          2647 2648 2649 2650 2651 2652
          2656 2657 2659 2660 2662 2663
          2664 2665 2666 2669 2670 2671
          2673 2674 2676 2677 2678 2679
          2680 2681 2682 2683 2684 2685
          2686 2691 2696 2697 2698 2699
          2700 2701 2702 2703 2704 2705
          2706 2708 2710 2712 2713 2714
          2715 2716 2717 2718 2719 2720
          2721 2722 2723 2724 2725 2726
          2727 2728 2731 2732 2734 2736
          3217 3218 3219 3220 3221 3222
          3223 3224 3225 3226 3227 3228
          3229 3230 3233 3234 3235 3309
          3310 3311 3312 3313 3314 3315
          3316 3317 3318 3319 3320 3321
          3322 3323 3324 3325 3326 3327
          3328 3329 3330 3331 3332 3333
          3334 3335 3336 3337 3338 3339
          3340 3341 3342 3343 3344 3345
          3346 3349 3350 3351 3459 3460
          3461 3462 3463 3464 3465 3466
          3467 3468 3479 3480 3481 3482
          3483 3484 3485 3486 3487 3488
          3489 3490 3491 3492 5269 5271
          5273 5274 5276 5278 5279 5280
          5281 5282 5283 5284 5285 5286
          5287 5288 5289 5290 5291 5292
          5293 5294 5295 5296 5297 5298
          5309 5310 5311 5312 5313 5314
          5315 5316 5317 5318 5319 5320
          5321 5322 5411 5412 5413 5414
          5415 5416 5417 5418 5419 5420
          14731 14732 14735 14736 14738 14739
          15064 15065 15068 15069 15071 15072
          15073 15074 15075 15077 15078 15079
          15081 15082 15083 15084 15085 15086
          15087 15089 15090 15092 15094 15095
          15097 15098 15100 15102 15103 15105
          15107 1706 1708 1709 1707 1710
          1711 1712 1713 1718 1719 1720
          1721 1722 1723 1750 1749 1751
          1752 1778 1777 1779 1780 1824
          1825 1829 1830 1831 1834 1836
          1837 1835 1864 1866 1867 1833
          1868 1869 1870 1892 1895 1896
          1897 1898 1948 1950 1951 1949
          1937 1976 1941 1978 1982 2004
          2006 1979 2007 2010 2062 2063
          2061 2094 2088 2116 2090 2118
          2122 2191 2195 2198 2221 2141
          2222 2226 2229 2288 2289 2293
          2296 2053 2430 2431 2435 1940
          2135 2438 2439 2440 2441 2442
          2444 2445 2483 2484 2485 2489
          2136 2274 2137 2653 2654 2655
          2658 2275 2661 2276 2667 2668
          2672 2675 2279 2687 2688 2689
          2690 2692 2693 2694 2695 2282
          2707 2709 2711 2145 2729 2730
          2733 2735 3231 3232 3236 3347
          3348 3352 5270 5272 5275 2049
          5277 3276 3278 3283 3286 14733
          14734 14737 14740 1936 15066 15067
          15070 15076 2192 15080 15088 15091
          15093 2048 15096 2201 15099 15101
          15104 15106
        </DataArray>
        <DataArray type="Float64" Name="bounds" format="ascii" RangeMin="0" RangeMax="0">
          0 0 0 0 0 0
          0 0 0 0 0 0
          0 0 0 0 0 0
          0 0 0 0 0 0
          0 0 0 0 0 0
          0 0 0 0 0 0
          0 0 0 0 0 0
          0 0 0 0 0 0
          0 0 0 0 0 0
          0 0 0 0 0 0
          0 0 0 0 0 0
          0 0 0 0 0 0
          0 0 0 0 0 0
          0 0 0 0 0 0
          0 0 0 0 0 0
          0 0 0 0 0 0
          0 0 0 0 0 0
          0 0 0 0 0 0
          0 0 0 0 0 0
          0 0 0 0 0 0
          0 0 0 0 0 0
          0 0 0 0 0 0
          0 0 0 0 0 0
          0 0 0 0 0 0
          0 0 0 0 0 0
          0 0 0 0 0 0
          0 0 0 0 0 0
          0 0 0 0 0 0
          0 0 0 0 0 0
          0 0 0 0 0 0
          0 0 0 0 0 0
          0 0 0 0 0 0
          0 0 0 0 0 0
          0 0 0 0 0 0
          0 0 0 0 0 0
          0 0 0 0 0 0
          0 0 0 0 0 0
          0 0 0 0 0 0
          0 0 0 0 0 0
          0 0 0 0 0 0
          0 0 0 0 0 0
          0 0 0 0 0 0
          0 0 0 0 0 0
          0 0 0 0 0 0
          0 0 0 0 0 0
          0 0 0 0 0 0
          0 0 0 0 0 0
          0 0 0 0 0 0
          0 0 0 0 0 0
          0 0 0 0 0 0
          0 0 0 0 0 0
          0 0 0 0 0 0
          0 0 0 0 0 0
          0 0 0 0 0 0
          0 0 0 0 0 0
          0 0 0 0 0 0
          0 0 0 0 0 0
          0 0 0 0 0 0
          0 0 0 0 0 0
          0 0 0 0 0 0
          0 0 0 0 0 0
          0 0 0 0 0 0
          0 0 0 0 0 0
          0 0 0 0 0 0
          0 0 0 0 0 0
          0 0 0 0 0 0
          0 0 0 0 0 0
          0 0 0 0 0 0
          0 0 0 0 0 0
          0 0 0 0 0 0
          0 0 0 0 0 0
          0 0 0 0 0 0
          0 0 0 0 0 0
          0 0 0 0 0 0
          0 0 0 0 0 0
          0 0 0 0 0 0
          0 0 0 0 0 0
          0 0 0 0 0 0
          0 0 0 0 0 0
          0 0 0 0 0 0
          0 0 0 0 0 0
          0 0 0 0 0 0
          0 0 0 0 0 0
          0 0 0 0 0 0
          0 0 0 0 0 0
          0 0 0 0 0 0
          0 0 0 0 0 0
          0 0 0 0 0 0
          0 0 0 0 0 0
          0 0 0 0 0 0
          0 0 0 0 0 0
          0 0 0 0 0 0
          0 0 0 0 0 0
          0 0 0 0 0 0
          0 0 0 0 0 0
          0 0 0 0 0 0
          0 0 0 0 0 0
          0 0 0 0 0 0
          0 0 0 0 0 0
          0 0 0 0 0 0
          0 0 0 0 0 0
          0 0 0 0 0 0
          0 0 0 0 0 0
          0 0 0 0 0 0
          0 0 0 0 0 0
          0 0 0 0 0 0
          0 0 0 0 0 0
          0 0 0 0 0 0
          0 0 0 0 0 0
          0 0 0 0 0 0
          0 0 0 0 0 0
          0 0 0 0 0 0
          0 0 0 0 0 0
          0 0 0 0 0 0
          0 0 0 0 0 0
          0 0 0 0 0 0
          0 0 0 0 0 0
          0 0 0 0 0 0
          0 0 0 0 0 0
          0 0 0 0 0 0
          0 0 0 0 0 0
          0 0 0 0 0 0
          0 0 0 0 0 0
          0 0 0 0 0 0
          0 0 0 0 0 0
          0 0 0 0 0 0
          0 0 0 0 0 0
          0 0 0 0 0 0
          0 0 0 0 0 0
          0 0 0 0 0 0
          0 0 0 0 0 0
          0 0 0 0 0 0
          0 0 0 0 0 0
          0 0 0 0 0 0
          0 0 0 0 0 0
          0 0 0 0 0 0
          0 0 0 0 0 0
          0 0 0 0 0 0
          0 0 0 0 0 0
          0 0 0 0 0 0
          0 0 0 0 0 0
          0 0 0 0 0 0
          0 0 0 0 0 0
          0 0 0 0 0 0
          0 0 0 0 0 0
          0 0 0 0 0 0
          0 0 0 0 0 0
          0 0 0 0 0 0
          0 0 0 0 0 0
          0 0 0 0 0 0
          0 0 0 0 0 0
          0 0 0 0 0 0
          0 0 0 0 0 0
          0 0 0 0 0 0
          0 0 0 0 0 0
          0 0 0 0 0 0
          0 0 0 0 0 0
          0 0 0 0 0 0
          0 0 0 0 0 0
          0 0 0 0 0 0
          0 0 0 0 0 0
          0 0 0 0 0 0
          0 0 0 0 0 0
          0 0 0 0 0 0
          0 0 0 0 0 0
          0 0 0 0 0 0
          0 0 0 0 0 0
          0 0 0 0 0 0
          0 0 0 0 0 0
          0 0 0 0 0 0
          0 0 0 0 0 0
          0 0 0 0 0 0
          0 0 0 0 0 0
          0 0 0 0 0 0
          0 0 0 0 0 0
          0 0 0 0 0 0
          0 0 0 0 0 0
          0 0 0 0 0 0
          0 0 0 0 0 0
          0 0 0 0 0 0
          0 0 0 0 0 0
          0 0 0 0 0 0
          0 0 0 0 0 0
          0 0 0 0 0 0
          0 0 0 0 0 0
          0 0 0 0 0 0
          0 0 0 0 0 0
          0 0 0 0 0 0
          0 0 0 0 0 0
          0 0 0 0 0 0
          0 0 0 0 0 0
          0 0 0 0 0 0
          0 0 0 0 0 0
          0 0 0 0 0 0
          0 0 0 0 0 0
          0 0 0 0 0 0
          0 0 0 0 0 0
          0 0 0 0 0 0
          0 0 0 0 0 0
          0 0 0 0 0 0
          0 0 0 0 0 0
          0 0 0 0 0 0
          0 0 0 0 0 0
          0 0 0 0 0 0
          0 0 0 0 0 0
          0 0 0 0 0 0
          0 0 0 0 0 0
          0 0 0 0 0 0
          0 0 0 0 0 0
          0 0 0 0 0 0
          0 0 0 0 0 0
          0 0 0 0 0 0
          0 0 0 0 0 0
          0 0 0 0 0 0
          0 0 0 0 0 0
          0 0 0 0 0 0
          0 0 0 0 0 0
          0 0 0 0 0 0
          0 0 0 0 0 0
          0 0 0 0 0 0
          0 0 0 0 0 0
          0 0 0 0 0 0
          0 0 0 0 0 0
          0 0 0 0 0 0
          0 0 0 0 0 0
          0 0 0 0 0 0
          0 0 0 0 0 0
          0 0 0 0 0 0
          0 0 0 0 0 0
          0 0 0 0 0 0
          0 0 0 0 0 0
          0 0 0 0 0 0
          0 0 0 0 0 0
          0 0 0 0 0 0
          0 0 0 0 0 0
          0 0 0 0 0 0
          0 0 0 0 0 0
          0 0 0 0 0 0
          0 0 0 0 0 0
          0 0 0 0 0 0
          0 0 0 0 0 0
          0 0 0 0 0 0
          0 0 0 0 0 0
          0 0 0 0 0 0
          0 0 0 0 0 0
          0 0 0 0 0 0
          0 0 0 0 0 0
          0 0 0 0 0 0
          0 0 0 0 0 0
          0 0 0 0 0 0
          0 0 0 0 0 0
          0 0 0 0 0 0
          0 0 0 0 0 0
          0 0 0 0 0 0
          0 0 0 0 0 0
          0 0 0 0 0 0
          0 0 0 0 0 0
          0 0 0 0 0 0
          0 0
        </DataArray>
        <DataArray type="Float64" Name="gradient_error" format="ascii" RangeMin="1.7214903915726785e-14" RangeMax="1.245832171030918e-7">
          9.463227843905752e-14 9.46323205092204e-14 9.463273833805645e-14 9.463264964773802e-14 9.463244135664114e-14 9.463240887065457e-14
          9.463236437692945e-14 9.463243984669239e-14 9.463249694725846e-14 9.46324576657714e-14 9.463224143945246e-14 9.463232671023666e-14
          9.463240970727659e-14 9.463242663556687e-14 9.463243518037023e-14 9.463239548120005e-14 9.4632396911615e-14 9.463241830440017e-14
          9.463246769820962e-14 9.463241887827275e-14 9.463242101553486e-14 9.463241602736852e-14 9.463241523650134e-14 9.463242555846882e-14
          9.463242104366973e-14 9.463241489174402e-14 9.463241366352642e-14 9.463242763881112e-14 9.463241883844888e-14 9.463242015873351e-14
          9.463241810888232e-14 9.463241553891498e-14 9.463241842424167e-14 9.463241902907794e-14 9.463241904555341e-14 9.463241755758485e-14
          9.463241896082781e-14 9.463241884550882e-14 9.463241823596567e-14 9.463241835952175e-14 9.46324189019916e-14 9.463241879020278e-14
          9.463241839835364e-14 9.463241851955624e-14 9.463241894906057e-14 9.463241890669849e-14 9.46324182618536e-14 9.463241828185788e-14
          9.463241887610383e-14 9.463241887139693e-14 9.463241817948305e-14 9.463241817771796e-14 9.463241880550023e-14 9.463241885021575e-14
          9.463241812417687e-14 9.463241813712083e-14 9.463241880785373e-14 9.463241888316407e-14 9.463241814182778e-14 9.46324181382976e-14
          9.46323971326696e-14 9.463247311561401e-14 9.463240102053423e-14 9.463245886337843e-14 9.463241876434723e-14 9.463241568046438e-14
          9.463242869591662e-14 9.463239334164679e-14 9.463242578590108e-14 9.463240174654175e-14 9.463241509180596e-14 9.463242657520814e-14
          9.463241525415635e-14 9.46324268231928e-14 9.463242007283246e-14 9.463241582132756e-14 9.463241909968132e-14 9.463241747697858e-14
          9.463241878078897e-14 9.463241850720065e-14 9.463241882315106e-14 9.463241850131703e-14 9.46324189066985e-14 9.463241828244629e-14
          9.46324189078754e-14 9.46324181959572e-14 9.463241888669421e-14 9.463241815536006e-14 9.463241888316407e-14 9.46324181382976e-14
          9.463243168595593e-14 9.463238527380847e-14 9.463242565640049e-14 9.463240241030153e-14 9.463241914441011e-14 9.463241937990792e-14
          9.463241382797608e-14 9.463243090126371e-14 9.46324118746168e-14 9.463243343474761e-14 9.463241914440976e-14 9.463241726997997e-14
          9.463242176849439e-14 9.463241203228981e-14 9.463241866664677e-14 9.46324186737075e-14 9.463241856544841e-14 9.463241888434083e-14
          9.463241883138813e-14 9.46324185313235e-14 9.463241896788818e-14 9.463241836187519e-14 9.463241894906058e-14 9.463241826303034e-14
          9.463241894906075e-14 9.463241821596152e-14 9.463241887845716e-14 9.463241816065533e-14 9.463241880785374e-14 9.46324181418278e-14
          9.463108999141543e-14 9.463141999034201e-14 9.463265620524787e-14 9.463233835593547e-14 9.463314788110305e-14 9.463281694111382e-14
          9.463237168801686e-14 9.463253986066552e-14 9.463221763286041e-14 9.463241924849528e-14 9.46324200229797e-14 9.463238373489686e-14
          9.463243684023475e-14 9.463237948887831e-14 9.463242130374114e-14 9.463242824815949e-14 9.46324164426583e-14 9.463242192442114e-14
          9.463241826067766e-14 9.46324180882875e-14 9.463241652030172e-14 9.463241646676075e-14 9.463241681448281e-14 9.463241686861213e-14
          9.463241694980627e-14 9.463241706159509e-14 9.463241709218979e-14 9.463241714514239e-14 9.463241723339676e-14 9.463241718044417e-14
          9.463215869421359e-14 9.4632250382707e-14 9.463244431201761e-14 9.463253253457352e-14 9.463248739862102e-14 9.463238426258707e-14
          9.463238274721322e-14 9.463242656306676e-14 9.46324215896329e-14 9.463241732694657e-14 9.463241681271772e-14 9.463241710984064e-14
          9.463241717750246e-14 9.463241720280189e-14 9.463241722751315e-14 9.463256739915858e-14 9.463248025879092e-14 9.463240262291064e-14
          9.463235703583281e-14 9.46323539331119e-14 9.463242107836011e-14 9.463244335690457e-14 9.463241793355573e-14 9.463241577308182e-14
          9.463241673799575e-14 9.463241721221568e-14 9.463241729693983e-14 9.463241718162098e-14 9.46324172075088e-14 9.463241732753474e-14
          9.463824260222903e-14 9.463694286881014e-14 9.463131838733199e-14 9.463270593719377e-14 9.462923331126385e-14 9.463057406386846e-14
          9.463251517618195e-14 9.463176210661782e-14 9.463326819001055e-14 9.463239132153425e-14 9.463245139668602e-14 9.46325844939488e-14
          9.463234370640877e-14 9.463258899522175e-14 9.463239707729967e-14 9.463237832755051e-14 9.463241729370161e-14 9.463239468400552e-14
          9.463241085556176e-14 9.463241099441471e-14 9.463241730870724e-14 9.463241820478282e-14 9.463241644616806e-14 9.46324168144828e-14
          9.463241580838356e-14 9.463241605373061e-14 9.463241581309032e-14 9.463241603725631e-14 9.463241595547402e-14 9.463241613904302e-14
          9.463368457799304e-14 9.463313492014531e-14 9.463222813757295e-14 9.463186734327542e-14 9.463210979890746e-14 9.463256259920924e-14
          9.4632570568429e-14 9.463238454485418e-14 9.463239742621765e-14 9.463241518119467e-14 9.46324181071146e-14 9.463241700158197e-14
          9.463241648617682e-14 9.463241652559696e-14 9.463241663797418e-14 9.463172602059479e-14 9.463217635323506e-14 9.463254145867289e-14
          9.463272564949718e-14 9.463270514475697e-14 9.463240760720691e-14 9.463230685282327e-14 9.463240951190699e-14 9.463242277812585e-14
          9.463241922912164e-14 9.463241711337082e-14 9.463241682036641e-14 9.463241667327602e-14 9.463241678977161e-14 9.463241695333635e-14
          9.46464602336258e-14 9.46410832844037e-14 9.46324725829313e-14 9.463589780510552e-14 9.462879506886843e-14 9.463265157086488e-14
          9.463206193927696e-14 9.463159754355186e-14 9.463266587823323e-14 9.463161666307987e-14 9.463250037793877e-14 9.463253479253394e-14
          9.463241839757111e-14 9.463251153964498e-14 9.463243703437851e-14 9.463244236491434e-14 9.463240830441257e-14 9.463240721476552e-14
          9.463241036250297e-14 9.46324107531755e-14 9.463241270771459e-14 9.463241375676444e-14 9.463241334785254e-14 9.463241436748426e-14
          9.463241340904225e-14 9.463241445515027e-14 9.463363183882918e-14 9.463508298013228e-14 9.463380211206285e-14 9.46317811307943e-14
          9.463172762419765e-14 9.463252120633742e-14 9.463250149616051e-14 9.463242683203303e-14 9.46324102913113e-14 9.463241396504476e-14
          9.463241611668529e-14 9.46324163461464e-14 9.463241636379731e-14 9.463155734247677e-14 9.463084293298483e-14 9.463109615126437e-14
          9.463242911376187e-14 9.46328878004688e-14 9.463247320554574e-14 9.463239831060216e-14 9.463240596861589e-14 9.463241445750414e-14
          9.463241678624147e-14 9.463241742755628e-14 9.463241730517681e-14 9.463241722633631e-14 9.457001792513515e-14 9.459113832522596e-14
          9.463026435212611e-14 9.46143321839561e-14 9.464813547810997e-14 9.463090330615085e-14 9.46349770868264e-14 9.463644161524036e-14
          9.463168191192349e-14 9.463616726018848e-14 9.463203844229353e-14 9.463210403305034e-14 9.463233803473156e-14 9.463198070861534e-14
          9.463228808186401e-14 9.463225962102239e-14 9.46324188314023e-14 9.463242816988748e-14 9.463241953389846e-14 9.463242589291583e-14
          9.463241046958532e-14 9.463241424804752e-14 9.463240687116147e-14 9.46324106037316e-14 9.463240631574755e-14 9.463241010127031e-14
          9.462516856420156e-14 9.461951331276155e-14 9.462616667519852e-14 9.463523427412689e-14 9.463553484076137e-14 9.463212262680068e-14
          9.463204439175964e-14 9.463234863265756e-14 9.463243680939304e-14 9.463242900417322e-14 9.463242003635475e-14 9.463241791060194e-14
          9.463241769114288e-14 9.463807840308636e-14 9.464062660973696e-14 9.463866221620533e-14 9.463256240459949e-14 9.463041707306929e-14
          9.463207562979422e-14 9.463246540102013e-14 9.463246610513435e-14 9.463243611041341e-14 9.463242575641321e-14 9.46324220461998e-14
          9.463242148490215e-14 9.463242149549272e-14 9.491996122220613e-14 9.4840240516284e-14 9.466348590640876e-14 9.473625070069158e-14
          9.457294071433841e-14 9.464849664445184e-14 9.461924605118524e-14 9.461499147998054e-14 9.463402973908101e-14 9.461485512477031e-14
          9.463376295410128e-14 9.463262686976051e-14 9.463284769367813e-14 9.463421757605472e-14 9.463298612815715e-14 9.463317851041919e-14
          9.463238964685387e-14 9.463239358651033e-14 9.463234024858426e-14 9.463234407765074e-14 9.463236899123032e-14 9.463238229234189e-14
          9.463238499938674e-14 9.463239883767002e-14 9.463238831657298e-14 9.463240190303673e-14 9.468043855527648e-14 9.470033980099796e-14
          9.466373338693022e-14 9.462085890171055e-14 9.461830719925156e-14 9.463294135777364e-14 9.46340187659363e-14 9.4632829923788e-14
          9.463238680596931e-14 9.463238308489328e-14 9.463241639499372e-14 9.463242704198965e-14 9.463242870175876e-14 9.460035730019109e-14
          9.459166410702154e-14 9.460341419929519e-14 9.463098089464526e-14 9.464093388804352e-14 9.463439193012752e-14 9.463245007344127e-14
          9.463228895489476e-14 9.463237608577182e-14 9.463241826306931e-14 9.463243719653401e-14 9.463244140802595e-14 9.463244191401706e-14
          9.347009987779053e-14 9.376452786247318e-14 9.467294405124819e-14 9.427667966991423e-14 9.502957363869822e-14 9.464491251332408e-14
          9.47493574375938e-14 9.474536854975503e-14 9.464192389758853e-14 9.472116812896025e-14 9.462899607576696e-14 9.463755579360671e-14
          9.462995684458368e-14 9.462518822364967e-14 9.462932608491908e-14 9.462851643299975e-14 9.463200358056073e-14 9.463204430806505e-14
          9.463243752750683e-14 9.463252362194e-14 9.463238223302652e-14 9.463243524565293e-14 9.463232135628644e-14 9.463237114530291e-14
          9.463230619065311e-14 9.463235650626079e-14 9.448531139021683e-14 9.439023677862405e-14 9.452895906441915e-14 9.469620374238268e-14
          9.469882388935025e-14 9.46341652703253e-14 9.462594848251555e-14 9.463030195316169e-14 9.463242446564203e-14 9.463261571408844e-14
          9.463251258641119e-14 9.463246632288603e-14 9.463245713502667e-14 9.491166693327777e-14 9.49000582686679e-14 9.479766674088837e-14
          9.46510278228491e-14 9.459723541836859e-14 9.462221502920413e-14 9.463147736231546e-14 9.463289712524291e-14 9.463276389571469e-14
          9.463262171180371e-14 9.463253691454299e-14 9.463251171145265e-14 9.463250744818489e-14 1.0413801266236177e-13 1.0347964658968478e-13
          1.0047060693351581e-13 1.0123610755424244e-13 9.636276877796934e-14 9.719042257618093e-14 9.483782064764505e-14 9.472811760113276e-14
          9.462910538095428e-14 9.427136402092305e-14 9.46381907384438e-14 9.458454184650736e-14 9.464133283861063e-14 9.465725964973584e-14
          9.464636182898194e-14 9.46502808855501e-14 9.463479918278866e-14 9.463518838611645e-14 9.463196716074201e-14 9.463202085871071e-14
          9.463180737298134e-14 9.463197602271182e-14 9.463198108564037e-14 9.463216916054855e-14 9.463203797318885e-14 9.463222594270525e-14
          9.902664724044994e-14 9.826002528177101e-14 9.61681064406865e-14 9.462078527751537e-14 9.434458346028376e-14 9.460783766740765e-14
          9.465763154288806e-14 9.464349164613272e-14 9.463381653955967e-14 9.463220599167009e-14 9.463240100594388e-14 9.463256800019766e-14
          9.463260896889389e-14 9.523201396389207e-14 9.451844238857291e-14 9.431813650698047e-14 9.462315600041033e-14 9.477554425967573e-14
          9.468478238024438e-14 9.464207662491505e-14 9.463278335014714e-14 9.46320554896751e-14 9.463233742666075e-14 9.463265733944548e-14
          9.463277876493858e-14 9.463280402556613e-14 1.685373908242838e-13 1.6961685706734145e-13 1.7158655921181708e-13 1.596655407288087e-13
          1.3770867632954634e-13 1.2692315887950403e-13 1.0650458185249155e-13 1.0450456983098406e-13 9.625115971175093e-14 9.73016327615162e-14
          9.489649864941914e-14 9.513572445777088e-14 9.461381119620113e-14 9.456981350977454e-14 9.456761380069178e-14 9.455336307872784e-14
          9.461312296392612e-14 9.461250759202523e-14 9.4628781596829e-14 9.462997881271982e-14 9.463146285679071e-14 9.463225496969373e-14
          9.463132563953565e-14 9.4632003589912e-14 9.463118556491778e-14 9.463185157995259e-14 1.5215529581018241e-13 1.3395450218980232e-13
          1.113784128640562e-13 9.986464878160895e-14 9.623017519848678e-14 9.488316173002433e-14 9.454950593425268e-14 9.458193153105927e-14
          9.462305413109411e-14 9.463316150593213e-14 9.46336814155389e-14 9.463327010350192e-14 9.463313183644076e-14 1.3361426830996565e-13
          1.2016448213380422e-13 1.0661918429865065e-13 9.722473975374137e-14 9.410824458569208e-14 9.4391373193926e-14 9.457319604515745e-14
          9.462475070535461e-14 9.46342160420639e-14 9.463514698325362e-14 9.463431574848103e-14 9.46338586667155e-14 9.463374607789411e-14
          8.323417333285876e-13 6.689341211810913e-13 7.158337158404918e-13 7.020672646768949e-13 7.625764440421813e-13 7.564735164759142e-13
          7.155648258491548e-13 6.491011464130862e-13 4.500433462735277e-13 3.920169408072971e-13 1.9053195057853336e-13 1.6964795821030937e-13
          1.0286722347168752e-13 9.539894637931606e-14 9.613068420335579e-14 9.419772707418456e-14 9.453946030369755e-14 9.463933879129926e-14
          9.487380678274104e-14 9.493136799286427e-14 9.472290208625556e-14 9.47322035311455e-14 9.464849656237939e-14 9.46490823611633e-14
          9.462885840494718e-14 9.463081432604033e-14 9.462619898996633e-14 9.462876685822204e-14 9.462610712662728e-14 9.462878333297862e-14