<?xml version="1.0"?>
<VTKFile type="UnstructuredGrid" version="0.1" byte_order="LittleEndian" header_type="UInt32" compressor="vtkZLibDataCompressor">
  <UnstructuredGrid>
    <Piece NumberOfPoints="1413" NumberOfCells="985">
      <PointData>
        <DataArray type="Int32" Name="libmesh_node_id" format="ascii" RangeMin="2164" RangeMax="13116">
          2164 2169 2172 2174 2355 2358
          2376 2377 2380 2382 2529 2979
          2980 2981 2982 2983 2984 2985
          2986 2987 2988 3003 3004 3008
          3010 3014 3016 3017 3018 3019
          3020 3021 3022 3051 3052 3055
          3056 3060 3115 3116 3117 3118
          3119 3120 3121 3122 3123 3124
          3125 3126 3129 3130 3134 3254
          3302 3307 3391 3392 3393 3394
          3395 3396 3397 3408 3409 3410
          3411 3412 3413 3414 3415 3416
          3417 3418 3419 4164 4165 4166
          4167 4168 4169 4170 4171 4172
          4173 4174 4175 4176 4177 4178
          4179 4180 4181 4182 4183 4184
          4185 4186 4187 4188 4189 4190
          4191 4192 4193 4194 4195 4196
          4197 4198 4199 4200 4201 4202
          4203 4295 4301 4302 4305 4329
          4335 4336 4339 4366 4378 4390
          4394 4396 4397 4398 4399 4400
          4401 4402 4403 4404 4405 4406
          4407 4408 4409 4410 4411 4412
          4413 4414 4415 4416 4417 4418
          4419 4420 4421 4422 4423 4424
          4425 4426 4427 4428 4429 4430
          4431 4432 4433 4434 4435 4436
          4437 4438 4439 4440 4441 4442
          4443 4444 4445 4446 4447 4448
          4449 4450 4451 4548 4549 4552
          4553 4555 4557 4568 4569 4572
          4573 4575 4577 4726 4730 4738
          4740 4742 4744 4757 4761 4769
          4771 4773 4775 4902 4903 4904
          4905 4906 4907 4908 4909 4910
          4911 4912 4913 4914 4915 4916
          4917 4918 4919 4920 4921 4922
          4923 4924 4925 4926 4927 4928
          4929 4930 4931 4932 4933 4934
          4935 4936 4937 4938 4939 4940
          4941 4942 4943 4944 4945 4946
          4947 4950 4951 4953 4955 4966
          4968 4970 4972 5331 5337 5599
          5600 5601 5602 5603 5604 5605
          5606 5607 5608 5609 5610 5611
          5612 5613 5614 5615 5616 5617
          5618 5619 5620 5621 5622 5623
          5624 5625 5626 5627 5628 5629
          5630 5631 5632 5739 5740 5741
          5742 5743 5744 5745 5746 5747
          5748 5749 5750 5751 5752 8103
          8104 8107 8109 8111 8112 8113
          8114 8115 8116 8117 8118 8119
          8120 8123 8124 8125 8126 8127
          8129 8130 8131 8132 8133 8134
          8135 8136 8137 8138 8139 8140
          8142 8144 8145 8146 8147 8148
          8149 8150 8152 8154 8155 8156
          8157 8158 8159 8160 8161 8162
          8163 8164 8165 8166 8167 8168
          8169 8170 8171 8172 8173 8174
          8175 8176 8177 8178 8179 8180
          8181 8182 8183 8184 8185 8186
          8187 8188 8189 8190 8191 8192
          8193 8194 8195 8196 8197 8198
          8199 8200 8201 8202 8203 8204
          8205 8206 8207 8208 8209 8210
          8211 8212 8213 8214 8215 8216
          8217 8218 8219 8220 8880 8904
          8905 8908 8929 8936 8953 8954
          8957 8960 8961 8964 9124 9125
          9128 9152 9153 9156 9173 9174
          9177 9180 9181 9184 9201 9202
          9205 9208 9209 9212 9427 9523
          9551 9619 9621 9623 9647 9649
          9651 9668 9670 9672 9674 9675
          9676 9677 9678 9679 9680 9682
          9683 9684 9686 9687 9688 9689
          9690 9691 9692 9693 9694 9696
          9698 9700 9702 9703 9704 9705
          9706 9707 9708 9710 9711 9712
          9714 9715 9716 9717 9718 9719
          9720 9721 9722 9723 9724 9725
          9726 9727 9728 9729 9730 9731
          9732 9733 9734 9735 9736 9737
          9738 9739 9740 9741 9742 9743
          9744 9745 9746 9747 9748 9749
          9750 9751 9752 9753 9754 9755
          9756 9757 9758 9759 9760 9761
          9762 9763 9764 9765 9766 9767
          9768 9769 9770 9771 9772 9773
          9774 9775 9776 9777 9778 9779
          9780 9781 9782 9783 9784 9785
          9786 9787 9788 9789 9790 9791
          9792 9793 9794 9795 9796 9797
          9798 9799 9800 9801 9802 9803
          9804 9805 9806 9807 9808 9809
          9810 9811 9812 9813 9814 9815
          9816 9817 9818 9819 9820 9821
          9822 9823 9824 9825 9826 9827
          9828 9829 9830 9831 9832 9833
          9834 9835 9836 9837 9838 9839
          9840 9841 9842 9843 9844 9845
          9846 9847 9848 9849 9850 9851
          9852 9853 9854 9855 9856 9857
          9858 9859 9860 9861 9862 9863
          9864 9865 9866 9867 9868 9869
          9870 9871 9872 9873 9874 9875
          9876 9877 9878 9879 9880 9881
          9882 9883 9884 9885 9886 9887
          9888 9889 9890 9891 9892 9893
          9894 9895 9896 9897 9898 9899
          9900 9901 9902 9904 9906 9908
          9910 9911 9912 9913 9914 9915
          9916 9918 9919 9920 9922 9923
          9924 9925 9926 9927 9928 9929
          9930 9932 9934 9936 9938 9939
          9940 9941 9942 9943 9944 9946
          9947 9948 9950 9951 9952 9953
          9954 9955 9956 9957 9958 9959
          9960 9961 9962 9963 9964 9965
          9966 9967 9968 9969 9970 9971
          9972 9973 9974 9975 9976 9977
          9978 9979 9980 9981 9982 9983
          9984 9985 9986 9987 9988 9989
          9990 9991 9992 9993 9994 9995
          9996 9997 9998 9999 10000 10001
          10002 10003 10004 10005 10006 10007
          10008 10009 10010 10011 10012 10013
          10014 10015 10016 10017 10018 10019
          10020 10021 10022 10023 10024 10025
          10026 10027 10028 10029 10030 10031
          10032 10033 10034 10035 10036 10037
          10038 10039 10040 10041 10042 10043
          10044 10045 10046 10047 10048 10049
          10050 10051 10052 10053 10054 10055
          10056 10057 10058 10059 10060 10061
          10062 10063 10064 10065 10066 10067
          10068 10069 10070 10071 10072 10073
          10074 10075 10076 10077 10078 10079
          10080 10081 10082 10083 10084 10085
          10086 10087 10088 10089 10090 10091
          10092 10093 10094 10095 10096 10097
          10098 10099 10100 10101 10102 10103
          10104 10105 10106 10107 10108 10109
          10110 10111 10112 10113 10114 10115
          10116 10117 10118 10119 10120 10121
          10122 10123 10124 10125 10126 10514
          10515 10516 10517 10519 10530 10531
          10532 10533 10534 10535 10536 10537
          10538 10539 10590 10591 10592 10593
          10594 10595 10596 10597 10598 10599
          10776 10800 10804 11020 11024 11048
          11052 11615 11617 11618 11619 11621
          11629 11630 11631 11632 11633 11634
          11635 11643 11645 11647 11649 11657
          11658 11659 11660 11661 11662 11663
          11727 11728 11729 11730 11731 11732
          11733 11744 11745 11746 11747 11748
          11749 11750 11751 11752 11753 11764
          11765 11766 11767 11768 11769 11770
          11778 11779 11780 11781 11782 11783
          11784 11860 11862 11864 11866 11874
          11876 11877 11878 11880 11888 11890
          11892 11894 11902 11904 11905 11906
          11908 11972 11973 11974 11975 11976
          11977 11978 11986 11987 11988 11989
          11990 11991 11992 12000 12001 12002
          12003 12004 12005 12006 12014 12015
          12016 12017 12018 12019 12020 12806
          12807 12808 12809 12810 12811 12812
          12813 12814 12815 12816 12817 12818
          12819 12820 12821 12822 12823 12824
          12825 12826 12827 12828 12829 12830
          12831 12832 12833 12834 12835 12836
          12837 12838 12839 12840 12841 12842
          12843 12844 12845 12846 12847 12848
          12849 12850 12851 12852 12853 12854
          12855 12856 12857 12858 12859 12860
          12861 12862 12863 12864 12865 12866
          12867 12868 12869 12870 12871 12872
          12873 12874 12875 12876 12877 12878
          12879 12880 12881 12882 12883 12884
          12885 12886 12887 12888 12889 12890
          12891 12892 12893 12894 12895 12896
          12897 12898 12899 12900 12901 12902
          12903 12904 12905 12906 12907 12908
          12909 12910 12911 12912 12913 12914
          12915 12916 12917 12918 12919 12920
          12921 12922 12923 12924 12925 12926
          12927 12928 12929 12930 12931 12932
          12933 12934 12935 12936 12937 12938
          12939 12940 12941 12942 12943 12944
          12945 12946 12947 12948 12949 12950
          12951 12952 12953 12954 12955 12956
          12957 12958 12959 12960 12961 12962
          12963 12964 12965 12966 12967 12968
          12969 12970 12971 12972 12973 12974
          12975 12976 12977 12978 12979 12980
          12981 12982 12983 12984 12985 12986
          12987 12988 12989 12990 12991 12992
          12993 12994 12995 12996 12997 12998
          12999 13000 13001 13002 13003 13004
          13005 13006 13007 13008 13009 13010
          13011 13012 13013 13014 13015 13016
          13017 13018 13019 13020 13021 13022
          13023 13024 13025 13026 13027 13028
          13029 13030 13031 13062 13063 13064
          13065 13066 13067 13068 13076 13077
          13078 13079 13080 13081 13082 13083
          13084 13085 13096 13097 13098 13099
          13100 13101 13102 13110 13111 13112
          13113 13114 13115 13116 2374 2378
          2375 2379 2971 2353 2972 2975
          2528 3252 3300 2383 3306 3386
          3387 3390 3107 3400 3111 3401
          3404 2381 3406 4156 4140 4157
          4160 4162 2354 4860 4861 4864
          3108 4894 4878 4895 4898 4900
          5594 5595 5598 5734 5735 5738
          8093 8037 8094 8097 2977 8099
          9320 9321 9423 9422 9324 9426
          9425 9424 9428 9437 9436 9441
          9440 9522 9618 9620 9526 9622
          9624 9633 9632 9637 9636 9550
          9646 9648 9554 9650 9652 9661
          9660 9665 9664 9293 9389 9391
          4350 9393 4362 9407 9408 9411
          9413 4364 9439 3012 9635 4392
          9663 2359 12591 12592 12595 12597
          12607 12609 12611 4866 12625 12626
          12629 12631 12697 12699 12701 4876
          12711 12713 12715 12725 12727 12729
          4880 12739 12741 12743 3113 12798
          12799 12802 12804
        </DataArray>
        <DataArray type="Float64" Name="bounds" format="ascii" RangeMin="0" RangeMax="0">
          0 0 0 0 0 0
          0 0 0 0 0 0
          0 0 0 0 0 0
          0 0 0 0 0 0
          0 0 0 0 0 0
          0 0 0 0 0 0
          0 0 0 0 0 0
          0 0 0 0 0 0
          0 0 0 0 0 0
          0 0 0 0 0 0
          0 0 0 0 0 0
          0 0 0 0 0 0
          0 0 0 0 0 0
          0 0 0 0 0 0
          0 0 0 0 0 0
          0 0 0 0 0 0
          0 0 0 0 0 0
          0 0 0 0 0 0
          0 0 0 0 0 0
          0 0 0 0 0 0
          0 0 0 0 0 0
          0 0 0 0 0 0
          0 0 0 0 0 0
          0 0 0 0 0 0
          0 0 0 0 0 0
          0 0 0 0 0 0
          0 0 0 0 0 0
          0 0 0 0 0 0
          0 0 0 0 0 0
          0 0 0 0 0 0
          0 0 0 0 0 0
          0 0 0 0 0 0
          0 0 0 0 0 0
          0 0 0 0 0 0
          0 0 0 0 0 0
          0 0 0 0 0 0
          0 0 0 0 0 0
          0 0 0 0 0 0
          0 0 0 0 0 0
          0 0 0 0 0 0
          0 0 0 0 0 0
          0 0 0 0 0 0
          0 0 0 0 0 0
          0 0 0 0 0 0
          0 0 0 0 0 0
          0 0 0 0 0 0
          0 0 0 0 0 0
          0 0 0 0 0 0
          0 0 0 0 0 0
          0 0 0 0 0 0
          0 0 0 0 0 0
          0 0 0 0 0 0
          0 0 0 0 0 0
          0 0 0 0 0 0
          0 0 0 0 0 0
          0 0 0 0 0 0
          0 0 0 0 0 0
          0 0 0 0 0 0
          0 0 0 0 0 0
          0 0 0 0 0 0
          0 0 0 0 0 0
          0 0 0 0 0 0
          0 0 0 0 0 0
          0 0 0 0 0 0
          0 0 0 0 0 0
          0 0 0 0 0 0
          0 0 0 0 0 0
          0 0 0 0 0 0
          0 0 0 0 0 0
          0 0 0 0 0 0
          0 0 0 0 0 0
          0 0 0 0 0 0
          0 0 0 0 0 0
          0 0 0 0 0 0
          0 0 0 0 0 0
          0 0 0 0 0 0
          0 0 0 0 0 0
          0 0 0 0 0 0
          0 0 0 0 0 0
          0 0 0 0 0 0
          0 0 0 0 0 0
          0 0 0 0 0 0
          0 0 0 0 0 0
          0 0 0 0 0 0
          0 0 0 0 0 0
          0 0 0 0 0 0
          0 0 0 0 0 0
          0 0 0 0 0 0
          0 0 0 0 0 0
          0 0 0 0 0 0
          0 0 0 0 0 0
          0 0 0 0 0 0
          0 0 0 0 0 0
          0 0 0 0 0 0
          0 0 0 0 0 0
          0 0 0 0 0 0
          0 0 0 0 0 0
          0 0 0 0 0 0
          0 0 0 0 0 0
          0 0 0 0 0 0
          0 0 0 0 0 0
          0 0 0 0 0 0
          0 0 0 0 0 0
          0 0 0 0 0 0
          0 0 0 0 0 0
          0 0 0 0 0 0
          0 0 0 0 0 0
          0 0 0 0 0 0
          0 0 0 0 0 0
          0 0 0 0 0 0
          0 0 0 0 0 0
          0 0 0 0 0 0
          0 0 0 0 0 0
          0 0 0 0 0 0
          0 0 0 0 0 0
          0 0 0 0 0 0
          0 0 0 0 0 0
          0 0 0 0 0 0
          0 0 0 0 0 0
          0 0 0 0 0 0
          0 0 0 0 0 0
          0 0 0 0 0 0
          0 0 0 0 0 0
          0 0 0 0 0 0
          0 0 0 0 0 0
          0 0 0 0 0 0
          0 0 0 0 0 0
          0 0 0 0 0 0
          0 0 0 0 0 0
          0 0 0 0 0 0
          0 0 0 0 0 0
          0 0 0 0 0 0
          0 0 0 0 0 0
          0 0 0 0 0 0
          0 0 0 0 0 0
          0 0 0 0 0 0
          0 0 0 0 0 0
          0 0 0 0 0 0
          0 0 0 0 0 0
          0 0 0 0 0 0
          0 0 0 0 0 0
          0 0 0 0 0 0
          0 0 0 0 0 0
          0 0 0 0 0 0
          0 0 0 0 0 0
          0 0 0 0 0 0
          0 0 0 0 0 0
          0 0 0 0 0 0
          0 0 0 0 0 0
          0 0 0 0 0 0
          0 0 0 0 0 0
          0 0 0 0 0 0
          0 0 0 0 0 0
          0 0 0 0 0 0
          0 0 0 0 0 0
          0 0 0 0 0 0
          0 0 0 0 0 0
          0 0 0 0 0 0
          0 0 0 0 0 0
          0 0 0 0 0 0
          0 0 0 0 0 0
          0 0 0 0 0 0
          0 0 0 0 0 0
          0 0 0 0 0 0
          0 0 0 0 0 0
          0 0 0 0 0 0
          0 0 0 0 0 0
          0 0 0 0 0 0
          0 0 0 0 0 0
          0 0 0 0 0 0
          0 0 0 0 0 0
          0 0 0 0 0 0
          0 0 0 0 0 0
          0 0 0 0 0 0
          0 0 0 0 0 0
          0 0 0 0 0 0
          0 0 0 0 0 0
          0 0 0 0 0 0
          0 0 0 0 0 0
          0 0 0 0 0 0
          0 0 0 0 0 0
          0 0 0 0 0 0
          0 0 0 0 0 0
          0 0 0 0 0 0
          0 0 0 0 0 0
          0 0 0 0 0 0
          0 0 0 0 0 0
          0 0 0 0 0 0
          0 0 0 0 0 0
          0 0 0 0 0 0
          0 0 0 0 0 0
          0 0 0 0 0 0
          0 0 0 0 0 0
          0 0 0 0 0 0
          0 0 0 0 0 0
          0 0 0 0 0 0
          0 0 0 0 0 0
          0 0 0 0 0 0
          0 0 0 0 0 0
          0 0 0 0 0 0
          0 0 0 0 0 0
          0 0 0 0 0 0
          0 0 0 0 0 0
          0 0 0 0 0 0
          0 0 0 0 0 0
          0 0 0 0 0 0
          0 0 0 0 0 0
          0 0 0 0 0 0
          0 0 0 0 0 0
          0 0 0 0 0 0
          0 0 0 0 0 0
          0 0 0 0 0 0
          0 0 0 0 0 0
          0 0 0 0 0 0
          0 0 0 0 0 0
          0 0 0 0 0 0
          0 0 0 0 0 0
          0 0 0 0 0 0
          0 0 0 0 0 0
          0 0 0 0 0 0
          0 0 0 0 0 0
          0 0 0 0 0 0
          0 0 0 0 0 0
          0 0 0 0 0 0
          0 0 0 0 0 0
          0 0 0 0 0 0
          0 0 0 0 0 0
          0 0 0 0 0 0
          0 0 0 0 0 0
          0 0 0 0 0 0
          0 0 0 0 0 0
          0 0 0 0 0 0
          0 0 0 0 0 0
          0 0 0 0 0 0
          0 0 0 0 0 0
          0 0 0
        </DataArray>
        <DataArray type="Float64" Name="gradient_error" format="ascii" RangeMin="2.703796938227258e-12" RangeMax="6.632709301812548e-10">
          1.938237602337202e-10 1.2982764236972955e-10 2.1722142577078886e-11 3.3272387442311924e-11 3.5700377391727834e-11 3.2425088932571806e-10
          1.1328145180510435e-10 6.158894930934292e-11 6.589242351776622e-11 2.2900189001520296e-11 1.810267995129059e-10 3.684329894497387e-10
          2.3588583430978577e-10 1.7547430571164759e-10 1.1057785348193983e-10 1.8889742053178477e-10 1.15926694415419e-10 6.287440567008588e-11
          3.4883705747548045e-11 1.586171973085107e-11 4.41598629262481e-11 3.3147016240018887e-10 1.6982516489957902e-10 5.861168138566649e-10
          2.096551981898044e-10 3.50441138951993e-10 1.1504173708466177e-10 5.568390287648851e-11 3.0234644988152235e-11 1.3884631022529099e-11
          2.0268611077344398e-10 1.0245981899701385e-10 4.59622635737802e-11 7.474052415730735e-11 4.6611460235150256e-11 3.916489902251001e-11
          3.66549854028055e-11 2.3320535258407904e-11 5.0828371447136936e-11 2.3393333489944212e-11 3.677051249357474e-11 2.183093406879227e-11
          5.76981532850176e-11 4.2894584020826246e-11 2.5707483729409847e-11 2.991232108820399e-11 1.367477033745584e-11 4.9598380784136134e-11
          3.106266685599806e-11 1.600403128955152e-11 2.2743084234577113e-11 1.7076444735216207e-11 9.800196330306228e-12 9.285199630051902e-11
          3.58306897639963e-11 3.516963368305906e-11 8.583799260493465e-11 7.37262053233027e-11 4.0553078579745066e-11 4.3257129005962885e-11
          5.403214328836581e-11 7.82895520056966e-11 3.6502835184879214e-11 4.242055686856454e-11 4.7206768167348215e-11 2.060864813364195e-11
          2.23701203551976e-11 2.7999075494428182e-11 2.7444697087814917e-11 1.364950327790675e-11 5.1992979466131895e-11 2.4131592576753252e-11
          2.6890318681201652e-11 1.9142686689543805e-11 2.9162300731002755e-11 2.196875940147188e-10 1.32434427021225e-10 1.5211862646456268e-10
          9.170144809069246e-11 1.498029827496683e-10 8.970051768992105e-11 6.187131221706838e-11 7.852948051599617e-11 5.554228938726695e-11
          4.970920866513823e-11 1.017488911751736e-10 6.15038938477081e-11 6.741631973713635e-11 4.071130120804133e-11 6.940722442004717e-11
          4.163015455698858e-11 2.7387030553267155e-11 3.819640504335596e-11 2.5546338922257412e-11 2.3829513710058694e-11 9.7444962443302e-11
          8.85513485939027e-11 6.737026992889819e-11 6.120168332171556e-11 6.145675418788902e-11 8.523994667844178e-11 5.903140644260992e-11
          5.840265012117788e-11 4.053238903142488e-11 6.40391921372501e-11 4.545262075047329e-11 4.1344003620497517e-11 2.9883982794671596e-11
          2.701327527728666e-11 2.8907647789238787e-11 3.946114704738544e-11 2.924359377610124e-11 2.7482026490303804e-11 1.7962352074646952e-11
          3.4667650671949704e-11 1.7022245866139885e-10 1.2063432075424377e-10 8.272865326270841e-11 2.416369771589864e-10 5.356457719559829e-10
          4.0137355247037916e-10 2.892689046267961e-10 4.4460316642357197e-10 1.1406195389440936e-10 3.071073556215621e-10 1.594712494112416e-10
          1.8050604564472664e-10 1.5220473701356425e-10 1.1013676636280102e-10 9.213411483531622e-11 6.585366678656462e-11 2.7508853346011625e-10
          2.0422106708064938e-10 1.5778188417344256e-10 7.724255479179871e-11 5.254065715044157e-11 4.5715837721028007e-11 3.0841644588303944e-11
          1.464955115650814e-10 1.0160814354362782e-10 8.12836454774436e-11 5.216728638129919e-11 3.6881132147480184e-11 2.80226184249699e-11
          1.9611743574170373e-11 8.423658733474289e-11 6.043685835176393e-11 4.2727233868033024e-11 2.5360404925804786e-11 1.6938345915337612e-11
          1.819726095313758e-11 1.6889033111752078e-11 4.2113786232081695e-11 2.8502272817840504e-11 2.0790522340070533e-11 4.262861357369877e-10
          3.240278720948399e-10 2.3574359214350313e-10 1.7504733106713113e-10 4.837042479530892e-10 3.710580557084037e-10 2.7104062969611736e-10
          2.375196955401744e-10 1.6795223345615414e-10 1.257285614887973e-10 8.739797086931893e-11 2.743836697435722e-10 1.955996679916821e-10
          1.4653360677461958e-10 1.195310484316061e-10 8.692073937092113e-11 5.743226330840881e-11 4.100488489471832e-11 1.3610215769728125e-10
          9.951224941425717e-11 6.411981097786109e-11 6.13298674143733e-11 4.199813495431979e-11 2.847289511692908e-11 1.9229339141745428e-11
          7.056786192412661e-11 4.854803138908654e-11 3.203860230243962e-11 4.3870484655777365e-11 2.6489527821400826e-11 2.9225133968542406e-11
          2.14069245475297e-11 1.6612203293441036e-11 1.3796189860602831e-11 1.8985798125264304e-11 2.097944560277846e-11 1.5147468741771923e-11
          2.0571600298224586e-11 1.5101190971037247e-11 1.843090612068817e-11 2.021076578699081e-11 3.700576329411808e-11 1.0994569698262747e-11
          1.0814922222342682e-11 1.8754734819987672e-11 9.04445167936187e-12 5.883663367683137e-11 6.933869080839548e-11 2.7921555728115632e-11
          1.2644445115825044e-11 3.2409171728143804e-11 1.4326426509864018e-11 5.121746199932852e-11 2.8848179734741985e-11 3.5197298586714196e-11
          1.9907083865647043e-11 4.893142371442111e-11 4.066955048554602e-11 2.7778674207125515e-11 2.087357874603652e-11 1.4576372522131475e-11
          3.401601470462907e-11 2.864755536572305e-11 2.2664021286426826e-11 2.734188397012536e-11 2.436103931151749e-11 2.2345178141138404e-11
          2.2421497929138006e-11 2.215986176115571e-11 1.3742016500854001e-11 1.305382097036763e-11 1.9641552852399456e-11 2.684769871797734e-11
          1.8821983012488127e-11 3.154200849661163e-11 2.8089467845080222e-11 2.9426241644967073e-11 2.066474349364074e-11 2.5215449012320653e-11
          1.2869032339323323e-11 8.57734418035011e-12 1.9085439965724993e-11 1.2432756549522222e-11 1.4159803573985539e-11 9.469801135014058e-12
          2.0588765373446192e-11 4.1654513864600965e-11 3.921569740863216e-11 2.874351625837237e-11 3.3728970775562277e-11 2.6986066403510884e-11
          3.061378295375953e-11 2.140012439690858e-11 3.242559732099938e-11 3.5480831954233575e-11 3.1984380625853405e-11 1.958942141163477e-11
          1.57877631625991e-11 1.4201177840923942e-11 1.7166292149013995e-11 8.429403830429052e-12 1.1459425460504943e-11 5.572326250850893e-12
          7.97992580914378e-12 6.172276889005859e-12 8.826972589656078e-12 9.932935345761205e-12 1.069165359469059e-11 2.7412862234182893e-11
          3.238798839261028e-11 1.8323546138459103e-11 2.1916734529156442e-11 2.0897048619412452e-11 2.2812998072384283e-11 1.5323495501129732e-11
          1.2273490662642336e-11 1.4534167418917497e-11 1.0209587363424525e-11 1.1671222468087861e-11 9.550123861142498e-12 1.0691741753331605e-11
          9.17076080033551e-12 1.9244970150468806e-11 1.3856726195031444e-11 1.3162036613043626e-11 2.3180623208407036e-11 1.532555164980384e-11
          1.5035954135953998e-11 1.0303670889743979e-11 2.466615029106911e-11 1.6432442793436118e-11 1.5581194691341455e-11 9.326727884141477e-12
          9.964868606158035e-12 5.962591724935919e-12 6.3049667553001805e-12 7.031263069681434e-12 6.878423605465952e-12 4.4661138909825544e-12
          1.0603009328174594e-11 6.647341785664443e-12 6.725584141250471e-12 3.809947707705772e-11 4.996654781265525e-11 2.6605670125703756e-11
          3.4551257161544924e-11 2.9568548494143025e-11 3.669182196483839e-11 2.55159330672926e-11 1.775334168935879e-11 2.2828165336757953e-11
          1.4502956287726476e-11 1.8096640807954134e-11 1.386045137812628e-11 1.7149093732668213e-11 1.4107190045606896e-11 5.4819832798073365e-11
          6.70254958934107e-11 5.511413333306599e-11 9.612199000631583e-11 4.5787525347974395e-11 5.627166240116102e-11 3.8107762610785097e-11
          4.6997619329411503e-11 3.768178240729819e-11 4.619041513665673e-11 3.8493410197218436e-11 8.129618586062891e-11 6.827907384865225e-11
          6.627074994303037e-11 3.679178158094578e-11 4.463392520868454e-11 3.5076625947287057e-11 4.221938702057429e-11 3.5623648178018924e-11
          6.301204098539319e-11 5.874522722158943e-11 3.067438215998272e-11 3.7366432589871275e-11 2.5434148630506063e-11 3.1092255852729206e-11
          2.4635108640879265e-11 2.97763818067676e-11 2.4741737212368616e-11 5.306822969414864e-11 4.438998548294479e-11 4.1783204004855406e-11
          3.903747482321386e-11 3.2163670796099825e-11 2.5870300138766594e-11 3.1900951889101816e-11 2.6257664755977917e-11 5.6931473109121325e-11
          4.711030574604496e-11 4.622576358320414e-11 2.6204570462169097e-11 2.1249719144102237e-11 1.726746244977922e-11 2.14252545952952e-11
          1.7404348106927614e-11 3.869851171277527e-11 3.156372558937213e-11 3.134324807947675e-11 2.102697005219958e-11 2.574091764369468e-11
          1.7279125870960022e-11 2.117303851079666e-11 1.6869749182263677e-11 2.0466060865433385e-11 1.6814282536413022e-11 3.687859244003982e-11
          3.042852270433462e-11 2.892990297875125e-11 1.4030285506073721e-11 1.726655686417968e-11 1.13800759829773e-11 1.4020800352414505e-11
          1.122262089842831e-11 1.3688574297999116e-11 1.109939786434399e-11 2.494162177749542e-11 2.031343086522367e-11 1.9504045140236026e-11
          2.8065541832253657e-11 3.3139752155658157e-11 2.3610938351415413e-11 2.7903514718307008e-11 2.5153349640935294e-11 2.9025306407781056e-11
          2.440854262686131e-11 4.5608552956297104e-11 3.851188828246513e-11 3.771896291360227e-11 1.959636668155783e-11 2.3264916706998268e-11
          1.6222207763458926e-11 1.930683082859654e-11 1.751007856035454e-11 2.0318930354992308e-11 1.6851960416622123e-11 3.2300376698912634e-11
          2.6917870744206475e-11 2.6638162466519057e-11 1.3401336799389676e-11 1.594871897289404e-11 1.099144188074804e-11 1.308574261313198e-11
          1.1966787146113398e-11 1.3907143585587532e-11 1.14051907676048e-11 2.2279414125094424e-11 1.8316928553711017e-11 1.8346964780794966e-11
          8.880949493638491e-12 1.0618965804659271e-11 7.187998914758176e-12 8.598566199617596e-12 7.913003084008408e-12 9.229417649676684e-12
          7.47078424456659e-12 1.4945020191004022e-11 1.2131097069469047e-11 1.2304571268330496e-11 1.996715167319131e-10 2.793617345007633e-10
          2.39942889853751e-10 3.8286912832328194e-10 1.438987349862695e-10 1.0030324015656165e-10 2.0426528418143468e-10 1.7236649294776701e-10
          2.8432252098428435e-10 1.4418879192554151e-10 1.1959078328382205e-10 2.0348905511565098e-10 5.03856691575932e-10 4.396337553553156e-10
          6.098632096202749e-10 6.580433231852201e-10 5.805444266510763e-10 6.632709301812548e-10 3.7995233383040934e-10 3.252441711849613e-10
          4.659393677280547e-10 2.7577374066092887e-10 2.3163531324209004e-10 3.4239841178840236e-10 5.072578700263608e-10 4.3890627443138373e-10
          5.129822739196488e-10 3.760469496358747e-10 3.190411348537219e-10 3.8156167605242323e-10 1.5587153552135918e-10 2.599749539455813e-10
          3.394639474895116e-10 1.907622768457287e-10 1.3768019424877566e-10 2.2332750391151926e-10 2.462551461063169e-10 1.7495305771794224e-10
          2.543274510522109e-10 1.3608091450483444e-10 1.1014994953536597e-10 1.9002330441941635e-10 1.1583105799429906e-10 9.78366937505934e-11
          9.350362503580272e-11 7.878348620467644e-11 1.6282720688251938e-10 1.3838680643007354e-10 1.2998485456291651e-10 8.748992157128479e-11
          8.029272218746899e-11 6.828136956373449e-11 1.195070270505537e-10 1.0778858949746757e-10 7.407171654970382e-11 6.225985248239465e-11
          5.765982477164474e-11 4.8349184913794075e-11 1.0172614724117679e-10 8.593649781229718e-11 7.817881535702717e-11 2.611566503916022e-10
          2.0681026124147002e-10 3.5145784163715534e-10 2.253875867425157e-10 1.9285572440259832e-10 1.7775980918899154e-10 1.5153116192703603e-10
          3.0561072700346325e-10 2.633804654060978e-10 2.3804332199590936e-10 1.603455888687044e-10 1.4189917262723556e-10 1.2194120419354157e-10
          2.104813737965525e-10 1.8259811593975865e-10 1.3727168308761378e-10 1.1658783308117588e-10 1.0399298412774478e-10 8.8013861590091e-11
          1.8127052894139754e-10 1.5482808860483705e-10 1.35261680453478e-10 8.200437067988966e-11 6.82108148150623e-11 6.588911963354338e-11
          5.469975152204757e-11 1.166620357772561e-10 9.755990032217138e-11 9.259221463623389e-11 5.630943277983796e-11 4.613909137704335e-11
          4.5080286123499556e-11 3.688711292408675e-11 8.094158620394341e-11 6.663164794633268e-11 6.394677745366412e-11 5.195557440994328e-11
          4.3048383104068575e-11 4.025822530025813e-11 3.3288636019440686e-11 7.205282472984526e-11 5.996252449138836e-11 5.5067902129319686e-11
          3.5418952670330503e-11 2.8946326159367735e-11 2.733937607724336e-11 2.2310194448181973e-11 4.953384352845914e-11 4.062203673590078e-11
          3.768134744116401e-11 1.6361268568158275e-10 1.3763073611241845e-10 1.2811362403230322e-10 1.0743679229091785e-10 2.2496475348190197e-10
          1.9045159762365345e-10 1.7370571373432066e-10 1.1481004974646139e-10 9.498926086424884e-11 8.937692307859241e-11 7.376688552163656e-11
          1.5982187968762162e-10 1.3296152515480131e-10 1.225114547577791e-10 9.824268161723427e-11 8.214067006334849e-11 7.392796396539326e-11
          6.163070521793959e-11 1.3115871009362856e-10 1.1020578313811639e-10 9.707814887433401e-11 6.814956527914694e-11 5.611020262975073e-11
          5.0996373236946544e-11 4.188438025980545e-11 9.185792987204431e-11 7.595888730812996e-11 6.753513273010231e-11 6.191324487374068e-11
          5.250366849174264e-11 4.6793848682112707e-11 3.957692433462921e-11 8.1980163031493e-11 6.98438948317536e-11 6.142601627716663e-11
          4.4225924312306375e-11 3.700202939348399e-11 3.326054234871399e-11 2.7782416671200934e-11 5.908711314917491e-11 4.963423314660518e-11
          4.400874718860735e-11 3.024487624041745e-11 3.5021392980920926e-11 2.546352279504643e-11 2.95451108792903e-11 2.2677193533710574e-11
          2.5991588147489293e-11 2.1874369704289578e-11 4.5411115132939833e-11 3.8449474920899246e-11 3.319473401610443e-11 2.1305286119711163e-11
          2.4772435661197952e-11 1.7747439507730913e-11 2.0659609933522474e-11 1.5902468961674174e-11 1.829438497031775e-11 1.5214929756940122e-11