<?xml version="1.0"?>
<VTKFile type="UnstructuredGrid" version="0.1" byte_order="LittleEndian" header_type="UInt32" compressor="vtkZLibDataCompressor">
  <UnstructuredGrid>
    <Piece NumberOfPoints="888" NumberOfCells="483">
      <PointData>
        <DataArray type="Int32" Name="libmesh_node_id" format="ascii" RangeMin="319" RangeMax="7021">
          319 320 361 412 413 454
          505 506 547 599 640 716
          718 721 726 727 729 733
          734 739 761 762 763 767
          768 769 770 771 775 776
          940 941 942 946 950 970
          975 976 977 978 979 980
          981 982 983 984 986 987
          988 996 997 998 1002 1007
          1008 1013 1014 1015 1017 1019
          1020 1022 1117 1118 1121 1123
          1125 1126 1129 1130 1132 1134
          1251 1252 1255 1257 1259 1260
          1261 1262 1263 1264 1265 1266
          1267 1268 1269 1270 1273 1274
          1276 1278 1908 1909 1911 1914
          1916 1917 1920 1922 1923 1924
          1925 1928 1929 1931 1934 1936
          1937 1940 1942 1943 1945 1948
          1949 1952 1954 1956 1957 1960
          1961 1963 1965 2419 2420 2421
          2422 2423 2426 2427 3068 3080
          3081 3082 3083 3084 3085 3086
          3087 3088 3089 3094 3096 3097
          3098 3099 3100 3101 3102 3113
          3114 3115 3116 3121 3122 3126
          3127 3128 3129 3130 3131 3132
          3133 3134 3135 3136 3141 3142
          3143 3144 3145 3146 3147 3148
          3149 3150 3151 3152 3153 3154
          3155 3156 3157 3158 3169 3170
          3171 3172 3173 3174 3177 3187
          3189 3191 3205 3206 3208 3211
          3221 3223 3225 3227 3228 3229
          3230 3231 3232 3233 3234 3235
          3236 3237 3238 3243 3244 3247
          3248 3249 3250 3251 3252 3253
          3261 3262 3263 3264 3265 3266
          3267 3268 3269 3270 3271 3272
          3277 3278 3281 3282 3283 3284
          3285 3286 3287 3295 3296 3297
          3298 3299 3303 3304 3308 3309
          3310 3311 3314 3318 3684 3685
          3689 3690 3691 3692 3693 3694
          3695 3696 3697 3698 3701 3702
          3755 3757 3758 3760 3762 3763
          3764 3822 3823 3824 5435 5437
          5438 5439 5440 5463 5464 5465
          5466 5467 5468 5469 5470 5475
          5476 5477 5478 5479 5480 5481
          5482 5483 5484 5485 5486 5487
          5488 5489 5490 5491 5492 5493
          5494 5495 5496 5497 5498 5499
          5500 5501 5564 5565 5567 5570
          5572 5573 5574 5575 5576 5577
          5578 5579 5580 5581 5583 5585
          5586 5587 5590 5591 5593 5598
          5599 5600 5601 5602 5603 5604
          5605 5606 5607 5609 5615 5616
          5617 5618 5619 5620 5621 5712
          5713 5714 5715 5716 5717 5718
          5719 5720 5721 5729 5730 5731
          5732 5733 5734 5735 5746 5747
          5748 5749 5750 5751 5752 5753
          5754 5755 5763 5764 5765 5766
          5767 5768 5769 5810 5820 5822
          5824 5826 5827 5828 5829 5830
          5831 5832 5833 5834 5835 5836
          5837 5838 5839 5840 5841 5842
          5843 5844 5845 5846 5847 5848
          5849 5850 5851 5852 5853 5854
          5855 5856 5857 5858 5859 5860
          5861 5862 5863 5864 5865 5866
          5867 5868 5869 5870 5871 5872
          5873 5874 5875 5876 5877 5878
          5879 5880 5881 5882 5883 5884
          5885 5886 5887 5888 5889 5890
          5891 5892 5893 5894 5895 5896
          5897 5898 5903 5904 5905 5906
          5907 5911 5912 5913 5914 5915
          5916 5917 5918 5919 5920 5931
          5932 5933 5934 5935 5936 5937
          5945 5946 5948 5949 5957 5958
          5959 5960 5961 5962 5963 5964
          5965 5966 5967 5968 5969 5970
          5971 5972 5973 5974 5975 5976
          5977 5978 5979 5980 5981 5982
          5983 5984 5985 5986 5987 5988
          5989 5990 5991 5992 5993 5994
          5995 5996 5997 5998 5999 6000
          6001 6002 6003 6004 6005 6006
          6007 6008 6009 6010 6011 6012
          6013 6014 6015 6016 6017 6018
          6019 6020 6021 6022 6023 6024
          6025 6026 6027 6028 6029 6030
          6031 6032 6033 6034 6045 6046
          6047 6048 6049 6050 6051 6059
          6060 6061 6062 6063 6064 6065
          6066 6067 6068 6079 6080 6081
          6082 6083 6084 6085 6093 6094
          6095 6096 6097 6098 6099 6100
          6101 6102 6383 6385 6387 6389
          6397 6398 6401 6403 6404 6406
          6417 6419 6421 6423 6499 6501
          6503 6505 6513 6514 6517 6518
          6520 6522 6533 6535 6537 6539
          6547 6549 6551 6553 321 322
          414 415 362 455 508 548
          772 773 774 777 507 730
          989 990 991 992 993 995
          1000 1001 732 1024 1030 1026
          1031 1127 735 1128 1131 601
          1133 641 1271 1018 1272 1275
          738 1277 999 1842 1843 1830
          1845 1958 1959 1962 1964 2424
          1921 2425 2428 1016 2870 2871
          2859 3103 3104 2873 3107 3109
          3110 3112 3117 3118 3119 3120
          3123 3124 3125 3137 3138 3111
          1919 3140 3139 3239 3240 3241
          3242 3254 3255 3256 3257 3246
          3258 3260 3275 3288 3290 3280
          3292 3294 3300 3301 3302 3305
          3306 3307 3312 3313 3315 3316
          3317 3699 3700 3703 3704 3705
          1036 1279 1973 1841 1974 3759
          3756 1975 3761 2439 2443 2441
          3366 3835 3399 3836 3839 3840
          3403 3612 3616 5899 5900 5921
          5922 5902 5925 5927 5928 5930
          5908 5938 5910 5940 5942 5944
          6035 6036 6039 6041 6042 6044
          6052 6054 6056 6058 6069 6070
          6073 6075 6076 6078 6086 6088
          6090 6092 6202 6217 5455 5473
          6367 3340 6218 6368 6384 6219
          3342 6386 6372 3378 6388 3381
          6369 6370 5474 3377 6371 6399
          6400 6402 3383 6405 3384 6418
          6420 6422 3386 6333 5462 6334
          6500 6335 3364 6502 6504 3397
          6515 6516 6519 6521 6534 6536
          6538 3401 6548 6550 6552 6865
          6866 6867 6868 6869 6870 6871
          6872 5901 6874 6885 6886 6887
          6888 6889 5909 6891 7001 7002
          7003 7004 7005 5947 7007 7015
          7016 7017 7018 7019 5950 7021
        </DataArray>
        <DataArray type="Float64" Name="bounds" format="ascii" RangeMin="0" RangeMax="0">
          0 0 0 0 0 0
          0 0 0 0 0 0
          0 0 0 0 0 0
          0 0 0 0 0 0
          0 0 0 0 0 0
          0 0 0 0 0 0
          0 0 0 0 0 0
          0 0 0 0 0 0
          0 0 0 0 0 0
          0 0 0 0 0 0
          0 0 0 0 0 0
          0 0 0 0 0 0
          0 0 0 0 0 0
          0 0 0 0 0 0
          0 0 0 0 0 0
          0 0 0 0 0 0
          0 0 0 0 0 0
          0 0 0 0 0 0
          0 0 0 0 0 0
          0 0 0 0 0 0
          0 0 0 0 0 0
          0 0 0 0 0 0
          0 0 0 0 0 0
          0 0 0 0 0 0
          0 0 0 0 0 0
          0 0 0 0 0 0
          0 0 0 0 0 0
          0 0 0 0 0 0
          0 0 0 0 0 0
          0 0 0 0 0 0
          0 0 0 0 0 0
          0 0 0 0 0 0
          0 0 0 0 0 0
          0 0 0 0 0 0
          0 0 0 0 0 0
          0 0 0 0 0 0
          0 0 0 0 0 0
          0 0 0 0 0 0
          0 0 0 0 0 0
          0 0 0 0 0 0
          0 0 0 0 0 0
          0 0 0 0 0 0
          0 0 0 0 0 0
          0 0 0 0 0 0
          0 0 0 0 0 0
          0 0 0 0 0 0
          0 0 0 0 0 0
          0 0 0 0 0 0
          0 0 0 0 0 0
          0 0 0 0 0 0
          0 0 0 0 0 0
          0 0 0 0 0 0
          0 0 0 0 0 0
          0 0 0 0 0 0
          0 0 0 0 0 0
          0 0 0 0 0 0
          0 0 0 0 0 0
          0 0 0 0 0 0
          0 0 0 0 0 0
          0 0 0 0 0 0
          0 0 0 0 0 0
          0 0 0 0 0 0
          0 0 0 0 0 0
          0 0 0 0 0 0
          0 0 0 0 0 0
          0 0 0 0 0 0
          0 0 0 0 0 0
          0 0 0 0 0 0
          0 0 0 0 0 0
          0 0 0 0 0 0
          0 0 0 0 0 0
          0 0 0 0 0 0
          0 0 0 0 0 0
          0 0 0 0 0 0
          0 0 0 0 0 0
          0 0 0 0 0 0
          0 0 0 0 0 0
          0 0 0 0 0 0
          0 0 0 0 0 0
          0 0 0 0 0 0
          0 0 0 0 0 0
          0 0 0 0 0 0
          0 0 0 0 0 0
          0 0 0 0 0 0
          0 0 0 0 0 0
          0 0 0 0 0 0
          0 0 0 0 0 0
          0 0 0 0 0 0
          0 0 0 0 0 0
          0 0 0 0 0 0
          0 0 0 0 0 0
          0 0 0 0 0 0
          0 0 0 0 0 0
          0 0 0 0 0 0
          0 0 0 0 0 0
          0 0 0 0 0 0
          0 0 0 0 0 0
          0 0 0 0 0 0
          0 0 0 0 0 0
          0 0 0 0 0 0
          0 0 0 0 0 0
          0 0 0 0 0 0
          0 0 0 0 0 0
          0 0 0 0 0 0
          0 0 0 0 0 0
          0 0 0 0 0 0
          0 0 0 0 0 0
          0 0 0 0 0 0
          0 0 0 0 0 0
          0 0 0 0 0 0
          0 0 0 0 0 0
          0 0 0 0 0 0
          0 0 0 0 0 0
          0 0 0 0 0 0
          0 0 0 0 0 0
          0 0 0 0 0 0
          0 0 0 0 0 0
          0 0 0 0 0 0
          0 0 0 0 0 0
          0 0 0 0 0 0
          0 0 0 0 0 0
          0 0 0 0 0 0
          0 0 0 0 0 0
          0 0 0 0 0 0
          0 0 0 0 0 0
          0 0 0 0 0 0
          0 0 0 0 0 0
          0 0 0 0 0 0
          0 0 0 0 0 0
          0 0 0 0 0 0
          0 0 0 0 0 0
          0 0 0 0 0 0
          0 0 0 0 0 0
          0 0 0 0 0 0
          0 0 0 0 0 0
          0 0 0 0 0 0
          0 0 0 0 0 0
          0 0 0 0 0 0
          0 0 0 0 0 0
          0 0 0 0 0 0
          0 0 0 0 0 0
          0 0 0 0 0 0
          0 0 0 0 0 0
          0 0 0 0 0 0
          0 0 0 0 0 0
          0 0 0 0 0 0
          0 0 0 0 0 0
          0 0 0 0 0 0
        </DataArray>
        <DataArray type="Float64" Name="gradient_error" format="ascii" RangeMin="4.721132508496044e-12" RangeMax="2.66889701090817e-7">
          3.3690718530857854e-10 2.4247060354350823e-10 1.4803402177843788e-10 8.003382178700023e-10 3.534626160042212e-10 3.559674861541012e-10
          8.911907716638026e-9 4.376242049765856e-10 2.935781972250028e-10 5.68385466771405e-9 6.819609286930252e-10 2.874684254065097e-9
          8.709053245140856e-8 3.1447561743331955e-9 2.2762566626420775e-9 1.0411938499419708e-9 5.6707764495511076e-8 2.782815304056893e-10
          1.4953663288417203e-9 2.7643790887561154e-9 6.120351405345127e-10 2.9398468709515094e-9 1.659094880932652e-9 3.783428909137945e-10
          2.535120996048304e-10 1.729840534055418e-10 6.616771714996064e-10 4.365935224229774e-10 9.24560072062532e-11 2.1150987334634833e-10
          9.061670264005364e-9 4.069291221754165e-8 2.7219336303488605e-8 8.224819961217394e-9 1.3394594806479365e-7 1.2149312781551122e-7
          7.950926509981927e-9 6.367748572342802e-9 2.326385853727659e-8 1.8215904073848033e-8 2.8494522879654674e-9 9.866828600715304e-9
          7.965680212228265e-9 2.8927319010135944e-9 7.963880277280025e-9 3.775227871833359e-9 1.3804414473445457e-7 6.649186515302332e-8
          1.1613392577252239e-7 4.871596414159731e-10 1.2894344714487335e-9 5.008497561684965e-10 1.555961016391724e-8 1.3379392817296015e-7
          6.526019207783525e-8 1.2836510330188302e-7 1.1484684837779165e-7 1.3878701346025711e-7 1.809107467739358e-8 2.9985419809566177e-8
          1.4747735637765616e-7 6.583054374879469e-9 2.5657233998219303e-10 9.094281348950305e-10 3.995004251886798e-10 1.5622839298078681e-9
          2.2183967241284152e-10 4.0999726844524576e-10 9.573640926433372e-11 1.913343891748234e-10 5.9815486447765e-10 2.8693236908531306e-10
          1.673288232019691e-8 3.087353887636243e-8 8.735230960064646e-9 3.109835711682769e-8 1.492661522552516e-8 2.7333405563332848e-8
          7.669884330817017e-9 1.4308244856745975e-8 4.575604304376044e-9 8.265183453263808e-9 4.354578902885005e-9 2.7652343249483955e-8
          1.480576102626435e-8 8.537954724555079e-9 2.1174356763253708e-9 4.142116185685954e-9 6.412221271499419e-10 1.233308162310159e-9
          4.458778035870193e-9 1.3678252471721747e-9 7.5337639219983e-8 1.0786317623790275e-7 9.983292869421217e-8 2.294207279877349e-7
          4.8263883830353e-8 5.141552060148709e-8 3.2368508428668544e-8 1.163507291403269e-7 1.6591392166872308e-7 5.922035483369359e-8
          4.533621705131565e-8 5.207732152482905e-8 1.7084660499916153e-7 1.038929804998439e-7 6.970734006505846e-8 7.164070847180491e-8
          1.8412168720799983e-7 4.5859540400698836e-8 1.18704807706014e-8 2.66889701090817e-7 6.384937066133422e-8 2.774475845122246e-8
          5.516409177029359e-8 5.7696256989278204e-9 7.075815404257068e-8 8.382255133143521e-9 1.9185783483487496e-8 2.275684710491257e-9
          2.3181617541288744e-9 2.454474862519537e-8 2.2635294603896898e-9 1.9379721081957187e-9 3.0160942329150483e-9 2.10414883822987e-9
          1.3865676613946638e-9 2.2694086396882076e-9 7.640722363229667e-10 1.4713238047187108e-9 6.36973821721123e-8 1.4420850728524497e-7
          1.2542573898615888e-7 1.3964791922629812e-7 1.195447727284985e-7 1.0664297068707274e-7 9.944162623069886e-8 1.2883557738218045e-7
          1.8762357104132903e-7 1.8671570180347792e-7 2.1953167455716172e-7 1.0034955646239923e-7 7.486555024125842e-9 5.949444806648008e-9
          2.7401664416713386e-9 6.47701907804383e-8 5.678328065373916e-8 3.559968848623376e-8 4.879637052704002e-8 4.924438621888676e-10
          8.017528896106809e-10 5.355074850488586e-10 6.643915285679587e-9 2.5268033247241253e-10 4.301638452952762e-10 2.8514581715220267e-9
          1.32503862609905e-7 1.1158403029246505e-7 1.209833229212996e-7 1.0068998917462042e-7 9.06641979750251e-8 6.185654007991004e-8
          1.2490184872287766e-7 1.800466296529578e-7 1.654695206128769e-7 1.9867889417076702e-7 4.47072775870424e-8 2.1270229013449773e-8
          1.7976608493564883e-7 1.832522745125701e-7 1.1649674864531995e-7 1.2088163822593603e-7 1.8646609439884938e-8 1.2516909495922286e-8
          8.268192561535111e-8 5.152386480711862e-8 4.052037361918251e-8 1.466713774280454e-8 5.663143422730179e-9 8.354676601950254e-9
          1.5810054693823905e-9 3.3880262353192497e-8 1.4538603717483534e-8 1.0374773284194763e-8 4.377834668994468e-8 1.2303925004840063e-7
          5.003629237653316e-8 1.2908314275471938e-7 2.2077782048550274e-7 2.1447292347824404e-7 6.390563170860392e-8 1.461395607893456e-7
          6.750374116820593e-8 1.8670919960608068e-7 3.2435041471379965e-8 6.666118068110361e-8 1.1363368002281404e-7 5.848704982968116e-8
          1.4617055230323243e-7 1.4173684640395059e-7 1.0881244907150169e-7 5.579159778241304e-8 1.3154657281938597e-7 5.886949437089486e-8
          1.274903001891011e-7 1.9877824310166673e-7 1.7314110350698284e-7 6.343935295861985e-8 7.702392343274217e-8 8.745745154606189e-8
          2.0861913644561738e-7 1.3303782284472e-7 1.5175345864198047e-7 7.577662759891655e-8 9.027138936178998e-8 1.2451414585385524e-7
          9.929508547779623e-8 5.1064375262812655e-8 2.5391609434363228e-8 2.0831697122150142e-7 1.719010795203513e-7 7.673286053940358e-8
          1.7696539194235446e-8 8.233304011949029e-8 1.1842204065358128e-8 9.231001845231682e-8 2.117526462124102e-7 2.4496652532798735e-7
          2.2835321876905608e-8 7.092859323406693e-8 8.031156996059814e-8 1.7767757972077739e-7 2.4339506981786356e-8 1.057403806319513e-7
          1.2266102622660171e-8 9.643119821998656e-8 2.2052064936812332e-7 2.340411084008645e-7 1.03502926145312e-7 5.0660899171650125e-8
          1.910272009291398e-7 2.5814265661866255e-7 1.1514850811825964e-7 2.0043807744513583e-9 2.8827584911911163e-9 1.8407351799527895e-9
          4.531556312194554e-9 1.4394167885737274e-9 6.521389096315426e-10 1.1836840301921373e-9 2.1701646141312993e-9 5.8429151630014785e-9
          4.529642179708606e-9 6.383853909544724e-9 2.890453664557897e-9 3.155807251605926e-9 6.294345125315835e-10 1.7232392585141127e-9
          7.425989840289992e-10 6.403875180510143e-10 1.7395750459598013e-9 3.5223691950758574e-10 9.406384469570098e-10 2.79881868778517e-10
          7.19339147779034e-10 3.953529739885275e-10 1.019413127475241e-10 2.5567916494827634e-10 5.156229213619329e-11 1.1760773449396697e-10
          1.2787110898617275e-11 2.561765773505693e-11 8.968993231027368e-12 5.150875563437461e-12 1.3773454492598441e-11 1.902469378762352e-11
          1.2431729840190112e-11 1.8860502749860257e-10 2.8470777984348164e-10 2.0312674558598837e-10 4.633690836574421e-8 4.7488630829341735e-8
          4.751000506484665e-8 4.846984285870724e-8 4.753137930035157e-8 4.925231452558305e-8 4.907474667157968e-8 4.916097113903077e-8
          4.88971788175763e-8 4.938694291139912e-8 4.854407143082952e-8 4.73244980345076e-8 4.770119995025992e-8 2.5619221967027837e-9
          1.404522885454041e-9 5.470553726919744e-9 4.8598455323506836e-8 4.588312040799953e-8 4.514243893318985e-8 4.316778549249223e-8
          1.8012597910893307e-8 1.6590004452829948e-8 1.3515558055806923e-8 2.6638779304825784e-8 9.910748177456148e-9 5.434271149664397e-9
          1.6637145267995446e-8 6.421971967045313e-10 3.404325703821097e-10 1.2977082632141854e-9 1.1663128726260714e-10 1.5198616511141928e-10
          1.1613649259708338e-10 2.442930377730856e-10 2.3409674562564766e-9 1.1139007879252135e-9 3.861572395390312e-9 3.6664310371642085e-10
          2.7666848283160725e-10 5.934653343758617e-10 4.555342324086086e-8 4.6188135368578595e-8 4.6822847496296326e-8 4.543809760572976e-8
          4.737883266982622e-8 4.792545372959116e-8 4.9096878133230084e-8 4.954741236230435e-8 4.847207478935608e-8 4.9997946591378616e-8
          4.6863447973509804e-8 4.858307379508679e-8 5.185992771081498e-8 5.2942805795513254e-8 5.619760520365625e-8 5.8725927114430974e-8
          6.098598378863919e-8 5.922883607564979e-8 4.322848459054864e-8 4.5561408716374255e-8 5.092147690542184e-8 4.746589423296791e-8
          5.009164946142174e-8 5.201015577070443e-8 5.499584012010359e-8 5.535923294127377e-8 6.009583922969864e-8 4.666289898142217e-8
          5.089297326024759e-8 5.6930412168376663e-8 5.760075723410722e-8 5.6641403580392696e-8 6.003033452579738e-8 6.332497033168127e-8
          6.205960785892279e-8 6.443978667346799e-8 6.272892086995078e-8 6.81265432134027e-8 6.207410623607742e-8 4.0647328241726076e-8
          4.789163756302641e-8 4.497708084900831e-8 5.398828165655246e-8 5.945339839861233e-8 6.693879870332201e-8 3.1493584214844e-8
          4.188399042319334e-8 4.651201767132825e-8 5.845745778002884e-8 6.454686100416306e-8 7.171645563529141e-8 6.230838807707643e-8
          6.774409233475574e-8 6.467151800158836e-8 7.224130445850467e-8 6.434091808359236e-8 2.6174098181157992e-8 3.6240051908002086e-8
          2.7721455672071294e-8 4.065762072233351e-8 5.441073252193157e-8 6.204588638074031e-8 2.5803813482462708e-8 3.406750530218065e-8
          3.9303751762840767e-8 5.162247414127363e-8 6.367332000959544e-8 7.048996679314658e-8 6.507495986703595e-8 6.901601372968228e-8
          6.297422622160254e-8 6.934110638778456e-8 6.54188901880218e-8 6.1411448318269e-8 6.32498719124219e-8 5.894966296288744e-8
          6.382729942271822e-8 5.0573948406032546e-8 5.092129771670503e-8 5.1676923114437584e-8 5.1917431443715956e-8 5.126864702737752e-8
          5.2157939772994313e-8 5.310744854309704e-8 5.5095165396446685e-8 5.806153788170078e-8 5.946664958372504e-8 5.222836238715113e-8
          5.230231324785939e-8 5.212217740213926e-8 5.175593291852874e-8 5.2376264108567644e-8 5.138968843491822e-8 5.7778432580331927e-8
          6.041770981742459e-8 6.155108306281937e-8 6.496271643826655e-8 6.273198151033043e-8 6.369305793844782e-8 6.122977876907838e-8
          6.367372926608623e-8 6.238683112411816e-8 5.857328332640735e-8 5.663063385299745e-8 6.002743603547196e-8 6.096727082655687e-8
          6.480043142818752e-8 6.494735823914891e-8 6.958709802088264e-8 5.781432284582027e-8 6.335364519299223e-8 6.971450371123587e-8
          7.05089483230297e-8 6.465116702027966e-8 6.888630705009292e-8 6.743460428215922e-8 7.180053061697943e-8 7.349725261563053e-8
          7.606065066061042e-8 6.805119606805566e-8 7.526715231987869e-8 7.962604319951169e-8 8.287360704561557e-8 6.629870697404838e-8
          6.864723053294177e-8 6.612693568774542e-8 6.67538570539364e-8 7.3219499244451e-8 7.769769169463399e-8 7.431406938300679e-8
          6.998420432528184e-8 6.986931667127329e-8 6.609535049920879e-8 6.378378897312543e-8 8.122418099260237e-8 8.313930309493222e-8
          7.91842564656753e-8 5.161418260932909e-8 5.001651080999643e-8 5.131584522493555e-8 4.8810557659195107e-8 4.841883901066378e-8
          4.630527009345466e-8 5.9354468074821656e-8 6.113168279254756e-8 6.258611779368648e-8 6.45663956087441e-8 4.163188395243458e-8
          3.907602349628717e-8 3.331743075117114e-8 5.958979546404527e-8 5.521942043527373e-8 5.129819912240515e-8 2.576179325330575e-8
          1.4315578752810901e-8 6.913147156594467e-8 7.328113861768189e-8 6.874984322684621e-8 7.27063034571268e-8 7.687568546037398e-8
          7.545570798076969e-8 7.464393150741414e-8 8.256551188512574e-8 8.315197932436546e-8 9.013972261335693e-8 6.798831634787603e-8
          6.408373747936451e-8 5.965606744442324e-8 5.3918822684597046e-8 8.294220419408378e-8 8.00649752052015e-8 7.609205542429104e-8
          5.896299606656766e-9 2.875519708332876e-9 9.481678147453065e-10 7.156259649255594e-10 4.6986014411493376e-8 5.9310099002177253e-8
          4.670903885687859e-8 6.307805552616054e-8 7.497881626395927e-8 8.256989720543303e-8 2.6658569951701932e-8 4.7872856521615556e-8
          4.605101441396921e-8 7.529318733875671e-8 4.602710928744807e-8 6.577858736243245e-8 4.7239234377099e-8 6.931785427701608e-8
          8.889018637202208e-8 9.437321032651397e-8 1.2383538590791738e-8 4.434989243250679e-8 4.597962451058352e-8 8.722089657462375e-8
          7.846744910607158e-8 8.451261159455577e-8 7.861144927708571e-8 8.333250097368797e-8 8.001388350034548e-8 8.762610232856808e-8
          7.407566551039373e-8 8.974673983035756e-8 9.327713825097685e-8 8.72431723540878e-8 8.920433002585893e-8 9.440509081494367e-8
          9.938354024369922e-8 9.068463475486167e-8 2.2310489408180386e-8 4.131844084272546e-8 1.3774999579039891e-8 3.8453841747825306e-8
          6.981425240691592e-8 7.565551782431572e-8 2.858917495058596e-8 4.1436466300470794e-8 3.968443713893611e-8 6.549666573947719e-8
          8.219850698827302e-9 3.565184297865226e-8 5.935240385300721e-9 3.5769982987557066e-8 7.977844243816664e-8 8.468075520176853e-8
          1.643970139765456e-8 3.662452070762435e-8 3.5650602019825876e-8 7.522434508719775e-8 7.825040221796498e-8 8.663941227529422e-8
          7.21706254236576e-8 7.867532952765854e-8 7.683436959624653e-8 8.525786282073155e-8 7.303717877900977e-8 9.417623118560383e-8
          1.001018044958369e-7 9.187941275335158e-8 9.644682417795019e-8 9.28820778013082e-8 9.906400103479304e-8 9.212480544581506e-8
          5.2136052747268945e-8 7.505261930383336e-8 6.0481250759252e-8 8.165335446724295e-8 9.913575008969746e-8 1.0181412403713248e-7
          1.4584079678553517e-8 5.210860105027867e-8 6.327105771818737e-8 9.906523152912802e-8 9.436637185423669e-8 9.244365549055378e-8
          8.843042938947626e-8 8.40845210820765e-8 1.0182416440191977e-7 1.0095152640008806e-7 9.51509881675873e-8 5.083441487848398e-9
          3.9719832413320063e-8 9.199466088275959e-9 4.922832772112026e-8 9.189536251863696e-8 1.0070406657212798e-7 1.0166882975696755e-8
          3.864549042576005e-8 4.669005870794483e-8 8.738904070374833e-8 1.040454589982485e-7 1.0472412215505777e-7 9.865641629801481e-8
          9.729730051982412e-8 1.0367776174467006e-7 1.0525060660409926e-7 9.97015399576668e-8 6.250496796751803e-8 6.202091173152787e-8
          5.984001023326821e-8 6.350122088634024e-8 6.322115010019348e-8 5.985988282473393e-8 6.061725725454677e-8 6.449747380516243e-8
          6.44213884688591e-8 5.987975541619966e-8 2.169062559361978e-9 1.1648141841824928e-9 4.587085640924778e-9 2.436214266397683e-9
          1.6016206417159546e-8 1.494922054264414e-8 1.2155804363701265e-8 2.553150125626554e-8 2.4091819310518755e-8 2.011715254081569e-8
          8.46789143430111e-9 4.531813587654391e-9 1.4411772330610722e-8 7.769446547194216e-9 5.283298736119962e-10 2.6022909333455765e-10
          1.0638984296443978e-9 4.906061217796546e-10 8.590638159040584e-11 1.150644590766141e-10 6.277332295161481e-11 8.184541228852501e-11
          1.9077098654010214e-10 1.301129588603731e-10 1.942043102919278e-9 8.629944232037805e-10 3.2619689933399153e-9 1.4413979783339488e-9
          2.983300790878481e-10 1.9753915162633623e-10 4.860078175606683e-10 3.156415151068694e-10 1.0073987696004926e-10 6.944857357052645e-11
          1.0639491816577285e-10 8.885732640798152e-11 3.815727018100362e-11 8.500081198634773e-11 8.145323557388597e-11 7.225065963253283e-11
          3.6774009613602255e-11 9.559560139185179e-11 7.260005809247898e-11 4.960451479310616e-11 4.960758900937985e-10 1.5444030129856035e-10
          1.88570806731532e-9 1.3538535083942056e-9 3.6743614422263627e-9 2.868782736507608e-9 6.052788205606565e-10 6.956244347581321e-10
          1.930319627259137e-8 6.718898786860083e-10 5.759724755070585e-10 2.954659643761859e-11 1.796449421704905e-11 1.7399459055741708e-11
          2.751474981375264e-11 8.260415411996233e-11 1.5115773928869226e-10 1.4564827104968652e-10 6.628278655575765e-11 2.3489852962067963e-10
          2.086923879794107e-10 9.526998691962686e-11 2.089570418410923e-10 7.151876628362839e-10 3.776014710141087e-10 1.2748399667558088e-10
          7.495500896047498e-10 4.3771922258559227e-10 4.312012412466654e-8 1.9148948521651532e-8 1.07975861150396e-8 3.261433719840086e-8
          2.7769237469210885e-9 8.8291738581366e-10 7.017271408700886e-10 7.999466302112609e-10 8.268425523206755e-10 3.310227531861516e-10
          1.0371701879408584e-9 8.274685214227375e-10 4.720989593311045e-10 3.027572195518029e-9 2.0151046934023996e-9 1.5201779657133256e-9
          2.273767701459723e-9 6.17446550645173e-9 4.936165116443449e-9 8.279321921532236e-10 2.3607349558746246e-9 2.950499095365718e-8
          2.4126904097215143e-8 1.2872608395768225e-8 3.4298721644178984e-10 7.268845153046782e-10 8.407630082616412e-11 3.75789389178817e-10
          2.365349888884043e-10 4.923928861142683e-9 1.7129860215988398e-9 1.0537274339108997e-7 8.690384984075797e-8 1.16510287823227e-8
          5.602613571844716e-9 4.3588101306569476e-8 5.3837381118469145e-8 1.263520448761223e-7 1.1273381806545461e-7 1.4092529649372086e-7
          7.142019232700037e-8 7.284939649291687e-8 3.2029147197053525e-8 1.2990220764258449e-8 5.1480940948488e-9 1.4622273123463038e-7
          1.2926748526582485e-7 2.0338644102943425e-8 2.0275672163785675e-7 1.80739998759748e-7 2.7168012666013833e-8 2.2412861493007803e-7
          2.0148049484478637e-7 2.988406083785287e-8 2.090751407922204e-9 5.778570377433715e-10 8.129878001435347e-10 3.7889930409741335e-10
          3.32172101049591e-9 1.1760349404061992e-9 4.317512380970587e-9 1.5553434066262858e-9 8.073101797807788e-10 4.733668768220037e-9
          1.7196291348335276e-9 2.817270257471642e-11 6.430153340713791e-11 3.094805639205202e-11 1.2454631059863608e-11 2.7779170252338844e-11
          5.034853532455071e-11 6.069135510251981e-11 7.741149920588311e-12 1.5960987365280999e-10 8.45305771616062e-12 1.3303963435457356e-11
          1.840676239363095e-11 4.721132508496044e-12 8.20116447728376e-12 4.931720451970487e-11 3.563741263824873e-11 1.4600245421420265e-11
          1.166511922698079e-10 1.218253175428893e-10 1.4953448643321208e-10 1.8555625129102237e-10 8.137943352553378e-11 1.3018919518706297e-10
          2.823405253403489e-10 2.924377541532516e-10 1.6955212632248052e-10 6.050157860565789e-8 6.371772155908596e-8 6.496498601683873e-8
          6.918255980861712e-8 6.245270791918775e-8 7.140557308069771e-8 7.389560571936747e-8 8.068293775197093e-8 8.737533571878657e-8
          4.947685855283864e-8 5.82610553745784e-8 4.0982165779815826e-8 4.711109818815691e-8 7.437202398877544e-8 6.146364632455211e-8
          6.93186739358026e-8 8.566213207149717e-8 1.0036052820563039e-7 4.371013152963329e-8 7.66260796569121e-8 1.0823335698885242e-7
          8.732650421182698e-8 7.593754221958491e-8 9.661716992075322e-8 8.630965364799247e-8 2.5021058929770273e-8 6.428057308888431e-8
          1.0722373598730563e-7 2.2896384661163848e-8 5.991477356114521e-8 1.043095812128017e-7 1.0151802671826848e-7 9.212866870992406e-8
          1.0275592623745181e-7 9.38258525104268e-8 1.5486135702372888e-9 1.032414038045172e-9 1.2677151208136947e-9 3.626876031362175e-9
          3.216755648908944e-9 1.078559925504964e-9 6.738040306357726e-10 2.432938935142033e-9 1.514164286092637e-9 5.600013493682716e-10
          3.509986245743222e-10 7.726031998471484e-10 6.770165092440968e-9 5.067608124114707e-9 3.174061312057535e-9 1.602238003631337e-9
          9.33775445393045e-9 8.589164129904438e-9 9.794069188186065e-9 6.953491229375141e-9 6.485052292404626e-9 1.25148580041081e-8
          1.1854376778660794e-8 9.533521317984917e-9 2.0093517165418754e-8 1.9398017739892403e-8 1.6202866524982464e-8 6.081486115885399e-9
          3.0665473397295236e-9 1.0661182682974552e-8 5.428024139594881e-9 2.646916948374056e-10 3.3257849194645845e-10 1.6015088541125778e-10
          3.4041997722392e-10 1.6079485554028484e-10 1.0320417827348947e-10 1.4333001307520386e-10 6.844589554775301e-10 2.7520242369250563e-10
          4.1481288948726676e-11 5.984963736085152e-11 3.540303634283441e-11 1.072944389221503e-10 1.2811530272695454e-9 4.953695418401146e-10
          2.2313729134960357e-9 8.396429930858994e-10 1.822636693623991e-10 9.282477913906175e-11 3.013977383579717e-10 3.7307925051220484e-8
          3.575091826407505e-8 2.987790859033827e-8 2.933608324011787e-8 3.06697067452033e-8 2.5234611056967478e-8 4.644558781037573e-8
          4.716608514910805e-8 5.34727812955625e-8 4.334573274601721e-8 2.249078478405087e-8 1.7020769715140593e-8 1.2272577281464951e-8
          8.824566882938411e-9 3.1775851106939863e-8 3.8980887325343254e-8 1.740833143738576e-8 5.091769333411349e-9 3.6272155896753715e-9