<?xml version="1.0"?>
<VTKFile type="UnstructuredGrid" version="0.1" byte_order="LittleEndian" header_type="UInt32" compressor="vtkZLibDataCompressor">
  <UnstructuredGrid>
    <Piece NumberOfPoints="1097" NumberOfCells="728">
      <PointData>
        <DataArray type="Int32" Name="libmesh_node_id" format="ascii" RangeMin="1373" RangeMax="11227">
          1373 1379 1565 1583 1588 2193
          2194 2199 2210 2211 2212 2213
          2214 2215 2216 2217 2218 2219
          2248 2250 2252 2284 2286 2287
          2290 2292 2322 2323 2326 2327
          2329 2331 2352 2354 2356 2358
          2417 2418 2421 2422 2424 2426
          2666 2668 2707 3261 3269 3270
          3274 3291 3292 3295 3297 3299
          3300 3301 3302 3303 3304 3305
          3306 3307 3308 3400 3496 3498
          3502 3503 3504 3505 3506 3507
          3508 3511 3512 3515 3519 3520
          3521 3522 3523 3524 3525 3526
          3527 3528 3536 3537 3538 3539
          3540 3541 3542 3550 3551 3552
          3553 3554 3555 3556 3583 3584
          3591 3592 3593 3594 3595 3596
          3597 3598 3599 3600 3608 3609
          3610 3611 3612 3613 3614 3687
          3688 3689 3691 3692 3693 3694
          3696 3840 3842 3843 3844 3846
          3851 3852 3857 3858 3859 3860
          3861 3862 3863 3864 3865 3866
          3867 3868 3871 3872 3877 3879
          3880 3881 3883 3891 3892 3893
          3894 3895 3896 3897 4191 4192
          4193 4194 4195 4196 4197 4198
          4199 4200 4208 4210 4211 4212
          4213 4214 4215 4216 4217 4218
          4220 4222 4224 4370 4375 4392
          4398 4433 4434 4437 4438 4439
          4440 4441 4442 4443 4444 4469
          4470 4471 4472 4475 4476 4477
          4501 4503 4504 4505 4506 4507
          4508 4509 4511 4568 4569 4570
          4571 4572 4573 4574 4575 4576
          4577 4579 4585 6014 6038 6039
          6040 6041 6042 6043 6044 6045
          6046 6047 6048 6049 6052 6053
          6055 6057 6098 6099 6102 6104
          6118 6119 6122 6124 6126 6127
          6128 6129 6130 6131 6132 6133
          6134 6135 6136 6137 6138 6139
          6140 6141 6142 6143 6144 6145
          6146 6147 6148 6149 6150 6151
          6152 6153 6154 6155 6669 6715
          6717 6718 6719 6721 6724 6745
          7181 7183 7185 7195 7197 7199
          7229 7230 7231 7232 7233 7234
          7235 7236 7237 7238 7239 7240
          7241 7242 7243 7244 7245 7246
          7247 7248 7249 7250 7251 7252
          7253 7254 7255 7256 7257 7258
          7259 7260 7261 7262 7263 7265
          7267 7268 7269 7270 7271 7272
          7273 7274 7275 7276 7277 7279
          7281 7282 7283 7284 7285 7286
          7287 7300 7301 7304 7306 7320
          7321 7324 7326 7356 7357 7358
          7359 7360 7361 7362 7363 7364
          7365 7366 7367 7368 7369 7370
          7371 7372 7373 7374 7375 7376
          7377 7378 7379 7380 7381 7382
          7383 7384 7385 7386 7387 7388
          7389 7390 7391 7392 7393 7394
          7395 7396 7397 7398 7399 7401
          7403 7404 7405 7406 7407 7408
          7409 7410 7411 7412 7413 7415
          7417 7418 7419 7420 7421 7422
          7423 7481 7483 7485 7487 7488
          7489 7490 7491 7492 7493 7495
          7497 7499 7501 7502 7503 7504
          7505 7506 7507 7509 7511 7513
          7515 7516 7517 7518 7519 7520
          7521 7523 7525 7527 7529 7530
          7531 7532 7533 7534 7535 7593
          7595 7597 7599 7600 7601 7602
          7603 7604 7605 7607 7609 7611
          7613 7614 7615 7616 7617 7618
          7619 7621 7623 7625 7627 7628
          7629 7630 7631 7632 7633 7635
          7637 7639 7641 7642 7643 7644
          7645 7646 7647 7726 7727 7728
          7729 7730 7731 7732 7734 7736
          7737 7738 7739 7740 7741 7742
          7743 7744 7745 7809 7811 7813
          7815 7816 7817 7818 7819 7820
          7821 7824 7825 7828 7830 7832
          7833 7834 7835 7836 7837 7838
          7839 7840 7841 7843 7845 7847
          7849 7850 7851 7852 7853 7854
          7855 7857 7859 7861 7863 7864
          7865 7866 7867 7868 7869 8104
          8105 8106 8107 8108 8109 8110
          8111 8112 8113 8114 8115 8116
          8117 8118 8119 8120 8121 8123
          9151 9152 9153 9154 9155 9156
          9157 9158 9160 9162 9164 9165
          9166 9167 9168 9169 9170 9171
          9172 9173 9174 9175 9176 9177
          9178 9179 9180 9181 9182 9183
          9184 9185 9186 9187 9188 9189
          9190 9191 9192 9194 9196 9198
          9199 9200 9201 9202 9203 9204
          9205 9206 9207 9208 9209 9210
          9211 9212 9233 9234 9235 9236
          9237 9238 9239 9240 9241 9242
          9267 9269 9271 9273 9281 9282
          9283 9284 9285 9286 9287 9288
          9289 9290 9291 9292 9293 9294
          9295 9296 9297 9298 9299 9300
          9301 9302 9303 9304 9305 9306
          9307 9308 9309 9310 9311 9312
          9313 9314 9315 9316 9317 9318
          9319 9320 9321 9322 9323 9324
          9325 9326 9327 9328 9329 9330
          9331 9332 9333 9334 9335 9336
          9337 9338 9339 9340 9341 9342
          9343 9344 9345 9346 9347 9348
          9349 9350 9351 9362 9364 9366
          9368 9376 9377 9380 9381 9383
          9385 9396 9397 9398 9399 9400
          9401 9402 9403 9405 9407 9409
          9410 9411 9412 9413 9414 9415
          9416 9417 9418 9419 9420 9421
          9422 9423 9424 9425 9426 9427
          9428 9429 9430 9431 9433 9435
          9437 9438 9439 9440 9441 9442
          9443 9444 9445 9446 9447 9448
          9449 9450 9451 9466 9468 9470
          9472 9494 9496 9498 9500 9508
          9509 9510 9511 9512 9513 9514
          9515 9516 9517 9518 9519 9520
          9521 9522 9523 9524 9525 9526
          9527 9528 9529 9530 9531 9532
          9533 9534 9535 9536 9537 9538
          9539 9540 9541 9542 9543 9544
          9545 9546 9547 9548 9549 9550
          9551 9552 9553 9554 9555 9556
          9557 9558 9559 9560 9561 9562
          9563 9564 9566 9568 9570 9578
          9580 9582 9584 9592 9594 9596
          9598 9606 9608 9610 9612 11095
          11096 11097 11098 11099 11100 11101
          11102 11103 11104 11105 11106 11107
          11108 11109 11110 11111 11112 11113
          11114 11116 11120 11122 11124 11125
          11126 11127 11128 11129 11130 11131
          11132 11133 11134 11135 11136 11137
          11138 11139 11140 11141 11142 11143
          11144 11145 11146 11147 11148 11149
          11150 11151 11152 11153 11154 11155
          11156 11157 11158 11159 11160 11161
          11162 11163 11164 11165 11166 11167
          11168 11169 11170 11171 11172 11173
          11174 11175 11176 11177 11178 11179
          11180 11181 11182 11183 11184 11185
          11186 11187 11189 11191 11193 11204
          11206 11207 11208 11210 11218 11219
          11220 11221 11222 11223 11224 11225
          11226 11227 1560 2195 2301 2302
          3265 3267 3266 3268 3271 3647
          3648 3649 3690 3695 4497 3847
          6032 6024 6033 6050 6034 6051
          6054 3272 6037 3273 6056 1562
          6716 6720 3406 6704 6710 6722
          6711 6723 6725 6726 6728 6727
          3407 6746 6752 6753 3410 6756
          2235 6966 6972 6973 3440 6976
          3441 6994 7000 7001 3444 7004
          1568 7990 7991 7992 7995 3652
          8000 8001 8002 8005 2307 8122
          8276 8277 8280 3719 8283 8284
          9159 9161 8287 3720 9163 3841
          8304 8305 8308 3723 8311 8312
          9193 9195 8315 2336 9197 3845
          9217 9218 9219 9222 3848 9255
          9259 8524 8525 8528 3753 8531
          8532 9404 9406 8535 3754 9408
          3878 8552 8553 8556 3757 8559
          8560 9432 9434 8563 2341 9436
          3882 9454 9458 9482 9486
        </DataArray>
        <DataArray type="Float64" Name="bounds" format="ascii" RangeMin="0" RangeMax="0">
          0 0 0 0 0 0
          0 0 0 0 0 0
          0 0 0 0 0 0
          0 0 0 0 0 0
          0 0 0 0 0 0
          0 0 0 0 0 0
          0 0 0 0 0 0
          0 0 0 0 0 0
          0 0 0 0 0 0
          0 0 0 0 0 0
          0 0 0 0 0 0
          0 0 0 0 0 0
          0 0 0 0 0 0
          0 0 0 0 0 0
          0 0 0 0 0 0
          0 0 0 0 0 0
          0 0 0 0 0 0
          0 0 0 0 0 0
          0 0 0 0 0 0
          0 0 0 0 0 0
          0 0 0 0 0 0
          0 0 0 0 0 0
          0 0 0 0 0 0
          0 0 0 0 0 0
          0 0 0 0 0 0
          0 0 0 0 0 0
          0 0 0 0 0 0
          0 0 0 0 0 0
          0 0 0 0 0 0
          0 0 0 0 0 0
          0 0 0 0 0 0
          0 0 0 0 0 0
          0 0 0 0 0 0
          0 0 0 0 0 0
          0 0 0 0 0 0
          0 0 0 0 0 0
          0 0 0 0 0 0
          0 0 0 0 0 0
          0 0 0 0 0 0
          0 0 0 0 0 0
          0 0 0 0 0 0
          0 0 0 0 0 0
          0 0 0 0 0 0
          0 0 0 0 0 0
          0 0 0 0 0 0
          0 0 0 0 0 0
          0 0 0 0 0 0
          0 0 0 0 0 0
          0 0 0 0 0 0
          0 0 0 0 0 0
          0 0 0 0 0 0
          0 0 0 0 0 0
          0 0 0 0 0 0
          0 0 0 0 0 0
          0 0 0 0 0 0
          0 0 0 0 0 0
          0 0 0 0 0 0
          0 0 0 0 0 0
          0 0 0 0 0 0
          0 0 0 0 0 0
          0 0 0 0 0 0
          0 0 0 0 0 0
          0 0 0 0 0 0
          0 0 0 0 0 0
          0 0 0 0 0 0
          0 0 0 0 0 0
          0 0 0 0 0 0
          0 0 0 0 0 0
          0 0 0 0 0 0
          0 0 0 0 0 0
          0 0 0 0 0 0
          0 0 0 0 0 0
          0 0 0 0 0 0
          0 0 0 0 0 0
          0 0 0 0 0 0
          0 0 0 0 0 0
          0 0 0 0 0 0
          0 0 0 0 0 0
          0 0 0 0 0 0
          0 0 0 0 0 0
          0 0 0 0 0 0
          0 0 0 0 0 0
          0 0 0 0 0 0
          0 0 0 0 0 0
          0 0 0 0 0 0
          0 0 0 0 0 0
          0 0 0 0 0 0
          0 0 0 0 0 0
          0 0 0 0 0 0
          0 0 0 0 0 0
          0 0 0 0 0 0
          0 0 0 0 0 0
          0 0 0 0 0 0
          0 0 0 0 0 0
          0 0 0 0 0 0
          0 0 0 0 0 0
          0 0 0 0 0 0
          0 0 0 0 0 0
          0 0 0 0 0 0
          0 0 0 0 0 0
          0 0 0 0 0 0
          0 0 0 0 0 0
          0 0 0 0 0 0
          0 0 0 0 0 0
          0 0 0 0 0 0
          0 0 0 0 0 0
          0 0 0 0 0 0
          0 0 0 0 0 0
          0 0 0 0 0 0
          0 0 0 0 0 0
          0 0 0 0 0 0
          0 0 0 0 0 0
          0 0 0 0 0 0
          0 0 0 0 0 0
          0 0 0 0 0 0
          0 0 0 0 0 0
          0 0 0 0 0 0
          0 0 0 0 0 0
          0 0 0 0 0 0
          0 0 0 0 0 0
          0 0 0 0 0 0
          0 0 0 0 0 0
          0 0 0 0 0 0
          0 0 0 0 0 0
          0 0 0 0 0 0
          0 0 0 0 0 0
          0 0 0 0 0 0
          0 0 0 0 0 0
          0 0 0 0 0 0
          0 0 0 0 0 0
          0 0 0 0 0 0
          0 0 0 0 0 0
          0 0 0 0 0 0
          0 0 0 0 0 0
          0 0 0 0 0 0
          0 0 0 0 0 0
          0 0 0 0 0 0
          0 0 0 0 0 0
          0 0 0 0 0 0
          0 0 0 0 0 0
          0 0 0 0 0 0
          0 0 0 0 0 0
          0 0 0 0 0 0
          0 0 0 0 0 0
          0 0 0 0 0 0
          0 0 0 0 0 0
          0 0 0 0 0 0
          0 0 0 0 0 0
          0 0 0 0 0 0
          0 0 0 0 0 0
          0 0 0 0 0 0
          0 0 0 0 0 0
          0 0 0 0 0 0
          0 0 0 0 0 0
          0 0 0 0 0 0
          0 0 0 0 0 0
          0 0 0 0 0 0
          0 0 0 0 0 0
          0 0 0 0 0 0
          0 0 0 0 0 0
          0 0 0 0 0 0
          0 0 0 0 0 0
          0 0 0 0 0 0
          0 0 0 0 0 0
          0 0 0 0 0 0
          0 0 0 0 0 0
          0 0 0 0 0 0
          0 0 0 0 0 0
          0 0 0 0 0 0
          0 0 0 0 0 0
          0 0 0 0 0 0
          0 0 0 0 0 0
          0 0 0 0 0 0
          0 0 0 0 0 0
          0 0 0 0 0 0
          0 0 0 0 0 0
          0 0 0 0 0 0
          0 0 0 0 0 0
          0 0 0 0 0 0
          0 0 0 0 0 0
          0 0 0 0 0 0
          0 0 0 0 0 0
          0 0 0 0 0
        </DataArray>
        <DataArray type="Float64" Name="gradient_error" format="ascii" RangeMin="2.2537548825829123e-12" RangeMax="2.464810391903453e-9">
          4.866092596587376e-11 6.810134140409634e-11 4.0336907617633e-11 5.74775432048648e-11 1.920803464493828e-11 3.215747688390546e-10
          2.342403984697699e-10 1.331131118031039e-10 1.7708054489118415e-10 1.199998285935389e-10 6.05656175741607e-11 4.1063982235488675e-11
          8.191859815762572e-11 1.1244319316725179e-10 3.841418668644351e-11 7.777625106504178e-11 5.3477891748213314e-11 1.1384468250485196e-10
          1.7890534510972952e-10 2.92856954852528e-11 5.058315818246306e-10 1.531901406323411e-10 5.338295404967425e-11 3.631796193627709e-11
          3.489930272172601e-11 2.026637612769589e-11 2.0495121838208095e-11 1.4059887286456934e-11 9.831773558583084e-12 1.345253194956583e-11
          1.82474819747628e-11 2.1209057293366708e-11 6.945300424213733e-11 1.0560691353853423e-11 2.1687844111251598e-10 2.6274580433014495e-11
          1.883640535277424e-11 1.4618837789839422e-11 1.5375638407070577e-11 1.2272445284717967e-11 6.884060323780388e-12 6.69694702064618e-12
          1.0397694460797107e-10 3.632090230928612e-11 1.2683858811978977e-11 9.606476200727795e-11 9.05708964019222e-11 5.958761292789504e-11
          8.649330494953563e-11 1.0026600286892427e-10 6.498119754299974e-11 7.606277496770673e-11 8.214555917018853e-11 6.019744240609346e-11
          5.479002015743889e-11 3.530261928641871e-11 4.788556052497808e-11 3.674335944744673e-11 6.127868253247637e-11 5.2514761194733894e-11
          6.562871647446384e-11 5.4276824258039193e-11 6.307338169085132e-11 4.63480346040362e-10 2.7371943091928594e-10 1.4482025776583e-10
          1.8538892958341236e-10 1.201839412429913e-10 9.623636893266261e-11 6.142513384843012e-11 5.534273039929754e-10 3.803170350776873e-10
          2.676026100453128e-10 7.443885882109078e-11 6.94148095012211e-11 5.131930685038461e-11 4.624416411825448e-11 4.5291740846231457e-11
          2.8325779706994417e-11 2.8451384815872023e-11 4.1883846007384764e-11 3.2585990994742524e-11 1.9971437230028097e-11 1.1574910520037307e-10
          7.553143193244258e-11 4.5889436836370673e-11 1.1857743229569899e-9 8.617857284851114e-10 5.570469599174097e-10 3.8895084721207517e-10
          1.475635348712835e-9 1.0943898036304146e-9 7.127896533920411e-10 2.2604206482047417e-10 1.5249585282116215e-10 8.293959778050958e-11
          5.4324770714661716e-11 2.875167095290414e-10 1.9647498475959699e-10 1.0290124287749791e-10 7.59234184642753e-11 6.648976662944481e-11
          4.690753656639799e-11 4.163857746408614e-11 2.837040273391305e-11 2.5257792149223974e-11 2.8806381059375186e-11 4.4671588353253205e-11
          2.7135389217274546e-11 2.9194063014377134e-11 1.8011332621473015e-11 3.522227826316826e-11 2.855897219326081e-11 1.8199766437961163e-11
          2.768020560226189e-11 1.7147684541101465e-11 3.442179031671917e-11 2.211755291798157e-11 3.26313564427946e-11 2.0631243881451323e-11
          2.8405654715369595e-11 1.1261079513248895e-11 1.3131163924611732e-11 3.1693822867571944e-11 1.8081966516374058e-11 3.243458177220607e-11
          3.2103543657391854e-11 7.450957022388898e-11 3.757976662733176e-11 2.2034527151358054e-11 2.4808971531120814e-10 1.141201624672507e-10
          1.0133174465191699e-11 1.2395556703768794e-11 2.135470222014558e-11 2.1097502258569896e-11 1.68610666287412e-11 1.6455488974840902e-11
          2.075564446671408e-11 1.6239545867224742e-11 1.3934238693624686e-11 4.7208862875229066e-11 2.826419041853355e-11 1.7957677259022844e-11
          9.459146003150809e-12 9.255074596871082e-12 1.0350983874400882e-11 9.37342998100281e-12 5.912689195427306e-10 2.5785087282662535e-10
          1.6231865033705374e-10 7.65449388395232e-10 3.402194153151044e-10 9.827089760784026e-11 6.046022815699041e-11 3.415611052004766e-11
          2.0579272515134066e-11 1.2808061916952564e-10 7.961669032887612e-11 4.321417910071256e-11 1.6516360987132538e-11 1.482568913034916e-11
          9.536350276766809e-12 8.514766553787951e-12 1.0254162499249772e-11 1.607815739974859e-11 9.222397617843201e-12 1.0769088283870656e-11
          8.036614412971907e-12 1.2765309920797192e-11 7.966854713243179e-12 8.11677039651115e-12 1.1153122267688148e-11 8.223162214021526e-12
          1.0221647962233925e-11 7.797676838632816e-12 1.3670989723743873e-11 8.111594628406487e-12 1.2130554113528485e-11 7.964699313186357e-12
          7.784152624740899e-12 7.476845394631568e-12 6.828568173821473e-12 1.608237749283308e-11 1.7279604627869426e-11 5.590329601549165e-12
          6.220139031790947e-12 3.9946872384400956e-11 7.932580698774471e-11 5.7011576831541235e-11 2.355868174167448e-11 4.850945119148041e-11
          1.4338121659046028e-11 2.960270282574536e-11 1.9360577909151638e-11 3.45510494521493e-11 2.0681015136882162e-11 2.665403482301895e-11
          3.048917512644742e-11 1.6380730981449826e-11 1.8752623061437113e-11 1.0593580976755448e-11 3.43243154298759e-11 2.1124515141424397e-11
          1.009975567110865e-11 8.749381751451783e-12 1.7676719222937673e-11 5.1746123830674005e-12 1.0161909321915615e-11 6.933849128872769e-12
          1.1824058699649542e-11 6.759237911026288e-12 5.655644963215558e-12 9.664248766353129e-12 1.1126974185214256e-11 5.5191096902035535e-12
          6.335809038650787e-12 6.2911650967246545e-12 6.271839562054991e-12 3.696908862200015e-12 1.2589699604075383e-11 7.15250838709802e-12
          6.2525140273853295e-12 3.449826858416442e-12 3.870196056590519e-12 6.790563513168878e-11 4.3282907369289856e-11 6.597995190633026e-11
          3.423820037935182e-11 5.249084380784901e-11 3.6080850782260485e-11 5.440013919302359e-11 4.32334064236907e-11 1.323079412868744e-10
          1.0643896718312565e-10 1.0782158288178883e-10 2.6715415950357598e-11 4.1310427693120664e-11 2.232299136820721e-11 3.3966420579429e-11
          8.476589717227643e-11 6.87009953997468e-11 3.69327360853201e-11 5.473562362649374e-11 4.3066901725837734e-11 1.0599896396224516e-10
          2.401400797073334e-11 3.2850752965945876e-11 2.8097454144067723e-11 6.1725456996886e-11 2.9836295835962186e-11 4.373128756099952e-11
          2.4160442571139333e-11 3.456660932705599e-11 2.4546511069840094e-11 3.4163765789890816e-11 2.888115904675229e-11 8.560914841850386e-11
          6.833061987232362e-11 6.589839346705016e-11 1.9155747647723196e-11 2.7041340887921004e-11 1.486384699437418e-11 2.101020974642623e-11
          1.8007855700734786e-11 2.3631964982368784e-11 1.836099700793999e-11 5.389083289163543e-11 4.216269018907975e-11 4.721227877210743e-11
          2.000001366499789e-11 2.6066429261866984e-11 1.8579248577113287e-11 2.3034354271793012e-11 1.7950021491237976e-11 2.246158246816781e-11
          2.0096377322343815e-11 4.9244546036268196e-11 4.463988604103577e-11 4.123594071392453e-11 2.528273209749895e-10 2.575889219420072e-10
          2.0780771042221176e-10 1.689986329690313e-10 4.849114128187868e-10 3.873821820173951e-10 1.359503136532773e-10 6.923340599628536e-10
          1.9923326890777674e-10 1.5287533828544114e-10 3.612897866753958e-10 1.1448445164208373e-10 8.33907514956288e-11 2.0171345430124159e-10
          1.6338208024571082e-10 1.3262968541987572e-10 1.2510765618850077e-10 1.0135764914606183e-10 3.004726075061725e-10 2.47104467471667e-10
          2.264864291563494e-10 1.0633290654613767e-10 8.428070654308215e-11 8.090233641145435e-11 6.382725340060092e-11 2.0090582326148803e-10
          1.6146874084999605e-10 1.5010276179506035e-10 9.325818710154572e-11 7.516373488271966e-11 6.757707381314439e-11 5.4226747746930315e-11
          1.6606769077184045e-10 1.3532442828983672e-10 1.186314394244093e-10 4.1752602216085465e-11 5.972604660386873e-11 3.240931604648555e-11
          4.6960757087843126e-11 3.0253153620910386e-11 4.298027015393876e-11 3.372872058422206e-11 1.0911547399834153e-10 8.703444824656479e-11
          7.728302112247485e-11 5.314504931430106e-10 4.4444688255223384e-10 3.9531679612719476e-10 3.2854986590335297e-10 7.577979552949596e-10
          3.6710811065143683e-10 2.994416899478769e-10 2.698256291990654e-10 2.189455711859166e-10 6.371028964417372e-10 5.284746676388202e-10
          4.6175673928463717e-10 2.853486864235416e-10 2.357117670929745e-10 2.0025770824861847e-10 1.6445706474115027e-10 3.908540914256919e-10
          1.925089346415545e-10 1.5542568895932767e-10 1.336063712752658e-10 1.0736096722716639e-10 3.2370981555178925e-10 2.648139974249347e-10
          2.2008717721836974e-10 4.2712482450804876e-11 5.916224196458537e-11 4.1218261617472916e-11 1.0145253150236579e-10 2.137702786255548e-11
          2.8148691112240992e-11 2.2766095199039182e-11 4.632922153090992e-11 3.4248786533143866e-11 4.772343206680245e-11 2.726764869467267e-11
          3.8177941370370596e-11 2.4056025159670074e-11 3.309569027849771e-11 2.6356894680879004e-11 8.269837233891705e-11 6.679310344861206e-11
          5.631435391738314e-11 2.142405985710941e-11 3.0215991912991657e-11 1.6725617255198208e-11 2.3699853423549847e-11 1.498785913429277e-11
          2.083059760933297e-11 1.632018114165557e-11 5.342855802298803e-11 4.231583643500063e-11 3.608488639497035e-11 1.687564113672835e-11
          2.2453933200863996e-11 1.3146131881973978e-11 1.7718814176373882e-11 1.4162053197619942e-11 1.805431517114623e-11 1.4129422023781649e-11
          3.741684464856454e-11 2.996600388033401e-11 2.724254543241805e-11 1.0397239630537164e-11 1.3993535402982533e-11 8.235634346121049e-12
          1.098477054342139e-11 8.661604227457951e-12 1.1165859920005848e-11 8.812343690591634e-12 2.3771813620109606e-11 1.8675926343761232e-11
          1.720862988724177e-11 1.3695213666140314e-10 1.1184006304168607e-10 9.147594411490493e-11 7.429801207258084e-11 1.7817309452964592e-10
          9.040257144078619e-11 7.232731243169805e-11 5.976195842992186e-11 4.760227390596753e-11 1.4558267027470015e-10 1.176435188002009e-10
          9.399584122660088e-11 5.983800302958941e-11 4.83626390668272e-11 3.810617172853586e-11 3.0667041407081675e-11 7.357297286183552e-11
          3.870482227416444e-11 3.068133005426637e-11 2.4411416811200646e-11 1.9257923961066822e-11 5.939567461089496e-11 4.747050533669044e-11
          3.683685755464012e-11 1.1858720134643563e-9 8.613146526898365e-10 1.6217818022917621e-9 1.0144665572433467e-9 8.558095629151595e-10
          7.30059095099358e-10 6.104178282264782e-10 1.406566048449119e-9 1.2029341103268195e-9 1.0179985291018984e-9 6.021776711300754e-10
          4.063042356928171e-10 8.297720996248401e-10 5.05739269727784e-10 4.192304766107854e-10 3.382629485790611e-10 2.7815476259262136e-10
          7.049310917829269e-10 5.907913426891728e-10 4.684823253402766e-10 1.889251421829198e-9 1.406769105017492e-9 1.959343092752875e-9
          1.6520051633869058e-9 1.4247072521874122e-9 1.2170576675661469e-9 1.0381740201526788e-9 1.7178212076958135e-9 1.4855545776761083e-9
          1.2797830151626975e-9 9.956410210718955e-10 6.715834431589697e-10 1.0522720505962752e-9 8.518070317626264e-10 7.187356686268863e-10
          5.683605440850861e-10 4.746969706804281e-10 9.022972005894668e-10 7.630162898018545e-10 6.044620672035508e-10 2.656073439859549e-10
          1.6899394787887143e-10 3.6040517899165213e-10 2.1934022408798057e-10 1.79034054214712e-10 1.385144766410765e-10 1.1228950925208642e-10
          3.0027630616816793e-10 2.471668147164067e-10 1.8672015789782402e-10 1.0512751342331995e-10 6.418418336945226e-11 1.3827059782313534e-10
          8.556460668243849e-11 6.891928386269276e-11 5.189320318127019e-11 4.154234965814393e-11 1.1331629375482771e-10 9.187596875965004e-11
          6.746503330233885e-11 4.3405750735486383e-10 2.7070646479687945e-10 4.613553088712577e-10 3.636580291078255e-10 3.009189607425409e-10
          2.2472352641606092e-10 1.843963353603378e-10 3.8723450431034625e-10 3.2098240446658676e-10 2.390714880197013e-10 1.6413842273282773e-10
          9.742286948198843e-11 1.7392949778611378e-10 1.3511171930030356e-10 1.1001169330731192e-10 7.955972434333173e-11 6.430620384106905e-11
          1.4338456371757626e-10 1.169137203090604e-10 8.414701993306139e-11 1.8925938641941845e-11 2.3839782157696712e-11 1.515631485232869e-11
          1.9129660585105696e-11 1.5247948390528443e-11 1.847207451604185e-11 1.4817549791673262e-11 2.8134426245433764e-11 1.1897643818643274e-11
          1.512064842371868e-11 9.269273187917296e-12 1.184467207055739e-11 9.526323719001517e-12 1.164563920265355e-11 9.062339289793199e-12
          2.2440975181710212e-11 1.7726121148722298e-11 1.4880921765775625e-11 3.8585025341408494e-11 2.2645540956088508e-11 4.896874002544227e-11
          3.099269612632271e-11 2.465767374594885e-11 1.807690771417616e-11 1.4304212760248666e-11 3.954984587057349e-11 3.1636450183415345e-11
          2.290572320875046e-11 1.1544468038250364e-11 1.326340822621601e-11 1.0059463681339554e-11 1.6412259345757858e-11 9.180209275555886e-12
          1.0546756418516658e-11 7.273489005924963e-12 8.332099722458027e-12 7.424285234017516e-12 7.995298291863918e-12 6.323659001143573e-12
          1.306988403771262e-11 1.0313504630704925e-11 9.396908138959811e-12 5.691137081575031e-11 3.282602587139393e-11 5.988946609044825e-11
          4.6124836895452796e-11 3.701895944848597e-11 2.6409614242744057e-11 2.104902949431188e-11 4.859707696777771e-11 3.904819467779184e-11
          2.7722692190828854e-11 1.8693707298924588e-11 1.348965242883996e-11 1.9545244320515124e-11 1.4926186675911172e-11 1.1809072213208667e-11
          1.0714401932655794e-11 8.431869094777057e-12 1.5625908837874538e-11 1.2381845603998571e-11 1.1201298937102287e-11 1.1469204143982752e-11
          1.6218218490625154e-11 8.84494267745871e-12 1.2397081344704029e-11 1.08541103810476e-11 1.4186335507604453e-11 1.0851227369577605e-11
          3.274098345532004e-11 2.5171495312539637e-11 2.847448384694579e-11 6.9959196103637605e-12 9.30592488880625e-12 6.3209935151052265e-12
          7.953139663686725e-12 6.497960722400895e-12 8.174519522294748e-12 7.0617905498854596e-12 1.9051512811622045e-11 1.6630088506007155e-11
          6.615093291174452e-11 5.142244915374433e-11 4.9935905201047837e-11 3.872018747485029e-11 1.282827561774254e-10 1.0075586544571443e-10
          9.515714614661447e-11 3.963054563724024e-11 2.972923872848372e-11 7.822102006448618e-11 5.769410978604776e-11 2.5066087094592653e-11
          3.663076560714124e-11 1.926435811134844e-11 2.8320934041832852e-11 1.8167006716536046e-11 2.625648280106781e-11 2.025271604069444e-11
          6.867479054781328e-11 5.360695713823057e-11 4.8304170245665456e-11 1.4660404948652704e-11 2.1675102280182536e-11 1.1057245587512427e-11
          1.642121878352797e-11 1.0579719280237059e-11 1.5451021321076352e-11 1.167363792029922e-11 4.1395383527532695e-11 3.161928114216573e-11
          2.8928599384800456e-11 2.411839059113002e-10 1.9182649893130464e-10 1.7552630361919678e-10 1.3903038457943914e-10 4.324211308364572e-10
          3.490018700458013e-10 3.0917941925501003e-10 1.5067414619750393e-10 1.0881079807581893e-10 2.778521990416956e-10 1.9650761788956537e-10
          1.240420848061755e-10 9.785677604938771e-11 8.531714357742847e-11 6.70413627308323e-11 2.1396577333561628e-10 1.7075517396395522e-10
          1.437305546920749e-10 7.631443362060037e-11 5.88373767850252e-11 5.2094004044802767e-11 4.0032680183254225e-11 1.3460495295164909e-10
          1.0482096948369728e-10 8.955032263309736e-11 8.214501921726215e-12 1.2293592073065004e-11 6.050536200913341e-12 9.113532426989121e-12
          5.929341349976032e-12 8.737309390725575e-12 6.482261909623247e-12 2.3894630103536244e-11 1.7864593966267622e-11 1.6612308142700626e-11
          4.4849940488645667e-11 3.0428198305843923e-11 8.064538757811488e-11 5.3243400909010585e-11 1.30288136751886e-11 1.843783159273403e-11
          1.0065671233441763e-11 1.4157305271087121e-11 9.24064491019154e-12 1.2575270867664838e-11 1.0549138476281947e-11 3.321819630186424e-11
          2.5765179888295477e-11 2.2160095675028146e-11 7.63655635906942e-12 1.0717501880204306e-11 5.7242290718967495e-12 8.054178806095603e-12
          6.475138417024269e-12 8.682277630372672e-12 6.4956757729185785e-12 1.9698495811948464e-11 1.491223832551381e-11 1.485272460715105e-11
          6.456638319036241e-12 8.439578172257956e-12 5.717629214455235e-12 7.293128338143564e-12 5.404940307035262e-12 6.8799534579585886e-12
          6.072670243414028e-12 1.4465272433735746e-11 1.2471643494926591e-11 1.0565557758927028e-11 5.730514486207009e-11 4.491731593128739e-11
          3.75868130034298e-11 2.933596662823466e-11 9.40008251356854e-11 7.426368155783158e-11 6.003863627105846e-11 3.4764666643593605e-11
          2.6598329768795473e-11 2.257088607267723e-11 1.7185248535702687e-11 5.8017516681974094e-11 4.481958594321337e-11 3.672628563940392e-11
          2.410800734230053e-11 1.8708716617071568e-11 1.509006834987422e-11 1.1707174088212572e-11 3.7546854784763956e-11 2.9390455769807306e-11
          2.304962155057308e-11 1.0801199257881186e-11 1.4322620082013664e-11 8.12109383472546e-12 1.0866213961659596e-11 6.8843528774502215e-12
          8.949286212284156e-12 6.76196576226816e-12 2.276618198324336e-11 1.7452076998595275e-11 1.3848524541337615e-11 4.267170916697896e-12
          6.017806962554834e-12 3.160237782430536e-12 4.4622620300803975e-12 3.6180013433805252e-12 4.84781257230977e-12 3.5957333974203722e-12
          1.1203761645922963e-11 8.345017284391848e-12 8.378783974335056e-12 2.0147332537444448e-11 1.297532160090807e-11 3.423658851201482e-11
          2.1512951857336134e-11 6.104918301152502e-12 8.19906595381159e-12 3.883756874747888e-12 5.048195322116936e-12 1.3265552473772035e-11
          7.94583147176041e-12 7.116230374736849e-10 5.830945735923936e-10 5.033389070154268e-10 4.092782636998048e-10 1.0136996629600072e-9
          8.412790156415313e-10 7.190785361452173e-10 4.707795415995537e-10 3.281875509528086e-10 6.874372684682738e-10 4.790832754702698e-10