<?xml version="1.0"?>
<VTKFile type="UnstructuredGrid" version="0.1" byte_order="LittleEndian" header_type="UInt32" compressor="vtkZLibDataCompressor">
  <UnstructuredGrid>
    <Piece NumberOfPoints="1164" NumberOfCells="719">
      <PointData>
        <DataArray type="Int32" Name="libmesh_node_id" format="ascii" RangeMin="1261" RangeMax="7034">
          1261 1358 1359 1365 1369 1377
          1508 1510 1513 1534 1535 1538
          1540 1542 1543 1544 1545 1546
          1547 1548 1549 1550 1552 1553
          1554 1555 1570 1571 1575 1577
          1579 1711 1712 1715 1718 1719
          1721 1722 1724 1979 1980 1981
          1984 2004 2005 2008 2010 2040
          2042 2082 2083 2086 2088 2090
          2091 2092 2093 2094 2095 2096
          2097 2098 2099 2100 2101 2102
          2103 2104 2105 2106 2107 2108
          2109 2110 2111 2112 2113 2114
          2115 2116 2117 2118 2119 2120
          2121 2122 2123 2124 2125 2126
          2127 2128 2129 2130 2131 2132
          2133 2135 2137 2138 2139 2140
          2141 2142 2143 2144 2145 2146
          2147 2148 2149 2150 2151 2152
          2153 2154 2155 2156 2157 2158
          2159 2160 2161 2162 2163 2164
          2165 2167 2169 2171 2179 2180
          2185 2200 2201 2254 2255 2256
          2257 2258 2259 2260 2261 2262
          2263 2264 2265 2268 2269 2271
          2273 2987 2989 2990 2991 2992
          2994 2996 2997 2998 2999 3000
          3001 3002 3003 3004 3005 3006
          3007 3008 3009 3010 3011 3012
          3015 3016 3018 3021 3023 3024
          3025 3026 3027 3028 3029 3030
          3031 3032 3034 3036 3038 3040
          3041 3042 3043 3044 3045 3046
          3049 3050 3052 3055 3057 3058
          3059 3060 3061 3062 3063 3064
          3065 3066 3068 3070 3072 3074
          3075 3076 3077 3078 3079 3080
          3081 3082 3083 3084 3085 3086
          3087 3088 3089 3090 3091 3092
          3093 3094 3095 3096 3097 3098
          3099 3100 3101 3102 3103 3104
          3105 3106 3107 3108 3109 3110
          3111 3112 3113 3114 3115 3116
          3117 3118 3119 3120 3121 3122
          3123 3124 3125 3126 3127 3128
          3129 3130 3131 3132 3133 3134
          3135 3136 3137 3138 3139 3140
          3141 3142 3143 3144 3145 3146
          3147 3148 3150 3152 3153 3154
          3156 3158 3160 3162 3163 3164
          3165 3166 3167 3168 3169 3170
          3171 3172 3173 3174 3175 3176
          3177 3178 3179 3180 3181 3182
          3183 3184 3185 3186 3187 3188
          3193 3194 3196 3213 3214 3216
          3221 3222 3226 3275 3276 3277
          3279 3280 3283 3284 3309 3310
          3315 3316 3331 3343 3344 3349
          3350 4421 4422 4423 4424 4428
          5198 5209 5210 5212 5215 5221
          5223 5224 5225 5226 5227 5228
          5229 5230 5231 5232 5233 5234
          5235 5236 5237 5238 5239 5240
          5241 5242 5243 5244 5245 5246
          5247 5248 5249 5250 5251 5252
          5253 5254 5255 5256 5261 5263
          5264 5265 5266 5267 5268 5269
          5270 5271 5272 5273 5274 5275
          5288 5289 5291 5294 5304 5306
          5308 5322 5323 5325 5328 5338
          5340 5342 5344 5345 5346 5347
          5348 5349 5350 5351 5352 5353
          5354 5355 5356 5357 5358 5359
          5360 5361 5362 5363 5364 5365
          5366 5367 5368 5369 5370 5371
          5372 5373 5374 5375 5376 5377
          5378 5379 5380 5381 5382 5383
          5384 5385 5386 5387 5388 5389
          5390 5391 5392 5393 5394 5395
          5396 5397 5398 5399 5400 5401
          5402 5403 5404 5405 5406 5407
          5408 5409 5410 5411 5420 5422
          5424 5429 5430 5432 5442 5444
          5446 5456 5458 5460 5462 5463
          5464 5465 5466 5467 5468 5469
          5470 5471 5472 5473 5474 5475
          5476 5477 5478 5479 5480 5481
          5482 5483 5484 5485 5486 5487
          5488 5489 5490 5491 5492 5493
          5494 5495 5496 5497 5498 5499
          5500 5501 5502 5503 5504 5505
          5506 5507 5508 5509 5510 5511
          5512 5513 5514 5515 5516 5517
          5518 5519 5520 5521 5522 5523
          5524 5525 5526 5527 5528 5529
          5530 5531 5532 5533 5534 5535
          5536 5537 5538 5539 5540 5541
          5542 5543 5544 5545 5546 5547
          5548 5549 5550 5551 5552 5553
          5554 5555 5556 5557 5558 5559
          5560 5561 5562 5563 5564 5565
          5566 5567 5568 5569 5570 5571
          5572 5573 5574 5575 5576 5577
          5578 5579 5580 5581 5582 5583
          5584 5585 5586 5587 5588 5589
          5590 5591 5592 5593 5594 5595
          5596 5597 5598 5599 5600 5601
          5602 5603 5604 5605 5606 5607
          5608 5609 5610 5611 5612 5613
          5614 5615 5616 5617 5618 5619
          5620 5621 5622 5623 5624 5625
          5626 5627 5628 5629 5630 5631
          5632 5633 5634 5635 5636 5637
          5638 5639 5640 5641 5642 5643
          5644 5645 5646 5647 5648 5649
          5650 5651 5652 5653 5654 5655
          5656 5657 5658 5659 5660 5661
          5662 5663 5664 5665 5666 5667
          5668 5669 5670 5671 5672 5673
          5674 5675 5676 5677 5678 5679
          5680 5681 5682 5683 5684 5685
          5686 5687 5688 5689 5690 5691
          5692 5693 5694 5695 5696 5697
          5698 5699 5700 5701 5702 5703
          5704 5705 5706 5707 5708 5709
          5710 5711 5712 5713 5714 5715
          5716 5717 5718 5719 5720 5721
          5722 5723 5724 5725 5726 5727
          5728 5729 5730 5731 5732 5733
          5734 5735 5736 5737 5738 5739
          5740 5741 5742 5743 5744 5745
          5746 5747 5748 5749 5750 5751
          5752 5753 5754 5755 5756 5757
          5758 5759 5760 5761 5762 5763
          5764 5765 5766 5767 5768 5769
          5770 5771 5772 5773 5774 5775
          5776 5777 5778 5779 5780 5781
          5782 5783 5784 5785 5786 5787
          5788 5789 5790 5791 5792 5793
          5794 5795 5796 5797 5798 5799
          5800 5801 5802 5803 5804 5805
          5806 5807 5808 5809 5810 5811
          5812 5813 5814 5815 5816 5817
          5818 5819 5820 5868 5869 5870
          5871 5872 5873 5876 5877 5879
          5881 6058 6059 6060 6061 6062
          6063 6066 6067 6069 6072 6073
          6074 6076 6077 6080 6081 6156
          6157 6158 6159 6160 6161 6163
          6164 6165 6166 6167 6223 6225
          6239 6240 6242 6244 6271 6272
          6273 6274 6275 6276 6277 6278
          6279 6280 6281 6282 6285 6287
          6288 6290 6291 6292 6293 6295
          6296 6297 6298 6302 6305 6306
          6307 6308 6309 6310 6311 6312
          6313 6314 6315 6316 6319 6321
          6322 6324 6325 6326 6327 6329
          6330 6331 6332 6336 6407 6409
          6411 6413 6421 6423 6427 6429
          6431 6433 6441 6443 6445 6447
          7005 7007 7008 7025 1370 1572
          1551 1573 1576 1578 1380 1725
          1728 1729 1556 1557 1734 1563
          2134 2136 2166 2168 2170 1378
          2172 2173 2174 2175 2176 2178
          2181 2182 2183 2202 2203 2204
          2205 2206 2207 2209 2224 2240
          2266 2267 2270 2272 3211 3217
          3212 3218 3219 3220 3223 3215
          3224 3281 3282 3285 3286 3278
          3288 3195 3311 3312 3313 3314
          2220 3317 3318 2221 3329 3330
          3332 3333 3335 3334 3336 3338
          3363 3365 3450 3445 3342 3454
          3448 3447 3471 3449 3473 3369
          3475 3477 4425 4426 4427 4429
          4430 3461 3457 2208 3463 3465
          5862 5856 5863 5874 5864 5875
          5878 5867 3225 5880 1559 6064
          6065 6068 6070 6071 3287 6078
          6079 6082 6083 6075 6084 6085
          6230 6234 6235 6243 6245 6238
          6246 6241 3337 6247 6248 3339
          6162 6283 6284 6286 3345 6289
          3346 6294 3347 6168 6299 6169
          6300 6301 6303 6304 3348 6317
          6318 6320 2226 6323 3351 6328
          3352 6333 6334 6335 6337 6338
          2227 6224 6408 6410 6412 6428
          6430 6432 3367 6422 6442 6444
          6446 7009 7010 7006 7011 7012
          7013 7014 3451 6262 6266 7028
          7030 7026 6270 7032 7027 7034
        </DataArray>
        <DataArray type="Float64" Name="bounds" format="ascii" RangeMin="0" RangeMax="0">
          0 0 0 0 0 0
          0 0 0 0 0 0
          0 0 0 0 0 0
          0 0 0 0 0 0
          0 0 0 0 0 0
          0 0 0 0 0 0
          0 0 0 0 0 0
          0 0 0 0 0 0
          0 0 0 0 0 0
          0 0 0 0 0 0
          0 0 0 0 0 0
          0 0 0 0 0 0
          0 0 0 0 0 0
          0 0 0 0 0 0
          0 0 0 0 0 0
          0 0 0 0 0 0
          0 0 0 0 0 0
          0 0 0 0 0 0
          0 0 0 0 0 0
          0 0 0 0 0 0
          0 0 0 0 0 0
          0 0 0 0 0 0
          0 0 0 0 0 0
          0 0 0 0 0 0
          0 0 0 0 0 0
          0 0 0 0 0 0
          0 0 0 0 0 0
          0 0 0 0 0 0
          0 0 0 0 0 0
          0 0 0 0 0 0
          0 0 0 0 0 0
          0 0 0 0 0 0
          0 0 0 0 0 0
          0 0 0 0 0 0
          0 0 0 0 0 0
          0 0 0 0 0 0
          0 0 0 0 0 0
          0 0 0 0 0 0
          0 0 0 0 0 0
          0 0 0 0 0 0
          0 0 0 0 0 0
          0 0 0 0 0 0
          0 0 0 0 0 0
          0 0 0 0 0 0
          0 0 0 0 0 0
          0 0 0 0 0 0
          0 0 0 0 0 0
          0 0 0 0 0 0
          0 0 0 0 0 0
          0 0 0 0 0 0
          0 0 0 0 0 0
          0 0 0 0 0 0
          0 0 0 0 0 0
          0 0 0 0 0 0
          0 0 0 0 0 0
          0 0 0 0 0 0
          0 0 0 0 0 0
          0 0 0 0 0 0
          0 0 0 0 0 0
          0 0 0 0 0 0
          0 0 0 0 0 0
          0 0 0 0 0 0
          0 0 0 0 0 0
          0 0 0 0 0 0
          0 0 0 0 0 0
          0 0 0 0 0 0
          0 0 0 0 0 0
          0 0 0 0 0 0
          0 0 0 0 0 0
          0 0 0 0 0 0
          0 0 0 0 0 0
          0 0 0 0 0 0
          0 0 0 0 0 0
          0 0 0 0 0 0
          0 0 0 0 0 0
          0 0 0 0 0 0
          0 0 0 0 0 0
          0 0 0 0 0 0
          0 0 0 0 0 0
          0 0 0 0 0 0
          0 0 0 0 0 0
          0 0 0 0 0 0
          0 0 0 0 0 0
          0 0 0 0 0 0
          0 0 0 0 0 0
          0 0 0 0 0 0
          0 0 0 0 0 0
          0 0 0 0 0 0
          0 0 0 0 0 0
          0 0 0 0 0 0
          0 0 0 0 0 0
          0 0 0 0 0 0
          0 0 0 0 0 0
          0 0 0 0 0 0
          0 0 0 0 0 0
          0 0 0 0 0 0
          0 0 0 0 0 0
          0 0 0 0 0 0
          0 0 0 0 0 0
          0 0 0 0 0 0
          0 0 0 0 0 0
          0 0 0 0 0 0
          0 0 0 0 0 0
          0 0 0 0 0 0
          0 0 0 0 0 0
          0 0 0 0 0 0
          0 0 0 0 0 0
          0 0 0 0 0 0
          0 0 0 0 0 0
          0 0 0 0 0 0
          0 0 0 0 0 0
          0 0 0 0 0 0
          0 0 0 0 0 0
          0 0 0 0 0 0
          0 0 0 0 0 0
          0 0 0 0 0 0
          0 0 0 0 0 0
          0 0 0 0 0 0
          0 0 0 0 0 0
          0 0 0 0 0 0
          0 0 0 0 0 0
          0 0 0 0 0 0
          0 0 0 0 0 0
          0 0 0 0 0 0
          0 0 0 0 0 0
          0 0 0 0 0 0
          0 0 0 0 0 0
          0 0 0 0 0 0
          0 0 0 0 0 0
          0 0 0 0 0 0
          0 0 0 0 0 0
          0 0 0 0 0 0
          0 0 0 0 0 0
          0 0 0 0 0 0
          0 0 0 0 0 0
          0 0 0 0 0 0
          0 0 0 0 0 0
          0 0 0 0 0 0
          0 0 0 0 0 0
          0 0 0 0 0 0
          0 0 0 0 0 0
          0 0 0 0 0 0
          0 0 0 0 0 0
          0 0 0 0 0 0
          0 0 0 0 0 0
          0 0 0 0 0 0
          0 0 0 0 0 0
          0 0 0 0 0 0
          0 0 0 0 0 0
          0 0 0 0 0 0
          0 0 0 0 0 0
          0 0 0 0 0 0
          0 0 0 0 0 0
          0 0 0 0 0 0
          0 0 0 0 0 0
          0 0 0 0 0 0
          0 0 0 0 0 0
          0 0 0 0 0 0
          0 0 0 0 0 0
          0 0 0 0 0 0
          0 0 0 0 0 0
          0 0 0 0 0 0
          0 0 0 0 0 0
          0 0 0 0 0 0
          0 0 0 0 0 0
          0 0 0 0 0 0
          0 0 0 0 0 0
          0 0 0 0 0 0
          0 0 0 0 0 0
          0 0 0 0 0 0
          0 0 0 0 0 0
          0 0 0 0 0 0
          0 0 0 0 0 0
          0 0 0 0 0 0
          0 0 0 0 0 0
          0 0 0 0 0 0
          0 0 0 0 0 0
          0 0 0 0 0 0
          0 0 0 0 0 0
          0 0 0 0 0 0
          0 0 0 0 0 0
          0 0 0 0 0 0
          0 0 0 0 0 0
          0 0 0 0 0 0
          0 0 0 0 0 0
          0 0 0 0 0 0
          0 0 0 0 0 0
          0 0 0 0 0 0
          0 0 0 0 0 0
          0 0 0 0 0 0
          0 0 0 0 0 0
          0 0 0 0 0 0
          0 0 0 0 0 0
          0 0 0 0 0 0
        </DataArray>
        <DataArray type="Float64" Name="gradient_error" format="ascii" RangeMin="6.226621235674681e-11" RangeMax="7.966299852135382e-8">
          8.175462965710248e-9 1.455252756505515e-8 1.6304507720353103e-8 7.2863512180974e-8 2.356588268397468e-9 2.6524702209000687e-9
          1.1130827330594104e-8 6.61730487198377e-8 4.2520029270917386e-8 1.4045142763220311e-8 1.9985097944223398e-8 5.4239381060211416e-9
          1.4463724780150762e-8 6.772863245099205e-9 5.2103473957185494e-9 4.694999358696697e-8 5.5941926011473374e-8 1.93020925856184e-9
          2.958862745541728e-8 3.703871420633148e-8 9.09777508355438e-9 2.9583818526468303e-8 1.8134202166696557e-9 1.9689241769113638e-8
          2.1599125749612092e-8 6.384780412299946e-8 8.017235083833652e-9 1.1101768355933534e-8 2.7453903807066544e-9 7.849880173015604e-9
          4.206844939935416e-9 5.791132922464131e-9 4.963401771257002e-9 2.5017214117964206e-9 2.4102933776560544e-9 2.1592778482049988e-9
          8.587870332151255e-10 8.001481430418632e-10 1.278133308044817e-9 1.6713857328097925e-8 5.322209060363876e-8 4.8682322536466976e-8
          3.68306393630307e-8 9.17892640770342e-9 2.2881502312806445e-8 1.624428036884668e-8 6.695405586804767e-8 7.966299852135382e-8
          6.04649802693093e-8 1.8473888192292782e-8 2.308057602050025e-8 1.1697304542125114e-8 2.7687263848707716e-8 1.3320575935379507e-8
          1.2166796270173654e-8 4.680959111269726e-8 4.250434938639686e-8 8.201905964470872e-9 3.8928017586669086e-8 3.508823385781208e-8
          9.475578608749721e-9 3.131427003334647e-8 2.5111297964829278e-8 5.284474909906303e-8 4.7661237834474114e-8 4.1894775531732354e-8
          6.226578009083198e-8 5.535581328161221e-9 5.0639500443080855e-9 3.023794037993848e-8 2.7054870621289364e-8 2.8465739491135085e-9
          2.1673295777193575e-8 1.9255411791943957e-8 4.049058125764175e-9 1.878644024295704e-8 1.2941589364690054e-8 3.8815315378028056e-8
          3.436057862408455e-8 2.5908670002968898e-8 4.721153443641124e-8 6.708389254229352e-9 1.870454311787459e-8 4.635621120593971e-9
          1.4394851571530792e-8 5.4786378959270604e-9 1.2979653829152702e-8 9.815557342358112e-9 6.23790115447951e-8 5.572659161942358e-8
          3.5636387116716134e-8 3.011208992105119e-9 1.0326677381411647e-8 1.8149543787583249e-9 6.81018973487299e-9 2.516620493136835e-9
          6.952275139549469e-9 4.700965764045635e-8 2.4034569940561202e-8 3.812200226989321e-9 1.792183999606581e-8 4.707415817449767e-9
          2.0135884556182746e-8 4.860022840807515e-8 4.464975113306265e-8 1.3831701172822675e-9 2.4302038171064393e-9 3.285758540996306e-9
          1.733782598717775e-8 2.398203953599092e-8 2.138861343431563e-8 2.4123990031897625e-8 2.081573202773904e-8 4.158839589984437e-8
          4.540577208095902e-8 2.2497508847643227e-9 4.164325012724629e-9 4.852168884566306e-9 2.140789378676093e-8 7.801084110062328e-8
          7.338317335794828e-8 5.638293346120432e-8 5.0522805555530796e-8 6.337742090114182e-8 6.135539452880261e-8 6.955162112852363e-8
          6.535380814435222e-8 4.316532807930571e-8 5.6628926435848274e-8 5.5972766140750663e-8 1.3164761827016442e-9 5.61790746687598e-9
          1.8134951911470917e-8 9.733773364034832e-10 2.9062054094454516e-9 1.526582471341747e-8 1.9422255010825192e-8 1.2036454329483702e-8
          1.5620934452894524e-8 7.958529193455176e-9 9.075325099812607e-9 6.684924701020464e-9 2.3578685308232918e-8 1.9205414576305344e-8
          1.0192121006170038e-8 8.974281037323264e-9 1.190330942385897e-8 3.998473362377729e-9 4.631700336728708e-9 1.4832337810394674e-8
          5.264927311079687e-9 2.4554628170589952e-8 2.5511222964515557e-8 2.4576074430775925e-8 2.409342812730584e-8 2.2334118226004316e-8
          1.9870349242639272e-8 1.964095543024222e-8 1.9102306216941165e-8 1.8254600305512097e-8 2.400533496181566e-8 2.3132160924019497e-8
          2.1845166653442503e-8 2.092378196238337e-8 2.1031946898581303e-8 2.0190211421511204e-8 1.811436955579712e-8 1.807754027508529e-8
          1.824358810004289e-8 1.7080287722830548e-8 1.689859916154238e-8 1.564803088829773e-8 1.3960202698215332e-8 1.4489457170865992e-8
          1.4784707940844949e-8 2.162202675197877e-8 2.7178560360603836e-8 1.1093311326557501e-8 1.4972583447136226e-8 2.2275287807979773e-8
          1.4877444904654965e-8 2.261258519937633e-8 2.8076130426192192e-8 2.8636733047699487e-8 4.2550421539690335e-9 1.197607016312654e-8
          1.282412729391374e-8 1.908972263456447e-8 2.3926406686628944e-8 2.1930025498515765e-8 1.9488316180466243e-8 2.4355055035976103e-8
          2.446885290040773e-8 2.209339838320623e-8 2.196826027681535e-8 1.6813805374661567e-8 1.7369731174928317e-8 1.953345336885334e-8
          2.831760428767836e-9 2.880815714293562e-9 2.976952396765976e-9 1.802289292480526e-9 3.406129723704875e-9 3.446311873355249e-9
          4.05113927964056e-9 4.066647708292979e-9 3.4832543991921445e-9 4.033830763437676e-9 1.5954995214087205e-9 2.105109836775597e-9
          2.4256338381486666e-9 2.846368469965041e-9 6.9937522998485474e-9 1.9903888125565198e-8 2.7775052752715336e-9 3.91420776792017e-9
          4.328647083902682e-9 1.7527336838677364e-8 1.8472126704005815e-8 3.1595728236125147e-9 3.595199906171044e-9 1.854089490749486e-8
          2.3810811270292647e-8 2.7207380573270898e-8 3.257212046122753e-8 3.146048763338227e-8 2.8748956798754783e-8 2.8316453086906218e-8
          1.4294353760116945e-8 1.815955658365231e-8 2.3365815104819864e-8 2.0944418136607237e-8 3.177002951510673e-8 3.059696292883852e-8
          3.020166879758993e-8 2.899120018605852e-8 2.728033463944756e-8 2.5602096923363683e-8 2.4390370100624762e-8 2.3628333005428815e-8
          2.3288078588222402e-8 2.137372588467977e-8 2.4190578978880983e-8 2.3435339401986408e-8 2.1496611938633945e-8 2.058662743569739e-8
          1.767660929922052e-8 1.7624027096918226e-8 2.030782210129032e-8 2.2202102988785743e-8 2.0522281897555257e-8 1.926743304124668e-8
          1.762110152291027e-8 2.1864702347695297e-8 2.5616553353949496e-8 2.585319656800086e-8 4.7400445641379385e-9 4.7146737512142265e-9
          5.400570078051118e-9 5.34192082542299e-9 4.600082193330601e-9 5.154906120824689e-9 2.0317677978176436e-9 2.7547330023230062e-9
          3.0800933658333053e-9 3.732992844807251e-9 5.977996398993544e-9 5.922431716611542e-9 6.5195372503487215e-9 6.4035411339893385e-9
          5.659726731897752e-9 6.0855002264188346e-9 2.4706669946971134e-9 3.3887506451557926e-9 3.6643660487711626e-9 4.5480248173213854e-9
          4.779016208225042e-9 5.223901763005009e-9 1.9223234494058573e-8 1.9649213141435716e-8 4.02965840391864e-9 4.4285752747866025e-9
          2.0693423388692863e-8 1.0234875040383512e-8 1.5010090892829318e-8 2.4357163338833534e-8 2.85694263429188e-8 4.754574467294938e-9
          5.024773820327511e-9 2.1734088233557857e-8 2.4452715178786777e-8 2.5254315628516523e-8 2.578660857793807e-8 2.208901505033952e-8
          2.603285649431618e-8 2.3203784347566534e-8 2.7612997809845583e-8 2.716148812480371e-8 2.806178078145171e-8 2.3738777459070278e-8
          2.3988647061678908e-8 2.9068660621090903e-8 3.033695298496535e-8 2.538853986780104e-8 2.596735965897434e-8 2.5686295325038286e-8
          2.1776902439912708e-8 2.493838003341607e-8 2.3788133715628816e-8 2.0143677579341136e-8 2.8604912226304845e-8 2.8647656815635142e-8
          2.3891787633030147e-8 2.341358924256655e-8 3.1242464793635353e-8 3.1609018306232005e-8 2.6006672826147594e-8 2.8144942253582387e-8
          2.7142094755725998e-8 2.25644958708532e-8 2.133300881925746e-8 3.135150447374869e-8 3.049605579582317e-8 2.4985314162365263e-8
          1.647837432936304e-8 1.5771972394318303e-8 1.3997516159181388e-8 1.5278812235926919e-9 1.2082438650792908e-8 1.1235415442496604e-8
          8.187677800242514e-10 9.431440944061588e-10 2.596557671153128e-9 7.732846631117512e-10 1.0527969696611929e-9 7.490410947669385e-10
          5.64136818565834e-10 6.494571676566823e-10 3.9147602458777123e-10 5.162633576706787e-10 2.784297685357771e-8 2.662406618082993e-8
          2.3170987236071598e-8 2.230456999424338e-8 1.5679483061017553e-8 6.867353512372355e-9 6.713383208806414e-9 2.9431579266238963e-9
          3.887254442441368e-9 3.52344708194479e-10 4.903924271221984e-10 3.8247997175694416e-10 2.532347771476062e-10 1.9711074010520012e-10
          4.203536690225914e-9 4.296987764125201e-9 4.285254014465832e-9 4.273520264806463e-9 3.809670882943305e-9 3.7063676252341016e-9
          4.306345037125899e-9 4.3403438939494e-9 4.476386934941809e-9 4.374342750772902e-9 4.5643598246556006e-9 4.612640421215702e-9
          4.7616966109436135e-9 4.6609210177758045e-9 4.462765909420159e-9 4.449225712199759e-9 4.630396519446771e-9 4.614206124132127e-9
          4.435685514979359e-9 4.598015728817483e-9 4.028939054065729e-9 4.017845852923948e-9 4.235143270873445e-9 3.943305844692674e-9
          4.798007246559386e-9 4.777759374579907e-9 4.964191839240261e-9 4.9375803911162626e-9 4.757511502600427e-9 4.910968942992263e-9
          4.4848454646717866e-9 4.457492142169971e-9 4.6753846406132014e-9 4.3835109582092475e-9 3.907861704204927e-9 4.128432689708488e-9
          4.155985795822066e-9 4.367180360390408e-9 4.621631358342872e-9 4.580281473612621e-9 4.178603422907415e-9 4.070607815872521e-9
          4.36961438876719e-9 4.568512928981219e-9 4.35573614918922e-9 4.770441909830983e-9 4.975570897699777e-9 4.736140929893522e-9
          4.181897588062015e-9 4.368896574510351e-9 4.078891241532003e-9 4.50340770494857e-9 4.625760064207535e-9 4.358959908036202e-9
          3.1659429287249143e-9 3.1868555153715653e-9 3.2799899528170223e-9 2.846620668319203e-9 3.3966921732646707e-9 3.5453994648681542e-9
          2.921837375282394e-9 1.9618770083376093e-9 2.038734405372533e-9 2.2280836386237585e-9 1.5055680776689293e-9 2.4490549310348333e-9
          2.630221059077104e-9 2.1414518328001176e-9 3.4271122317404145e-9 3.4463952607766597e-9 3.7045382708356667e-9 3.721772886897524e-9
          3.5307603129199577e-9 3.797474097751358e-9 3.1100049787980496e-9 3.125339303783938e-9 3.4209644950332055e-9 3.155968594386717e-9
          3.9960524751222735e-9 4.011459744753095e-9 4.3032224761195045e-9 4.315108555242816e-9 4.0792762407270084e-9 4.3733126374467146e-9
          3.719984486304352e-9 3.732793991095657e-9 4.060065036334673e-9 3.750438307842115e-9 3.6334321658445878e-9 3.886246874973258e-9
          3.757209423485007e-9 3.986259389330303e-9 3.1879802012509387e-9 3.467696780103906e-9 3.2227722449032997e-9 4.153405671201539e-9
          4.431999875955329e-9 4.228439893530823e-9 4.481743264018494e-9 3.759091538235259e-9 4.059435062301803e-9 3.754717347284189e-9
          2.146414728629136e-9 2.2297280612575916e-9 2.34095881297428e-9 2.4310633274220563e-9 2.4339505352825366e-9 2.65061937018104e-9
          1.488352636725962e-9 1.623983861102847e-9 1.7454822101483037e-9 1.9510398801854516e-9 2.544985475667986e-9 2.6421015371062902e-9
          2.7568467341877774e-9 2.861142447967252e-9 2.877097043757975e-9 3.111624443436017e-9 1.7040706680914137e-9 1.8694286251316257e-9
          1.9950668238132986e-9 2.2636545096843894e-9 2.669508529260777e-9 2.900506607754062e-9 2.8607969284450395e-9 3.100830566218803e-9
          2.322059283503924e-9 2.5096807155383403e-9 2.6344824182314293e-9 3.140818001746322e-9 3.388669150311307e-9 3.348440043893712e-9
          3.601612934556302e-9 2.703083909034794e-9 2.900836569586794e-9 3.0640437066680738e-9 3.822503187387845e-9 4.076790550699652e-9
          3.1637062543296652e-9 4.164918751727128e-9 4.090225827261088e-9 3.959046865595142e-9 2.740676797586756e-9 2.9831211564198388e-9
          2.620344038382457e-9 3.6382138521741144e-9 4.088631255757459e-9 3.467472249746383e-9 3.9973573209678935e-9 4.1924643806500456e-9
          4.240434429599945e-9 4.41958199044168e-9 3.3619174370994664e-9 3.5811706108519352e-9 3.742853580289636e-9 4.404771556599036e-9
          4.626776472412439e-9 4.607349369636272e-9 4.797041574205226e-9 3.818571677022771e-9 4.067209199677073e-9 4.113988160729981e-9
          4.259161255113057e-9 4.436325392356787e-9 4.18877144165416e-9 4.36244984387288e-9 4.147705864926277e-9 4.3122444597397475e-9
          4.292691796163887e-9 4.59227463101876e-9 4.741124105821471e-9 4.4976397242343795e-9 4.622600591403736e-9 4.490095913221817e-9
          4.672655350533624e-9 4.6428341211340914e-9 2.969177743008088e-9 3.20583283910052e-9 3.1593235459436205e-9 3.3536402430913185e-9
          2.8396208649858393e-9 3.0657402888160416e-9 2.9580726413186418e-9 3.4472524372809868e-9 3.6925759514970675e-9 3.5620274597986587e-9
          3.781236845774147e-9 3.2964627238835213e-9 3.5287155507650937e-9 3.3746364075163784e-9 3.782522902727078e-9 3.9375683030677895e-9
          4.247317724535537e-9 4.39880298273225e-9 3.6060589977657024e-9 3.754401896859306e-9 4.207903498519617e-9 4.105122421310669e-9
          4.284096416374014e-9 4.5504742243198594e-9 4.707172750578576e-9 3.911194573266654e-9 4.079370279116188e-9 4.451599746804094e-9
          4.9447581046279295e-9 4.953826085028396e-9 5.064358160753863e-9 4.962894065428862e-9 5.118900039596071e-9 5.080172390821887e-9
          5.190321465934446e-9 5.143495812651404e-9 5.0414447420477046e-9 5.096670159368362e-9 4.903123823160568e-9 4.8733705278679786e-9
          4.99888081245597e-9 4.83710837610325e-9 5.1851783137679245e-9 5.216031810916753e-9 5.547374012448216e-9 5.333481541862189e-9
          4.8890964950453115e-9 5.169812559196745e-9 5.059425573696086e-9 5.460014037197622e-9 5.746175130911925e-9 5.571517876523569e-9
          5.90336623492365e-9 5.918303008991152e-9 6.255590996413274e-9 5.972723627406525e-9 6.541220726768433e-9 6.5100762305953855e-9
          6.718773905244213e-9 6.488745453581726e-9 6.0145372460343755e-9 6.26203551143521e-9 6.052518544862432e-9 6.492062606955978e-9
          6.705522269820711e-9 6.444618361279075e-9 5.1831032089762354e-9 5.391516783752613e-9 5.066293495106014e-9 5.5967188341514496e-9
          5.7906667106795535e-9 5.345561473972063e-9 4.7524005665923386e-9 4.861117168123031e-9 4.573671740464605e-9 4.931101200293593e-9
          4.976062983926414e-9 4.721431666635268e-9 5.962413801957075e-9 6.091836173958252e-9 5.550007626122983e-9 6.166705841196836e-9
          6.1880637898496595e-9 5.9297410010063655e-9 5.015413605004423e-9 5.034159932394696e-9 4.767469492266521e-9 4.638588541698182e-9
          4.6428752476132925e-9 4.995458476988066e-9 4.9905989808754116e-9 4.681626697079578e-9 5.003230606500031e-9 4.394448436073951e-9
          4.3975458121058535e-9 4.735549964623277e-9 4.39054036416896e-9 5.33171686602242e-9 5.323407228943519e-9 5.6540180518261274e-9
          5.644375684172033e-9 5.322983397755168e-9 5.635258090663393e-9 5.08008104269468e-9 5.067003705565755e-9 5.382768786697783e-9
          5.033188055918399e-9 4.7186112453800715e-9 5.01052426386528e-9 4.743321048040441e-9 5.009033439318897e-9 4.365074339618555e-9
          4.671334279980274e-9 4.316860817447131e-9 5.303558572498656e-9 5.5894843973075695e-9 5.273481372645088e-9 5.531142665519375e-9
          4.973804052123733e-9 5.268211645664181e-9 4.880528672739486e-9 2.9738895327922504e-9 3.085570044434708e-9 3.1931160063329355e-9
          3.3124946485401257e-9 3.3516543776392234e-9 3.5942792675470306e-9 1.92285360507604e-9 2.121576600763716e-9 2.2480828431750366e-9
          2.5898165662780838e-9 3.4111222419296277e-9 3.538664243950951e-9 3.6265122055407316e-9 3.7620551999959644e-9 3.836296636746456e-9
          4.074620215835092e-9 2.1403378167468106e-9 2.3741037237406753e-9 2.499950182492214e-9 2.9187024153042585e-9 3.6416264710417332e-9
          3.89678644273361e-9 3.858021507259966e-9 4.114897495459463e-9 3.1012302585611875e-9 3.302140294040487e-9 3.509537902010467e-9
          4.150680164827776e-9 4.398875225872728e-9 4.369186634438169e-9 4.615769334026265e-9 3.5008553332077724e-9 3.694120824120311e-9
          3.952760792163971e-9 5.985840102523936e-9 5.9695273570928005e-9 6.30025456521247e-9 6.274726257433037e-9 5.937491417275729e-9
          6.214588060859518e-9 5.69392077620305e-9 5.679595800784426e-9 5.968224479374751e-9 5.638973900930332e-9 6.571666584907819e-9
          6.538621769475978e-9 6.800663258229084e-9 6.763168759645051e-9 6.455574128179108e-9 6.66431620073111e-9 6.260997623546247e-9
          6.247730521733945e-9 6.496029996105859e-9 6.181860715696512e-9 5.857953491747538e-9 6.103806940441874e-9 5.778860888917552e-9
          6.010330075449234e-9 5.548005254555629e-9 5.8073760344645375e-9 5.416680030438497e-9 6.326516375999258e-9 6.526412724581732e-9
          6.216313705721882e-9 6.3955848080836075e-9 6.0409070034533495e-9 6.2433492563085795e-9 5.883491778027194e-9 3.840430437182501e-9
          3.982253850644661e-9 4.049389365938314e-9 4.1961710082103035e-9 4.306521003349285e-9 4.528694765675814e-9 2.361333292083123e-9
          2.626067804914922e-9 2.7497545761239074e-9 3.23735341198284e-9 4.2392016833896265e-9 4.394465093009986e-9 4.4172162361584065e-9
          4.5780334043272965e-9 4.7366577970877475e-9 4.925471137706251e-9 2.5585205627339647e-9 2.8606364509086586e-9 2.971570430488762e-9
          3.531996965558961e-9 4.636670134062611e-9 4.860374514421476e-9 4.845967848933115e-9 5.0555704478840615e-9 3.878699496474664e-9
          4.051575329362414e-9 4.3637788699619105e-9 5.065183434035831e-9 5.244219053007066e-9 5.245744380666228e-9 5.406180150575425e-9