<?xml version="1.0"?>
<VTKFile type="UnstructuredGrid" version="0.1" byte_order="LittleEndian" header_type="UInt32" compressor="vtkZLibDataCompressor">
  <UnstructuredGrid>
    <Piece NumberOfPoints="1273" NumberOfCells="733">
      <PointData>
        <DataArray type="Int32" Name="libmesh_node_id" format="ascii" RangeMin="902" RangeMax="11903">
          992 993 994 995 1024 1025
          1046 1047 1072 1073 1074 1075
          1076 1077 1078 1079 1080 1081
          1082 1083 1108 1109 1110 1111
          1112 1113 1130 1131 1132 1133
          1134 1135 1160 1161 1162 1163
          1164 1165 1166 1167 1168 1169
          1170 1171 1172 1173 1196 1197
          1198 1199 1200 1201 1202 1218
          1219 1220 1221 1222 1223 1224
          1248 1249 1250 1251 1252 1253
          1254 1255 1256 1257 1258 1259
          1284 1285 1286 1287 1288 1289
          1290 1306 1307 1308 1309 1310
          1311 1312 1320 1321 1322 1323
          1324 1325 1326 1327 1328 1329
          1330 1331 1332 1333 1334 1335
          1336 1337 1338 1339 1340 1341
          1342 1343 1344 1345 1346 1347
          1348 1349 1350 1351 1352 1353
          1354 1357 1360 1361 1362 1409
          1410 1411 1412 1413 1414 1415
          1416 1417 1418 1419 1420 1421
          1422 1423 1424 1427 1428 1430
          1432 1443 1444 1445 1446 1447
          1448 1449 1450 1451 1452 1453
          1454 1455 1456 1457 1458 1459
          1460 1461 1462 1463 1464 1465
          1466 1467 1468 1469 1470 1471
          1472 1473 1474 1475 1476 1477
          1478 1479 1480 1481 1482 1483
          1484 1485 1486 1487 1488 1489
          1519 1521 1524 1526 1529 1536
          1574 1628 1629 1630 1631 1632
          1633 1634 1635 1636 1637 1638
          1639 1640 1641 1662 1663 1664
          1665 1666 1667 1668 1669 1670
          1671 1672 1673 1674 1675 1676
          1677 1678 1679 1680 1681 1682
          1683 1684 1685 1686 1687 1688
          1689 1690 1691 1692 1693 1694
          1695 1698 1699 1702 1704 1706
          1707 1710 1713 1716 1717 1723
          1770 1771 1772 1773 1774 1775
          1776 1777 1778 1779 1780 1781
          1782 1783 1784 1785 1786 1787
          1788 1789 1790 1791 1792 1793
          1794 1795 1796 1797 1798 1799
          1800 1801 1802 1803 1804 1805
          1806 1807 1808 1809 1810 1811
          1812 1813 1814 1815 1816 1817
          1818 1819 1820 1821 1822 1823
          1824 1825 1826 1827 1828 1829
          1830 1831 1832 1833 1834 1835
          1836 1837 1838 1839 1840 1841
          1842 1843 1844 1845 1846 1847
          1848 1849 1850 1851 1852 1853
          1854 1855 1856 1857 1858 1859
          1860 1861 1862 1863 1864 1865
          1866 1867 1868 1869 1870 1871
          1872 1873 1874 1875 1876 1877
          1878 1879 1880 1881 1882 1883
          1884 1885 1886 1887 1888 1889
          1890 1891 1892 1893 1894 1895
          1899 1900 1901 1903 1904 1906
          1925 1930 1941 1942 1945 1946
          1948 1950 2046 2047 2048 2049
          2052 2053 2054 2056 2057 2059
          2437 2438 2439 2440 2441 2442
          2443 2444 2445 2446 2447 2448
          2449 2450 2451 2452 2453 2454
          2455 2456 2457 2458 2459 2460
          2461 2462 2463 2464 2465 2466
          2467 2468 2469 2470 2471 2472
          2473 2474 2475 2476 2477 2478
          2479 2480 2481 2482 2483 2484
          2485 2486 2487 2488 2489 2490
          2491 2492 2493 2494 2495 2496
          2497 2498 2499 2500 2501 2502
          2503 2504 2505 2506 2507 2508
          2509 2510 2511 2512 2513 2514
          2515 2516 2517 2518 2519 2520
          2521 2522 2523 2524 2525 2526
          2529 2530 2531 2536 2537 2556
          2557 2558 2559 2560 2561 2562
          2563 2564 2565 2566 2567 2568
          2569 2570 2571 2572 2573 2574
          2575 2576 2577 2578 2579 2580
          2581 2582 2583 2584 2585 2586
          2587 2588 2589 2590 2591 2592
          2593 2594 2595 2596 2597 2598
          2599 2600 2601 2602 2603 2604
          2605 2606 2607 2608 2609 2610
          2611 2612 2613 2614 2615 2616
          2617 2618 2619 2620 2621 2622
          2623 2624 2625 2626 2627 2628
          2629 2630 2631 2632 2633 2634
          2635 2636 2637 2638 2639 2640
          2641 2642 2643 2644 2645 2648
          2649 2713 2714 2715 2716 2717
          2718 2719 2720 2721 2722 2723
          2724 2725 2726 2727 2728 2729
          2730 2731 2732 2733 2734 2735
          2736 2737 2738 2739 2740 2741
          2742 4245 4246 4247 4248 4249
          4250 4251 4252 4253 4254 4265
          4266 4267 4268 4269 4270 4271
          4272 4273 4274 4275 4276 4277
          4278 4279 4280 4281 4292 4293
          4294 4295 4296 4297 4298 4299
          4300 4301 4302 4303 4304 4305
          4306 4307 4308 4310 4311 4312
          4313 4315 4316 4320 4321 4325
          4336 4337 4338 4339 4340 4341
          4342 4343 4344 4345 4346 4347
          4348 4349 4350 4351 4352 11305
          11306 11307 11308 11309 11310 11311
          11312 11313 11314 11409 11410 11411
          11412 11413 11414 11415 11416 11417
          11418 11419 11420 11421 11422 11423
          11424 11425 11426 11427 11428 11429
          11430 11431 11432 11433 11434 11435
          11436 11437 11438 11439 11440 11441
          11442 11443 11444 11445 11520 11521
          11522 11523 11524 11525 11526 11527
          11528 11529 11530 11531 11532 11533
          11534 11535 11536 11537 11538 11539
          11540 11541 11542 11543 11544 11545
          11546 11547 11548 11549 11550 11551
          11552 11553 11554 11555 11556 11557
          11558 11559 11560 11561 11562 11563
          11564 11565 11566 11567 11568 11569
          11570 11571 11572 11573 11574 11575
          11576 11577 11578 11579 11580 11581
          11582 11583 11584 11585 11586 11587
          11588 11589 11590 11591 11592 11593
          11594 11595 11596 11597 11598 11599
          11600 11601 11602 11603 11604 11605
          11606 11607 11608 11609 11610 11611
          11612 11613 11614 11615 11616 11617
          11618 11619 11620 11621 11622 11623
          11624 11625 11626 11627 11628 11629
          11630 11631 11632 11633 11634 11635
          11636 11637 11638 11639 11640 11641
          11642 11643 11644 11645 11646 11647
          11648 11649 11650 11651 11652 11653
          11654 11655 11656 11657 11658 11659
          11660 11661 11662 11663 11664 11665
          11666 11667 11715 11716 11717 11718
          11719 11720 11721 11722 11723 11724
          11725 11726 11727 11728 11729 11730
          11731 11732 11733 11734 11735 11736
          11737 11738 11739 11740 11741 11742
          11743 11744 11745 11746 11747 11748
          11749 11750 11751 11752 11753 11754
          11755 11756 11757 11759 11761 11762
          11763 11764 11766 11767 11769 11770
          11771 11772 11773 11774 11775 11776
          11777 11778 11779 11780 11781 11782
          11783 11784 11785 11786 11787 11788
          11789 11790 11791 11792 11793 11794
          11795 11796 11797 11798 11799 11800
          11801 11802 11803 11804 11805 11806
          11807 11808 11809 11810 11811 11812
          11813 11814 11815 11816 11817 11818
          11819 11820 11821 11822 11823 11824
          11825 11826 11827 11828 11829 11830
          11831 11832 11833 11834 11835 11836
          11837 11838 11839 11840 11841 11842
          11843 11844 11845 11846 11847 11848
          11849 11850 11851 11852 11853 11854
          11855 11856 11857 11858 11859 11860
          11861 11862 11863 11864 11865 11866
          11867 11868 11869 11870 11871 11872
          11873 11874 11875 11876 11877 11878
          11879 11880 11881 11882 11883 11884
          11885 11886 11887 11888 11889 11890
          11891 11892 11893 11894 11895 11896
          11897 11898 11899 11900 11901 11902
          11903 902 904 905 903 990
          991 906 907 908 909 996
          997 936 935 1023 937 938
          1026 958 957 1045 959 960
          1048 982 984 985 983 1070
          1071 986 987 988 989 1084
          1085 1020 1019 1107 1021 1022
          1114 1042 1041 1129 1043 1044
          1136 1159 1195 1087 1115 1175
          1203 1217 1137 1225 1283 1305
          1291 1313 1366 1374 1375 1425
          1376 1426 1429 1431 1497 1518
          1498 1520 1525 1522 1523 1527
          1528 1531 1532 1533 1537 1534
          1535 1538 1570 1571 1575 1572
          1573 1576 1642 1643 1644 1645
          1649 1650 1367 1368 1696 1697
          1700 1701 1703 1705 1490 1491
          1708 1709 1711 1712 1714 1715
          1718 1719 1720 1721 1722 1724
          1725 1896 1897 1898 1902 1492
          1905 1493 1921 1922 1923 1924
          1926 1927 1928 1929 1501 1943
          1944 1947 1949 1503 2050 2051
          2055 2058 1356 1511 1359 2527
          2528 1549 1370 2532 2533 2534
          2535 2538 1580 1584 1582 2646
          2647 2650 1541 1261 4309 1579
          1380 4314 1585 4317 4318 1586
          4319 4322 4323 4324 1158 11399
          11400 11401 11404 11512 11513 11516
          1247 11518 11705 11706 11707 11710
          1246 11713 11407 11758 11760 11765
          11768
        </DataArray>
        <DataArray type="Float64" Name="bounds" format="ascii" RangeMin="0" RangeMax="0">
          0 0 0 0 0 0
          0 0 0 0 0 0
          0 0 0 0 0 0
          0 0 0 0 0 0
          0 0 0 0 0 0
          0 0 0 0 0 0
          0 0 0 0 0 0
          0 0 0 0 0 0
          0 0 0 0 0 0
          0 0 0 0 0 0
          0 0 0 0 0 0
          0 0 0 0 0 0
          0 0 0 0 0 0
          0 0 0 0 0 0
          0 0 0 0 0 0
          0 0 0 0 0 0
          0 0 0 0 0 0
          0 0 0 0 0 0
          0 0 0 0 0 0
          0 0 0 0 0 0
          0 0 0 0 0 0
          0 0 0 0 0 0
          0 0 0 0 0 0
          0 0 0 0 0 0
          0 0 0 0 0 0
          0 0 0 0 0 0
          0 0 0 0 0 0
          0 0 0 0 0 0
          0 0 0 0 0 0
          0 0 0 0 0 0
          0 0 0 0 0 0
          0 0 0 0 0 0
          0 0 0 0 0 0
          0 0 0 0 0 0
          0 0 0 0 0 0
          0 0 0 0 0 0
          0 0 0 0 0 0
          0 0 0 0 0 0
          0 0 0 0 0 0
          0 0 0 0 0 0
          0 0 0 0 0 0
          0 0 0 0 0 0
          0 0 0 0 0 0
          0 0 0 0 0 0
          0 0 0 0 0 0
          0 0 0 0 0 0
          0 0 0 0 0 0
          0 0 0 0 0 0
          0 0 0 0 0 0
          0 0 0 0 0 0
          0 0 0 0 0 0
          0 0 0 0 0 0
          0 0 0 0 0 0
          0 0 0 0 0 0
          0 0 0 0 0 0
          0 0 0 0 0 0
          0 0 0 0 0 0
          0 0 0 0 0 0
          0 0 0 0 0 0
          0 0 0 0 0 0
          0 0 0 0 0 0
          0 0 0 0 0 0
          0 0 0 0 0 0
          0 0 0 0 0 0
          0 0 0 0 0 0
          0 0 0 0 0 0
          0 0 0 0 0 0
          0 0 0 0 0 0
          0 0 0 0 0 0
          0 0 0 0 0 0
          0 0 0 0 0 0
          0 0 0 0 0 0
          0 0 0 0 0 0
          0 0 0 0 0 0
          0 0 0 0 0 0
          0 0 0 0 0 0
          0 0 0 0 0 0
          0 0 0 0 0 0
          0 0 0 0 0 0
          0 0 0 0 0 0
          0 0 0 0 0 0
          0 0 0 0 0 0
          0 0 0 0 0 0
          0 0 0 0 0 0
          0 0 0 0 0 0
          0 0 0 0 0 0
          0 0 0 0 0 0
          0 0 0 0 0 0
          0 0 0 0 0 0
          0 0 0 0 0 0
          0 0 0 0 0 0
          0 0 0 0 0 0
          0 0 0 0 0 0
          0 0 0 0 0 0
          0 0 0 0 0 0
          0 0 0 0 0 0
          0 0 0 0 0 0
          0 0 0 0 0 0
          0 0 0 0 0 0
          0 0 0 0 0 0
          0 0 0 0 0 0
          0 0 0 0 0 0
          0 0 0 0 0 0
          0 0 0 0 0 0
          0 0 0 0 0 0
          0 0 0 0 0 0
          0 0 0 0 0 0
          0 0 0 0 0 0
          0 0 0 0 0 0
          0 0 0 0 0 0
          0 0 0 0 0 0
          0 0 0 0 0 0
          0 0 0 0 0 0
          0 0 0 0 0 0
          0 0 0 0 0 0
          0 0 0 0 0 0
          0 0 0 0 0 0
          0 0 0 0 0 0
          0 0 0 0 0 0
          0 0 0 0 0 0
          0 0 0 0 0 0
          0 0 0 0 0 0
          0 0 0 0 0 0
          0 0 0 0 0 0
          0 0 0 0 0 0
          0 0 0 0 0 0
          0 0 0 0 0 0
          0 0 0 0 0 0
          0 0 0 0 0 0
          0 0 0 0 0 0
          0 0 0 0 0 0
          0 0 0 0 0 0
          0 0 0 0 0 0
          0 0 0 0 0 0
          0 0 0 0 0 0
          0 0 0 0 0 0
          0 0 0 0 0 0
          0 0 0 0 0 0
          0 0 0 0 0 0
          0 0 0 0 0 0
          0 0 0 0 0 0
          0 0 0 0 0 0
          0 0 0 0 0 0
          0 0 0 0 0 0
          0 0 0 0 0 0
          0 0 0 0 0 0
          0 0 0 0 0 0
          0 0 0 0 0 0
          0 0 0 0 0 0
          0 0 0 0 0 0
          0 0 0 0 0 0
          0 0 0 0 0 0
          0 0 0 0 0 0
          0 0 0 0 0 0
          0 0 0 0 0 0
          0 0 0 0 0 0
          0 0 0 0 0 0
          0 0 0 0 0 0
          0 0 0 0 0 0
          0 0 0 0 0 0
          0 0 0 0 0 0
          0 0 0 0 0 0
          0 0 0 0 0 0
          0 0 0 0 0 0
          0 0 0 0 0 0
          0 0 0 0 0 0
          0 0 0 0 0 0
          0 0 0 0 0 0
          0 0 0 0 0 0
          0 0 0 0 0 0
          0 0 0 0 0 0
          0 0 0 0 0 0
          0 0 0 0 0 0
          0 0 0 0 0 0
          0 0 0 0 0 0
          0 0 0 0 0 0
          0 0 0 0 0 0
          0 0 0 0 0 0
          0 0 0 0 0 0
          0 0 0 0 0 0
          0 0 0 0 0 0
          0 0 0 0 0 0
          0 0 0 0 0 0
          0 0 0 0 0 0
          0 0 0 0 0 0
          0 0 0 0 0 0
          0 0 0 0 0 0
          0 0 0 0 0 0
          0 0 0 0 0 0
          0 0 0 0 0 0
          0 0 0 0 0 0
          0 0 0 0 0 0
          0 0 0 0 0 0
          0 0 0 0 0 0
          0 0 0 0 0 0
          0 0 0 0 0 0
          0 0 0 0 0 0
          0 0 0 0 0 0
          0 0 0 0 0 0
          0 0 0 0 0 0
          0 0 0 0 0 0
          0 0 0 0 0 0
          0 0 0 0 0 0
          0 0 0 0 0 0
          0 0 0 0 0 0
          0 0 0 0 0 0
          0 0 0 0 0 0
          0 0 0 0 0 0
          0 0 0 0 0 0
          0 0 0 0 0 0
          0 0 0 0 0 0
          0 0 0 0 0 0
          0
        </DataArray>
        <DataArray type="Float64" Name="gradient_error" format="ascii" RangeMin="3.4490697535650445e-12" RangeMax="3.53863999058549e-7">
          9.511512527106547e-10 5.495912799113201e-10 5.649148252129188e-10 3.5559513654012813e-10 1.0068293449460021e-10 9.820870996500245e-11
          5.333456187721501e-11 5.014197206266733e-11 1.4120237639874435e-8 1.8005716565939103e-8 8.958593605280837e-9 7.931697948937531e-9
          5.440825932527909e-9 3.2449881226818183e-9 4.781372006221845e-9 1.6378380724724252e-9 3.6680521170700538e-9 1.4634136162579017e-9
          1.4728868137229755e-9 8.054557544499613e-10 1.186424003382971e-8 5.159030967755929e-9 1.8177259625309734e-9 5.695381127321641e-10
          3.064706699510751e-10 2.0642833868441678e-10 1.2027681921226548e-9 4.405992277313624e-10 3.718887495578701e-10 2.7903628205425603e-10
          1.5408782747983266e-10 1.0501102414824289e-10 5.74619065488355e-8 1.4322872363467424e-7 4.740942456109988e-8 1.245172217059319e-7
          3.727829581437765e-8 1.0683652073946394e-7 1.7802684113947238e-7 8.66352481582997e-8 2.2877587986050028e-8 5.3471159912939566e-8
          5.886143965644377e-9 1.4929620074796788e-8 5.388369122682612e-10 3.480186394954593e-10 1.5454110602604656e-8 7.929934962436914e-9
          3.231334964397772e-9 1.031641402495873e-9 5.204022154966503e-10 3.3976038293286555e-10 1.4272753266820472e-10 4.079743434949413e-9
          3.819662022860217e-9 2.704687388002449e-9 1.229478338129797e-9 5.909714342753822e-10 4.2175478977894e-10 1.3802678879088764e-10
          6.334306154240772e-8 1.9809105374775643e-7 8.49491012404801e-8 1.905830159371207e-7 1.1935845242362593e-7 1.73082299542726e-7
          1.7076349530549588e-7 1.4256494810267477e-7 1.9633122896253496e-8 9.837127008065227e-8 4.3847425822188255e-8 4.844579526215756e-8
          2.0669481293493074e-8 1.2138270762513819e-8 4.842656067167223e-9 4.474279131755023e-9 4.044970434557665e-9 1.6647197419099806e-9
          1.9339605911462263e-10 6.422803335248718e-9 6.992436683295849e-9 4.746593243541302e-9 1.9624633732856563e-9 9.592226952237034e-10
          7.137265022311248e-10 2.1439467279770884e-10 1.7413091479512348e-7 1.508301142450581e-7 1.631411935374894e-7 2.905110493267376e-7
          3.11106238544753e-7 2.407243291877719e-7 2.433747143961179e-7 6.28734561827167e-8 7.64433468819741e-8 1.4229198244983477e-7
          9.55809263958496e-8 1.1688521968232974e-7 1.427469629593725e-7 8.701755542199828e-8 1.1138660887026223e-7 2.6204976753259176e-7
          2.2651142718436423e-7 1.528666222233072e-7 1.2206732347256628e-7 9.639708835234832e-9 4.0638313670362256e-8 7.093657529991649e-8
          9.086184813645666e-8 1.831601446648009e-8 5.6841894894658016e-8 6.322940062198346e-8 4.7055921990004346e-8 5.788453139737915e-8
          2.820751733702612e-8 2.7348498534453895e-8 5.0579580748706635e-8 6.065602158260327e-8 7.396704280355245e-8 2.623901578533235e-9
          2.117411303920979e-9 4.0643467413507105e-10 1.8231757609073316e-9 7.298572066139259e-9 1.8231632149184122e-9 1.1578669797306417e-9
          2.164569988887611e-9 3.041901121771092e-9 8.931930185003172e-9 4.6216982992209953e-10 2.9816539017628667e-10 1.0931542605851995e-10
          5.079735792631744e-10 1.377533745403334e-9 1.1682008322474083e-10 5.011736924473227e-9 1.5699290381118733e-8 1.5401799535853445e-10
          9.066317324678287e-10 8.648982152519418e-11 5.1007360847934356e-11 1.8538183120984486e-11 1.8524306335354467e-11 1.5263477291996163e-11
          1.8510429549724452e-11 1.3958261411872195e-7 1.5581979955861803e-7 2.1601791082774528e-7 2.0928878212042936e-7 1.0657255547305829e-7
          1.640382549591509e-7 2.423948549134518e-7 9.572351905302247e-8 4.457267001169662e-8 7.384267813485403e-8 1.6921970047977945e-7
          2.1288531222120642e-7 2.363672633605258e-7 1.5538757296448743e-7 1.7096574540325415e-8 1.0212612980102601e-7 2.0183517740766262e-7
          3.8540432823100433e-8 2.0984677694396096e-7 7.51525776927104e-8 6.334086919143825e-8 5.0518619510522896e-8 5.0174005015015176e-8
          5.931294238870273e-8 5.7866780953249774e-8 5.624158415379725e-8 8.718271547248956e-8 9.883042029503604e-8 7.064208542024015e-8
          2.2856137664521782e-8 4.387057100096754e-8 5.1057388157095e-8 1.0221516610458433e-7 6.482961676391907e-8 5.3618872857807144e-8
          6.70711098734941e-8 6.341945018477615e-8 4.652089078385436e-8 7.865174398650354e-8 7.187901987745662e-8 7.538889361636542e-8
          7.033997696619403e-8 6.912599026021294e-8 3.381037236774332e-8 6.056347423569018e-8 7.349711509192608e-8 5.546239667034029e-8
          5.776111373823201e-8 6.457055912072213e-8 1.3908442017169698e-8 4.9824823784317587e-8 4.8801604467521306e-8 3.846652268786495e-9
          1.0667889834246034e-9 6.68270279635413e-10 6.077702913407372e-10 1.8576032134608094e-9 5.647777449730021e-9 1.8848637051268063e-9
          1.7723636158601886e-9 5.4665711766607144e-9 5.45413796124307e-11 2.1646368091393578e-10 1.545427394453197e-10 5.472703030460613e-10
          1.659863526593571e-9 5.285364903591407e-9 9.262179797670366e-11 4.2464064927256514e-9 7.725512787176321e-9 1.7486108439185528e-8
          2.8492933424845774e-8 1.6862230788731197e-10 2.5889637209234857e-9 3.679363847680882e-9 3.0725810385645405e-8 4.9260354062515226e-8
          5.0093051339596585e-9 1.0916161339915957e-7 1.1434306200881029e-7 1.1602296895120692e-7 1.4826109426587473e-7 1.0134711162921887e-7
          8.05375518227979e-8 5.759096925899942e-8 7.824683110336869e-8 8.50687360215261e-8 7.047042574243449e-8 1.2418728384782137e-7
          1.8217912652293918e-7 6.121111439893422e-8 9.890269294773798e-8 9.237746855443075e-8 7.330190610696202e-8 4.056874524634528e-8
          6.085753117199424e-8 5.58280857641887e-8 8.11463170976432e-8 2.5766647583800972e-9 3.096947164770214e-9 4.903101828439584e-9
          3.672853422264984e-8 3.166291243390504e-8 1.9268651441959773e-9 3.5455319562211655e-9 2.0554897309846672e-8 1.4223396062289187e-9
          1.293400123139398e-9 7.201972718122781e-10 7.941260220852574e-10 2.678063855830982e-10 3.263315764946397e-10 3.401558781140302e-10
          4.196443216109259e-8 4.187810576049729e-8 3.922280145912467e-8 2.741752895782228e-8 2.8843952724842814e-8 3.301194420209947e-8
          3.1317657112958814e-8 4.4789705551382617e-8 3.055369642421738e-8 3.49128902359838e-8 4.223679928957346e-8 4.004120840717211e-8
          3.738406802536662e-8 4.232997835653035e-8 1.8144291541295e-8 2.5100656076237207e-8 2.432383451129585e-8 2.6389162937956218e-8
          3.736757186611959e-8 4.7401570515555343e-8 4.773176430945448e-8 3.27902057821735e-8 3.7276206307343644e-8 5.0808811216058965e-8
          3.539626210887149e-8 4.0021470002314196e-8 4.729436162407622e-8 4.4870025602979576e-8 4.775301176402831e-8 2.1114437566869885e-8
          2.828200996138225e-8 3.054676466238755e-8 4.097046727952058e-8 5.3991037160815034e-8 5.416517942627905e-8 3.838685079601987e-8
          4.324746810269447e-8 5.787897661400412e-8 4.185351689312906e-8 4.6972324160138715e-8 5.3098117831137485e-8 5.118501641837601e-8
          5.5076214241146566e-8 2.4915936578726217e-8 3.314363306083609e-8 3.6177751231067344e-8 4.722043117404554e-8 4.37440602112601e-8
          4.29631121657023e-8 4.78467520318754e-8 4.5226846774706745e-8 4.595628126161959e-8 5.041411799578354e-8 4.096135527772136e-8
          4.7715659690305424e-8 4.506582088410301e-8 4.571486215200683e-8 4.7975504840905656e-8 4.533160213872183e-8 5.0603856841538504e-8
          4.945965747866477e-8 4.8055960098952736e-8 5.3041923434167454e-8 5.031517657994819e-8 5.6167860475851985e-8 4.1259590971416535e-8
          4.536934306049619e-8 4.777531124153689e-8 5.324661645917264e-8 5.648051119719532e-8 4.7994256506889267e-8 6.22047653242883e-8
          6.201031928360334e-8 4.5904257292631796e-8 5.129057238510025e-8 6.661293005315181e-8 5.06890341386006e-8 5.633482474810388e-8
          5.967299193879602e-8 5.949488455557667e-8 6.454991700032295e-8 3.026143645345889e-8 3.97561283374516e-8 4.4024062735840455e-8
          5.545855421171938e-8 7.25332039320837e-8 7.173873578017636e-8 5.640840993506393e-8 6.228808019983727e-8 7.742871778555908e-8
          6.333385545851067e-8 6.939148563929713e-8 6.748692377591861e-8 7.034079599918849e-8 7.699981081550234e-8 3.822196311505135e-8
          4.920364077686819e-8 5.562314080820936e-8 6.651120366796759e-8 5.2638572218184446e-8 5.978530821118453e-8 5.498709656822923e-8
          6.372700070666589e-8 4.450336615790377e-8 4.9852173757505536e-8 5.189020068000904e-8 6.038631213706535e-8 6.475819076575084e-8
          5.2991765327134365e-8 5.74161622553221e-8 6.804741841550363e-8 5.989187506982406e-8 7.276831001419707e-8 4.687708856771282e-8
          5.395708472939627e-8 5.602528921331014e-8 6.962216700553476e-8 7.502644931472765e-8 5.8023908453968116e-8 4.198863865674066e-8
          3.9655242500770634e-8 4.048879903349408e-8 5.860704071276177e-8 6.024170148671686e-8 5.745139264999718e-8 5.6093202067113686e-8
          3.3509870298052794e-8 4.953875792380402e-8 4.893729587208643e-8 8.546200657461432e-8 8.369631541174706e-8 7.657131314760272e-8
          8.467730372756447e-8 8.177962670947872e-8 6.236399957800498e-8 7.789232862128401e-8 4.877467791209962e-8 5.805260816297894e-8
          8.100265086796819e-8 6.332170733054054e-8 3.202741880087078e-8 3.257012539897184e-8 3.613206561857003e-8 3.6372313978673197e-8
          2.476279808481136e-8 2.6685203170725432e-8 2.7680163748199157e-8 4.023671243626928e-8 4.017450255837455e-8 2.8607608256639506e-8
          3.3399345532393806e-9 3.0383469885920257e-9 4.595835219057633e-9 1.8242540878398216e-8 9.491589431728883e-9 9.31024395508131e-9
          1.5299627963675573e-8 2.736759423944671e-9 9.128898478433736e-9 1.2356715048952934e-8 4.534683724467684e-8 1.0282943976448525e-7
          1.0459327300979114e-7 1.481582084071925e-7 1.6095655778720112e-7 1.8576435697526475e-7 1.8528750168381264e-7 1.2927876009336432e-7
          1.640172508331173e-7 1.8194879115134117e-7 1.4263912481722597e-7 1.9714450999844123e-7 1.7273830356301924e-7 1.5959060903695938e-7
          1.2887692123970935e-8 2.02627778388546e-8 4.075018862220888e-8 5.354082216751621e-8 2.9256128796934245e-10 4.132827580804727e-9
          3.6902337103100953e-9 6.861268512044683e-8 8.681886649617781e-8 7.973093873640113e-9 2.8816537118045667e-7 2.6820065838310187e-7
          1.931413301162318e-7 2.1850399714704606e-7 2.387283577010141e-7 2.475514128401752e-7 2.281123897905928e-7 2.0239826809307106e-7
          2.2294061016946898e-7 2.099063531329221e-7 1.8929134422157146e-7 2.2690216729724856e-7 2.0634439245268686e-7 2.4348295224586695e-7
          1.1693490267082156e-7 1.1815533720275976e-7 1.479346423086912e-7 1.4640191741553875e-7 7.121610756503286e-8 9.108659934009379e-8
          9.57298578705948e-8 1.789343819465609e-7 1.746484976283177e-7 1.109570911151547e-7 6.99575190463883e-9 1.2337925927918736e-8
          1.8940348647266144e-8 6.481300153978869e-8 5.8544390108167626e-8 5.196496796620984e-8 5.728883818783761e-8 8.85130421951643e-9
          5.17986904916625e-8 4.588287957514222e-8 1.7680099951198642e-8 4.5385545824252066e-8 4.976467483588654e-8 3.996706865862194e-8
          2.3949458809744044e-9 6.639717207303364e-9 4.456335071296779e-8 3.907463436869029e-8 1.0884488533632324e-8 3.358591802441279e-8
          3.2931309988389e-10 6.894995360795513e-10 1.2429065381361643e-9 2.4623004715048077e-9 2.701026837109503e-10 7.415274734114997e-10
          2.348347956471424e-10 9.72956681511803e-10 1.6009287052009791e-9 6.152827432800304e-10 1.89436954388304e-10 5.029807054860337e-10
          8.341891995472898e-11 3.5795711363637683e-10 1.7386953249138804e-10 1.4720385332831966e-11 5.6000917855876335e-11 3.3585378415059936e-8
          3.357291687048185e-8 3.0335594480879594e-8 2.689497766337402e-8 2.6789186995879217e-8 2.9221224018254916e-8 2.8034773388597325e-8
          3.356045532590376e-8 3.1653261040630615e-8 2.917456911382063e-8 1.9992995576698492e-8 2.486953116602798e-8 2.573395229631506e-8
          2.9746066755357465e-8 4.166054631314425e-8 3.952299891033409e-8 4.2520754257084924e-8 4.110695507239374e-8 4.019425347737209e-8
          4.2139027379181766e-8 4.049727660487832e-8 4.338096220102559e-8 4.26909112344534e-8 4.408380128099143e-8 3.91907952061745e-8
          3.8118053084717196e-8 3.768366760250114e-8 4.2998884293460325e-8 4.476398111990404e-8 4.3655589525160555e-8 4.191323058562749e-8
          3.876694175485306e-8 4.665648977077448e-8 4.5444194422365073e-8 3.5246572455681816e-8 4.0532855888697836e-8 3.9879934939030747e-8
          4.190114294065841e-8 4.112344339031191e-8 3.9501588084366956e-8 4.8623876349314236e-8 4.72403218961861e-8 4.016858776550326e-8
          5.064348481572728e-8 4.907982195215071e-8 3.5408544431092306e-8 4.322758921533039e-8 4.4549778914516897e-8 3.017245844930718e-8
          3.0291298750806403e-8 3.6723574119025184e-8 3.59897410620085e-8 3.000481897176158e-8 3.7389981188574664e-8 2.740756081485174e-8
          3.284873725044755e-8 3.2409095316655865e-8 3.3196563636689645e-8 4.253587526548708e-8 4.066705128526816e-8 5.2699163891129486e-8
          5.093133670986297e-8 4.093035222796748e-8 5.4751000910203644e-8 5.2755312786951906e-8 3.583538186415877e-8 4.582507542115843e-8
          4.701536739506682e-8 4.3019718870477225e-8 4.089377713531126e-8 5.674563498978404e-8 5.4499364536428805e-8 3.534211671869616e-8
          4.8072787970061986e-8 2.9657053432893372e-8 3.787494679197929e-8 2.9108151684701475e-8 3.8193267086789496e-8 2.6441570442518448e-8
          3.326325227023817e-8 3.3115424047145515e-8 2.834084753346553e-8 3.835025110931862e-8 2.7280249807653638e-8 3.8276914616817636e-8
          2.4765297029684024e-8 3.280802036158683e-8 3.225860091092802e-8 2.586440614535374e-8 3.7905199463381955e-8 2.2030918039402508e-8
          3.1393966892433356e-8 3.190333960753791e-8 3.1346392928482935e-8 3.47587228432316e-8 3.438138030132839e-8 3.26053498732387e-8
          3.536176751602598e-8 2.853791875557334e-8 3.060065900642279e-8 3.155595486517099e-8 2.944733644553737e-8 3.7614106078925295e-8
          3.741636767417385e-8 3.811818515881326e-8 3.266339925727224e-8 3.284484757649216e-8 3.58088740222025e-8 3.295000011208591e-8
          3.6176865457881924e-8 2.7673664282663437e-8 2.9171135318178328e-8 2.8908112326038766e-8 3.877290046791284e-8 3.940373080367793e-8
          3.0668606353693213e-8 3.286800921262153e-8 3.637553868962994e-8 2.6710241896256632e-8 2.8417903217708225e-8 3.9883068166638336e-8
          3.012556453915982e-8 8.708181924347061e-9 6.0877398131375284e-9 4.938224043856402e-9 2.8470551352155602e-8 2.996479836352138e-8
          2.2107104104441142e-8 2.0933444726927883e-8 3.4672977019279945e-9 1.42494098453609e-8 1.339633810170016e-8 3.6966211871833026e-8
          3.513215441501594e-8 4.678520286114548e-8 7.472749955578923e-8 7.130425362081187e-8 6.236091500562821e-8 6.488582588238455e-8
          3.329809695819885e-8 5.341757639044458e-8 5.504415220897986e-8 2.538645458979707e-9 4.050462511469189e-9 4.909524660230173e-9
          6.513065645982689e-9 1.603456576677415e-9 3.288705424597229e-9 4.556020652745858e-9 5.337850469087144e-10 6.834033050569661e-10
          6.416432666498302e-10 8.774392602509645e-10 2.8965605144255283e-10 3.0164842911181577e-10 3.2954537664067437e-10 4.3120525797785394e-10
          6.785830371144309e-10 1.1578150035747184e-10 7.49501486390946e-10 1.0714752154449628e-9 3.136408067810786e-10 5.328651393150335e-10
          1.4734744148636677e-10 1.4876964493240385e-10 6.88446326954044e-11 2.9002510534525616e-11 3.3121400099619046e-11 1.2277947912946239e-11
          1.501918483784409e-10 3.724028966471248e-11 2.379696662336754e-11 6.350220932122916e-12 5.33535703828658e-12 4.320493144450244e-12
          3.834641864391679e-8 3.7666453343329655e-8 3.780065691970884e-8 4.0575785288552884e-8 4.1365834528855656e-8 4.024971626818125e-8