<?xml version="1.0"?>
<VTKFile type="UnstructuredGrid" version="0.1" byte_order="LittleEndian" header_type="UInt32" compressor="vtkZLibDataCompressor">
  <UnstructuredGrid>
    <Piece NumberOfPoints="1615" NumberOfCells="1189">
      <PointData>
        <DataArray type="Int32" Name="libmesh_node_id" format="ascii" RangeMin="470" RangeMax="17662">
          470 1091 1093 1096 1097 1098
          2803 2807 2824 2825 2827 2830
          2832 2833 2834 2835 2836 2837
          2838 2839 2840 2841 4761 4796
          4821 4822 4823 4826 4827 4828
          4829 4830 4850 4851 4854 4855
          4876 4878 4879 4882 4883 4911
          4912 4914 4917 4927 4929 4931
          4945 4946 4948 4951 4961 4963
          4965 4967 4968 4969 4970 4971
          4972 4973 4974 4975 4976 4977
          4978 4979 4980 4981 4982 4983
          4984 4985 4986 4987 4988 4989
          4990 4991 4992 4993 4994 4995
          4996 4997 4998 4999 5000 5001
          5002 5003 5004 5005 5006 5007
          5008 5009 5010 5011 5012 5013
          5014 5015 5016 5017 5018 5019
          5020 5021 5022 5023 5024 5025
          5026 5027 5028 5029 5030 5031
          5032 5033 5034 5048 5052 5054
          5055 5058 5059 5076 5080 5082
          5083 5086 5087 5517 5519 5521
          5591 5595 5629 5630 5633 5635
          5636 5638 5649 5651 5653 5655
          5663 5664 5667 5669 5670 5672
          5683 5685 5687 5689 5731 5735
          5759 5763 12110 12117 12274 12275
          12276 12277 12278 12279 12280 12281
          12282 12283 12284 12285 12286 12287
          12288 12289 12290 12291 12292 12293
          12310 12311 12312 12313 12314 12317
          12318 12319 12320 12321 12322 12323
          12324 12325 12326 12327 12328 12329
          12330 12331 12332 12333 12334 12335
          12336 12337 12338 12339 12340 12341
          12342 12343 12344 12345 12346 12347
          12348 12349 12395 12401 12402 12403
          12418 12419 12420 12421 12422 12423
          12424 12425 12426 12427 12428 12429
          12430 12431 12562 12563 12564 12565
          12566 12567 12568 12569 12570 12571
          12582 12583 12584 12585 12586 12587
          12588 12589 12590 12591 12592 12593
          12594 12595 12610 12611 12612 12613
          12614 12615 12616 12617 12618 12619
          12620 12621 12622 12623 12814 12815
          12817 12820 12830 12832 12834 12848
          12849 12851 12854 12864 12866 12868
          13006 13007 13009 13012 13022 13024
          13026 13040 13041 13043 13046 13056
          13058 13060 13118 13119 13120 13121
          13122 13123 13124 13125 13126 13127
          13128 13129 13130 13131 13132 13133
          13134 13135 13136 13137 13138 13139
          13140 13141 13142 13143 13144 13145
          13146 13147 13148 13149 13150 13151
          13152 13153 13154 13155 13156 13157
          13158 13159 13160 13161 13162 13163
          13164 13165 13166 13167 13168 13169
          13170 13171 13172 13173 13174 13175
          13176 13177 13178 13179 13180 13181
          13182 13183 13184 13185 13186 13187
          13188 13189 13190 13191 13192 13193
          13194 13195 13196 13197 13198 13199
          13200 13201 13202 13203 13204 13205
          13206 13207 13208 13209 13210 13211
          13212 13213 13214 13215 13216 13217
          13218 13219 13220 13221 13222 13223
          13224 13225 13226 13227 13228 13229
          13230 13231 13232 13233 13234 13235
          13236 13237 13238 13239 13240 13241
          13242 13243 13244 13245 13246 13247
          13248 13249 13250 13251 13252 13253
          13254 13255 13256 13257 13258 13259
          13260 13261 13262 13263 13264 13265
          13266 13267 13268 13269 13270 13271
          13272 13273 13274 13275 13276 13277
          13278 13279 13280 13281 13282 13283
          13284 13285 13286 13287 13288 13289
          13290 13291 13292 13293 13294 13295
          13296 13297 13298 13299 13300 13301
          13302 13303 13304 13305 13306 13307
          13308 13309 13310 13311 13312 13313
          13314 13315 13316 13317 13318 13319
          13320 13321 13322 13323 13324 13325
          13326 13327 13328 13329 13330 13331
          13332 13333 13334 13335 13336 13337
          13338 13339 13340 13341 13342 13343
          13344 13345 13346 13347 13348 13349
          13350 13351 13352 13353 13354 13355
          13356 13357 13358 13359 13360 13361
          13362 13363 13364 13365 13366 13367
          13368 13369 13370 13371 13372 13373
          13374 13375 13376 13377 13378 13379
          13380 13381 13382 13383 13384 13385
          13386 13387 13388 13389 13390 13391
          13392 13393 13394 13395 13396 13397
          13398 13399 13400 13401 13402 13403
          13404 13405 13406 13407 13408 13409
          13410 13411 13412 13413 13414 13415
          13416 13417 13418 13419 13420 13421
          13422 13423 13424 13425 13426 13427
          13428 13429 13430 13431 13432 13433
          13434 13435 13436 13437 13438 13439
          13440 13441 13442 13443 13444 13445
          13446 13447 13448 13449 13450 13451
          13452 13453 13454 13455 13456 13457
          13458 13459 13460 13461 13462 13463
          13464 13465 13466 13467 13468 13469
          13470 13471 13472 13473 13474 13475
          13476 13477 13478 13479 13480 13481
          13482 13483 13484 13485 13486 13487
          13488 13489 13490 13491 13492 13493
          13494 13495 13496 13497 13498 13499
          13500 13501 13502 13503 13504 13505
          13506 13507 13508 13509 13510 13511
          13512 13513 13514 13515 13516 13517
          13518 13519 13520 13521 13522 13523
          13524 13525 13526 13527 13528 13529
          13530 13531 13532 13533 13534 13535
          13536 13537 13538 13539 13540 13541
          13542 13543 13544 13545 13546 13547
          13548 13549 13550 13551 13552 13553
          13554 13555 13556 13557 13558 13559
          13560 13561 13562 13563 13564 13565
          13566 13567 13568 13569 13570 13571
          13572 13573 13574 13575 13576 13577
          13578 13579 13580 13581 13582 13583
          13584 13585 13586 13587 13588 13589
          13590 13591 13602 13603 13604 13605
          13606 13607 13608 13609 13610 13611
          13622 13623 13624 13625 13626 13627
          13628 13629 13630 13631 13632 13633
          13634 13635 13650 13651 13652 13653
          13654 13655 13656 13657 13658 13659
          13660 13661 13662 13663 13774 13775
          13776 13777 13778 13779 13780 13781
          13782 13783 13794 13795 13796 13797
          13798 13799 13800 13801 13802 13803
          13814 13815 13816 13817 13818 13819
          13820 13821 13822 13823 13824 13825
          13826 13827 13842 13843 13844 13845
          13846 13847 13848 13849 13850 13851
          13852 13853 13854 13855 16127 16128
          16129 16130 16131 16132 16133 16135
          16137 16139 16140 16141 16142 16143
          16144 16145 16146 16149 16153 16154
          16155 16156 16157 16158 16159 16160
          16161 16163 16165 16167 16543 16544
          16545 16546 16547 16548 16549 16550
          16552 16554 16556 16571 16572 16573
          16574 16575 16576 16577 16578 16580
          16582 16584 16735 16736 16737 16738
          16739 16740 16741 16742 16743 16744
          16755 16756 16757 16758 16759 16760
          16761 16769 16770 16771 16772 16773
          16774 16775 16776 16777 16778 16789
          16790 16791 16792 16793 16794 16795
          16802 16871 16872 16873 16874 16875
          16876 16877 16880 16884 16885 16886
          16887 16888 16889 16890 16891 16892
          16894 16896 16898 16899 16900 16901
          16902 16903 16904 16905 16908 16910
          16912 16913 16914 16915 16916 16917
          16918 16919 16920 16922 16924 16926
          16983 16984 16985 16986 16987 16988
          16989 16990 16991 16992 17003 17004
          17005 17006 17007 17008 17009 17012
          17016 17017 17018 17019 17020 17021
          17022 17023 17024 17025 17026 17037
          17038 17039 17040 17041 17042 17043
          17046 17050 17119 17120 17121 17122
          17123 17124 17125 17126 17128 17130
          17132 17133 17134 17135 17136 17137
          17138 17139 17140 17142 17144 17146
          17147 17148 17149 17150 17151 17152
          17153 17154 17156 17158 17160 17161
          17162 17163 17164 17165 17166 17167
          17168 17170 17172 17174 17426 17427
          17428 17429 17430 17431 17432 17433
          17435 17437 17439 17454 17455 17456
          17457 17458 17459 17460 17461 17463
          17465 17467 17608 17609 17610 17611
          17612 17613 17614 17615 17617 17619
          17621 17636 17637 17638 17639 17640
          17641 17642 17643 17645 17647 17649
          4744 4801 4817 4757 2796 4806
          4819 4759 4871 4837 4875 4839
          5047 5035 5051 5037 5075 5041
          5079 5043 12056 12104 12106 12058
          12060 12108 2802 12105 12107 12109
          12111 12113 12115 12112 12114 12116
          12151 12261 12256 12175 12181 4802
          12262 12182 12263 4818 12185 2805
          12271 12266 12272 12273 4820 12268
          12308 12270 12309 12260 12296 12300
          12297 4824 12315 12316 12303 12307
          12304 4825 12212 12298 12242 4811
          12299 12243 12246 4816 12219 12305
          12249 4812 12306 12250 12253 2806
          12078 12079 12391 12390 12082 4792
          12394 12393 12392 12396 12085 12397
          12089 12086 12398 4793 12399 12400
          12405 12404 12409 12408 12411 12415
          12412 12416 4786 12358 12374 4844
          12376 12378 4848 12368 12432 12384
          12433 12436 12388 12437 12439 12440
          12443 12444 12549 12544 12550 12551
          4872 12559 12554 12575 12572 12560
          12576 12579 12574 12580 12546 12548
          12596 12556 12597 12600 12601 12603
          12604 12607 12608 12624 12625 12628
          12629 12631 12632 12635 12636 1090
          12158 12159 11843 4803 12160 12161
          4747 4804 12168 12169 2804 12170
          12171 4805 12176 11857 12177 12178
          12183 12184 12226 12227 4813 12228
          12229 4814 12236 12237 1092 12238
          12239 4815 12244 12245 12251 12252
          13595 13592 13596 13599 13594 13600
          13615 13612 13616 13619 13614 13620
          13636 13637 13640 13641 13643 13644
          13647 13648 13664 13665 13668 13669
          13671 13672 13675 13676 13787 13784
          13788 13791 13786 13792 13807 13804
          13808 13811 13806 13812 13828 13829
          13832 13833 13835 13836 13839 13840
          13856 13857 13860 13861 13863 13864
          13867 13868 15906 15908 15910 15912
          15898 5485 15911 16114 16115 16126
          5487 16118 5515 15905 15917 16121
          5486 15918 16122 16134 15919 2962
          16136 16125 5516 16138 5518 16002
          16116 16032 5499 16117 16033 16036
          5504 16009 16123 16039 16147 16124
          16148 16150 16043 16151 16152 5520
          16162 16164 16166 2967 15880 16362
          15884 16366 16364 16368 16376 16380
          16390 16392 16394 16396 16404 16408
          16395 5567 16401 16402 16551 16403
          5568 16553 16555 5592 16557 16409
          16558 16561 16562 16415 16564 16416
          16565 16568 16569 16579 16581 16583
          5596 16585 16586 16589 16590 16592
          16593 16596 16597 16016 16017 5501
          16018 16019 5502 16026 16027 16745
          16746 16029 16749 16751 16752 16754
          16034 16035 16041 16762 16764 16766
          16768 16779 16780 16783 16785 16786
          16788 16796 16798 16800 16797 16799
          16801 2996 16878 16879 16881 16882
          16883 5650 16893 16895 16897 5652
          16906 16907 16909 16911 5654 16921
          16923 16925 2999 16993 16994 16997
          16999 17000 17002 17010 17011 17013
          17014 17015 5668 17027 17028 17031
          17033 17034 17036 17044 17045 17047
          17048 17049 3002 17127 17129 17131
          5684 17141 17143 17145 5686 17155
          17157 17159 5688 17169 17171 17173
          3004 17434 17436 17438 5732 17440
          17441 17444 17445 17447 17448 17451
          17452 17462 17464 17466 5736 17468
          17469 17472 17473 17475 17476 17479
          17480 17616 17618 17620 5760 17622
          17623 17626 17627 17629 17630 17633
          17634 17644 17646 17648 5764 17650
          17651 17654 17655 17657 17658 17661
          17662
        </DataArray>
        <DataArray type="Float64" Name="bounds" format="ascii" RangeMin="0" RangeMax="0">
          0 0 0 0 0 0
          0 0 0 0 0 0
          0 0 0 0 0 0
          0 0 0 0 0 0
          0 0 0 0 0 0
          0 0 0 0 0 0
          0 0 0 0 0 0
          0 0 0 0 0 0
          0 0 0 0 0 0
          0 0 0 0 0 0
          0 0 0 0 0 0
          0 0 0 0 0 0
          0 0 0 0 0 0
          0 0 0 0 0 0
          0 0 0 0 0 0
          0 0 0 0 0 0
          0 0 0 0 0 0
          0 0 0 0 0 0
          0 0 0 0 0 0
          0 0 0 0 0 0
          0 0 0 0 0 0
          0 0 0 0 0 0
          0 0 0 0 0 0
          0 0 0 0 0 0
          0 0 0 0 0 0
          0 0 0 0 0 0
          0 0 0 0 0 0
          0 0 0 0 0 0
          0 0 0 0 0 0
          0 0 0 0 0 0
          0 0 0 0 0 0
          0 0 0 0 0 0
          0 0 0 0 0 0
          0 0 0 0 0 0
          0 0 0 0 0 0
          0 0 0 0 0 0
          0 0 0 0 0 0
          0 0 0 0 0 0
          0 0 0 0 0 0
          0 0 0 0 0 0
          0 0 0 0 0 0
          0 0 0 0 0 0
          0 0 0 0 0 0
          0 0 0 0 0 0
          0 0 0 0 0 0
          0 0 0 0 0 0
          0 0 0 0 0 0
          0 0 0 0 0 0
          0 0 0 0 0 0
          0 0 0 0 0 0
          0 0 0 0 0 0
          0 0 0 0 0 0
          0 0 0 0 0 0
          0 0 0 0 0 0
          0 0 0 0 0 0
          0 0 0 0 0 0
          0 0 0 0 0 0
          0 0 0 0 0 0
          0 0 0 0 0 0
          0 0 0 0 0 0
          0 0 0 0 0 0
          0 0 0 0 0 0
          0 0 0 0 0 0
          0 0 0 0 0 0
          0 0 0 0 0 0
          0 0 0 0 0 0
          0 0 0 0 0 0
          0 0 0 0 0 0
          0 0 0 0 0 0
          0 0 0 0 0 0
          0 0 0 0 0 0
          0 0 0 0 0 0
          0 0 0 0 0 0
          0 0 0 0 0 0
          0 0 0 0 0 0
          0 0 0 0 0 0
          0 0 0 0 0 0
          0 0 0 0 0 0
          0 0 0 0 0 0
          0 0 0 0 0 0
          0 0 0 0 0 0
          0 0 0 0 0 0
          0 0 0 0 0 0
          0 0 0 0 0 0
          0 0 0 0 0 0
          0 0 0 0 0 0
          0 0 0 0 0 0
          0 0 0 0 0 0
          0 0 0 0 0 0
          0 0 0 0 0 0
          0 0 0 0 0 0
          0 0 0 0 0 0
          0 0 0 0 0 0
          0 0 0 0 0 0
          0 0 0 0 0 0
          0 0 0 0 0 0
          0 0 0 0 0 0
          0 0 0 0 0 0
          0 0 0 0 0 0
          0 0 0 0 0 0
          0 0 0 0 0 0
          0 0 0 0 0 0
          0 0 0 0 0 0
          0 0 0 0 0 0
          0 0 0 0 0 0
          0 0 0 0 0 0
          0 0 0 0 0 0
          0 0 0 0 0 0
          0 0 0 0 0 0
          0 0 0 0 0 0
          0 0 0 0 0 0
          0 0 0 0 0 0
          0 0 0 0 0 0
          0 0 0 0 0 0
          0 0 0 0 0 0
          0 0 0 0 0 0
          0 0 0 0 0 0
          0 0 0 0 0 0
          0 0 0 0 0 0
          0 0 0 0 0 0
          0 0 0 0 0 0
          0 0 0 0 0 0
          0 0 0 0 0 0
          0 0 0 0 0 0
          0 0 0 0 0 0
          0 0 0 0 0 0
          0 0 0 0 0 0
          0 0 0 0 0 0
          0 0 0 0 0 0
          0 0 0 0 0 0
          0 0 0 0 0 0
          0 0 0 0 0 0
          0 0 0 0 0 0
          0 0 0 0 0 0
          0 0 0 0 0 0
          0 0 0 0 0 0
          0 0 0 0 0 0
          0 0 0 0 0 0
          0 0 0 0 0 0
          0 0 0 0 0 0
          0 0 0 0 0 0
          0 0 0 0 0 0
          0 0 0 0 0 0
          0 0 0 0 0 0
          0 0 0 0 0 0
          0 0 0 0 0 0
          0 0 0 0 0 0
          0 0 0 0 0 0
          0 0 0 0 0 0
          0 0 0 0 0 0
          0 0 0 0 0 0
          0 0 0 0 0 0
          0 0 0 0 0 0
          0 0 0 0 0 0
          0 0 0 0 0 0
          0 0 0 0 0 0
          0 0 0 0 0 0
          0 0 0 0 0 0
          0 0 0 0 0 0
          0 0 0 0 0 0
          0 0 0 0 0 0
          0 0 0 0 0 0
          0 0 0 0 0 0
          0 0 0 0 0 0
          0 0 0 0 0 0
          0 0 0 0 0 0
          0 0 0 0 0 0
          0 0 0 0 0 0
          0 0 0 0 0 0
          0 0 0 0 0 0
          0 0 0 0 0 0
          0 0 0 0 0 0
          0 0 0 0 0 0
          0 0 0 0 0 0
          0 0 0 0 0 0
          0 0 0 0 0 0
          0 0 0 0 0 0
          0 0 0 0 0 0
          0 0 0 0 0 0
          0 0 0 0 0 0
          0 0 0 0 0 0
          0 0 0 0 0 0
          0 0 0 0 0 0
          0 0 0 0 0 0
          0 0 0 0 0 0
          0 0 0 0 0 0
          0 0 0 0 0 0
          0 0 0 0 0 0
          0 0 0 0 0 0
          0 0 0 0 0 0
          0 0 0 0 0 0
          0 0 0 0 0 0
          0 0 0 0 0 0
          0 0 0 0 0 0
          0 0 0 0 0 0
          0 0 0 0 0 0
          0 0 0 0 0 0
          0 0 0 0 0 0
          0 0 0 0 0 0
          0 0 0 0 0 0
          0 0 0 0 0 0
          0 0 0 0 0 0
          0 0 0 0 0 0
          0 0 0 0 0 0
          0 0 0 0 0 0
          0 0 0 0 0 0
          0 0 0 0 0 0
          0 0 0 0 0 0
          0 0 0 0 0 0
          0 0 0 0 0 0
          0 0 0 0 0 0
          0 0 0 0 0 0
          0 0 0 0 0 0
          0 0 0 0 0 0
          0 0 0 0 0 0
          0 0 0 0 0 0
          0 0 0 0 0 0
          0 0 0 0 0 0
          0 0 0 0 0 0
          0 0 0 0 0 0
          0 0 0 0 0 0
          0 0 0 0 0 0
          0 0 0 0 0 0
          0 0 0 0 0 0
          0 0 0 0 0 0
          0 0 0 0 0 0
          0 0 0 0 0 0
          0 0 0 0 0 0
          0 0 0 0 0 0
          0 0 0 0 0 0
          0 0 0 0 0 0
          0 0 0 0 0 0
          0 0 0 0 0 0
          0 0 0 0 0 0
          0 0 0 0 0 0
          0 0 0 0 0 0
          0 0 0 0 0 0
          0 0 0 0 0 0
          0 0 0 0 0 0
          0 0 0 0 0 0
          0 0 0 0 0 0
          0 0 0 0 0 0
          0 0 0 0 0 0
          0 0 0 0 0 0
          0 0 0 0 0 0
          0 0 0 0 0 0
          0 0 0 0 0 0
          0 0 0 0 0 0
          0 0 0 0 0 0
          0 0 0 0 0 0
          0 0 0 0 0 0
          0 0 0 0 0 0
          0 0 0 0 0 0
          0 0 0 0 0 0
          0 0 0 0 0 0
          0 0 0 0 0 0
          0 0 0 0 0 0
          0 0 0 0 0 0
          0 0 0 0 0 0
          0 0 0 0 0 0
          0 0 0 0 0 0
          0 0 0 0 0 0
          0 0 0 0 0 0
          0 0 0 0 0 0
          0 0 0 0 0 0
          0 0 0 0 0 0
          0 0 0 0 0 0
          0 0 0 0 0 0
          0 0 0 0 0 0
          0
        </DataArray>
        <DataArray type="Float64" Name="gradient_error" format="ascii" RangeMin="2.4549863368052256e-11" RangeMax="2.564926494494371e-7">
          2.6370026003634842e-8 1.970837502025411e-7 1.1676065023234616e-9 1.721947823794305e-8 2.564926494494371e-7 1.5905609670416395e-9
          8.025627318307956e-10 5.349318502173432e-9 2.5255744334682562e-8 1.1481890662413103e-7 2.400170437541364e-7 1.2083698814737573e-7
          3.928516167129734e-8 3.6459275104695854e-8 2.4387532265380157e-8 1.1464705887577705e-8 6.675739681533669e-9 1.4707713950935425e-9
          4.238773125887496e-8 3.9409286730497795e-8 1.2308356724162916e-8 7.215435215452053e-9 1.6331636926882816e-7 1.8092763510400879e-9
          9.936863972481023e-8 1.291487120754213e-8 4.515755768871575e-8 2.2127078702130554e-9 9.849895956838814e-10 7.136243454053908e-9
          3.3825281639278286e-9 2.617956839650033e-9 5.27502518360734e-10 2.2249934966500957e-10 6.626954887059152e-10 2.805734791671169e-10
          2.192936124098198e-9 8.080619504645584e-10 3.4266940898604767e-10 9.536807095925087e-10 4.0472080725970486e-10 2.6886223587473817e-8
          5.143772952082484e-8 1.0713167587164648e-7 5.522010604575188e-8 1.503148272939935e-7 1.1435550330327324e-7 1.6442797862117362e-7
          1.8319736175138948e-8 5.6867190651385294e-8 1.1937717557737024e-7 5.5510158941575935e-8 1.7327545391233905e-7 1.317901087723765e-7
          1.7611035208063983e-7 3.5685105232738993e-8 5.223968533423832e-8 3.562852259277185e-8 4.792674617427836e-8 1.0371495993392346e-7
          3.337032919792333e-8 3.733036954365993e-8 5.599831711846893e-8 5.08722266166813e-8 1.1238332892056248e-7 3.4866027181894715e-8
          3.694787625601074e-8 2.2411336232259107e-8 2.0339556306144342e-8 2.0314465087089246e-8 1.0495759918883856e-8 3.615827346960188e-8
          3.964365071839717e-8 2.2071211008848967e-8 2.2183170928937164e-8 1.1147265622912189e-7 1.4621919138973914e-8 5.038030137604288e-8
          6.0767621495345826e-9 1.2168189025663935e-7 1.599951606493214e-8 5.486118614016664e-8 8.117822218393754e-9 3.8615611337485264e-9
          2.9907276754103343e-9 1.335071710763185e-9 8.906920483305271e-9 4.246851431456502e-9 3.2940728830602026e-9 3.7986843800719556e-8
          5.8121081445860856e-8 4.1714939497106144e-8 5.250097363334026e-8 1.175899472567688e-7 3.8580671071151917e-8 3.7130531142454745e-8
          5.848426307113739e-8 5.296794488750824e-8 1.1921551720910268e-7 3.653055015544386e-8 4.137222069701002e-8 2.5857334187600955e-8
          2.320075271677856e-8 2.3436182036429088e-8 1.2090342409111986e-8 3.6687893138260804e-8 4.1912865121096846e-8 2.3595543452978534e-8
          2.3866338766505166e-8 1.2821785724991435e-7 1.691359949411233e-8 5.783751617119593e-8 7.0757869758225016e-9 1.3032576699607493e-7
          1.7234379085224064e-8 5.888243067557814e-8 9.42309893244034e-9 4.4983032159556885e-9 3.493567800468641e-9 1.5595981686138738e-9
          9.604456029180119e-9 4.585939683544392e-9 3.5632992681131888e-9 2.4927930374944194e-9 2.738123904300958e-9 1.087672386411309e-9
          4.615878950017708e-10 1.1969553049837302e-9 5.076902584059383e-10 2.8994631396901867e-9 2.955512552949016e-9 1.2688536834698772e-9
          5.378590542831224e-10 1.2939512674750228e-9 5.483638809178464e-10 3.9293773601434003e-10 1.3508484813269325e-9 4.6553780408726696e-10
          1.3629167181931055e-10 1.6078997856276292e-10 1.0891181402517277e-8 9.013526545484055e-9 4.298294237827042e-9 1.1862793777775456e-8
          9.852784548761637e-9 4.721286562934285e-9 1.5448892195390886e-9 5.317951406877766e-10 1.7009684875250815e-9 5.852562754346253e-10
          1.2482900448869155e-8 1.0393361938300764e-8 4.994859446011381e-9 1.269662774284237e-8 1.058006220489273e-8 5.089639371748205e-9
          1.8025522088531185e-9 6.201098707127489e-10 1.8378506397565551e-9 6.322243021112933e-10 1.831171622929987e-10 2.011193897112985e-10
          2.128461764490924e-10 2.1691856810816168e-10 2.6277376640755034e-9 1.2200685207693139e-9 2.544381873540818e-8 1.799888697232822e-8
          2.758693505257082e-8 2.2802170490363188e-8 1.8102496941051783e-8 1.5802541675206228e-8 1.1988830878987471e-8 2.4675819923396743e-8
          1.951175603995783e-8 1.7018778646242368e-8 1.1917461672663049e-8 8.311461430760493e-9 1.2764436597534924e-8 1.0450731396952672e-8
          7.780172212666902e-9 7.05490808452428e-9 4.95717825493931e-9 1.122320367658038e-8 8.392736602286416e-9 7.581931321652403e-9
          2.9122606741439415e-9 2.008879411936482e-9 5.184043124043016e-9 3.672818278325638e-9 3.2028203212019915e-9 1.3563954940703142e-9
          8.929142489999896e-10 2.5247889738105056e-9 1.6782427821542324e-9 1.4954884988460447e-9 1.4197827832855906e-8 1.0710711067649781e-8
          9.036281798218087e-9 6.603769952709575e-9 1.5277412297401517e-8 1.1540618723049972e-8 9.750740663023338e-9 7.698853454878578e-9
          5.257881591189641e-9 4.639056693442232e-9 3.122112010355002e-9 8.312142051226573e-9 5.687092187510844e-9 5.020042934676848e-9
          5.650040384891575e-9 4.009840655269147e-9 3.493888365501883e-9 2.4171175478793857e-9 6.107250984974447e-9 4.3405757616330324e-9
          3.779505219235583e-9 2.7597556610990067e-9 1.8358113604269786e-9 1.6349061289936273e-9 1.0771704417402782e-9 2.990185190778579e-9
          1.990192433467618e-9 1.7718316502050403e-9 8.663768442133694e-10 5.739997577893161e-10 3.7390449200469824e-10 3.4444257529692113e-10
          1.4516473895555437e-9 9.757915857148246e-10 9.03497541674165e-10 5.933268055358413e-10 1.620348107605283e-9 1.091132570550938e-9
          1.007939065116597e-9 6.476362114982681e-10 4.2233157805046634e-10 3.87956194283972e-10 2.5083379106633e-10 7.250859342164808e-10
          4.731917439291996e-10 4.3370760136170773e-10 5.461094513301743e-9 3.905475914157761e-9 5.86606625278361e-9 4.6152504859663465e-9
          3.1672626038688723e-9 3.1790382014230952e-9 2.031785408277622e-9 4.965404582547488e-9 3.4187852038787443e-9 3.4229605481062764e-9
          1.7958285234509442e-9 1.2109230535534706e-9 1.116352059973214e-9 7.346667484695523e-10 1.974861008630194e-9 1.3332544985037032e-9
          1.226753174207782e-9 8.053937458153619e-10 5.25850228580305e-10 4.811128276502771e-10 3.1134194973053804e-10 8.873392881548776e-10
          5.795112166468699e-10 5.294358284439442e-10 2.1539935137556693e-9 1.455895001291235e-9 1.3371025249403355e-9 8.815468486662417e-10
          2.3297404015462636e-9 1.5763845914302973e-9 1.4453286386949945e-9 9.69466577431502e-10 6.332294936688748e-10 5.778152885990937e-10
          3.7400299745588394e-10 1.0501307926464905e-9 6.859315067231826e-10 6.252919583947401e-10 2.665415071656708e-8 3.6824525751441466e-8
          4.9066182936756966e-8 3.7948517735948176e-8 5.140523551761477e-8 4.8032513420769616e-8 5.339844479054667e-8 2.6731860750102145e-8
          3.8742013910577284e-8 5.351819835813803e-8 3.8711028595136536e-8 5.503497585973171e-8 5.092291627524145e-8 5.6283790856717176e-8
          2.1905427937240282e-8 3.7522479456868105e-8 5.642029480410279e-8 3.585957245717416e-8 5.7236145324161183e-8 5.196374753629555e-8
          5.773641075557148e-8 1.7026761974936683e-8 3.4551371876675857e-8 5.618623216427037e-8 3.4035649365663e-8 5.781028008017489e-8
          5.251478571552413e-8 5.777476926904149e-8 3.060785823885427e-8 3.964383859720153e-8 3.440828832396666e-8 4.120711698237147e-8
          5.016133314203021e-8 5.0128667292338534e-8 3.129571492546027e-8 4.1193558687643247e-8 4.321845152917625e-8 5.250551057078815e-8
          3.551386107895527e-8 4.077245526994574e-8 3.3763542161231454e-8 3.9088712204306254e-8 4.889773852861325e-8 4.629141728824174e-8
          3.766402848059352e-8 4.297379785807636e-8 4.0697242210966514e-8 5.06993020619125e-8 5.1487744248428075e-8 5.02664719845901e-8
          5.13326411683445e-8 4.318104041222947e-8 5.344538686968353e-8 5.2041174236666735e-8 5.297115504761699e-8 4.78297553805732e-8
          4.2913033844329134e-8 3.7199009957051285e-8 3.1405986005190584e-8 4.975472823527209e-8 4.50336653578581e-8 3.945489580119432e-8
          3.179761841152365e-8 4.246476109490068e-8 3.6638200583345494e-8 4.4940495566141807e-8 5.462671307608824e-8 5.4237033912598113e-8
          3.195408082527236e-8 4.334590085417457e-8 4.623567597504347e-8 5.6410291865616285e-8 3.944968175754838e-8 4.500139354313951e-8
          3.747624147177445e-8 4.236105867798969e-8 5.2423500735035e-8 4.9437485506471996e-8 4.0746696294323286e-8 4.6619655753982364e-8
          4.400930827946033e-8 5.4095202134357836e-8 5.5063863697625125e-8 5.3591753737368166e-8 5.4006205021351494e-8 4.698580611115059e-8
          5.635045795451846e-8 5.496379504121463e-8 5.461805306088113e-8 5.1371448359124236e-8 4.680338582022691e-8 4.137349908894227e-8
          3.509325380565338e-8 5.281726500446522e-8 4.82474360470946e-8 4.286584733298577e-8 3.355970615200952e-8 3.797584624242534e-8
          3.3779018669054384e-8 3.5593862753464285e-8 4.191311680982016e-8 3.5108239372793665e-8 3.432964464749588e-8 3.89984146236115e-8
          3.7029268001687786e-8 4.3654324565499775e-8 2.872678938231252e-8 2.8929168746117847e-8 2.124236837978026e-8 2.1143273816443203e-8
          2.67577548616186e-8 1.9288270411724677e-8 3.0310377943965197e-8 3.0566520588321124e-8 2.2298691498103916e-8 2.8291296141306477e-8
          3.583988510850106e-8 2.8026051130513644e-8 2.5039038382116235e-8 1.9207900151303845e-8 3.786640925146822e-8 2.9642206898130244e-8
          2.654882563360472e-8 2.083272795466178e-8 1.4864117860888528e-8 1.41668716081853e-8 9.909066887052648e-9 2.200141619160082e-8
          1.5698544721099018e-8 1.4975568151708626e-8 3.512228635606068e-8 3.9996362104604604e-8 3.567924311667408e-8 3.8161648356799905e-8
          4.5124734599452996e-8 3.8465821827384993e-8 3.610644843334741e-8 4.095310056629406e-8 3.8913494070342345e-8 4.625303321654761e-8
          3.16401153966307e-8 3.1943722075918235e-8 2.3451766231225445e-8 2.332740370935709e-8 2.9634854109615943e-8 2.1272259248664806e-8
          3.266902326655553e-8 3.306046716150932e-8 2.4232185165553146e-8 3.079137824587332e-8 3.95655318051148e-8 3.1038944407402075e-8
          2.7908747095073143e-8 2.1309181720488515e-8 4.091712788670499e-8 3.224567164280378e-8 2.9051290974644912e-8 2.3058504268635148e-8
          1.643752057739608e-8 1.5693885966651156e-8 1.1018104025652078e-8 2.397855354240208e-8 1.706819984908432e-8 1.631141312762749e-8
          2.9654485186540204e-8 2.0730835141373153e-8 3.157123350455602e-8 2.6491951442895305e-8 2.088257988917236e-8 1.818538396276611e-8
          1.3800101957712822e-8 2.8188392958718476e-8 2.2175671119761023e-8 1.9273441623913373e-8 1.3572776871266469e-8 9.494713563663878e-9
          1.4333571667637308e-8 1.1960257401651908e-8 8.978134249678687e-9 8.08756080863627e-9 5.724975414825703e-9 1.265025307896664e-8
          9.523085104216983e-9 8.56203012888675e-9 3.327114322605058e-8 2.3122073712829008e-8 3.472697061936413e-8 2.9701280457741712e-8
          2.3339977887823783e-8 2.0260051635172395e-8 1.5360463476810396e-8 3.099080547758166e-8 2.433372989253965e-8 2.1123883893850126e-8
          1.5043484943013334e-8 1.0541045780199908e-8 1.5680057455909664e-8 1.3284846002647474e-8 1.0015056926474303e-8 8.997524862952574e-9
          6.396532344160169e-9 1.3846774985443713e-8 1.0442561016431852e-8 9.380851503478505e-9 1.631432916242252e-8 1.2328381894459862e-8