<?xml version="1.0"?>
<VTKFile type="UnstructuredGrid" version="0.1" byte_order="LittleEndian" header_type="UInt32" compressor="vtkZLibDataCompressor">
  <UnstructuredGrid>
    <Piece NumberOfPoints="1882" NumberOfCells="1212">
      <PointData>
        <DataArray type="Int32" Name="libmesh_node_id" format="ascii" RangeMin="314" RangeMax="8451">
          316 391 392 393 464 466
          467 469 544 546 547 549
          550 554 555 556 557 568
          620 621 626 628 629 630
          631 632 633 634 635 636
          637 638 639 641 642 643
          644 645 646 647 749 750
          751 752 753 754 755 756
          757 758 759 760 761 762
          763 764 765 766 767 768
          769 770 771 772 773 774
          775 776 777 778 779 780
          784 785 787 788 790 801
          905 906 908 911 925 926
          928 931 933 934 935 936
          937 938 939 940 941 942
          943 944 945 946 947 948
          949 950 951 952 953 954
          955 956 957 958 959 960
          961 962 963 964 965 966
          967 968 969 970 971 972
          973 974 975 976 977 978
          979 980 981 982 983 984
          985 986 987 988 989 990
          991 992 993 994 995 996
          997 998 999 1000 1001 1002
          1003 1004 1007 1008 1009 1010
          1012 1013 1014 1015 1016 1017
          1018 1019 1020 1021 1022 1023
          1024 1025 1026 1027 1028 1029
          1030 1031 1032 1033 1034 1035
          1036 1046 1060 1065 1067 1069
          1084 1089 1100 1102 1104 1106
          1263 1264 1267 1268 1270 1271
          1272 1273 1274 1276 1277 1278
          1279 1280 1281 1282 1283 1284
          1285 1286 1287 1289 1291 1292
          1293 1294 1296 1297 1299 1300
          1301 1302 1303 1304 1305 1306
          1307 1308 1309 1310 1311 1312
          1313 1314 1318 1319 1331 1332
          1335 1336 1338 1340 1458 1460
          1462 1464 1465 1466 1467 1468
          1469 1470 1471 1472 1473 1474
          1475 1476 1477 1478 1479 1480
          1481 1482 1483 1484 1485 1486
          1487 1488 1489 1490 1491 1492
          1493 1556 1557 1558 1559 1560
          1561 1562 1563 1564 1565 1566
          1567 1568 1569 1570 1571 1572
          1573 1574 1575 1576 1577 1578
          1579 1580 1581 1582 1583 1584
          1827 1828 1829 1830 1834 1835
          1836 1847 1848 1849 1850 1851
          1852 1853 1854 1855 1856 1864
          1865 1866 1867 1868 1869 1870
          1935 1936 1937 1938 1939 1940
          1941 1942 1943 1944 1952 1953
          1954 1955 1956 1957 1958 1959
          1960 1963 1965 1966 1967 1968
          1969 1970 1971 1972 1973 1974
          1982 1983 1984 1985 1986 1987
          1988 1989 1990 1991 1992 1993
          1994 1995 1996 1997 1998 1999
          2000 2001 2002 2003 2004 2005
          2006 2007 2008 2009 2010 2011
          2012 2013 2014 2015 2016 2017
          2018 2019 2020 2021 2022 2023
          2024 2025 2026 2027 2028 2029
          2030 2031 2032 2033 2034 2035
          2036 2037 2038 2039 2040 2041
          2042 2043 2044 2045 2046 2047
          2048 2049 2050 2051 2052 2053
          2054 2055 2056 2057 2058 2059
          2060 2061 2062 2063 2064 2065
          2066 2067 2068 2069 2070 2071
          2072 2073 2074 2075 2076 2077
          2078 2079 2080 2081 2082 2083
          2084 2085 2086 2087 2088 2089
          2090 2091 2092 2093 2094 2095
          2096 2097 2098 2099 2100 2101
          2102 2103 2104 2105 2106 2107
          2108 2109 2110 2111 2112 2113
          2114 2115 2116 2117 2118 2119
          2120 2121 2122 2123 2124 2125
          2126 2127 2128 2129 2130 2131
          2132 2133 2134 2135 2136 2137
          2138 2139 2140 2141 2142 2143
          2144 2145 2146 2147 2148 2149
          2150 2151 2152 2153 2154 2155
          2156 2157 2158 2159 2160 2161
          2162 2163 2164 2165 2166 2167
          2168 2169 2170 2171 2172 2173
          2174 2175 2176 2177 2178 2179
          2180 2181 2182 2183 2184 2185
          2186 2187 2188 2189 2190 2191
          2192 2193 2194 2195 2196 2197
          2198 2199 2200 2201 2202 2203
          2204 2205 2206 2207 2208 2209
          2210 2211 2212 2213 2214 2215
          2216 2217 2218 2219 2220 2221
          2222 2223 2224 2225 2226 2227
          2228 2229 2230 2231 2232 2233
          2234 2235 2236 2237 2238 2239
          2240 2241 2242 2243 2244 2245
          2246 2247 2248 2249 2250 2251
          2252 2253 2254 2255 2256 2257
          2258 2259 2260 2261 2262 2263
          2264 2265 2266 2267 2268 2269
          2270 2271 2272 2273 2274 2275
          2276 2277 2278 2279 2280 2281
          2282 2283 2284 2285 2286 2287
          2288 2289 2290 2291 2292 2293
          2294 2295 2296 2297 2298 2299
          2300 2301 2302 2303 2304 2305
          2306 2307 2308 2309 2310 2311
          2312 2313 2314 2315 2316 2317
          2318 2319 2320 2321 2322 2323
          2324 2325 2326 2327 2328 2329
          2330 2331 2332 2333 2334 2335
          2336 2337 2338 2339 2340 2341
          2342 2343 2344 2345 2346 2347
          2348 2349 2350 2351 2352 2353
          2354 2355 2356 2357 2358 2359
          2360 2361 2362 2363 2364 2365
          2366 2367 2368 2369 2370 2371
          2372 2373 2374 2375 2376 2377
          2378 2379 2380 2381 2382 2383
          2384 2385 2386 2387 2388 2389
          2390 2391 2392 2393 2394 2395
          2396 2397 2398 2399 2400 2401
          2402 2403 2404 2405 2406 2407
          2408 2409 2410 2411 2412 2413
          2414 2415 2416 2417 2418 2419
          2420 2421 2422 2423 2424 2425
          2426 2427 2428 2429 2430 2431
          2432 2433 2434 2435 2436 2437
          2438 2439 2441 2444 2445 2449
          2450 2451 2452 2453 2454 2455
          2456 2457 2458 2459 2460 2461
          2462 2463 2464 2465 2466 2467
          2468 2469 2470 2471 2472 2473
          2478 2484 2485 2486 2487 2488
          2489 2490 2491 2492 2493 2494
          2495 2496 2497 2498 2499 2500
          2501 2502 2503 2504 2505 2506
          2507 2508 2509 2510 2511 2512
          2513 2514 2515 2516 2517 2518
          2519 2520 2521 2522 2523 2524
          2525 2526 2527 2528 2529 2530
          2531 2532 2533 2534 2535 2536
          2537 2538 2539 2540 2541 2542
          2543 2544 2545 2546 2547 2548
          2549 2550 2551 2552 2553 2554
          2555 2556 2557 2558 2559 2560
          2561 2562 2563 2564 2565 2618
          2619 2620 2740 2741 2742 2743
          2744 2745 2746 2774 2775 2776
          2777 2778 2779 2780 2856 2857
          2858 2862 2863 2864 2865 2866
          2867 2868 3134 3135 3136 3137
          3138 3139 3140 3216 3218 3219
          3233 3234 3235 3236 3237 3238
          3239 3250 3251 3252 3253 3254
          3255 3256 3257 3258 3259 3260
          3261 3262 3263 3264 3265 3266
          3267 3268 3269 3270 3271 3272
          3273 3274 3275 3276 3277 3278
          3279 3280 3281 3282 3283 3284
          3285 3286 3287 3288 3289 3290
          3291 3292 3293 3294 3295 3296
          3297 3298 3299 3300 3301 3302
          3303 3304 3305 3306 3307 3308
          3309 3310 3311 3312 3313 3314
          3315 3316 3317 3735 3736 3737
          3738 3739 3740 3741 3742 3743
          3744 3745 3746 3747 3748 3749
          3750 3751 3752 3753 3754 3755
          3756 3757 3758 3759 3760 3761
          3762 3763 3764 3765 3766 3767
          3768 3769 3770 3771 3772 3773
          3774 3775 3776 3777 3778 3779
          3780 3781 3782 3783 3784 3785
          3786 3787 3788 3789 3790 3791
          3792 3793 3794 3795 3796 3797
          3798 3799 3800 3801 3802 3803
          3804 3805 3806 3807 3808 3809
          3810 3811 3812 3813 3814 3815
          3816 3817 3818 3819 3820 3821
          3822 3823 3824 3825 3826 3827
          3828 3829 3830 3831 3832 3833
          3834 3835 3836 3837 3838 3839
          3840 3841 3842 3843 3844 3845
          3846 3847 3848 3849 3850 3851
          3852 3853 3854 3855 3856 3857
          3858 3859 3860 3864 3865 3882
          3883 3886 3888 3889 3891 3904
          3906 3914 3915 3916 3917 3918
          3919 3920 3921 3922 3923 3924
          3925 3926 3927 3928 3929 3930
          3931 3932 3933 3934 3935 3936
          3937 3938 3939 3940 3941 3942
          3943 3944 3945 3946 3947 3948
          3949 3950 3951 3952 3953 3954
          3955 3956 3957 3958 3959 3960
          3961 3962 3963 3964 3965 3966
          3967 3968 3969 3970 3971 3972
          3973 3974 3975 3976 3977 3978
          3979 3980 3981 3982 3983 3986
          3988 3989 3991 4002 4004 4006
          4008 7865 7866 7867 7868 7869
          7870 7871 7872 7873 7874 7875
          7876 7877 7878 7879 7880 7881
          7882 7883 7884 7885 7886 7887
          7888 7889 7890 7891 7892 7893
          7894 7895 7896 7897 7898 7899
          7900 7901 7902 7903 7904 7905
          7906 7907 7908 7909 7910 7911
          7912 7913 7914 7915 7916 7917
          7918 7919 7920 7921 7922 7923
          7924 7925 7926 7927 7928 7929
          7930 7931 7932 7933 7934 7935
          7936 7937 7938 7939 7940 7941
          7942 7943 7944 7945 7946 7947
          7948 7949 7950 7951 7952 7953
          7954 7955 7956 7957 7958 7959
          7960 7961 7962 7963 7964 7965
          7966 7967 7968 7969 7970 7971
          7972 7973 7974 7975 7976 7977
          7978 7979 7980 7981 7982 7983
          7984 7985 7986 7987 7988 7989
          7990 7991 7992 7993 7994 7995
          7996 7997 7998 7999 8000 8001
          8002 8003 8004 8005 8006 8007
          8008 8009 8010 8011 8012 8013
          8014 8015 8016 8017 8018 8019
          8020 8021 8022 8023 8024 8025
          8026 8027 8028 8034 8035 8036
          8037 8043 8044 8045 8046 8047
          8048 8049 8050 8051 8052 8063
          8064 8065 8129 8130 8131 8132
          8133 8134 8135 8136 8137 8138
          8139 8140 8141 8142 8143 8144
          8145 8146 8147 8148 8149 8150
          8151 8152 8153 8154 8155 8156
          8157 8158 8159 8160 8161 8162
          8163 8164 8165 8166 8167 8168
          8169 8170 8171 8172 8173 8174
          8175 8176 8177 8178 8179 8180
          8181 8182 8183 8184 8185 8186
          8187 8188 8189 8190 8191 8192
          8193 8194 8195 8196 8197 8198
          8199 8200 8201 8202 8203 8204
          8205 8206 8207 8208 8209 8210
          8211 8212 8213 8214 8215 8216
          8217 8218 8219 8220 8221 8222
          8223 8224 8225 8226 8227 8228
          8229 8230 8231 8232 8233 8234
          8235 8236 8237 8238 8239 8240
          8241 8242 8243 8244 8245 8246
          8247 8249 8250 8251 8252 8253
          8254 8255 8256 8257 8258 8259
          8260 8261 8262 8263 8264 8265
          8266 8267 8268 8269 8270 8271
          8272 8273 8274 8275 8276 8277
          8278 8279 8280 8281 8282 8283
          8284 8285 8286 8287 8288 8289
          8290 8291 8292 8293 8294 8295
          8296 8297 8298 8299 8300 8301
          8302 8303 8304 8305 8306 8307
          8308 8309 8310 8311 8312 8313
          8314 8315 8316 8317 8318 8319
          8320 8321 8322 8323 8324 8325
          8326 8327 8328 8329 8330 8331
          8332 8333 8334 8335 8336 8337
          8338 8339 8340 8341 8342 8343
          8344 8345 8346 8347 8348 8349
          8350 8351 8352 8353 8354 8355
          8356 8357 8358 8359 8360 8361
          8362 8363 8364 8365 8366 8367
          8368 8369 8370 8371 8372 8373
          8374 8375 8376 8377 8378 8379
          8380 8381 8382 8383 8384 8391
          8392 8393 8394 8395 8396 8397
          8398 8399 8400 8411 8412 8413
          8414 8415 8416 8417 8425 8426
          8427 8428 8429 8430 8431 8432
          8433 8434 8445 8446 8447 8448
          8449 8450 8451 532 545 551
          315 534 552 538 548 317
          553 559 565 561 566 571
          692 693 694 695 394 696
          697 702 703 704 652 707
          657 713 533 739 740 741
          744 389 747 542 560 781
          782 783 786 789 569 793
          794 802 796 797 803 745
          746 903 904 748 907 804
          570 1068 1101 1103 1105 1137
          1138 1139 1140 314 1142 1143
          1150 1151 558 1180 1181 390
          1188 1189 1183 1192 623 1252
          1245 465 1254 1250 1265 1266
          1269 1275 1288 1290 1295 1298
          1315 1316 1317 1320 1333 1334
          1337 1339 1441 1443 1442 912
          1448 1447 1449 1457 1459 1461
          1463 1446 1348 1058 1349 1825
          1839 1840 1842 909 1845 910
          1832 1858 1860 1862 1927 1928
          1930 923 1933 924 1946 1948
          1950 927 1962 929 930 1976
          1978 1980 932 3217 3224 3228
          3231 3242 3245 3248
        </DataArray>
        <DataArray type="Float64" Name="bounds" format="ascii" RangeMin="0" RangeMax="0">
          0 0 0 0 0 0
          0 0 0 0 0 0
          0 0 0 0 0 0
          0 0 0 0 0 0
          0 0 0 0 0 0
          0 0 0 0 0 0
          0 0 0 0 0 0
          0 0 0 0 0 0
          0 0 0 0 0 0
          0 0 0 0 0 0
          0 0 0 0 0 0
          0 0 0 0 0 0
          0 0 0 0 0 0
          0 0 0 0 0 0
          0 0 0 0 0 0
          0 0 0 0 0 0
          0 0 0 0 0 0
          0 0 0 0 0 0
          0 0 0 0 0 0
          0 0 0 0 0 0
          0 0 0 0 0 0
          0 0 0 0 0 0
          0 0 0 0 0 0
          0 0 0 0 0 0
          0 0 0 0 0 0
          0 0 0 0 0 0
          0 0 0 0 0 0
          0 0 0 0 0 0
          0 0 0 0 0 0
          0 0 0 0 0 0
          0 0 0 0 0 0
          0 0 0 0 0 0
          0 0 0 0 0 0
          0 0 0 0 0 0
          0 0 0 0 0 0
          0 0 0 0 0 0
          0 0 0 0 0 0
          0 0 0 0 0 0
          0 0 0 0 0 0
          0 0 0 0 0 0
          0 0 0 0 0 0
          0 0 0 0 0 0
          0 0 0 0 0 0
          0 0 0 0 0 0
          0 0 0 0 0 0
          0 0 0 0 0 0
          0 0 0 0 0 0
          0 0 0 0 0 0
          0 0 0 0 0 0
          0 0 0 0 0 0
          0 0 0 0 0 0
          0 0 0 0 0 0
          0 0 0 0 0 0
          0 0 0 0 0 0
          0 0 0 0 0 0
          0 0 0 0 0 0
          0 0 0 0 0 0
          0 0 0 0 0 0
          0 0 0 0 0 0
          0 0 0 0 0 0
          0 0 0 0 0 0
          0 0 0 0 0 0
          0 0 0 0 0 0
          0 0 0 0 0 0
          0 0 0 0 0 0
          0 0 0 0 0 0
          0 0 0 0 0 0
          0 0 0 0 0 0
          0 0 0 0 0 0
          0 0 0 0 0 0
          0 0 0 0 0 0
          0 0 0 0 0 0
          0 0 0 0 0 0
          0 0 0 0 0 0
          0 0 0 0 0 0
          0 0 0 0 0 0
          0 0 0 0 0 0
          0 0 0 0 0 0
          0 0 0 0 0 0
          0 0 0 0 0 0
          0 0 0 0 0 0
          0 0 0 0 0 0
          0 0 0 0 0 0
          0 0 0 0 0 0
          0 0 0 0 0 0
          0 0 0 0 0 0
          0 0 0 0 0 0
          0 0 0 0 0 0
          0 0 0 0 0 0
          0 0 0 0 0 0
          0 0 0 0 0 0
          0 0 0 0 0 0
          0 0 0 0 0 0
          0 0 0 0 0 0
          0 0 0 0 0 0
          0 0 0 0 0 0
          0 0 0 0 0 0
          0 0 0 0 0 0
          0 0 0 0 0 0
          0 0 0 0 0 0
          0 0 0 0 0 0
          0 0 0 0 0 0
          0 0 0 0 0 0
          0 0 0 0 0 0
          0 0 0 0 0 0
          0 0 0 0 0 0
          0 0 0 0 0 0
          0 0 0 0 0 0
          0 0 0 0 0 0
          0 0 0 0 0 0
          0 0 0 0 0 0
          0 0 0 0 0 0
          0 0 0 0 0 0
          0 0 0 0 0 0
          0 0 0 0 0 0
          0 0 0 0 0 0
          0 0 0 0 0 0
          0 0 0 0 0 0
          0 0 0 0 0 0
          0 0 0 0 0 0
          0 0 0 0 0 0
          0 0 0 0 0 0
          0 0 0 0 0 0
          0 0 0 0 0 0
          0 0 0 0 0 0
          0 0 0 0 0 0
          0 0 0 0 0 0
          0 0 0 0 0 0
          0 0 0 0 0 0
          0 0 0 0 0 0
          0 0 0 0 0 0
          0 0 0 0 0 0
          0 0 0 0 0 0
          0 0 0 0 0 0
          0 0 0 0 0 0
          0 0 0 0 0 0
          0 0 0 0 0 0
          0 0 0 0 0 0
          0 0 0 0 0 0
          0 0 0 0 0 0
          0 0 0 0 0 0
          0 0 0 0 0 0
          0 0 0 0 0 0
          0 0 0 0 0 0
          0 0 0 0 0 0
          0 0 0 0 0 0
          0 0 0 0 0 0
          0 0 0 0 0 0
          0 0 0 0 0 0
          0 0 0 0 0 0
          0 0 0 0 0 0
          0 0 0 0 0 0
          0 0 0 0 0 0
          0 0 0 0 0 0
          0 0 0 0 0 0
          0 0 0 0 0 0
          0 0 0 0 0 0
          0 0 0 0 0 0
          0 0 0 0 0 0
          0 0 0 0 0 0
          0 0 0 0 0 0
          0 0 0 0 0 0
          0 0 0 0 0 0
          0 0 0 0 0 0
          0 0 0 0 0 0
          0 0 0 0 0 0
          0 0 0 0 0 0
          0 0 0 0 0 0
          0 0 0 0 0 0
          0 0 0 0 0 0
          0 0 0 0 0 0
          0 0 0 0 0 0
          0 0 0 0 0 0
          0 0 0 0 0 0
          0 0 0 0 0 0
          0 0 0 0 0 0
          0 0 0 0 0 0
          0 0 0 0 0 0
          0 0 0 0 0 0
          0 0 0 0 0 0
          0 0 0 0 0 0
          0 0 0 0 0 0
          0 0 0 0 0 0
          0 0 0 0 0 0
          0 0 0 0 0 0
          0 0 0 0 0 0
          0 0 0 0 0 0
          0 0 0 0 0 0
          0 0 0 0 0 0
          0 0 0 0 0 0
          0 0 0 0 0 0
          0 0 0 0 0 0
          0 0 0 0 0 0
          0 0 0 0 0 0
          0 0 0 0 0 0
          0 0 0 0 0 0
          0 0 0 0 0 0
          0 0 0 0 0 0
          0 0 0 0 0 0
          0 0 0 0 0 0
          0 0 0 0 0 0
          0 0 0 0 0 0
          0 0 0 0 0 0
          0 0 0 0 0 0
          0 0 0 0 0 0
          0 0 0 0 0 0
          0 0 0 0 0 0
          0 0 0 0 0 0
          0 0 0 0 0 0
          0 0 0 0 0 0
          0 0 0 0 0 0
          0 0 0 0 0 0
          0 0 0 0 0 0
          0 0 0 0 0 0
          0 0 0 0 0 0
          0 0 0 0 0 0
          0 0 0 0 0 0
          0 0 0 0 0 0
          0 0 0 0 0 0
          0 0 0 0 0 0
          0 0 0 0 0 0
          0 0 0 0 0 0
          0 0 0 0 0 0
          0 0 0 0 0 0
          0 0 0 0 0 0
          0 0 0 0 0 0
          0 0 0 0 0 0
          0 0 0 0 0 0
          0 0 0 0 0 0
          0 0 0 0 0 0
          0 0 0 0 0 0
          0 0 0 0 0 0
          0 0 0 0 0 0
          0 0 0 0 0 0
          0 0 0 0 0 0
          0 0 0 0 0 0
          0 0 0 0 0 0
          0 0 0 0 0 0
          0 0 0 0 0 0
          0 0 0 0 0 0
          0 0 0 0 0 0
          0 0 0 0 0 0
          0 0 0 0 0 0
          0 0 0 0 0 0
          0 0 0 0 0 0
          0 0 0 0 0 0
          0 0 0 0 0 0
          0 0 0 0 0 0
          0 0 0 0 0 0
          0 0 0 0 0 0
          0 0 0 0 0 0
          0 0 0 0 0 0
          0 0 0 0 0 0
          0 0 0 0 0 0
          0 0 0 0 0 0
          0 0 0 0 0 0
          0 0 0 0 0 0
          0 0 0 0 0 0
          0 0 0 0 0 0
          0 0 0 0 0 0
          0 0 0 0 0 0
          0 0 0 0 0 0
          0 0 0 0 0 0
          0 0 0 0 0 0
          0 0 0 0 0 0
          0 0 0 0 0 0
          0 0 0 0 0 0
          0 0 0 0 0 0
          0 0 0 0 0 0
          0 0 0 0 0 0
          0 0 0 0 0 0
          0 0 0 0 0 0
          0 0 0 0 0 0
          0 0 0 0 0 0
          0 0 0 0 0 0
          0 0 0 0 0 0
          0 0 0 0 0 0
          0 0 0 0 0 0
          0 0 0 0 0 0
          0 0 0 0 0 0
          0 0 0 0 0 0
          0 0 0 0 0 0
          0 0 0 0 0 0
          0 0 0 0 0 0
          0 0 0 0 0 0
          0 0 0 0 0 0
          0 0 0 0 0 0
          0 0 0 0 0 0
          0 0 0 0 0 0
          0 0 0 0 0 0
          0 0 0 0 0 0
          0 0 0 0 0 0
          0 0 0 0 0 0
          0 0 0 0 0 0
          0 0 0 0 0 0
          0 0 0 0 0 0
          0 0 0 0 0 0
          0 0 0 0 0 0
          0 0 0 0 0 0
          0 0 0 0 0 0
          0 0 0 0 0 0
          0 0 0 0 0 0
          0 0 0 0 0 0
          0 0 0 0 0 0
          0 0 0 0 0 0
          0 0 0 0 0 0
          0 0 0 0 0 0
          0 0 0 0 0 0
          0 0 0 0 0 0
          0 0 0 0 0 0
          0 0 0 0 0 0
          0 0 0 0 0 0
          0 0 0 0 0 0
          0 0 0 0
        </DataArray>
        <DataArray type="Float64" Name="gradient_error" format="ascii" RangeMin="5.369883918983657e-10" RangeMax="8.612533816902571e-7">
          1.6371242773606061e-9 3.074527897268023e-7 7.453102575971002e-8 2.3148406490754144e-7 8.767901371624826e-8 1.7254832137707174e-7
          3.9761757892380773e-7 6.793655349333092e-8 3.2355409480682757e-9 7.695486468355524e-8 5.007966649329449e-8 5.367314977827708e-8
          3.1977365802549155e-8 3.2946157859901206e-7 5.111473767871781e-7 4.524314522174679e-7 1.365189794201223e-7 2.7342379871493227e-7
          2.2162710732558072e-7 4.2150930991452623e-7 2.7346983408506864e-7 2.647093028404135e-7 4.308629136802602e-7 3.2599711463247187e-7
          4.193345109172195e-7 4.2551528379078446e-7 2.5590505330465654e-7 1.159656029272325e-7 3.195043776887713e-7 3.6819815464003557e-7
          6.247937309057798e-7 4.19180688281914e-7 3.67601814581334e-7 3.155296896010263e-7 1.20686097242923e-7 3.5176731124724074e-8
          9.290040069597138e-10 4.0172074207457275e-7 3.642493673450235e-7 2.0198017940691923e-7 8.922371339626931e-8 7.747088834095608e-8
          3.4027533501248213e-7 2.9809491894751196e-7 6.653469251700688e-8 3.2587456200957795e-7 2.806472587165495e-7 6.364970746791646e-8
          1.9539145574655638e-7 1.7626946539922944e-7 6.026875581765995e-7 6.464327109739492e-7 5.030514750537357e-7 5.340271066409805e-7
          6.499630290929964e-8 5.590309978606144e-8 3.071241352185056e-7 2.6010832759677837e-7 4.583278745093661e-8 2.841868633308677e-7
          2.367219985508094e-7 4.4325947064245235e-8 1.561332104977229e-7 1.3533014226654408e-7 3.205930856148842e-7 4.893167867227591e-7
          4.7106114205521977e-7 4.84173759872266e-7 4.289463506980539e-8 3.639642401642387e-8 2.5923286536174584e-7 2.116541678855537e-7
          2.753642079542873e-8 1.141872375361451e-7 2.9173941728700117e-7 4.469926817490066e-7 4.1410895639888334e-7 2.52999633130425e-7
          6.972129663027162e-7 6.406394241532018e-7 6.906332851062938e-7 2.3953260991201357e-7 1.5671510517557118e-7 2.423121342447352e-7
          2.5600120604271227e-7 2.2909746731703176e-7 4.5663316240901846e-7 5.22287477479581e-7 2.123112987622716e-7 4.002316456158852e-7
          6.843420417824439e-7 6.699603034335936e-7 2.411565938785831e-7 2.605582321702606e-7 2.8495343259204795e-7 4.27913429400964e-7
          2.2601744904724318e-7 4.070287194094633e-7 2.4075159465180217e-7 4.127865882024713e-7 6.480519270013443e-7 6.161028129387099e-7
          2.9251341740706775e-7 3.1357871308561377e-7 3.474484592940609e-7 4.2869651800921174e-7 1.7605764036959612e-7 2.731145113763068e-7
          1.9907267335456103e-7 3.095699921299233e-7 2.742239862289287e-7 2.9342038848515164e-7 9.896931712560943e-8 2.624600341918568e-7
          3.0262290324116663e-7 2.9560672658488665e-7 2.2822232127716545e-7 3.5470617138499464e-7 2.663522510992133e-7 4.1140267598992874e-7
          3.127506958896269e-7 3.3078523034717034e-7 1.3910546455410547e-7 3.5384852363647935e-7 4.206344839330328e-7 3.4424509174649533e-7
          2.5717075955270823e-7 4.15460513988759e-7 2.755965217466587e-7 4.1368493125381716e-7 5.705524086856874e-7 5.093151763406918e-7
          3.6709056666053866e-7 3.880544383369957e-7 4.3752628709405804e-7 4.000669006467042e-7 2.9726338787228343e-7 4.0532807056847306e-7
          3.233101001055142e-7 3.871282660956127e-7 4.3149447622355597e-7 3.397405384851673e-7 4.908836787621269e-7 4.979440454858769e-7
          5.691960249757329e-7 3.1825712749438417e-7 2.524446122714555e-7 4.831326014217464e-7 1.3763856024604383e-7 5.064479055805474e-7
          3.44941656868993e-7 3.507800908304943e-7 1.3338972885488864e-8 5.078364188684962e-7 3.5999207198748973e-7 3.887843204308106e-7
          1.9849080633827436e-8 5.319559854752555e-7 3.394451775630079e-7 3.5972956129368263e-7 7.414401464451922e-10 4.2514380290899916e-7
          3.987591750244004e-7 3.4845505473862077e-7 4.114420344629212e-7 2.474331483320485e-7 3.053377254309914e-7 2.7817227527898253e-7
          1.8656562667320153e-7 2.2325683482241087e-7 3.466900730075272e-7 4.456335375562347e-7 2.482907206382364e-7 2.8358098176522207e-7
          3.46483217321812e-7 2.1597244931188863e-7 3.9655512967686023e-7 2.0392698022081517e-7 1.2882616141638397e-7 2.011301514910808e-7
          1.482814550727728e-7 9.118090508597776e-8 1.5642332752357485e-7 7.752239624358004e-8 1.4924929588318114e-7 9.033658178960227e-8
          1.8663907018758375e-7 2.751278348221906e-7 1.386475738690879e-7 2.2652725602446744e-8 1.856831759085768e-7 1.5757803349591982e-8
          3.7507342625627466e-7 3.7861565429965934e-7 2.0151092804917539e-7 2.494969860417631e-8 1.5663443056180995e-7 3.29786590462208e-8
          3.817663363256208e-9 5.137795556390683e-9 1.572686976068146e-8 1.414339838685181e-8 3.6838654862461166e-9 1.2236677189942144e-8
          1.0971840755952319e-8 6.457927749525157e-9 1.255992701302216e-8 9.707004321962491e-9 1.6704746487690417e-9 2.609112514397239e-9
          9.212546370662118e-9 8.246647014557275e-9 1.8159549311867057e-9 6.640535810960249e-9 5.960698376211139e-9 3.5477503800254365e-9
          7.2807476584524315e-9 5.28086094146203e-9 4.1239685723995144e-8 9.16893587693955e-8 3.3445807484923175e-8 7.79679821376831e-8
          2.296637561552661e-8 4.851030892822005e-8 3.881698890042853e-8 2.540767252224433e-7 2.2750187966772698e-7 1.3267920869066562e-7
          2.636758230419534e-8 6.453917460284215e-8 2.0116253962487744e-8 5.170824828129085e-8 1.337711674130147e-8 2.990444818528972e-8
          2.2013345800244694e-8 1.9851970228437136e-7 1.6755474242676703e-7 8.69890642236481e-8 7.031842823413362e-10 1.2324059417749526e-9
          4.589605017931278e-9 4.133951712760868e-9 1.761627601208569e-9 3.6782984075904574e-9 1.475739922548536e-8 3.981005667138203e-8
          6.7019619907692216e-9 1.5321108679835436e-8 1.3551676624646767e-7 4.657042723194762e-8 4.6295628332093917e-7 7.443905028987257e-7
          5.096111916050115e-7 5.351206453663251e-7 5.002138323320207e-7 2.823999246032964e-7 2.407810271375971e-7 5.451969370946259e-7
          5.099372992617421e-7 4.940923541837728e-7 4.5722625731889155e-7 4.0565911067948167e-7 1.9667758132295818e-7 1.520823347397149e-7
          4.6546363469080057e-7 3.686748409091899e-7 4.360924900801009e-7 4.0084552173811086e-7 6.893975881809663e-7 6.205503405431119e-7
          4.831469693657894e-7 4.472653260503679e-7 7.641061420605621e-7 3.571306173708205e-7 5.384275481849506e-7 4.016617026586186e-7
          6.053142283794194e-7 3.457493902745891e-7 2.786446405535515e-7 1.0944462620081057e-7 7.195744720305163e-8 2.073437101433059e-7
          4.235259182449531e-8 1.45490783829521e-7 1.4499196776741814e-7 1.4230117737516808e-7 1.388524273677995e-7 1.3961038698291804e-7
          1.3914683971334737e-7 1.3906243932011112e-7 1.3991919694999784e-7 1.3897803892687488e-7 1.4103865235006938e-7 1.4055865219516972e-7
          1.4093570981665704e-7 1.4007865204027004e-7 1.4213052989900996e-7 1.4103612257869917e-7 1.4081748691083327e-7 1.3994171525838838e-7
          1.4226168981485876e-7 1.4024133720105433e-7 1.3926334241734744e-7 1.382209845872499e-7 1.4129694912569762e-7 1.3785994562322392e-7
          1.3602815494963596e-7 1.344229421207502e-7 1.39465500242026e-7 1.337863338043095e-7 1.3117708054045645e-7 1.28107167366593e-7
          2.0545050354430192e-7 2.028542624685441e-7 2.0978202577444697e-7 1.9436966104410866e-7 1.7779294654108345e-7 1.8171734029621086e-7
          1.6710459238673588e-7 2.1190902588562978e-7 2.1211952732597444e-7 2.19609763758875e-7 2.1982589299811332e-7 2.088761801790205e-7
          2.1592560628912826e-7 2.1278175280924496e-7 2.1987572378624838e-7 2.290146592205355e-7 2.3009905199965738e-7 1.9502359861586435e-7
          2.0030986609009216e-7 1.8462486564000675e-7 1.8881054183927938e-7 2.262104565324234e-7 2.3426396576243526e-7 2.0902034188803373e-7
          1.904219482757164e-7 2.052934180969939e-7 1.9910250559143656e-7 2.1638530753717558e-7 2.351294048876051e-7 2.4721529577968524e-7
          1.5101723846006713e-7 1.7347523760772123e-7 1.8691756261331404e-7 2.2519309392965166e-7 2.4781045427377804e-7 2.57716661090196e-7
          2.2583060594431693e-7 2.3254029623563554e-7 2.583561589863898e-7 2.7042007129672835e-7 2.4733720900424536e-7 1.2123537743816538e-7
          1.402878325382652e-7 1.3458303628841745e-7 1.1411831915329538e-7 1.4464619797215696e-7 1.0978755865806781e-7 1.540648546950309e-7
          2.1409627720657115e-7 2.3332065095600535e-7 9.985010054635698e-8 1.3456210153376724e-7 1.3890564101849365e-7 2.1124977164366675e-7
          2.6292097588027334e-7 2.7677369085556707e-7 2.592909991831268e-7 2.6916566502182144e-7 2.6458387996112187e-7 2.785150216571725e-7
          2.631108488609849e-7 1.6135930459182142e-7 1.5471224493287828e-7 1.480651852739351e-7 2.2052053708415945e-7 2.174028073025808e-7
          2.038170067906674e-7 2.0631173118746393e-7 1.6206135809594555e-7 1.5616577748591314e-7 1.6391020588886345e-7 1.586778125381204e-7
          1.5027019687588072e-7 1.5344541918737734e-7 2.0465118048862685e-7 1.9933596230721578e-7 2.070126416330806e-7 1.9946817520548725e-7
          1.856534116366549e-7 1.8973188974108547e-7 1.729684384193841e-7 1.9408956533092486e-7 1.9834616980611043e-7 1.778160932969975e-7
          2.27787096046e-7 2.2803037318139998e-7 2.3541147610801896e-7 2.359594624688231e-7 2.234102836784729e-7 2.3114608191109762e-7
          2.3095634048555807e-7 2.3886683024489243e-7 2.495951269367976e-7 2.4965599519064134e-7 2.424467972938701e-7 2.4368184162592604e-7
          2.509590896795089e-7 2.527787270147879e-7 2.3930109142061625e-7 2.482018084252543e-7 2.524563547647839e-7 2.6138847023278694e-7
          2.741873189661404e-7 2.7230360738499387e-7 2.057577761262069e-7 2.1140206120567976e-7 1.9296863521226798e-7 1.970194074187915e-7
          2.4266269275782773e-7 2.515000620847778e-7 2.2000151803972025e-7 2.172805968001961e-7 2.2321973136680652e-7 2.0087589671714158e-7
          2.0463421023317133e-7 2.6075576838208075e-7 2.704450063275538e-7 2.3111502101443237e-7 1.6647667415472232e-7 1.6093478996459567e-7
          1.6929866562797285e-7 1.633049873078226e-7 1.5539290577446898e-7 1.573113089876724e-7 2.1914380065522155e-7 2.1350402414956517e-7