<?xml version="1.0"?>
<VTKFile type="UnstructuredGrid" version="0.1" byte_order="LittleEndian" header_type="UInt32" compressor="vtkZLibDataCompressor">
  <UnstructuredGrid>
    <Piece NumberOfPoints="1682" NumberOfCells="1208">
      <PointData>
        <DataArray type="Int32" Name="libmesh_node_id" format="ascii" RangeMin="395" RangeMax="14723">
          395 829 831 835 843 1656
          1657 1658 1659 1660 1661 1662
          1663 1664 1666 1667 1668 1669
          1670 1671 1672 1673 1674 1675
          1700 1701 1702 1704 1705 1706
          1707 1708 1709 1710 1711 1712
          1713 2640 2641 3107 3108 3109
          3110 3112 3113 3115 3474 3477
          3478 3479 3480 3481 3482 3483
          3484 3491 3492 3493 3494 3497
          3498 3500 3501 3502 3503 3504
          3509 3510 3511 3513 3516 3517
          3518 3519 3520 3521 3522 3523
          3524 3525 3526 3527 3528 3529
          3530 3531 3532 3533 3534 3535
          3536 3537 3538 3539 3540 3541
          3542 3543 3544 3545 3546 3547
          3548 3549 3550 3551 3552 3555
          3556 3558 3567 3568 3574 3575
          3577 3578 3581 3582 3584 3585
          3633 3645 3646 3647 3648 3649
          3650 3651 3652 3653 3654 3655
          3656 3657 3658 3659 3660 3661
          3662 3663 3664 3665 3666 3667
          3668 3669 3670 3671 3672 3673
          3674 3675 3676 3677 3678 3679
          3680 3681 3682 3683 3684 3685
          3686 3687 3688 3689 3690 3691
          3692 3693 3694 3695 3696 3697
          3698 3699 3700 3701 3702 3703
          3704 3705 3706 3707 3708 3709
          3710 3712 3714 3716 3720 3721
          3723 3724 4087 4088 4089 4091
          4092 4101 4102 4103 4104 4105
          4106 4111 4112 4113 4114 4115
          4116 4119 4121 4122 4123 4124
          4128 4129 4130 4131 4133 4147
          4148 4150 5174 5175 5176 5177
          5178 5179 5194 5195 5196 5197
          5976 5978 5980 5982 5983 5984
          5985 6106 6107 6108 6109 6110
          6111 6112 6113 6114 6115 6726
          6727 6728 6729 6730 6731 6732
          6733 6734 6735 6736 6739 6740
          6741 6742 6743 6744 6745 6746
          6765 6779 6781 6782 6783 6784
          6785 6786 6787 6788 6789 6790
          6791 6792 6793 6794 6795 6796
          6797 6798 6799 6800 6801 6802
          6803 6804 6805 6806 6807 6808
          6809 6810 6811 6812 6813 6814
          6837 6838 6839 6840 6841 6842
          6843 6844 6847 6848 6849 6852
          6853 6854 6867 6881 6883 6884
          6885 6886 6887 6888 6889 6890
          6891 6892 6893 6894 6895 6896
          6897 6898 6900 6901 6902 6903
          6904 6905 6906 6907 6908 6909
          6910 6911 6912 6913 6914 6915
          6916 6917 6918 6919 6920 6921
          6922 6923 6924 6925 6926 6927
          6928 6929 6930 6931 6932 6933
          6934 6935 6936 6937 6938 6939
          6940 6941 6942 6943 6944 6945
          6946 6947 6948 6949 6950 6951
          6952 6953 6954 6955 6956 6957
          6958 6959 6960 6961 6962 6963
          6964 6965 6966 6967 6968 6969
          6970 6971 6972 6973 6974 6975
          6976 6977 6978 6979 6980 6981
          6982 6983 6984 6985 6986 6987
          6988 6989 6990 6991 6992 6993
          6994 6995 6996 6997 6998 6999
          7000 7001 7002 7003 7004 7005
          7006 7007 7008 7009 7010 7011
          7012 7013 7014 7015 7016 7017
          7018 7019 7020 7021 7022 7023
          7024 7025 7026 7027 7028 7029
          7030 7031 7032 7033 7034 7035
          7036 7037 7038 7039 7040 7041
          7042 7043 7044 7045 7046 7047
          7048 7049 7050 7051 7052 7053
          7054 7055 7056 7057 7058 7059
          7060 7061 7062 7063 7064 7065
          7066 7067 7068 7069 7070 7071
          7072 7073 7074 7075 7076 7077
          7078 7079 7080 7081 7082 7083
          7084 7085 7086 7087 7088 7089
          7090 7091 7092 7093 7094 7095
          7096 7097 7098 7099 7100 7101
          7102 7103 7104 7105 7106 7107
          7108 7109 7110 7111 7112 7113
          7114 7115 7116 7117 7118 7119
          7120 7121 7122 7149 7154 7155
          7156 7192 7194 7195 7196 7197
          7198 7199 7200 7201 7202 7203
          7204 7222 7223 7224 7225 7226
          7227 7228 7229 7230 7231 7242
          7243 7244 7245 7246 7247 7248
          7249 7250 7251 7262 7263 7264
          7265 7266 7267 7268 7269 7270
          7271 7272 7273 7274 7275 7290
          7291 7292 7293 7294 7295 7296
          7297 7298 7299 7300 7301 7302
          7456 7457 7459 7460 7461 7462
          7463 7464 7465 7466 7467 7468
          7469 7470 7471 7472 7473 7475
          7477 7478 7479 7480 7481 7482
          7483 7484 7485 7486 7487 7488
          7489 7490 7491 7492 7493 7494
          7495 7496 7497 7498 7499 7500
          7501 7502 7503 7504 7505 7506
          7507 7508 7509 7510 7511 7512
          7513 7514 7515 7516 7517 7518
          7519 7520 7521 7522 7523 7524
          7525 7526 7527 7528 7529 7530
          7531 7532 7533 7534 7535 7536
          7537 7538 7539 7540 7541 7542
          7543 7544 7545 7550 7551 7552
          7560 7561 7562 7567 7568 7569
          7570 7571 7572 7573 7574 7575
          7576 7577 7578 7579 7580 7581
          7582 7583 7584 7585 7586 7587
          7588 7589 7590 7591 7592 7593
          7594 7595 7596 7597 7598 7599
          7600 7601 7602 7603 7604 7605
          7606 7607 7608 7609 7610 7611
          7612 7613 7614 7615 7616 7617
          7618 7619 7620 7621 7622 7623
          7624 7625 7626 7627 7628 7629
          7630 7631 7632 7633 7634 7635
          7636 7637 7638 7639 7640 7641
          7642 7643 7644 7645 7646 7647
          7648 7649 7650 7651 7652 7653
          7654 7655 7656 7657 7658 7659
          7660 7661 7662 7663 7664 7665
          7666 7667 7668 7669 7670 7671
          7672 7673 7674 7675 7676 7677
          7678 7679 7680 7681 7682 7683
          7684 7685 7686 7687 7688 7689
          7690 7691 7692 7693 7694 7695
          7696 7697 7698 7699 7700 7701
          7702 7703 7704 7705 7706 7707
          7708 7709 7710 7711 7712 7713
          7714 7715 7716 7717 7718 7719
          7720 7721 7722 7723 7724 7725
          7726 7727 7728 7729 7730 7731
          7732 7733 7734 7735 7736 7737
          7738 7739 7740 7741 7742 7743
          7744 7745 7746 7747 7748 7749
          7750 7751 7752 7753 7754 7755
          7756 7757 7758 7759 7760 7761
          7762 7763 7764 7765 7766 7767
          7768 7769 7770 7771 7772 7773
          7774 7775 7776 7777 7778 7779
          7780 7781 7782 7783 7784 7785
          7786 7787 7788 7789 7790 7791
          7792 7793 7794 7795 7796 7797
          7798 7799 7807 7808 7810 7811
          7812 7813 7814 7815 7816 7817
          7818 7819 7820 7821 7822 7823
          7824 7825 7826 7827 7828 7829
          7830 7831 7832 7833 7844 7845
          7846 7847 7848 7849 7851 7852
          7853 7854 7855 7856 8755 8756
          8757 8758 8759 8760 8761 8762
          8763 8764 8765 8766 8767 8768
          8769 8770 8771 8772 8773 8774
          8775 8776 8777 8778 8779 8780
          8781 8783 8784 8785 8786 8787
          8788 8793 8794 8796 8797 8798
          8799 8803 8804 8805 8806 8807
          8808 8809 8810 8811 8812 8813
          8814 8815 8816 8817 8818 8819
          8820 8821 8822 8823 8824 8825
          8826 8827 8828 8829 8830 8831
          8832 8833 8834 8835 8836 8837
          8838 8839 8840 8841 8842 8847
          8848 8849 8850 8851 8852 8855
          8857 8858 8859 8860 8864 8865
          8866 8867 8869 8871 8872 8873
          8874 8875 8876 8877 8878 8879
          8880 8881 8882 8883 8884 8885
          8886 8887 8888 8889 8890 8891
          8892 8894 8895 8896 8897 8901
          8902 8904 8905 8906 8907 8911
          8912 8913 8914 8915 8916 8917
          8918 8919 8920 8921 8922 8923
          8924 8925 8926 8927 8928 8929
          8930 8931 8932 8933 8934 8935
          8936 8937 8938 8939 8940 8941
          8942 8946 8947 8948 8949 8951
          8953 8954 8955 8956 8960 8961
          8962 8963 8965 9027 9028 9030
          9033 9043 9045 9047 9061 9062
          9064 9077 9079 9131 9179 9180
          9181 9182 9183 9184 9185 9186
          9187 9199 9202 9203 9219 9220
          9221 9223 9224 9226 9227 9230
          9231 9247 9248 9254 9255 14150
          14151 14152 14153 14154 14155 14156
          14157 14158 14159 14160 14161 14162
          14163 14164 14165 14166 14167 14168
          14169 14170 14171 14172 14173 14174
          14175 14176 14177 14178 14179 14180
          14181 14182 14183 14184 14185 14186
          14187 14188 14189 14190 14191 14193
          14194 14195 14196 14197 14198 14199
          14204 14205 14206 14207 14211 14212
          14213 14214 14218 14219 14220 14221
          14222 14223 14224 14225 14227 14228
          14229 14230 14231 14232 14233 14238
          14239 14240 14241 14242 14244 14245
          14246 14247 14248 14249 14250 14251
          14255 14256 14259 14275 14277 14289
          14290 14291 14292 14293 14294 14295
          14296 14297 14298 14299 14300 14301
          14302 14303 14304 14305 14306 14307
          14308 14309 14310 14311 14312 14313
          14314 14315 14316 14317 14318 14319
          14320 14324 14325 14326 14327 14331
          14332 14333 14334 14338 14339 14340
          14341 14345 14346 14347 14348 14349
          14351 14352 14353 14354 14355 14356
          14357 14358 14362 14363 14364 14365
          14366 14367 14368 14369 14371 14383
          14384 14385 14386 14655 14656 14659
          14660 14662 14663 14666 14667 14686
          14687 14693 14694 14714 14715 14716
          14717 14718 14719 14720 830 1665
          2628 2630 2631 2629 2633 2632
          2910 596 2914 2911 2917 844
          3711 4107 4108 4090 4110 4125
          4093 4127 4181 4169 4185 4171
          5201 5202 5204 5203 5263 3728
          5264 5257 5265 5266 5207 2905
          5271 5270 6020 6021 5186 6022
          6023 5187 6027 6028 5189 6030
          6031 6024 3588 7303 3589 7850
          3727 7857 8789 8790 8782 2638
          8791 8792 4109 8800 8795 8801
          8802 2639 8843 8844 4117 8845
          8846 4118 8853 8854 8856 8861
          8862 8863 4120 8868 8870 8898
          8893 8899 8900 4126 8908 8903
          8909 8910 2642 8943 8944 8945
          4132 8950 8952 8957 8958 8959
          4134 8964 8966 2643 9025 9026
          9029 9031 9032 9034 9042 9044
          9046 9048 9059 9060 9063 9065
          1049 9067 9066 4153 9068 9076
          9078 9081 9080 2646 9082 9130
          9133 9132 9135 9134 4163 9136
          9145 9144 9147 9146 9159 9158
          9163 9162 9188 4182 9204 9200
          9205 9206 9201 9207 9208 4186
          9222 9225 4188 9228 9229 9232
          4189 9249 9250 9251 9252 9253
          4192 9256 9257 9258 9259 9260
          4193 5180 14192 5181 14200 14201
          2900 14202 14203 5182 14208 14209
          14210 5183 14215 14216 14217 2901
          5184 14226 5185 14234 14235 14236
          14237 14243 5188 14252 14253 14254
          14257 14258 14260 14261 14262 5190
          14263 14264 5191 14276 14278 14279
          14280 14281 5193 14321 14322 14323
          5198 14328 14329 14330 5199 14335
          14336 14337 5200 14342 14343 14344
          2904 14350 14359 14360 14361 14370
          14372 14373 14374 14375 5205 14387
          14388 14389 14390 14391 14392 14393
          14394 14395 14396 14397 14399 14410
          14411 14412 14414 14416 14424 14425
          14428 14430 14431 14433 14444 14446
          14448 14450 14526 14528 14530 14532
          14540 14542 14554 14558 14657 14658
          14661 5256 14664 14665 14668 14688
          14689 14690 14691 14692 5260 14695
          14696 14697 14698 14699 5261 14721
          14722 14723
        </DataArray>
        <DataArray type="Float64" Name="bounds" format="ascii" RangeMin="0" RangeMax="0">
          0 0 0 0 0 0
          0 0 0 0 0 0
          0 0 0 0 0 0
          0 0 0 0 0 0
          0 0 0 0 0 0
          0 0 0 0 0 0
          0 0 0 0 0 0
          0 0 0 0 0 0
          0 0 0 0 0 0
          0 0 0 0 0 0
          0 0 0 0 0 0
          0 0 0 0 0 0
          0 0 0 0 0 0
          0 0 0 0 0 0
          0 0 0 0 0 0
          0 0 0 0 0 0
          0 0 0 0 0 0
          0 0 0 0 0 0
          0 0 0 0 0 0
          0 0 0 0 0 0
          0 0 0 0 0 0
          0 0 0 0 0 0
          0 0 0 0 0 0
          0 0 0 0 0 0
          0 0 0 0 0 0
          0 0 0 0 0 0
          0 0 0 0 0 0
          0 0 0 0 0 0
          0 0 0 0 0 0
          0 0 0 0 0 0
          0 0 0 0 0 0
          0 0 0 0 0 0
          0 0 0 0 0 0
          0 0 0 0 0 0
          0 0 0 0 0 0
          0 0 0 0 0 0
          0 0 0 0 0 0
          0 0 0 0 0 0
          0 0 0 0 0 0
          0 0 0 0 0 0
          0 0 0 0 0 0
          0 0 0 0 0 0
          0 0 0 0 0 0
          0 0 0 0 0 0
          0 0 0 0 0 0
          0 0 0 0 0 0
          0 0 0 0 0 0
          0 0 0 0 0 0
          0 0 0 0 0 0
          0 0 0 0 0 0
          0 0 0 0 0 0
          0 0 0 0 0 0
          0 0 0 0 0 0
          0 0 0 0 0 0
          0 0 0 0 0 0
          0 0 0 0 0 0
          0 0 0 0 0 0
          0 0 0 0 0 0
          0 0 0 0 0 0
          0 0 0 0 0 0
          0 0 0 0 0 0
          0 0 0 0 0 0
          0 0 0 0 0 0
          0 0 0 0 0 0
          0 0 0 0 0 0
          0 0 0 0 0 0
          0 0 0 0 0 0
          0 0 0 0 0 0
          0 0 0 0 0 0
          0 0 0 0 0 0
          0 0 0 0 0 0
          0 0 0 0 0 0
          0 0 0 0 0 0
          0 0 0 0 0 0
          0 0 0 0 0 0
          0 0 0 0 0 0
          0 0 0 0 0 0
          0 0 0 0 0 0
          0 0 0 0 0 0
          0 0 0 0 0 0
          0 0 0 0 0 0
          0 0 0 0 0 0
          0 0 0 0 0 0
          0 0 0 0 0 0
          0 0 0 0 0 0
          0 0 0 0 0 0
          0 0 0 0 0 0
          0 0 0 0 0 0
          0 0 0 0 0 0
          0 0 0 0 0 0
          0 0 0 0 0 0
          0 0 0 0 0 0
          0 0 0 0 0 0
          0 0 0 0 0 0
          0 0 0 0 0 0
          0 0 0 0 0 0
          0 0 0 0 0 0
          0 0 0 0 0 0
          0 0 0 0 0 0
          0 0 0 0 0 0
          0 0 0 0 0 0
          0 0 0 0 0 0
          0 0 0 0 0 0
          0 0 0 0 0 0
          0 0 0 0 0 0
          0 0 0 0 0 0
          0 0 0 0 0 0
          0 0 0 0 0 0
          0 0 0 0 0 0
          0 0 0 0 0 0
          0 0 0 0 0 0
          0 0 0 0 0 0
          0 0 0 0 0 0
          0 0 0 0 0 0
          0 0 0 0 0 0
          0 0 0 0 0 0
          0 0 0 0 0 0
          0 0 0 0 0 0
          0 0 0 0 0 0
          0 0 0 0 0 0
          0 0 0 0 0 0
          0 0 0 0 0 0
          0 0 0 0 0 0
          0 0 0 0 0 0
          0 0 0 0 0 0
          0 0 0 0 0 0
          0 0 0 0 0 0
          0 0 0 0 0 0
          0 0 0 0 0 0
          0 0 0 0 0 0
          0 0 0 0 0 0
          0 0 0 0 0 0
          0 0 0 0 0 0
          0 0 0 0 0 0
          0 0 0 0 0 0
          0 0 0 0 0 0
          0 0 0 0 0 0
          0 0 0 0 0 0
          0 0 0 0 0 0
          0 0 0 0 0 0
          0 0 0 0 0 0
          0 0 0 0 0 0
          0 0 0 0 0 0
          0 0 0 0 0 0
          0 0 0 0 0 0
          0 0 0 0 0 0
          0 0 0 0 0 0
          0 0 0 0 0 0
          0 0 0 0 0 0
          0 0 0 0 0 0
          0 0 0 0 0 0
          0 0 0 0 0 0
          0 0 0 0 0 0
          0 0 0 0 0 0
          0 0 0 0 0 0
          0 0 0 0 0 0
          0 0 0 0 0 0
          0 0 0 0 0 0
          0 0 0 0 0 0
          0 0 0 0 0 0
          0 0 0 0 0 0
          0 0 0 0 0 0
          0 0 0 0 0 0
          0 0 0 0 0 0
          0 0 0 0 0 0
          0 0 0 0 0 0
          0 0 0 0 0 0
          0 0 0 0 0 0
          0 0 0 0 0 0
          0 0 0 0 0 0
          0 0 0 0 0 0
          0 0 0 0 0 0
          0 0 0 0 0 0
          0 0 0 0 0 0
          0 0 0 0 0 0
          0 0 0 0 0 0
          0 0 0 0 0 0
          0 0 0 0 0 0
          0 0 0 0 0 0
          0 0 0 0 0 0
          0 0 0 0 0 0
          0 0 0 0 0 0
          0 0 0 0 0 0
          0 0 0 0 0 0
          0 0 0 0 0 0
          0 0 0 0 0 0
          0 0 0 0 0 0
          0 0 0 0 0 0
          0 0 0 0 0 0
          0 0 0 0 0 0
          0 0 0 0 0 0
          0 0 0 0 0 0
          0 0 0 0 0 0
          0 0 0 0 0 0
          0 0 0 0 0 0
          0 0 0 0 0 0
          0 0 0 0 0 0
          0 0 0 0 0 0
          0 0 0 0 0 0
          0 0 0 0 0 0
          0 0 0 0 0 0
          0 0 0 0 0 0
          0 0 0 0 0 0
          0 0 0 0 0 0
          0 0 0 0 0 0
          0 0 0 0 0 0
          0 0 0 0 0 0
          0 0 0 0 0 0
          0 0 0 0 0 0
          0 0 0 0 0 0
          0 0 0 0 0 0
          0 0 0 0 0 0
          0 0 0 0 0 0
          0 0 0 0 0 0
          0 0 0 0 0 0
          0 0 0 0 0 0
          0 0 0 0 0 0
          0 0 0 0 0 0
          0 0 0 0 0 0
          0 0 0 0 0 0
          0 0 0 0 0 0
          0 0 0 0 0 0
          0 0 0 0 0 0
          0 0 0 0 0 0
          0 0 0 0 0 0
          0 0 0 0 0 0
          0 0 0 0 0 0
          0 0 0 0 0 0
          0 0 0 0 0 0
          0 0 0 0 0 0
          0 0 0 0 0 0
          0 0 0 0 0 0
          0 0 0 0 0 0
          0 0 0 0 0 0
          0 0 0 0 0 0
          0 0 0 0 0 0
          0 0 0 0 0 0
          0 0 0 0 0 0
          0 0 0 0 0 0
          0 0 0 0 0 0
          0 0 0 0 0 0
          0 0 0 0 0 0
          0 0 0 0 0 0
          0 0 0 0 0 0
          0 0 0 0 0 0
          0 0 0 0 0 0
          0 0 0 0 0 0
          0 0 0 0 0 0
          0 0 0 0 0 0
          0 0 0 0 0 0
          0 0 0 0 0 0
          0 0 0 0 0 0
          0 0 0 0 0 0
          0 0 0 0 0 0
          0 0 0 0 0 0
          0 0 0 0 0 0
          0 0 0 0 0 0
          0 0 0 0 0 0
          0 0 0 0 0 0
          0 0 0 0 0 0
          0 0 0 0 0 0
          0 0 0 0 0 0
          0 0 0 0 0 0
          0 0 0 0 0 0
          0 0 0 0 0 0
          0 0 0 0 0 0
          0 0 0 0 0 0
          0 0 0 0 0 0
          0 0 0 0 0 0
          0 0 0 0 0 0
          0 0 0 0 0 0
          0 0 0 0 0 0
          0 0 0 0 0 0
          0 0 0 0 0 0
          0 0 0 0 0 0
          0 0 0 0 0 0
          0 0 0 0 0 0
          0 0 0 0 0 0
          0 0 0 0 0 0
          0 0 0 0 0 0
          0 0
        </DataArray>
        <DataArray type="Float64" Name="gradient_error" format="ascii" RangeMin="5.44268655308941e-13" RangeMax="2.439029111817452e-7">
          2.5998873888267857e-10 5.4726480913510803e-8 1.5617180021151248e-11 4.039048153157303e-12 4.355774583996721e-12 3.384149613562365e-8
          2.6577972239906398e-8 1.7731724233444177e-8 1.3176680522203478e-8 1.324128566235912e-8 5.883206376610331e-9 9.654383289036097e-8
          7.530903772737398e-8 4.021511611493131e-8 2.6015521651779044e-10 1.2731515839013399e-10 7.0334277120213e-11 2.7687747077357868e-11
          3.047524711249357e-11 4.764778575684293e-12 9.096891674486448e-10 4.466829362330538e-10 1.0033708488113349e-10 9.457487489514989e-11
          5.081939735920333e-12 3.726867212678524e-12 3.694656435859081e-12 8.555282275015988e-12 4.14686377050531e-12 6.62075990939461e-12
          5.1793634226069e-12 3.0406863775865283e-12 3.7472119196136265e-12 3.170930322838774e-11 1.2594913539264368e-11 5.829613290483405e-12
          3.4660087303870167e-12 8.227548322224069e-10 3.1540379319091895e-10 3.429292440995923e-12 2.7211739811539637e-12 3.47537574422119e-12
          3.904610088560216e-12 2.264198191794806e-12 1.9981366757073767e-12 3.083526474688178e-12 3.2281915831188686e-9 1.385845186468959e-9
          6.3493916717967595e-9 5.657036762208976e-9 3.9361953918807085e-9 1.0535271814874566e-8 2.404325345883619e-9 1.3458837660861411e-9
          4.328739929869414e-9 2.0289541244744746e-9 1.78398321153337e-9 2.2889109679769696e-10 1.2261234110038341e-9 3.459105300076959e-11
          2.7845248132181183e-11 1.3812080169915217e-11 1.473699108039462e-10 1.236828876486446e-10 5.672359690590581e-11 6.249013558332649e-11
          7.521415047546713e-10 6.10764686084153e-11 4.2667262131636615e-10 5.837372107878536e-12 2.66774650800535e-11 1.1366585690189152e-11
          1.18498460869873e-11 3.542112535436692e-9 3.14789854606304e-9 4.961456395738196e-10 4.4147929993446847e-10 2.168660621634241e-9
          2.4228326424186615e-10 6.5893942204844705e-9 5.851608505237516e-9 8.209736750518223e-10 3.986595182830428e-9 2.860830025092146e-10
          2.417537215244771e-10 1.378114597959566e-10 1.1142432407185406e-10 1.205407544318562e-10 5.3635625407336947e-11 5.342671668003157e-10
          4.5524023300673464e-10 2.1090255300516792e-10 2.2471994334453825e-10 1.3089381987362592e-9 1.1256983543207987e-10 7.294694378905701e-10
          5.43087772740144e-11 2.3540028427043344e-9 2.0196615223009523e-10 1.2774863932726718e-9 5.000813788490909e-11 2.1452937814857596e-11
          2.1537760693506607e-11 8.75752436144253e-12 9.090893321610676e-11 3.920706156668614e-11 3.8071898453525237e-11 4.099466506703877e-10
          6.653718180636808e-10 1.1061798416841812e-9 2.224654258969651e-10 1.5523097073397606e-11 5.48806826926783e-12 2.4827902040833123e-12
          3.6206864837020816e-10 2.6762432484248076e-11 6.018780600819756e-10 4.5055990711015583e-11 9.660407234382952e-12 3.67636662722206e-12
          4.184705337169979e-12 1.337511910014969e-11 1.0545448842777068e-11 6.191729951484936e-12 4.994595657913211e-12 5.285671001453849e-12
          3.5291244697498176e-12 2.7213033117031166e-11 2.1463090736620178e-11 6.727031124959174e-12 1.060959722098316e-11 5.106504839999746e-12
          4.33002932541258e-12 5.13204308902047e-12 4.355837463760501e-12 2.3207338120453614e-12 4.137304961201296e-12 3.6130384692311564e-12
          3.1704376429654976e-12 3.5621925552256562e-12 2.484676427078825e-12 5.422089535879319e-12 4.531947994560934e-12 5.2979857402441415e-12
          3.5766194598839915e-12 2.7278344013189486e-12 2.932443036894772e-12 2.084730961713071e-12 2.6892813214016593e-12 4.432657344591577e-12
          3.2219230630165697e-12 2.198482019099476e-12 5.347649123243937e-11 4.2163370060142616e-11 1.6821276021784812e-11 1.3228519151468952e-11
          2.0527263485472918e-11 6.751252414000454e-12 1.0121177435045608e-10 7.979888265582472e-11 2.492284969575136e-11 3.8352500443819716e-11
          6.39306243935142e-12 6.7173052214664434e-12 4.8970945799792455e-12 5.846616262507904e-12 5.336567421153545e-12 6.349679451418282e-12
          8.235414693644616e-12 7.874360194122605e-12 5.3473747173809e-12 5.723636044521703e-12 8.386032541515992e-12 3.4822367853845055e-12
          3.3993627299884433e-12 2.5560764734014562e-12 1.5325179291599305e-11 5.3338040438139375e-12 6.099264174850055e-12 3.3525370476797197e-12
          3.3215096310002674e-12 2.3899467578147837e-12 4.127663219499003e-12 2.720691264540236e-12 2.810412442491567e-12 2.1700971621995943e-12
          3.3641928057398358e-12 3.646609370848985e-12 2.292885417147126e-12 2.4085961145221923e-12 2.2163962251079628e-12 2.2032934693110407e-12
          2.284977946491246e-12 2.5409660186393878e-12 1.9433751665294594e-8 1.750625738052492e-8 1.2154489399906808e-8 7.2100584359517734e-9
          3.894324851503455e-9 1.0859806017561528e-8 9.772077089208072e-9 1.5975287289463767e-9 1.4662480713357168e-9 6.715757910154335e-9
          7.949358881447173e-10 9.581722456045187e-10 8.245902480027643e-10 4.718293208191382e-10 3.8435194409848977e-10 4.044177946526837e-10
          1.811482066289422e-10 6.737510210773732e-10 3.929622797629353e-9 3.513301862738434e-10 2.1101081897980983e-9 1.60110041927511e-10
          1.6007112596641953e-10 6.932453495079216e-11 6.534211453847545e-11 2.698655915494541e-11 1.184963865014132e-10 1.3766616868082698e-9
          1.1346272153178065e-9 5.291222682358045e-10 1.8447859401748773e-10 1.4549371578204104e-10 5.7734826128889956e-11 4.521335745934522e-11
          6.913348708373189e-11 2.256621925645289e-11 2.709125456911739e-11 9.427812538680906e-12 1.0571847102577715e-11 4.5643700985427605e-12
          2.67249621128476e-12 1.554379425891344e-12 1.7813570882075437e-12 1.3817405224854311e-12 1.854705508353504e-12 9.776642690568995e-13
          1.2087599508201928e-12 2.03835154122005e-12 1.881528391036686e-12 2.5916161605901103e-12 2.3515291184204043e-12 1.206114484323649e-12
          1.5138650353259382e-12 1.4528508037772571e-12 1.7247052408533225e-12 2.1114420762506996e-12 1.3918365722285765e-12 3.7513789294282833e-10
          2.4609296765323336e-10 2.374583785897843e-10 1.8616025760275536e-10 1.8239711924210523e-10 2.1425117920756394e-10 1.628747988996634e-10
          3.4353586245289306e-10 3.3201726130088674e-10 2.5557643130894004e-10 3.0019302380900463e-10 2.894533648745022e-10 1.769577725645968e-10
          1.273533635804167e-10 1.3111320092481738e-10 9.130547029351881e-11 2.476393063727456e-10 1.7864185625565705e-10 1.8225626667700926e-10
          3.2964063737104716e-11 2.0536746528656474e-11 1.4149459735171867e-10 1.3771162866499517e-10 1.0430126307842922e-10 1.0080373918271105e-10
          1.2106111680299278e-10 8.727755283978252e-11 1.9913270515283647e-10 1.9419358122020114e-10 1.4264534686908748e-10 1.7106641375036542e-10
          7.36800296730933e-11 7.070798478998821e-11 4.955357377617463e-11 4.725506707547025e-11 6.039846100933396e-11 3.9923355812741226e-11
          1.0439404923519226e-10 1.0029236427453613e-10 6.712080000683537e-11 8.574040847918949e-11 9.23791187988004e-11 6.542530970722986e-11
          6.406159279575676e-11 4.443798187033753e-11 1.3027199718792446e-10 9.251705763134539e-11 8.981230654497675e-11 4.4732850304733506e-11
          2.9364428355165777e-11 3.003321124274397e-11 1.9638342629933194e-11 6.335534875196822e-11 4.161818053505959e-11 4.2307838448283676e-11
          1.5700095208533563e-10 9.496818252797034e-11 6.356289526742843e-11 7.040040719690419e-11 4.45702612571765e-11 1.3075609054089744e-10
          8.789271468014614e-11 9.611406790324224e-11 8.717295426561652e-11 5.171842497908706e-11 3.167507754970953e-11 6.99845425192654e-11
          4.3029292491200576e-11 5.122102771705658e-11 8.98551796681071e-12 3.816413364632611e-12 4.3127790162451036e-11 2.921430221827682e-11
          2.917551790366221e-11 1.926813095976484e-11 5.998797557529987e-11 4.077680474429496e-11 4.023363594197493e-11 1.948330222708351e-11
          1.2682791892934158e-11 1.2650400250758938e-11 8.177901912611045e-12 2.7251996136112652e-11 1.7758388034977858e-11 1.7559963105814498e-11
          2.000602481806033e-11 1.2866120870633143e-11 8.697293099108371e-12 2.7350236387125973e-11 1.7669305069095804e-11 1.8818218671599053e-11
          8.297740930594171e-12 5.312732676145682e-12 5.497383724507777e-12 3.4724361890197423e-12 1.1431556962683114e-11 7.331791044038418e-12
          7.521262293158525e-12 5.288503393831095e-10 5.05077740882738e-10 4.6064160731162704e-10 7.01457754210252e-10 4.672610564447516e-10
          4.529873460716198e-10 3.6091470180468703e-10 3.554561947948843e-10 4.116812881838263e-10 3.192388211045297e-10 6.455296618109238e-10
          6.263976371052878e-10 4.89988267816604e-10 5.696697260146198e-10 3.94255963547472e-10 2.9198846133091707e-10 5.452552355618643e-10
          3.401291193152795e-10 2.487457177461184e-10 2.4902346787999656e-10 1.7628233648162208e-10 4.697542780402656e-10 3.4358626105316215e-10
          3.418888144610174e-10 9.900618951912318e-10 9.462554010063068e-10 8.64584751208624e-10 1.2741534873170651e-9 8.733690958979774e-10
          8.492717093910576e-10 6.760303051902025e-10 6.695473341393858e-10 7.750629159897864e-10 6.053871798663137e-10 1.172943706770314e-9
          1.1434602282089808e-9 9.039935580121487e-10 1.0477172194283115e-9 7.399314327982674e-10 5.420743756337439e-10 1.000967943419003e-9
          6.397469144990456e-10 4.708277634091952e-10 4.63605513117649e-10 3.305505714908142e-10 8.65618306955717e-10 6.385818197783738e-10
          6.247719609755602e-10 2.776580201719685e-10 2.713453625188243e-10 2.0630079555827242e-10 2.0000922188881115e-10 2.3959008257876135e-10
          1.7370827831626272e-10 3.8363139537757513e-10 3.757416081273934e-10 2.7783310019494607e-10 3.32630091642786e-10 1.4654360251006892e-10
          1.409486338717242e-10 9.89132538695647e-11 9.446661927570915e-11 1.2061775029084994e-10 7.986603617491091e-11 2.0378514487988333e-10
          1.96244655109683e-10 1.317233256007565e-10 1.6813448791143594e-10 1.8215149281452102e-10 1.2969989842244851e-10 1.2490479269681775e-10
          8.71537357392533e-11 2.5256617884073944e-10 1.8023792755733733e-10 1.7234494912608784e-10 8.894482336031543e-11 5.846414434781841e-11
          5.909835710362516e-11 3.8703230198926646e-11 1.2376486394202982e-10 8.139775546551754e-11 8.185107156160085e-11 5.248000630680332e-10
          5.152394826662113e-10 3.9289861675419023e-10 3.822617291170938e-10 4.5747708312764463e-10 3.3333203168803505e-10 7.106282002411221e-10
          6.994689508209785e-10 5.208085942783566e-10 6.23125250162017e-10 2.806880850430418e-10 2.7065278258787835e-10 1.901956053220136e-10
          1.819505451445879e-10 2.3219982755778822e-10 1.5401643598595909e-10 3.8287399795513645e-10 3.6969312127445013e-10 2.489465803299844e-10
          3.176644415598786e-10 3.470860133191552e-10 2.482332003991663e-10 2.3581426004201037e-10 1.6530175222784707e-10 4.726149089042498e-10
          3.3876585128822553e-10 3.1987669863163344e-10 1.7067092911519416e-10 1.1230774331079469e-10 1.1238724542891312e-10 7.368347675465285e-11
          2.3321496976111916e-10 1.5354748847396369e-10 1.5297019074154445e-10 2.1093806195638383e-10 1.5804112232607288e-10 2.8717671182971463e-10
          1.7708258087583924e-10 1.207307272742507e-10 1.291396352847481e-10 8.31699972495707e-11 2.4109779153353997e-10 1.6472896382930495e-10
          1.7446629174421525e-10 1.153985864901329e-10 8.521720197733267e-11 1.5442343784602524e-10 9.32580568194988e-11 5.8098216769213724e-11
          6.785581394640926e-11 4.0792658163991754e-11 1.2485663706466584e-10 7.800542594731783e-11 9.006682371097022e-11 3.853038529906211e-10