<?xml version="1.0"?>
<VTKFile type="UnstructuredGrid" version="0.1" byte_order="LittleEndian" header_type="UInt32" compressor="vtkZLibDataCompressor">
  <UnstructuredGrid>
    <Piece NumberOfPoints="1718" NumberOfCells="1220">
      <PointData>
        <DataArray type="Int32" Name="libmesh_node_id" format="ascii" RangeMin="596" RangeMax="16448">
          596 597 658 659 844 845
          1114 1115 1116 1117 1119 1120
          1121 1122 1402 1494 1495 1496
          1497 1501 1502 1504 1505 1507
          1509 1513 2900 2901 2902 2903
          2904 2905 2906 2907 2908 2909
          2910 2911 2912 2913 2914 2915
          2916 2917 2918 2919 2920 2921
          2922 2923 2931 2932 2933 2934
          2935 2936 2937 2938 2939 2940
          2941 2942 2943 2944 2945 2946
          2947 2948 2949 2950 2956 2962
          2985 2987 2989 3158 3159 3160
          3161 3162 3163 3164 3165 3166
          3167 3168 3169 3170 3171 3711
          5180 5181 5182 5183 5184 5185
          5186 5187 5188 5189 5190 5191
          5192 5193 5198 5199 5200 5201
          5202 5203 5204 5205 5206 5207
          5208 5209 5210 5211 5212 5213
          5214 5215 5216 5217 5218 5219
          5220 5221 5222 5223 5224 5225
          5226 5227 5228 5229 5230 5231
          5232 5233 5234 5235 5236 5237
          5238 5239 5240 5241 5242 5243
          5244 5245 5246 5247 5248 5249
          5250 5251 5252 5253 5254 5255
          5304 5305 5306 5307 5308 5309
          5310 5311 5312 5313 5314 5315
          5316 5317 5318 5319 5320 5321
          5322 5323 5324 5325 5326 5327
          5328 5329 5330 5331 5332 5333
          5334 5335 5336 5337 5340 5341
          5343 5346 5348 5349 5350 5351
          5352 5353 5354 5355 5356 5357
          5359 5360 5361 5363 5364 5365
          5366 5367 5368 5369 5370 5371
          5372 5373 5374 5375 5376 5377
          5378 5379 5380 5381 5382 5383
          5384 5385 5386 5387 5388 5389
          5390 5391 5392 5393 5394 5395
          5396 5397 5398 5399 5400 5401
          5402 5403 5404 5405 5406 5407
          5408 5414 5416 5417 5420 5421
          5431 5434 5435 5437 5438 5441
          5442 5443 5482 5483 5484 5486
          5487 5488 5489 5490 5491 5539
          5540 5541 5542 5563 5564 5566
          5567 5568 5570 5571 5572 5573
          6020 6021 6022 6023 6024 6025
          6026 6027 6028 6029 6030 6031
          6032 6033 6034 6035 6036 6037
          6038 6039 6040 6041 6042 6043
          6072 6073 6074 6075 6076 6077
          6078 6133 6134 6135 6136 6137
          6138 6139 6140 6141 6142 6143
          6144 6145 6146 14192 14200 14201
          14202 14203 14208 14209 14210 14215
          14216 14217 14226 14234 14235 14236
          14237 14243 14252 14253 14254 14257
          14258 14260 14261 14262 14263 14264
          14265 14266 14267 14268 14269 14270
          14271 14272 14273 14274 14276 14278
          14279 14280 14281 14282 14283 14284
          14285 14286 14287 14288 14321 14322
          14323 14328 14329 14330 14335 14336
          14342 14343 14344 14350 14359 14360
          14361 14370 14372 14373 14374 14375
          14376 14377 14378 14379 14380 14381
          14382 14387 14388 14389 14390 14391
          14392 14393 14394 14395 14396 14397
          14398 14399 14400 14401 14402 14403
          14404 14405 14406 14407 14408 14409
          14410 14411 14412 14413 14414 14415
          14416 14417 14418 14419 14420 14421
          14422 14423 14424 14425 14426 14427
          14428 14429 14432 14434 14435 14436
          14437 14438 14439 14440 14441 14442
          14443 14444 14445 14446 14447 14449
          14451 14452 14453 14454 14455 14456
          14457 14458 14459 14460 14461 14462
          14463 14464 14465 14466 14467 14468
          14469 14470 14471 14472 14473 14474
          14475 14476 14477 14478 14479 14480
          14481 14482 14483 14484 14485 14486
          14487 14488 14489 14490 14491 14492
          14493 14494 14495 14496 14497 14498
          14499 14500 14501 14502 14503 14504
          14505 14506 14507 14508 14509 14510
          14511 14512 14513 14514 14515 14516
          14517 14518 14519 14520 14521 14522
          14523 14524 14525 14526 14527 14529
          14531 14533 14534 14535 14536 14537
          14538 14539 14541 14543 14545 14547
          14548 14549 14550 14551 14552 14553
          14555 14557 14559 14561 14562 14563
          14564 14565 14566 14567 14569 14571
          14573 14575 14576 14577 14578 14579
          14580 14581 14582 14583 14584 14585
          14586 14587 14588 14589 14590 14591
          14592 14593 14594 14595 14596 14597
          14598 14599 14600 14601 14602 14603
          14604 14605 14606 14607 14608 14609
          14610 14611 14612 14613 14614 14615
          14616 14617 14618 14619 14620 14621
          14622 14623 14624 14625 14626 14627
          14628 14629 14630 14631 14632 14633
          14634 14635 14636 14637 14638 14639
          14640 14641 14642 14643 14644 14645
          14646 14647 14648 14649 14650 14651
          14652 14653 14654 14697 14698 14721
          14722 14723 14741 14742 14745 14746
          14769 14770 14773 14774 14790 14791
          14792 14793 14794 14795 14797 14798
          14801 14802 14840 14841 14843 14846
          14848 14849 14850 14851 14852 14853
          14854 14855 14856 14857 14859 14861
          14863 14865 14866 14867 14868 14869
          14870 14871 14874 14875 14877 14880
          14882 14883 14884 14885 14886 14887
          14888 14889 14890 14891 14893 14895
          14897 14899 14900 14901 14902 14903
          14904 14905 14906 14907 14908 14909
          14910 14911 14912 14913 14914 14915
          14916 14917 14918 14919 14920 14921
          14922 14923 14924 14925 14926 14927
          14928 14929 14930 14931 14932 14933
          14934 14935 14936 14937 14938 14939
          14940 14941 14942 14943 14944 14945
          14946 14947 14948 14949 14950 14951
          14952 14953 14954 14955 14956 14957
          14958 14959 14960 14961 14962 14963
          14964 14965 14966 14967 14968 14969
          14970 14971 14972 14973 14975 14977
          14979 14981 14982 14983 14984 14985
          14986 14987 14989 14991 14993 14995
          14996 14997 14998 14999 15000 15001
          15003 15005 15007 15009 15010 15011
          15012 15013 15014 15015 15017 15019
          15021 15023 15024 15025 15026 15027
          15028 15029 15030 15031 15032 15033
          15034 15035 15036 15037 15038 15039
          15040 15041 15042 15043 15044 15045
          15046 15047 15048 15049 15050 15051
          15052 15053 15054 15055 15056 15057
          15058 15059 15060 15061 15062 15063
          15064 15065 15066 15067 15068 15069
          15070 15071 15072 15073 15074 15075
          15076 15077 15078 15079 15080 15081
          15082 15083 15084 15085 15096 15097
          15098 15099 15100 15101 15102 15103
          15104 15105 15113 15114 15115 15116
          15117 15118 15119 15132 15133 15135
          15138 15148 15149 15150 15152 15154
          15155 15156 15157 15158 15159 15160
          15161 15162 15163 15164 15165 15166
          15167 15168 15169 15170 15171 15172
          15173 15174 15175 15176 15177 15178
          15179 15180 15181 15182 15183 15184
          15185 15186 15187 15188 15189 15190
          15191 15192 15193 15194 15195 15196
          15197 15198 15199 15200 15201 15202
          15203 15204 15205 15206 15207 15208
          15209 15210 15211 15212 15213 15214
          15215 15216 15217 15218 15219 15220
          15221 15229 15230 15231 15232 15233
          15234 15235 15237 15239 15241 15243
          15244 15245 15246 15247 15248 15249
          15257 15258 15259 15260 15262 15265
          15267 15269 15271 15272 15273 15274
          15275 15276 15277 15278 15279 15280
          15281 15282 15283 15284 15285 15286
          15287 15288 15289 15290 15291 15292
          15293 15294 15295 15296 15297 15298
          15299 15300 15301 15302 15303 15304
          15305 15306 15307 15308 15309 15310
          15311 15312 15313 15314 15315 15316
          15317 15318 15319 15320 15321 15322
          15323 15324 15325 15326 15327 15328
          15329 15330 15331 15332 15333 15334
          15335 15336 15337 15338 15339 15340
          15341 15342 15343 15344 15345 15346
          15347 15348 15349 15350 15351 15352
          15353 15354 15355 15356 15357 15358
          15359 15360 15361 15362 15363 15364
          15365 15366 15367 15368 15369 15370
          15371 15372 15373 15374 15375 15376
          15377 15378 15379 15380 15381 15382
          15383 15384 15385 15386 15387 15388
          15389 15390 15391 15392 15393 15394
          15395 15396 15397 15398 15399 15400
          15401 15402 15403 15404 15405 15406
          15407 15408 15409 15410 15411 15412
          15413 15414 15415 15416 15417 15418
          15419 15420 15421 15422 15423 15424
          15425 15426 15427 15428 15429 15430
          15431 15432 15433 15434 15435 15436
          15437 15438 15446 15447 15450 15451
          15474 15475 15478 15479 15495 15496
          15497 15498 15499 15500 15501 15502
          15503 15504 15505 15506 15507 15508
          15509 15510 15511 15516 15517 15518
          15519 15520 15521 15522 15523 15524
          15525 15526 15527 15528 15529 15530
          15531 15532 15533 15534 15535 15536
          15537 15538 15539 15585 15586 15588
          15589 15590 15591 15607 15609 15611
          15613 15614 15615 15616 15617 15618
          15619 15634 15635 15636 15637 15638
          15639 15640 15641 15642 15643 15644
          15645 15646 15647 15648 15649 15650
          15651 15652 15653 15654 15655 15656
          15657 15658 15659 15660 15661 15662
          15663 15664 15665 15666 15667 15668
          15669 15670 15671 15672 15673 15674
          15675 15740 15741 15743 15756 15758
          15796 15797 15798 15799 15800 15801
          15806 15807 15808 15809 15810 15811
          15816 15817 15818 15819 15823 15824
          15825 15826 15872 15874 15879 15881
          15883 15885 15886 15887 15888 15889
          15890 15891 15902 15907 15909 15911
          15912 15913 15914 15915 15916 15917
          15918 15919 15920 15921 15922 15923
          15926 15927 15928 15929 15930 15933
          15934 15935 15936 15937 15938 15939
          15940 15941 15942 15943 15944 15945
          15946 15947 16224 16225 16226 16227
          16228 16229 16234 16235 16236 16237
          16258 16259 16260 16261 16264 16265
          16266 16267 16268 16269 16270 16271
          16363 16365 16366 16367 16368 16369
          16370 16371 16372 16373 16374 16375
          16377 16380 16381 16383 16384 16386
          16387 16388 16390 16391 16392 16393
          16394 16395 16396 16397 16398 16399
          16400 16401 16402 16403 16404 16405
          16408 16409 16411 16412 16415 16416
          16418 16419 16420 16421 16422 16423
          16424 16425 16426 16427 16428 16429
          16430 16431 16432 16433 16434 16435
          16436 16437 16438 16439 16440 16441
          16442 16443 16444 16445 16446 16447
          16448 846 1401 1118 1508 1123
          1512 1722 2925 2927 2929 2952
          2954 5271 5270 5291 5290 5295
          5294 5296 5419 5418 5422 5440
          5439 14430 14431 14433 14448 14450
          14528 14530 14532 14540 14337 14542
          14544 14546 14554 14556 14558 14560
          14568 14570 14572 14574 14691 14690
          14735 14734 14739 14738 14699 5260
          14743 14737 5261 14744 14747 5283
          5284 14763 14762 14767 14766 14771
          14765 14772 14775 5287 5288 14796
          14799 14800 14803 14838 14839 14842
          14844 14845 14847 14858 14860 14862
          14864 14872 14873 14876 14878 14879
          14881 14892 14894 14896 14898 14974
          14976 14978 14980 14988 14990 14992
          14994 15002 15004 15006 15008 15016
          15018 15020 15022 15086 15088 15089
          15087 15091 15090 5338 15094 5339
          15107 15106 15109 15108 15111 5342
          15122 15130 15131 15123 15134 15125
          15136 15137 15139 15147 15141 15143
          15151 15145 15153 5347 15223 15222
          15225 15224 15227 5358 15236 15238
          15228 15240 15242 15251 15253 15261
          15255 15263 5362 15252 15264 15266
          15256 15268 15270 15440 15439 15444
          15443 15448 15442 15449 15452 5409
          5410 15468 15467 15472 15471 15476
          15470 15477 15480 5413 15489 15488
          15493 15492 14811 14788 15512 15461
          14812 15513 15465 15514 15463 5412
          15515 15491 2951 15579 15578 15583
          15582 15587 15581 5430 15600 15599
          15593 15603 15597 15604 15606 15584
          15608 15610 15612 15596 15621 15620
          15625 15624 15627 15628 15631 15632
          15602 5433 15630 2955 15738 15739
          15742 15755 15757 15871 15873 15866
          15867 15878 15880 15870 5481 15882
          15884 15877 15894 15895 15906 15908
          15898 5485 15910 15901 15905 16362
          16364 16376
        </DataArray>
        <DataArray type="Float64" Name="bounds" format="ascii" RangeMin="0" RangeMax="0">
          0 0 0 0 0 0
          0 0 0 0 0 0
          0 0 0 0 0 0
          0 0 0 0 0 0
          0 0 0 0 0 0
          0 0 0 0 0 0
          0 0 0 0 0 0
          0 0 0 0 0 0
          0 0 0 0 0 0
          0 0 0 0 0 0
          0 0 0 0 0 0
          0 0 0 0 0 0
          0 0 0 0 0 0
          0 0 0 0 0 0
          0 0 0 0 0 0
          0 0 0 0 0 0
          0 0 0 0 0 0
          0 0 0 0 0 0
          0 0 0 0 0 0
          0 0 0 0 0 0
          0 0 0 0 0 0
          0 0 0 0 0 0
          0 0 0 0 0 0
          0 0 0 0 0 0
          0 0 0 0 0 0
          0 0 0 0 0 0
          0 0 0 0 0 0
          0 0 0 0 0 0
          0 0 0 0 0 0
          0 0 0 0 0 0
          0 0 0 0 0 0
          0 0 0 0 0 0
          0 0 0 0 0 0
          0 0 0 0 0 0
          0 0 0 0 0 0
          0 0 0 0 0 0
          0 0 0 0 0 0
          0 0 0 0 0 0
          0 0 0 0 0 0
          0 0 0 0 0 0
          0 0 0 0 0 0
          0 0 0 0 0 0
          0 0 0 0 0 0
          0 0 0 0 0 0
          0 0 0 0 0 0
          0 0 0 0 0 0
          0 0 0 0 0 0
          0 0 0 0 0 0
          0 0 0 0 0 0
          0 0 0 0 0 0
          0 0 0 0 0 0
          0 0 0 0 0 0
          0 0 0 0 0 0
          0 0 0 0 0 0
          0 0 0 0 0 0
          0 0 0 0 0 0
          0 0 0 0 0 0
          0 0 0 0 0 0
          0 0 0 0 0 0
          0 0 0 0 0 0
          0 0 0 0 0 0
          0 0 0 0 0 0
          0 0 0 0 0 0
          0 0 0 0 0 0
          0 0 0 0 0 0
          0 0 0 0 0 0
          0 0 0 0 0 0
          0 0 0 0 0 0
          0 0 0 0 0 0
          0 0 0 0 0 0
          0 0 0 0 0 0
          0 0 0 0 0 0
          0 0 0 0 0 0
          0 0 0 0 0 0
          0 0 0 0 0 0
          0 0 0 0 0 0
          0 0 0 0 0 0
          0 0 0 0 0 0
          0 0 0 0 0 0
          0 0 0 0 0 0
          0 0 0 0 0 0
          0 0 0 0 0 0
          0 0 0 0 0 0
          0 0 0 0 0 0
          0 0 0 0 0 0
          0 0 0 0 0 0
          0 0 0 0 0 0
          0 0 0 0 0 0
          0 0 0 0 0 0
          0 0 0 0 0 0
          0 0 0 0 0 0
          0 0 0 0 0 0
          0 0 0 0 0 0
          0 0 0 0 0 0
          0 0 0 0 0 0
          0 0 0 0 0 0
          0 0 0 0 0 0
          0 0 0 0 0 0
          0 0 0 0 0 0
          0 0 0 0 0 0
          0 0 0 0 0 0
          0 0 0 0 0 0
          0 0 0 0 0 0
          0 0 0 0 0 0
          0 0 0 0 0 0
          0 0 0 0 0 0
          0 0 0 0 0 0
          0 0 0 0 0 0
          0 0 0 0 0 0
          0 0 0 0 0 0
          0 0 0 0 0 0
          0 0 0 0 0 0
          0 0 0 0 0 0
          0 0 0 0 0 0
          0 0 0 0 0 0
          0 0 0 0 0 0
          0 0 0 0 0 0
          0 0 0 0 0 0
          0 0 0 0 0 0
          0 0 0 0 0 0
          0 0 0 0 0 0
          0 0 0 0 0 0
          0 0 0 0 0 0
          0 0 0 0 0 0
          0 0 0 0 0 0
          0 0 0 0 0 0
          0 0 0 0 0 0
          0 0 0 0 0 0
          0 0 0 0 0 0
          0 0 0 0 0 0
          0 0 0 0 0 0
          0 0 0 0 0 0
          0 0 0 0 0 0
          0 0 0 0 0 0
          0 0 0 0 0 0
          0 0 0 0 0 0
          0 0 0 0 0 0
          0 0 0 0 0 0
          0 0 0 0 0 0
          0 0 0 0 0 0
          0 0 0 0 0 0
          0 0 0 0 0 0
          0 0 0 0 0 0
          0 0 0 0 0 0
          0 0 0 0 0 0
          0 0 0 0 0 0
          0 0 0 0 0 0
          0 0 0 0 0 0
          0 0 0 0 0 0
          0 0 0 0 0 0
          0 0 0 0 0 0
          0 0 0 0 0 0
          0 0 0 0 0 0
          0 0 0 0 0 0
          0 0 0 0 0 0
          0 0 0 0 0 0
          0 0 0 0 0 0
          0 0 0 0 0 0
          0 0 0 0 0 0
          0 0 0 0 0 0
          0 0 0 0 0 0
          0 0 0 0 0 0
          0 0 0 0 0 0
          0 0 0 0 0 0
          0 0 0 0 0 0
          0 0 0 0 0 0
          0 0 0 0 0 0
          0 0 0 0 0 0
          0 0 0 0 0 0
          0 0 0 0 0 0
          0 0 0 0 0 0
          0 0 0 0 0 0
          0 0 0 0 0 0
          0 0 0 0 0 0
          0 0 0 0 0 0
          0 0 0 0 0 0
          0 0 0 0 0 0
          0 0 0 0 0 0
          0 0 0 0 0 0
          0 0 0 0 0 0
          0 0 0 0 0 0
          0 0 0 0 0 0
          0 0 0 0 0 0
          0 0 0 0 0 0
          0 0 0 0 0 0
          0 0 0 0 0 0
          0 0 0 0 0 0
          0 0 0 0 0 0
          0 0 0 0 0 0
          0 0 0 0 0 0
          0 0 0 0 0 0
          0 0 0 0 0 0
          0 0 0 0 0 0
          0 0 0 0 0 0
          0 0 0 0 0 0
          0 0 0 0 0 0
          0 0 0 0 0 0
          0 0 0 0 0 0
          0 0 0 0 0 0
          0 0 0 0 0 0
          0 0 0 0 0 0
          0 0 0 0 0 0
          0 0 0 0 0 0
          0 0 0 0 0 0
          0 0 0 0 0 0
          0 0 0 0 0 0
          0 0 0 0 0 0
          0 0 0 0 0 0
          0 0 0 0 0 0
          0 0 0 0 0 0
          0 0 0 0 0 0
          0 0 0 0 0 0
          0 0 0 0 0 0
          0 0 0 0 0 0
          0 0 0 0 0 0
          0 0 0 0 0 0
          0 0 0 0 0 0
          0 0 0 0 0 0
          0 0 0 0 0 0
          0 0 0 0 0 0
          0 0 0 0 0 0
          0 0 0 0 0 0
          0 0 0 0 0 0
          0 0 0 0 0 0
          0 0 0 0 0 0
          0 0 0 0 0 0
          0 0 0 0 0 0
          0 0 0 0 0 0
          0 0 0 0 0 0
          0 0 0 0 0 0
          0 0 0 0 0 0
          0 0 0 0 0 0
          0 0 0 0 0 0
          0 0 0 0 0 0
          0 0 0 0 0 0
          0 0 0 0 0 0
          0 0 0 0 0 0
          0 0 0 0 0 0
          0 0 0 0 0 0
          0 0 0 0 0 0
          0 0 0 0 0 0
          0 0 0 0 0 0
          0 0 0 0 0 0
          0 0 0 0 0 0
          0 0 0 0 0 0
          0 0 0 0 0 0
          0 0 0 0 0 0
          0 0 0 0 0 0
          0 0 0 0 0 0
          0 0 0 0 0 0
          0 0 0 0 0 0
          0 0 0 0 0 0
          0 0 0 0 0 0
          0 0 0 0 0 0
          0 0 0 0 0 0
          0 0 0 0 0 0
          0 0 0 0 0 0
          0 0 0 0 0 0
          0 0 0 0 0 0
          0 0 0 0 0 0
          0 0 0 0 0 0
          0 0 0 0 0 0
          0 0 0 0 0 0
          0 0 0 0 0 0
          0 0 0 0 0 0
          0 0 0 0 0 0
          0 0 0 0 0 0
          0 0 0 0 0 0
          0 0 0 0 0 0
          0 0 0 0 0 0
          0 0 0 0 0 0
          0 0 0 0 0 0
          0 0 0 0 0 0
          0 0 0 0 0 0
          0 0 0 0 0 0
          0 0 0 0 0 0
          0 0 0 0 0 0
          0 0 0 0 0 0
          0 0 0 0 0 0
          0 0 0 0 0 0
          0 0 0 0 0 0
          0 0 0 0 0 0
          0 0 0 0 0 0
          0 0 0 0 0 0
          0 0 0 0 0 0
          0 0 0 0 0 0
          0 0
        </DataArray>
        <DataArray type="Float64" Name="gradient_error" format="ascii" RangeMin="1.2401699173325147e-12" RangeMax="3.966252049669833e-9">
          6.663743651511241e-12 2.7990864858031948e-11 4.4684149891298424e-11 6.783404005194334e-11 4.640102091539117e-12 4.521196984754711e-12
          1.5646672513329926e-11 6.948468190954649e-12 2.375658288040276e-11 1.3801868053473504e-11 1.975876396531737e-11 7.225824109154327e-11
          9.738281256150295e-12 2.2966404144444855e-11 3.649999433455655e-11 5.8926650560471674e-12 4.733526639007728e-12 1.776059718502085e-11
          1.2484410116039961e-11 3.574388221968288e-12 7.208223047059072e-12 1.6678392995650123e-11 1.4311495851888618e-11 1.2556681095339464e-11
          6.620151711475971e-11 9.981131363674153e-11 1.0126466751710306e-10 3.907808877372647e-11 1.2992157954795392e-11 7.0468659811669444e-12
          6.365015035267428e-12 6.603490768221962e-12 2.776787809219229e-10 1.0516503437949687e-10 1.3924998114231757e-11 1.614826315237946e-11
          3.5290710665391413e-12 3.92444424481173e-12 7.44979569404415e-12 5.773974386460777e-12 3.912439441141188e-12 9.191708712612637e-12
          7.58318388583701e-12 3.978269566242253e-12 5.44323758699458e-12 4.411163171950993e-12 1.3754809333359874e-11 1.0747199976706443e-11
          1.4486162665470812e-11 7.027521284415369e-12 6.522827784453634e-10 2.4389644052946313e-10 3.629136252635314e-11 1.6662717431452033e-11
          3.562732863511068e-11 9.552462732015709e-12 1.3091540290157055e-9 4.867412263795646e-10 3.274610483465904e-11 6.844721022959788e-11
          2.684020351536091e-11 1.9747061955568268e-11 3.3406825329047956e-11 2.6719798059317518e-11 9.279102280843917e-12 1.3430285371386865e-11
          4.919444503164666e-11 3.559764921722534e-11 3.5307891433559754e-11 1.5112420508937536e-11 1.0198310200433891e-11 1.1433161326892444e-10
          8.573634666098514e-12 7.598433800742324e-12 1.045072278942877e-11 2.9079114073667666e-12 4.871360876454431e-12 1.7763855252409908e-12
          2.4942913758962052e-12 2.180320543722369e-12 2.7688537629807753e-12 2.140915466951807e-12 5.31575667008082e-12 3.5149440235379795e-12
          4.385224722730067e-12 5.7999653522428846e-12 5.224329684651314e-12 7.17979447691859e-12 3.620859416115975e-12 3.856820963195312e-12
          3.236205119676595e-10 2.55490194639626e-10 7.917912215844158e-11 1.2022966183809535e-10 1.495882715836319e-11 1.1881310308903315e-11
          7.49570005401726e-12 6.414463915686961e-12 6.3989753173239214e-12 4.175785081690721e-12 2.6149819495605733e-11 2.07090603266082e-11
          1.1016635433582999e-11 1.1034200840288731e-11 4.626667736461428e-11 1.6049993166167726e-11 1.7705411571110223e-11 4.609598837798725e-12
          4.2210404705116144e-12 4.6638028464612e-12 4.807687923707701e-12 5.938078916113603e-12 4.9443750602388125e-12 4.319046061827894e-12
          5.459360455862475e-10 4.3175056049485806e-10 1.709507202726907e-10 1.3356548598691967e-10 2.016022056300493e-10 6.529214516245484e-11
          8.849494290372415e-10 7.015754953608008e-10 2.1685944488571225e-10 3.2570864431856527e-10 4.396515135299333e-11 3.479864783618093e-11
          1.3991399910881577e-11 1.4450655794844385e-11 1.837278823293441e-11 1.1596499920487378e-11 7.103626505154894e-11 5.619323315841052e-11
          1.5193398813208535e-11 2.949310615494909e-11 7.633437027818967e-11 2.637094400092081e-11 2.8698385987973622e-11 1.0320336655517035e-11
          1.2158527685352766e-10 4.18920473660494e-11 4.495514609250736e-11 8.081820013815826e-12 5.915794310108892e-12 5.177255576662945e-12
          5.519382747019259e-12 1.2829444683497432e-11 9.416612201495873e-12 6.307586722160199e-12 1.1809186448505531e-11 1.0392857705552688e-11
          1.0157156586912908e-11 1.2144327031775295e-11 5.246256434946185e-12 7.187908333348967e-12 6.773069875310164e-12 7.168009532770305e-12
          1.1269701408555347e-11 5.541634162054703e-12 7.043854575449953e-12 9.503194441775072e-12 8.855259217505454e-12 1.2188979052126094e-11
          1.3774466377084958e-9 1.0954715214252234e-9 4.3397533608554995e-10 3.388461131093479e-10 5.066712043253224e-10 1.6317490855539443e-10
          2.0573528689675784e-9 1.6426548113878606e-9 5.094311260922617e-10 7.584747688111773e-10 1.1076564616808632e-10 8.733179830787736e-11
          2.430959377371016e-11 1.9695530357111815e-11 4.550400236849243e-11 1.3429406682939415e-11 1.662633921276234e-10 1.3087562417275103e-10
          2.936749638134148e-11 6.762707621369363e-11 1.8682002713918413e-10 6.420696801792584e-11 6.803748725674967e-11 2.4388615786264564e-11
          2.767829371413056e-10 9.493090022863526e-11 9.944531031323669e-11 1.962785952661925e-11 1.0572811230862166e-11 7.903489635613086e-12
          6.453259820174482e-12 2.8920040007727427e-11 1.1926021626670951e-11 1.154457403903787e-11 9.425336775070335e-10 7.366486165109084e-10
          3.5112697652462293e-10 1.0243023579484372e-9 2.4020055527541976e-10 1.888618413241956e-10 5.217636618567997e-11 4.214833296553673e-11
          9.698346515908579e-11 2.379684395062922e-11 3.3395311227047845e-10 2.623576028557867e-10 5.827793786669115e-11 1.3401638592993567e-10
          1.353615058488992e-10 1.4033938692855622e-10 5.0260676903997224e-11 1.861279415297327e-10 1.9123961027857036e-10 4.106529100254578e-11
          1.341899922954722e-11 1.627414548185097e-11 9.765304444324356e-12 5.6217451912130856e-11 1.521976175101693e-11 2.2134079964836425e-11
          1.0423161901845123e-11 9.090430470200501e-12 1.404742458184881e-11 1.2532219644085266e-11 9.074841912607206e-12 9.157084571492635e-12
          1.5170858402952362e-11 1.3210807354363786e-11 1.8034398542434547e-11 8.9518862318814e-12 9.563878326182307e-12 9.88067021717508e-12
          4.971792052362487e-12 6.218697992665042e-12 5.4930101577277236e-12 6.9624062225909074e-12 4.051020342024707e-12 9.992015541020644e-12
          8.053482141969622e-12 9.88170616225856e-12 2.144548768613515e-11 1.8637820972788426e-11 2.8507572888705277e-11 2.5319236187359793e-11
          1.2534839904080792e-11 1.777080673259141e-11 2.933788461429103e-11 2.545420889999178e-11 3.445148110552654e-11 1.7040056016281584e-11
          9.977371220469076e-12 1.0639892326631808e-11 9.54897168888337e-12 6.265358630410006e-12 9.59680229150066e-12 1.4137220341653126e-11
          8.81284842377184e-12 1.3249514904264159e-11 4.794227128283982e-12 4.7665186463473225e-12 6.854210259658295e-12 6.7661137557942535e-12
          1.8504002669702233e-11 6.782333058317422e-11 2.4948013764140078e-11 9.597702173023924e-12 9.367516615409071e-12 1.0278810390784044e-11
          9.677995581068421e-12 6.816809480268866e-12 2.4681416417767984e-10 2.5171748422178393e-10 9.001575831629844e-11 3.1554290778649494e-10
          3.200475310472042e-10 7.434130530978893e-11 2.005736388608622e-11 2.9066022196586633e-11 1.272814815906241e-11 1.2504515927711894e-11
          1.837129608369737e-11 1.1388479956390108e-11 1.0050463296243551e-11 8.844131602690175e-11 3.250025670105059e-11 1.1693726617307631e-11
          1.116336794309304e-10 4.099792252256748e-11 1.0950155378187922e-11 9.610543804858139e-12 6.048609612491215e-12 6.7419001160476034e-12
          4.2467276885740955e-12 3.755700021810071e-12 7.159308537902693e-12 6.31144718300688e-12 2.188852950530804e-12 3.9468530296028465e-12
          3.535146162529684e-12 3.0110365612792697e-12 4.3845951015973376e-12 2.58836525694682e-12 2.055948920220897e-12 2.6174941358013264e-12
          1.4015819104947479e-12 1.6699450480221039e-12 1.6081328666960776e-12 1.929383896519047e-12 1.286598877607089e-12 4.091939962544958e-12
          2.4977274444065722e-12 2.8243898221491512e-12 6.331343794438556e-12 3.756321196007817e-12 4.280376393558075e-12 2.7876054851775898e-12
          8.008491027648748e-12 1.017475669983707e-11 4.440126497437979e-12 5.537670037577494e-12 4.890401183137121e-12 5.996622372846045e-12
          4.161315939766224e-12 2.7982207707511656e-12 3.378358430533075e-12 1.96925834856478e-12 2.2721152661743717e-12 2.0316438454661736e-12
          2.323367778606112e-12 1.5824313969658681e-12 4.6638760763191825e-12 2.9573914595265985e-12 3.086728883229193e-12 6.188699085263314e-12
          3.656286904233028e-12 3.987615741327698e-12 2.650927221741149e-12 3.0672308938131136e-10 1.8594790274440517e-10 1.7553729187617927e-10
          9.54078742240187e-11 1.45625361630533e-10 3.075184623685444e-10 1.8445458301472297e-10 1.9881564163420214e-10 1.057160805183121e-10
          5.807405640290013e-11 6.985131647873892e-11 1.4117234953837085e-11 7.203598500142732e-12 6.818390062494602e-12 4.380682394230274e-12
          5.794839871742661e-12 9.036720181353829e-12 4.49747314002651e-12 2.9463217327366624e-12 3.263377772325541e-12 1.9869470015919068e-11
          1.8746382401254208e-11 1.5756722758170262e-11 5.254528878842089e-11 4.949857342880801e-11 2.4665510725793935e-11 4.125606624993138e-11
          9.559846249727013e-12 9.03962685262558e-12 6.1267396197694995e-12 5.803442022222747e-12 7.663077818133371e-12 4.946019875945503e-12
          1.258291140903111e-11 1.189281517421548e-11 7.641361564927293e-12 1.006434737114069e-11 1.1955641453458225e-11 8.441244419343756e-12
          3.069670231237468e-11 1.56767561703545e-11 2.1102555676898644e-11 5.929791584041129e-12 3.8840922112810035e-12 4.2930492341661295e-12
          2.855725954036063e-12 7.763355840348228e-12 5.0762748287864315e-12 5.602832392347091e-12 1.2272556975555811e-10 7.496544304929984e-11
          7.513975966196122e-11 4.422692651189887e-11 2.5237867427821207e-11 2.765021288312267e-11 4.617955395998241e-11 2.857550944094067e-11
          1.7236273846508292e-11 1.0135454056399985e-11 1.0737087460892153e-11 4.350926445881901e-12 2.233664305988257e-12 1.5281240395581014e-12
          1.7790212287396019e-12 5.71239515059853e-12 4.336179901996972e-12 1.3969279872772661e-11 7.447730815549743e-12 9.069444413279792e-12
          2.9361713112072003e-12 2.0188720586602436e-12 2.339079141421802e-12 1.682581304595357e-12 3.837700471792741e-12 2.619020593620034e-12
          2.8054076967121454e-12 5.8230436919390085e-12 3.6046826398065546e-12 3.699762917106817e-12 6.930802228912887e-10 6.614829266691905e-10
          4.2241017407505217e-10 4.005378702977707e-10 5.563489248088677e-10 3.3374128640748944e-10 8.942960238516052e-10 8.542608298975312e-10