<?xml version="1.0"?>
<VTKFile type="UnstructuredGrid" version="0.1" byte_order="LittleEndian" header_type="UInt32" compressor="vtkZLibDataCompressor">
  <UnstructuredGrid>
    <Piece NumberOfPoints="1749" NumberOfCells="1217">
      <PointData>
        <DataArray type="Int32" Name="libmesh_node_id" format="ascii" RangeMin="471" RangeMax="17789">
          471 656 657 713 714 1094
          1095 1099 1101 1103 1105 1107
          1108 1109 1110 1111 1112 1113
          1128 1133 1525 1526 1527 1529
          1530 1531 2808 2809 2810 2811
          2812 2813 2814 2815 2816 2817
          2818 2819 2820 2821 2842 2843
          2844 2845 2846 2847 2848 2849
          2850 2851 2852 2853 2854 2855
          2859 2860 2861 2869 2870 2871
          2872 2873 2874 2875 2876 2877
          2878 2879 2880 2881 2882 2883
          2884 2885 2886 2887 2888 2889
          2890 2891 2892 2893 2894 2895
          2896 2897 2898 2899 2978 2980
          2981 2982 2984 3015 3017 3018
          3019 3021 3335 3336 3337 3338
          3339 3340 3341 3342 3343 3344
          3345 3346 3347 3348 4833 4836
          4837 4838 4839 4840 4841 4842
          4847 4848 4849 4852 4853 4856
          4861 4862 4863 4864 4865 4866
          4867 4868 4869 4870 4871 4872
          4873 4874 4875 4877 4880 4881
          4884 4885 4886 4887 4888 4889
          4890 4891 4892 4893 4894 4895
          4896 4897 4898 5035 5036 5037
          5038 5039 5040 5041 5042 5043
          5044 5045 5046 5047 5049 5050
          5051 5053 5056 5057 5060 5061
          5062 5063 5064 5065 5066 5067
          5068 5069 5070 5071 5072 5073
          5074 5075 5077 5078 5079 5081
          5084 5085 5088 5089 5090 5091
          5092 5093 5094 5095 5096 5097
          5098 5099 5100 5101 5102 5104
          5105 5106 5107 5108 5113 5114
          5115 5117 5119 5121 5122 5123
          5124 5125 5126 5127 5128 5129
          5130 5131 5132 5133 5134 5135
          5136 5137 5138 5139 5140 5141
          5142 5143 5144 5145 5146 5147
          5148 5149 5150 5151 5152 5153
          5154 5155 5156 5157 5158 5159
          5160 5161 5162 5163 5164 5165
          5166 5167 5168 5169 5170 5171
          5172 5173 5458 5459 5460 5565
          5569 5577 5578 5579 5580 5581
          5582 5583 5584 5585 5586 5587
          5588 5589 5590 5593 5594 5597
          5605 5606 5607 5608 5609 5610
          5611 5612 5613 5614 5615 5616
          5617 5618 5733 5734 5737 5745
          5746 5747 5748 5749 5750 5751
          5752 5753 5754 5755 5756 5757
          5758 5761 5762 5765 5773 5774
          5775 5776 5777 5778 5779 5780
          5781 5782 5783 5784 5785 5786
          6205 6206 6207 6208 6209 6210
          6211 6212 6213 6214 6215 6216
          6217 6218 6219 6220 6221 6222
          6223 6224 6225 6226 6227 6228
          6229 6230 6231 6232 12370 12371
          12372 12373 12374 12375 12376 12377
          12378 12379 12380 12381 12382 12383
          12384 12385 12386 12387 12388 12389
          12409 12414 12415 12416 12417 12432
          12433 12434 12435 12436 12437 12438
          12439 12440 12441 12442 12443 12444
          12445 12466 12467 12468 12469 12470
          12471 12472 12473 12474 12475 12476
          12477 12478 12479 12480 12481 12482
          12483 12484 12485 12490 12491 12492
          12494 12496 12497 12498 12499 12500
          12501 12502 12503 12504 12505 12506
          12507 12508 12509 12510 12511 12512
          12513 12514 12515 12516 12517 12518
          12519 12520 12521 12522 12523 12524
          12525 12526 12527 12528 12529 12530
          12531 12532 12533 12534 12535 12536
          12537 12538 12539 12540 12541 12542
          12543 12544 12545 12546 12547 12548
          12549 12550 12551 12552 12553 12554
          12555 12556 12557 12558 12559 12560
          12561 12572 12573 12574 12575 12576
          12577 12578 12579 12580 12581 12596
          12597 12598 12599 12600 12601 12602
          12603 12604 12605 12606 12607 12608
          12609 12624 12625 12626 12627 12628
          12629 12630 12631 12632 12633 12634
          12635 12636 12637 12638 12639 12640
          12641 12642 12643 12644 12645 12646
          12647 12648 12649 12650 12651 12652
          12653 12654 12655 12656 12657 12658
          12659 12660 12661 12662 12663 12664
          12665 12666 12667 12668 12669 12670
          12671 12672 12673 12674 12675 12676
          12677 12678 12679 12680 12681 12682
          12683 12684 12685 12686 12687 12688
          12689 12690 12691 12692 12693 12694
          12695 12696 12697 12698 12699 12700
          12701 12702 12703 12704 12705 12706
          12707 12708 12709 12710 12711 12712
          12713 12714 12715 12716 12717 12718
          12719 12720 12721 12722 12723 12724
          12725 12726 12727 12728 12729 12730
          12731 12732 12733 13592 13593 13594
          13595 13596 13597 13598 13599 13600
          13601 13612 13613 13614 13615 13616
          13617 13618 13619 13620 13621 13636
          13637 13638 13639 13640 13641 13642
          13643 13644 13645 13646 13647 13648
          13649 13664 13665 13666 13667 13668
          13669 13670 13671 13672 13673 13674
          13675 13676 13677 13678 13679 13680
          13681 13682 13683 13684 13685 13686
          13687 13688 13689 13690 13691 13692
          13693 13694 13695 13696 13697 13698
          13699 13700 13701 13702 13703 13704
          13705 13706 13707 13708 13709 13710
          13711 13712 13713 13714 13715 13716
          13717 13718 13719 13720 13721 13722
          13723 13724 13725 13726 13727 13728
          13729 13730 13731 13732 13733 13734
          13735 13736 13737 13738 13739 13740
          13741 13742 13743 13744 13745 13746
          13747 13748 13749 13750 13751 13752
          13753 13754 13755 13756 13757 13758
          13759 13760 13761 13762 13763 13764
          13765 13766 13767 13768 13769 13770
          13771 13772 13773 13784 13785 13786
          13787 13788 13789 13790 13791 13792
          13793 13804 13805 13806 13807 13808
          13809 13810 13811 13812 13813 13828
          13829 13830 13831 13832 13833 13834
          13835 13836 13837 13838 13839 13840
          13841 13856 13857 13858 13859 13860
          13861 13862 13863 13864 13865 13866
          13867 13868 13869 13870 13871 13872
          13873 13874 13875 13876 13877 13878
          13879 13880 13881 13882 13883 13884
          13885 13886 13887 13888 13889 13890
          13891 13892 13893 13894 13895 13896
          13897 13898 13899 13900 13901 13902
          13903 13904 13905 13906 13907 13908
          13909 13910 13911 13912 13913 13914
          13915 13916 13917 13918 13919 13920
          13921 13922 13923 13924 13925 13926
          13927 13928 13929 13930 13931 13932
          13933 13934 13935 13936 13937 13938
          13939 13940 13941 13942 13943 13944
          13945 13946 13947 13948 13949 13950
          13951 13952 13953 13954 13955 13956
          13957 13958 13959 13960 13961 13962
          13963 13964 13965 13976 13977 13978
          13979 13980 13981 13982 13983 13984
          13985 13986 13987 13988 13989 13990
          13991 13992 13993 13994 13995 13996
          13997 13998 13999 14000 14001 14002
          14003 14004 14005 14006 14007 14008
          14009 14010 14011 14012 14013 14014
          14015 14016 14017 14018 14019 14020
          14021 14022 14023 14024 14025 14026
          14027 14028 14029 14030 14031 14032
          14033 14034 14035 14036 14037 14038
          14039 14040 14041 14042 14043 14044
          14045 14046 14047 14048 14049 14050
          14051 14052 14053 14054 14055 14056
          14057 14058 14059 14060 14061 14062
          14063 14064 14065 14066 14067 14068
          14069 14070 14071 14072 14073 14074
          14075 14076 14077 14078 14079 14080
          14081 14082 14083 14084 14085 14086
          14087 14088 14089 14090 14091 14092
          14093 14094 14095 14096 14097 14098
          14099 14100 14101 14102 14103 14104
          14105 14106 14107 14108 14109 14110
          14111 14112 14113 14114 14115 14116
          14117 14118 14119 14120 14121 14122
          14123 14124 14125 14126 14127 14128
          14129 14130 14131 14132 14133 14134
          14135 14136 14137 14138 14139 14140
          14141 14142 14143 14144 14145 14146
          14147 14148 14149 15718 15719 15720
          15721 15722 15723 15724 15725 15726
          15727 16378 16379 16382 16385 16389
          16406 16407 16410 16413 16414 16417
          16465 16469 16477 16478 16479 16480
          16481 16482 16483 16484 16485 16486
          16487 16488 16489 16490 16491 16492
          16493 16494 16495 16496 16497 16498
          16499 16500 16501 16502 16503 16504
          16505 16506 16507 16508 16509 16510
          16511 16512 16513 16514 16515 16516
          16517 16518 16519 16520 16521 16522
          16523 16524 16525 16526 16527 16528
          16529 16530 16531 16532 16533 16534
          16535 16536 16537 16538 16539 16540
          16541 16542 16557 16558 16559 16560
          16561 16562 16563 16564 16566 16567
          16568 16570 16585 16586 16587 16588
          16589 16590 16591 16592 16594 16595
          16596 16598 16615 16619 16655 16656
          16657 16658 16659 16660 16661 16662
          16663 16664 16665 16666 16667 16668
          16669 16670 16671 16672 16673 16674
          16675 16676 16677 16678 16679 16680
          16681 16682 16683 16684 16685 16686
          16687 16688 16689 16690 16691 16692
          16693 16694 16695 16696 16697 16698
          16699 16700 16701 16702 16703 16704
          16705 16706 16707 16708 16709 16710
          16711 16712 16713 16714 16715 16716
          16717 16718 16719 16720 16721 16722
          16723 16724 17440 17441 17442 17443
          17444 17445 17446 17447 17449 17450
          17451 17453 17468 17469 17470 17471
          17472 17473 17474 17475 17477 17478
          17479 17481 17538 17539 17540 17541
          17542 17543 17544 17545 17546 17547
          17548 17549 17550 17551 17552 17553
          17554 17555 17556 17557 17558 17559
          17560 17561 17562 17563 17564 17565
          17566 17567 17568 17569 17570 17571
          17572 17573 17574 17575 17576 17577
          17578 17579 17580 17581 17582 17583
          17584 17585 17586 17587 17588 17589
          17590 17591 17592 17593 17594 17595
          17596 17597 17598 17599 17600 17601
          17602 17603 17604 17605 17606 17607
          17622 17623 17624 17625 17626 17627
          17628 17629 17631 17632 17633 17635
          17650 17651 17652 17653 17654 17655
          17656 17657 17659 17660 17661 17663
          17720 17721 17722 17723 17724 17725
          17726 17727 17728 17729 17730 17731
          17732 17733 17734 17735 17736 17737
          17738 17739 17740 17741 17742 17743
          17744 17745 17746 17747 17748 17749
          17750 17751 17752 17753 17754 17755
          17756 17757 17758 17759 17760 17761
          17762 17763 17764 17765 17766 17767
          17768 17769 17770 17771 17772 17773
          17774 17775 17776 17777 17778 17779
          17780 17781 17782 17783 17784 17785
          17786 17787 17788 17789 652 653
          709 707 1068 1077 1079 1078
          1123 659 1513 1512 1129 1514
          665 2686 2687 1056 2688 2708
          2707 2699 2709 2717 2719 2718
          2956 2985 2989 2979 2986 2990
          2983 2992 2994 3016 3022 3024
          3020 3026 3028 2957 3333 3332
          3334 4725 4785 4843 4831 2793
          4789 4845 4832 4857 4834 4859
          4835 4759 4819 4418 4426 4428
          5103 5109 5111 5110 5112 4414
          651 5118 5116 4427 5120 5439
          5440 5454 5452 5443 5445 5456
          5447 5449 5457 5448 5450 5572
          5573 5576 5600 5601 5604 5740
          5741 5744 5768 5769 5772 6202
          6203 6204 12041 12357 12352 12053
          12057 4786 12358 12058 12359 4844
          12061 2802 12367 12362 12368 12369
          4846 12404 12405 12407 12406 12408
          12410 10249 10250 2694 10251 12411
          12412 12413 12453 12448 12454 12455
          4858 12463 12458 12464 12465 4860
          12366 12486 12450 12487 12488 12452
          12489 10332 10331 12493 4413 10333
          12495 4406 10326 10338 10290 12460
          4412 10339 10340 2695 12462 10345
          10346 10347 12265 12269 12270 12273
          4820 13973 13968 13974 13975 10360
          13970 13972 5433 15654 15688 15630
          15671 15705 15672 15707 2955 15675
          15709 15624 15626 16376 15625 5436
          16377 16380 16381 15631 15633 16383
          15632 16384 16386 16387 16388 5566
          16404 16405 16408 16409 16411 16412
          16415 16416 16436 16438 16463 16437
          16464 16466 16467 16468 15701 15702
          15703 15708 15710 15715 15716 15717
          16434 16435 16565 16569 16593 16597
          16613 16614 16616 16617 16618 16641
          16643 16642 16644 16645 16647 17448
          17452 17476 17480 17496 17498 17500
          17502 17524 17526 17528 17530 17499
          17527 17630 17634 17658 17662 17678
          17680 17682 17684 17706 17708 17710
          17712 17681 17709
        </DataArray>
        <DataArray type="Float64" Name="bounds" format="ascii" RangeMin="0" RangeMax="0">
          0 0 0 0 0 0
          0 0 0 0 0 0
          0 0 0 0 0 0
          0 0 0 0 0 0
          0 0 0 0 0 0
          0 0 0 0 0 0
          0 0 0 0 0 0
          0 0 0 0 0 0
          0 0 0 0 0 0
          0 0 0 0 0 0
          0 0 0 0 0 0
          0 0 0 0 0 0
          0 0 0 0 0 0
          0 0 0 0 0 0
          0 0 0 0 0 0
          0 0 0 0 0 0
          0 0 0 0 0 0
          0 0 0 0 0 0
          0 0 0 0 0 0
          0 0 0 0 0 0
          0 0 0 0 0 0
          0 0 0 0 0 0
          0 0 0 0 0 0
          0 0 0 0 0 0
          0 0 0 0 0 0
          0 0 0 0 0 0
          0 0 0 0 0 0
          0 0 0 0 0 0
          0 0 0 0 0 0
          0 0 0 0 0 0
          0 0 0 0 0 0
          0 0 0 0 0 0
          0 0 0 0 0 0
          0 0 0 0 0 0
          0 0 0 0 0 0
          0 0 0 0 0 0
          0 0 0 0 0 0
          0 0 0 0 0 0
          0 0 0 0 0 0
          0 0 0 0 0 0
          0 0 0 0 0 0
          0 0 0 0 0 0
          0 0 0 0 0 0
          0 0 0 0 0 0
          0 0 0 0 0 0
          0 0 0 0 0 0
          0 0 0 0 0 0
          0 0 0 0 0 0
          0 0 0 0 0 0
          0 0 0 0 0 0
          0 0 0 0 0 0
          0 0 0 0 0 0
          0 0 0 0 0 0
          0 0 0 0 0 0
          0 0 0 0 0 0
          0 0 0 0 0 0
          0 0 0 0 0 0
          0 0 0 0 0 0
          0 0 0 0 0 0
          0 0 0 0 0 0
          0 0 0 0 0 0
          0 0 0 0 0 0
          0 0 0 0 0 0
          0 0 0 0 0 0
          0 0 0 0 0 0
          0 0 0 0 0 0
          0 0 0 0 0 0
          0 0 0 0 0 0
          0 0 0 0 0 0
          0 0 0 0 0 0
          0 0 0 0 0 0
          0 0 0 0 0 0
          0 0 0 0 0 0
          0 0 0 0 0 0
          0 0 0 0 0 0
          0 0 0 0 0 0
          0 0 0 0 0 0
          0 0 0 0 0 0
          0 0 0 0 0 0
          0 0 0 0 0 0
          0 0 0 0 0 0
          0 0 0 0 0 0
          0 0 0 0 0 0
          0 0 0 0 0 0
          0 0 0 0 0 0
          0 0 0 0 0 0
          0 0 0 0 0 0
          0 0 0 0 0 0
          0 0 0 0 0 0
          0 0 0 0 0 0
          0 0 0 0 0 0
          0 0 0 0 0 0
          0 0 0 0 0 0
          0 0 0 0 0 0
          0 0 0 0 0 0
          0 0 0 0 0 0
          0 0 0 0 0 0
          0 0 0 0 0 0
          0 0 0 0 0 0
          0 0 0 0 0 0
          0 0 0 0 0 0
          0 0 0 0 0 0
          0 0 0 0 0 0
          0 0 0 0 0 0
          0 0 0 0 0 0
          0 0 0 0 0 0
          0 0 0 0 0 0
          0 0 0 0 0 0
          0 0 0 0 0 0
          0 0 0 0 0 0
          0 0 0 0 0 0
          0 0 0 0 0 0
          0 0 0 0 0 0
          0 0 0 0 0 0
          0 0 0 0 0 0
          0 0 0 0 0 0
          0 0 0 0 0 0
          0 0 0 0 0 0
          0 0 0 0 0 0
          0 0 0 0 0 0
          0 0 0 0 0 0
          0 0 0 0 0 0
          0 0 0 0 0 0
          0 0 0 0 0 0
          0 0 0 0 0 0
          0 0 0 0 0 0
          0 0 0 0 0 0
          0 0 0 0 0 0
          0 0 0 0 0 0
          0 0 0 0 0 0
          0 0 0 0 0 0
          0 0 0 0 0 0
          0 0 0 0 0 0
          0 0 0 0 0 0
          0 0 0 0 0 0
          0 0 0 0 0 0
          0 0 0 0 0 0
          0 0 0 0 0 0
          0 0 0 0 0 0
          0 0 0 0 0 0
          0 0 0 0 0 0
          0 0 0 0 0 0
          0 0 0 0 0 0
          0 0 0 0 0 0
          0 0 0 0 0 0
          0 0 0 0 0 0
          0 0 0 0 0 0
          0 0 0 0 0 0
          0 0 0 0 0 0
          0 0 0 0 0 0
          0 0 0 0 0 0
          0 0 0 0 0 0
          0 0 0 0 0 0
          0 0 0 0 0 0
          0 0 0 0 0 0
          0 0 0 0 0 0
          0 0 0 0 0 0
          0 0 0 0 0 0
          0 0 0 0 0 0
          0 0 0 0 0 0
          0 0 0 0 0 0
          0 0 0 0 0 0
          0 0 0 0 0 0
          0 0 0 0 0 0
          0 0 0 0 0 0
          0 0 0 0 0 0
          0 0 0 0 0 0
          0 0 0 0 0 0
          0 0 0 0 0 0
          0 0 0 0 0 0
          0 0 0 0 0 0
          0 0 0 0 0 0
          0 0 0 0 0 0
          0 0 0 0 0 0
          0 0 0 0 0 0
          0 0 0 0 0 0
          0 0 0 0 0 0
          0 0 0 0 0 0
          0 0 0 0 0 0
          0 0 0 0 0 0
          0 0 0 0 0 0
          0 0 0 0 0 0
          0 0 0 0 0 0
          0 0 0 0 0 0
          0 0 0 0 0 0
          0 0 0 0 0 0
          0 0 0 0 0 0
          0 0 0 0 0 0
          0 0 0 0 0 0
          0 0 0 0 0 0
          0 0 0 0 0 0
          0 0 0 0 0 0
          0 0 0 0 0 0
          0 0 0 0 0 0
          0 0 0 0 0 0
          0 0 0 0 0 0
          0 0 0 0 0 0
          0 0 0 0 0 0
          0 0 0 0 0 0
          0 0 0 0 0 0
          0 0 0 0 0 0
          0 0 0 0 0 0
          0 0 0 0 0 0
          0 0 0 0 0 0
          0 0 0 0 0 0
          0 0 0 0 0 0
          0 0 0 0 0 0
          0 0 0 0 0 0
          0 0 0 0 0 0
          0 0 0 0 0 0
          0 0 0 0 0 0
          0 0 0 0 0 0
          0 0 0 0 0 0
          0 0 0 0 0 0
          0 0 0 0 0 0
          0 0 0 0 0 0
          0 0 0 0 0 0
          0 0 0 0 0 0
          0 0 0 0 0 0
          0 0 0 0 0 0
          0 0 0 0 0 0
          0 0 0 0 0 0
          0 0 0 0 0 0
          0 0 0 0 0 0
          0 0 0 0 0 0
          0 0 0 0 0 0
          0 0 0 0 0 0
          0 0 0 0 0 0
          0 0 0 0 0 0
          0 0 0 0 0 0
          0 0 0 0 0 0
          0 0 0 0 0 0
          0 0 0 0 0 0
          0 0 0 0 0 0
          0 0 0 0 0 0
          0 0 0 0 0 0
          0 0 0 0 0 0
          0 0 0 0 0 0
          0 0 0 0 0 0
          0 0 0 0 0 0
          0 0 0 0 0 0
          0 0 0 0 0 0
          0 0 0 0 0 0
          0 0 0 0 0 0
          0 0 0 0 0 0
          0 0 0 0 0 0
          0 0 0 0 0 0
          0 0 0 0 0 0
          0 0 0 0 0 0
          0 0 0 0 0 0
          0 0 0 0 0 0
          0 0 0 0 0 0
          0 0 0 0 0 0
          0 0 0 0 0 0
          0 0 0 0 0 0
          0 0 0 0 0 0
          0 0 0 0 0 0
          0 0 0 0 0 0
          0 0 0 0 0 0
          0 0 0 0 0 0
          0 0 0 0 0 0
          0 0 0 0 0 0
          0 0 0 0 0 0
          0 0 0 0 0 0
          0 0 0 0 0 0
          0 0 0 0 0 0
          0 0 0 0 0 0
          0 0 0 0 0 0
          0 0 0 0 0 0
          0 0 0 0 0 0
          0 0 0 0 0 0
          0 0 0 0 0 0
          0 0 0 0 0 0
          0 0 0 0 0 0
          0 0 0 0 0 0
          0 0 0 0 0 0
          0 0 0 0 0 0
          0 0 0 0 0 0
          0 0 0 0 0 0
          0 0 0 0 0 0
          0 0 0 0 0 0
          0 0 0 0 0 0
          0 0 0 0 0 0
          0 0 0 0 0 0
          0 0 0 0 0 0
          0 0 0 0 0 0
          0 0 0 0 0 0
          0 0 0 0 0 0
          0 0 0 0 0 0
          0 0 0 0 0 0
          0 0 0 0 0 0
          0 0 0
        </DataArray>
        <DataArray type="Float64" Name="gradient_error" format="ascii" RangeMin="1.6401541217197864e-12" RangeMax="4.631219157448932e-7">
          3.4956286033814625e-9 4.025778471947266e-11 8.48805876824971e-9 6.496462528350725e-9 2.303760630841857e-9 3.630065145869816e-8
          3.096625234812549e-11 4.5951145014834044e-8 1.1415413954371816e-7 6.685010162064172e-9 1.3179282860118384e-7 5.126985520902742e-9
          1.5350432877656295e-9 4.964248730952257e-9 2.5603713903046114e-9 5.687832828531319e-9 1.7611909458354675e-9 4.860846454290374e-9
          5.0617202712390816e-11 5.92617952995532e-11 3.1361505185848073e-10 1.2663890490910895e-10 5.059390769094124e-10 3.633699260064682e-10
          1.3715491977419513e-10 5.863099450225398e-10 2.6943999685253786e-7 1.1808972840847988e-7 6.572959260505178e-8 2.702175663633889e-8
          3.635843853609557e-7 1.6083334667058927e-7 8.724366951140496e-8 6.597469734457471e-10 1.0096489503751094e-10 1.230837044290628e-10
          3.4596868884290115e-11 9.352715167023247e-10 1.4396849717571392e-10 1.6918378122176623e-10 4.357909926654617e-7 1.9399139202265376e-7
          1.0341502109641511e-7 4.333095713663208e-8 4.631219157448932e-7 2.066964053706004e-7 1.094960015322863e-7 1.1621505656340675e-9
          1.7928989270484145e-10 2.057682134088086e-10 3.767613171678742e-11 1.251763918504241e-9 1.9316580960655088e-10 2.1977868860025442e-10
          2.5281750063324647e-8 1.9405023512164594e-8 3.212733854903459e-8 3.7421488781021074e-8 2.9322307108051035e-8 3.975462166859869e-8
          1.8850927562404748e-8 7.036176319511853e-9 1.2774918698245711e-8 4.134249199751274e-9 2.412057544672247e-8 9.121018308981645e-9
          1.643613601143149e-8 8.592832134152096e-10 2.3463643689860633e-10 1.3852813887593939e-9 4.126711438402716e-10 1.0930613170947848e-9
          2.920249967199314e-10 1.7497112865428554e-9 2.81800136563535e-8 1.0712900168764862e-8 1.9268435176907725e-8 6.168872226997553e-9
          2.989239402545244e-8 1.132630025688771e-8 2.047158614724918e-8 1.2670600461161982e-9 3.3319225560733584e-10 2.0195065800663943e-9
          5.797418562858338e-10 1.3320057667675047e-9 3.487993497989396e-10 2.1194669431250974e-9 1.4674963349379692e-11 1.7972290554056584e-11
          2.1147231442959025e-11 2.0876819275113317e-11 2.303981286285437e-11 2.5866474954662093e-11 2.7188398304442187e-11 3.113090652858308e-11
          2.7796544847028086e-11 2.871385908399047e-11 8.332284189473452e-11 6.723338777867622e-11 1.383876968305798e-10 9.831136832368148e-11
          1.0156204583439238e-10 8.214291306477957e-11 1.6835486701438078e-10 1.1477944906468653e-10 9.311711030661513e-11 1.8964710479671146e-10
          1.3564244892385251e-10 1.200689512760363e-10 9.747136149182934e-11 1.9837959223646735e-10 3.187958485035145e-8 6.970781597909286e-9
          3.8164206254857566e-8 2.059030969980144e-8 4.4088486193952116e-8 8.361832864193618e-9 4.411911663877037e-9 9.715903306603047e-9
          1.7431426432852414e-8 1.5382912255214123e-9 9.274996445601791e-9 2.0213554351340255e-10 8.068047901338334e-11 2.5261527418004786e-10
          3.801450967657726e-9 2.840381615170531e-10 1.999690094261648e-9 8.071711223270238e-11 3.012424586961871e-11 5.1753681697904304e-11
          4.033903196188987e-11 1.0024518175101521e-10 3.747556353898663e-11 5.059165255047408e-11 2.0883079782162642e-8 1.867159956368592e-9
          1.1153081821905594e-8 7.983993786869807e-10 2.4144586359549077e-8 1.2942902470850905e-8 3.0632508486419865e-10 1.225413429816345e-10
          3.5971737141059807e-10 4.560331292674557e-9 3.4133342186125247e-10 2.3793122839953026e-9 1.4629177405210889e-10 5.299724646310113e-9
          3.978630451687789e-10 2.748296169604116e-9 1.2081639317366575e-10 4.5284491322385474e-11 4.863034527070295e-11 2.6891489228214436e-11
          1.410675342684823e-10 5.292495346393997e-11 5.6420820091034554e-11 4.962386895833458e-8 2.6903335010494775e-8 5.410059413403535e-8
          1.0908136494053752e-8 5.7017446725720426e-9 1.1845182746467885e-8 5.694230942055571e-8 3.088970314924902e-8 5.80189774596197e-8
          1.243229912145823e-8 6.479988533576941e-9 1.2649403050903683e-8 2.7188734191696477e-8 1.458532014390509e-8 1.0605622848968726e-9
          2.9652244991035693e-8 1.5909958289848042e-8 4.085642871041153e-10 1.635078981672923e-10 4.481738758541625e-10 5.951718494929443e-9
          4.489273062151976e-10 3.074603544609534e-9 1.8959995774720708e-10 6.464633886613823e-9 4.898119031763536e-10 3.331947864952432e-9
          1.594121039460053e-10 5.982605466634802e-11 6.336121113776883e-11 3.470290758742098e-11 1.7415826834766378e-10 6.536598944602065e-11
          6.888900238178087e-11 3.122007604197802e-8 1.675377978448186e-8 1.228536106537369e-9 3.180900264090013e-8 1.7067244846918338e-8
          4.740943564590165e-10 1.8958715503728194e-10 4.831175707862096e-10 6.786802287027366e-9 5.162861155247784e-10 3.494393608087959e-9
          2.1617317645709407e-10 6.905332531984457e-9 5.255012248896496e-10 3.553861039956496e-9 1.8374615516812022e-10 6.896430190781615e-11
          7.245923193438393e-11 3.9596038042550124e-11 1.870736207948202e-10 7.021063947425553e-11 7.369520814173576e-11 9.757905948962882e-10
          1.510821140524488e-9 1.759392890942548e-9 1.3777975649174736e-9 1.989067980475416e-9 9.170006111949988e-10 1.9837787617395226e-10
          8.363895022895477e-10 8.281518595678394e-11 5.728350851288975e-11 1.0670335459472844e-10 4.7701734932263175e-11 8.659002917346742e-11
          5.36263935317543e-11 1.2887252722791267e-10 1.0680399475311512e-9 2.3054161547404513e-10 9.74325103404928e-10 3.8652563718572665e-10
          1.207912090903381e-9 2.6085909047580266e-10 1.101859869201785e-9 8.811658269758973e-11 4.803852879889489e-11 1.50523070316384e-10
          6.608518363998242e-11 9.993846255321535e-11 5.426358547741405e-11 1.7039957398419845e-10 2.1942139790321908e-9 1.7222491593652298e-9
          2.3570721484757724e-9 2.46055013211005e-9 1.933796343362213e-9 2.499216951359167e-9 1.3324924218739068e-9 2.8753916099443095e-10
          1.21503185464055e-9 4.802393548469615e-10 1.4312981341816147e-9 3.084983292900087e-10 1.3047279998159683e-9 1.1018721320456119e-10
          5.96969977376531e-11 1.8758283766391805e-10 8.125077888403636e-11 1.1821543935278053e-10 6.395743893285297e-11 2.0100529625743371e-10
          1.4941985654708405e-9 3.2200298808697646e-10 1.3622214883490644e-9 5.367869557913822e-10 1.5174835094765011e-9 3.26727905226999e-10
          1.3830944365612402e-9 1.2329796958259208e-10 6.661564624954693e-11 2.094924923922282e-10 8.993987656709841e-11 1.2508680679120188e-10
          6.754049904411424e-11 2.124753037268298e-10 5.8883411800915824e-12 5.944034542385081e-12 6.988782452037196e-12 3.1554912534672257e-11
          3.9555253234558646e-11 1.4201770896244545e-11 9.69741813555386e-12 1.9643394444355868e-11 1.440445377274866e-11 1.4213275823407392e-11
          7.937888368883349e-12 1.879610042092098e-11 7.312866708541734e-12 7.590077624236063e-12 8.272464225465791e-12 4.816314593006519e-12
          8.830691971538318e-12 9.311480364960925e-12 9.734660094194911e-12 4.8008492936303384e-11 1.780436721297257e-11 5.636057588435476e-11
          1.716392375705233e-11 9.513438147255053e-12 2.139814301400546e-11 1.3969130495849982e-11 2.004907068605309e-11 1.1077942055367646e-11
          2.440406265106677e-11 1.052182993268386e-11 1.1101037550849843e-11 1.1506280943551446e-11 6.605638433251919e-12 1.2217909267521712e-11
          1.2882530395610385e-11 1.3303943573673887e-11 6.394017945203422e-11 2.3649758035466612e-11 7.003249372967974e-11 2.2652730986503547e-11
          1.2490040530347019e-11 2.725236959133146e-11 1.7892958866438825e-11 2.473396673542004e-11 1.3609255948669253e-11 2.951075456203255e-11
          1.37490183392281e-11 1.449113281296584e-11 1.4945084109835216e-11 8.461135609368158e-12 1.4953517998815754e-11 1.575230543758083e-11
          1.624082928151989e-11 7.399133817214795e-11 2.730120726141834e-11 7.536400414114511e-11 2.6082246421895332e-11 1.4317576681021991e-11
          3.096771097494643e-11 2.0337147231844446e-11 2.6544725490676896e-11 1.4552129585884155e-11 3.1460127987021255e-11 1.5691295249651934e-11
          1.651510596070207e-11 1.7019086324823663e-11 9.56316540159566e-12 1.5929012392838608e-11 1.675886211276157e-11 1.7262671150944388e-11
          2.4995870483329627e-11 1.6578005734444426e-11 2.241164288345658e-11 1.780619929392567e-11 2.8248457009646726e-11 1.9546627606511315e-11
          2.521034180355267e-11 3.1714482436176565e-11 2.2318945886698945e-11 2.812382376237439e-11 2.2924788398481153e-11 3.561193892669029e-11
          2.4977183069763156e-11 3.1112115764062676e-11 3.9246675784935297e-11 2.7436588958014425e-11 3.3778343073766124e-11 2.7556643929243165e-11
          4.2089453589538545e-11 2.9365285563996056e-11 3.580998023787169e-11 4.3873657939039805e-11 3.0565150896675373e-11 3.703000454987268e-11
          3.023796250315652e-11 4.448876567825293e-11 3.0972310619816856e-11 3.745613081047235e-11 3.769265042112052e-9 2.679424405640486e-9
          4.1840669437016916e-9 3.1699400639001377e-9 2.151941467728271e-9 2.1748737398964606e-9 1.3804272708881484e-9 3.522124244155219e-9
          2.3966558211028785e-9 2.421934427675698e-9 1.8088405333687075e-9 1.276813791110159e-9 2.0187669045510827e-9 1.4596062193585738e-9
          9.022462322666064e-10 1.0069333527477538e-9 5.92336670229175e-10 1.628243993948119e-9 1.0057012659386495e-9 1.1212672981200385e-9
          3.246384117031616e-10 7.132842182274001e-11 2.0858407892529952e-10 1.3340583745331638e-10 1.2762051075559937e-10 5.689430176276358e-10
          3.6468749480215175e-10 3.6289147574357057e-10 2.2678413523458073e-10 6.34283018548416e-10 4.0679654851890873e-10 4.041538924201583e-10
          2.3451926727548584e-10 1.50099862325604e-10 1.4323932866529717e-10 9.058978093579958e-11 2.6174854428739955e-10 1.675991682613118e-10
          1.5960281093602308e-10 8.517302040783234e-10 5.71806580425033e-10 9.449292140072183e-10 6.718141043215942e-10 3.91090033959429e-10