<?xml version="1.0"?>
<VTKFile type="UnstructuredGrid" version="0.1" byte_order="LittleEndian" header_type="UInt32" compressor="vtkZLibDataCompressor">
  <UnstructuredGrid>
    <Piece NumberOfPoints="1712" NumberOfCells="1019">
      <PointData>
        <DataArray type="Int32" Name="libmesh_node_id" format="ascii" RangeMin="1830" RangeMax="16319">
          1830 1831 1832 1833 1834 1835
          1836 1837 1838 1839 1875 1876
          1877 1878 1879 1905 1906 1907
          1908 1909 1950 1951 1952 1953
          1954 1955 1956 1957 1958 1959
          1995 1996 1997 1998 1999 2000
          2025 2026 2027 2028 2029 2030
          2070 2071 2072 2073 2074 2075
          2076 2077 2078 2079 2115 2116
          2117 2118 2119 2145 2146 2147
          2148 2149 2191 2192 2193 2194
          2195 2196 2197 2198 2199 2235
          2236 2237 2238 2239 2265 2266
          2267 2268 2269 2311 2312 2313
          2314 2315 2316 2317 2318 2319
          2321 2355 2356 2357 2358 2359
          2385 2386 2387 2388 2389 2400
          2401 2402 2403 2404 2405 2406
          2407 2408 2409 2410 2411 2412
          2413 2414 2415 2416 2417 2418
          2419 2420 2421 2422 2423 2424
          2425 2426 2427 2428 2429 2430
          2431 2432 2433 2434 2435 2436
          2437 2438 2439 2440 2441 2442
          2443 2444 2445 2446 2447 2448
          2449 2450 2454 2455 2456 2458
          2460 2503 2504 2505 2506 2507
          2508 2509 2510 2511 2512 2513
          2514 2515 2516 2517 2518 2521
          2522 2524 2525 2526 2547 2548
          2549 2550 2551 2552 2553 2554
          2555 2556 2557 2558 2559 2560
          2561 2562 2563 2564 2565 2566
          2567 2568 2569 2570 2571 2572
          2573 2574 2575 2576 2577 2578
          2579 2580 2581 2582 2583 2584
          2585 2586 2587 2588 2589 2590
          2591 2592 2593 2594 2595 2596
          2597 2598 2599 2600 2601 2602
          2603 2604 2605 2606 2607 2608
          2609 2610 2611 2612 2613 2614
          2615 2616 2617 2618 2619 2620
          2621 2622 2623 2624 2625 2626
          2627 2628 2629 2630 2631 2632
          2633 2634 2635 2636 2637 2638
          2639 2640 2641 2642 2643 2644
          2645 2646 2647 2648 2649 2650
          2653 2654 2655 2656 2657 2659
          2674 2675 2676 2677 2678 2679
          2680 2681 2682 2683 2684 2685
          2686 2687 2688 2689 2690 2691
          2692 2693 2780 2781 2782 2783
          2784 2785 2786 2787 2788 2789
          2790 2791 2792 2793 2794 2795
          2796 2797 2801 2802 2824 2825
          2826 2827 2828 2829 2830 2831
          2832 2833 2834 2835 2836 2837
          2838 2839 2840 2841 2842 2843
          2844 2845 2846 2847 2848 2849
          2850 2851 2852 2853 2854 2855
          2856 2857 2858 2859 2860 2861
          2862 2863 2864 2865 2866 2867
          2868 2869 2870 2871 2872 2873
          2874 2875 2876 2877 2878 2879
          2880 2881 2882 2883 2884 2885
          2886 2887 2952 2953 2954 2955
          2956 2957 2958 2959 2960 2961
          2962 2963 2964 2965 2966 2967
          2968 2969 2970 2971 2972 2973
          2974 2975 2976 2977 2978 2979
          2980 2981 2982 2983 2984 2985
          2986 2987 2988 2989 2990 2991
          2992 2993 2994 2995 2996 2997
          2998 2999 3000 3001 3002 3003
          3004 3005 3006 3007 3008 3009
          3010 3011 3012 3013 3014 3015
          3016 3017 3018 3019 3020 3021
          3022 3023 3024 3025 3026 3027
          3028 3029 3030 3031 3032 3033
          3034 3035 3036 3037 3038 3039
          3040 3041 3042 3043 3044 3045
          3046 3047 3048 3049 3050 3051
          3052 3053 3054 3055 3056 3057
          3058 3059 3060 3061 3062 3063
          3064 3065 3066 3067 3068 3069
          3070 3071 3072 3073 3074 3075
          3076 3077 3078 3079 3080 3081
          3082 3083 3084 3085 3086 3087
          3088 3089 3090 3091 3092 3093
          3094 3095 3096 3097 3098 3099
          3100 3101 3102 3103 3104 3105
          3106 3107 3108 3109 3110 3111
          3112 3113 3114 3115 3116 3117
          3118 3119 3120 3121 3122 3123
          3124 3125 3126 3127 3128 3129
          3130 3131 3132 3133 3134 3135
          3136 3137 3138 3139 3140 3141
          3142 3143 3144 3145 3146 3147
          3148 3149 3150 3151 3152 3153
          3154 3155 3156 3157 3158 3159
          3160 3161 3162 3163 3164 3165
          3166 3167 3168 3169 3170 3171
          3172 3173 3174 3175 3176 3177
          3178 3179 3180 3181 3182 3183
          3184 3185 3186 3187 3188 3189
          3190 3191 3192 3193 3194 3195
          3196 3197 3198 3199 3200 3201
          3202 3203 3204 3205 3206 3207
          3208 3209 3210 3211 3212 3213
          3214 3215 3216 3217 3218 3219
          3220 3221 3222 3223 3224 3225
          3226 3227 3228 3229 3230 3231
          3232 3233 3234 3235 3236 3237
          3238 3239 3240 3241 3242 3243
          3244 3245 3246 3247 3248 3249
          3250 3251 3252 3253 3254 3255
          3256 3257 3258 3259 3260 3261
          3262 3263 3264 3265 3266 3267
          3268 3269 3270 3271 3272 3273
          3274 3275 3276 3277 3278 3279
          3280 3281 3282 3283 3284 3285
          3286 3287 3288 3289 3290 3291
          3292 3293 3294 3295 3297 3299
          3300 3301 3302 3303 3304 3305
          3306 3307 3308 3309 3310 3311
          3312 3313 3314 3315 3316 3317
          3318 3319 3320 3321 3322 3323
          3324 3325 3326 3327 3328 3329
          3334 3340 3341 3342 3343 3344
          3345 3346 3347 3348 3349 3350
          3351 3352 3353 3436 3437 3438
          3439 3440 3441 3442 3443 3444
          3445 3797 3798 3799 3800 3801
          3802 3803 3804 3805 3806 3807
          3808 3809 3810 3811 3812 3813
          3814 3815 3816 3817 3818 3819
          3820 3821 3822 3823 3824 3825
          3826 3827 3828 3829 3830 3831
          3832 3833 3834 3835 3836 3837
          3838 3839 3840 3841 3842 3843
          3844 3845 3846 3847 3848 3849
          3850 3851 3852 3853 3854 3855
          3856 3857 3858 3859 3860 3861
          3862 3863 3864 3865 3868 3869
          3902 3903 3904 3905 3906 3907
          3908 3909 3910 3911 3912 3913
          3914 3915 3936 3937 3938 3939
          3940 3941 3942 3943 3944 3945
          3946 3947 3948 3949 3950 3951
          3952 3953 3954 3955 3956 3957
          3958 3959 3960 3961 3962 3963
          3964 3965 3966 3967 3968 3969
          3970 3971 3972 3973 3974 3975
          3976 3977 3978 3979 3980 3981
          3982 3983 3984 3985 3986 3987
          3988 3989 3990 3991 3992 3993
          3994 3995 3996 3997 3998 3999
          4000 4001 4002 4003 4004 4005
          4006 4007 4008 4009 4010 4011
          4012 4013 4014 4015 4016 4017
          4018 4019 4020 4117 4118 4119
          4120 4121 4122 4123 4124 4125
          4126 4127 4128 4129 4130 4131
          4132 4133 4134 4135 4136 4161
          4162 4163 4164 4165 4166 4167
          4168 4169 4170 4171 4172 4173
          4174 4175 4176 4177 4178 4179
          4180 4181 4182 4183 4184 4185
          4186 4187 4188 4189 4190 4191
          4192 4193 4194 4195 4196 4197
          4198 4199 4200 4201 4202 4203
          4204 4205 4206 4207 4208 4209
          4210 4211 4212 4213 4214 4215
          4216 4217 4218 4219 4220 4221
          4222 4223 4224 4225 4226 4227
          4228 4229 4230 4231 4232 4233
          4234 4235 4236 4237 4238 4239
          4240 4241 4242 4243 4244 4245
          4246 4247 4248 4249 4250 4251
          4252 4253 4254 4258 4263 4264
          4265 4269 4270 4271 4272 4273
          4274 4275 4276 4277 4278 4279
          4280 4281 4282 4283 4284 4285
          4286 4287 4288 4289 4290 4291
          4292 4293 4294 4295 4296 4297
          4298 4299 4300 4301 4302 4303
          4304 4305 4306 4307 4308 4309
          4310 4311 4312 4313 4314 4315
          4316 4317 4318 4319 4320 4321
          4322 4323 4324 4325 4326 4327
          4328 4329 4330 4335 4336 4351
          4352 4353 4354 6120 6121 6122
          6123 6124 6125 6126 6127 6128
          6129 6130 6131 6132 6134 6135
          6137 6138 6139 6140 6141 6143
          6154 6155 6156 6157 6158 6159
          6160 6161 6162 6163 6164 6165
          6166 6167 6168 6169 6170 6171
          6172 6173 6174 6175 6176 6177
          6178 6179 6180 6181 6182 6183
          6184 6195 6196 6197 6198 6199
          6200 6201 6202 6203 6204 6205
          6206 6207 6208 6209 6210 6211
          6212 6213 6214 6225 6226 6227
          6228 6229 6230 6231 6232 6233
          6234 6235 6236 6237 6238 6239
          6240 6241 6242 6243 6244 6245
          6246 6247 6248 6249 6250 6251
          6252 6253 6254 6255 6290 6291
          6292 6293 6294 6295 6296 6297
          6298 6299 6686 6687 6688 6689
          6690 6691 6692 6693 6694 6695
          6696 6697 6698 6699 6700 6701
          6702 6703 6704 6705 6706 6707
          6708 6709 6710 6711 6712 6713
          6714 6715 6716 6717 6718 6719
          6720 6721 6722 6723 6724 6725
          6726 6727 6728 6729 6730 6731
          6732 6733 6734 6735 6736 6737
          6738 6739 6740 6741 6742 6743
          6744 6745 6746 6747 6748 6749
          6750 6751 6752 6753 6754 6755
          6756 6757 6758 6759 6760 6761
          6762 6763 6764 6765 6766 6767
          6768 6769 6770 6771 6772 6773
          6774 6775 6776 6777 6778 6779
          6780 6781 6782 6783 6784 6785
          6786 6787 6788 6789 6790 6791
          6792 6793 6794 6795 6796 6797
          6798 6799 6800 6801 6802 6803
          6804 6805 6806 6807 6808 6809
          6810 6811 6812 6813 6814 6815
          6816 6817 6818 6819 6820 6821
          6822 6823 6824 6825 6826 6827
          6828 6829 6830 6831 6832 6833
          6834 6835 6836 6837 6838 6839
          6840 6841 6842 6843 6844 6845
          6846 6847 6848 6849 6851 6852
          6853 6854 6855 6856 6857 6858
          6859 6860 6861 6862 6863 6864
          6865 6866 6867 6868 6869 6870
          6871 6872 6873 6874 6875 6876
          6877 6878 6879 6880 6881 6882
          6883 6884 6885 6886 6887 6888
          6889 6890 6891 6892 6893 6894
          6895 6896 6897 6898 6899 6900
          6901 6902 6903 6904 6905 6906
          6907 6908 6909 6910 6911 6912
          6913 6914 6915 6916 6917 6918
          6919 6920 6921 6922 6923 6924
          6925 6926 6927 6928 6929 6930
          6931 6932 6933 6934 6935 6936
          6937 6938 6939 6940 6941 6942
          6943 6944 6945 6946 6947 6948
          6949 6950 6951 6952 6953 6954
          6955 6956 6957 6958 6959 6960
          6961 6962 6963 6964 6965 6966
          6967 6968 6969 6970 6971 6972
          6973 6974 6975 6976 6977 6978
          6979 6980 6981 6982 6983 6984
          6985 6986 6987 6988 6989 6990
          6991 6992 6993 6994 6995 6996
          6997 6998 6999 7000 7001 7002
          7003 7006 7007 7008 7009 7010
          7011 7012 7013 7014 7015 7016
          7017 7018 7019 7020 7021 7022
          7023 7024 7026 7063 7064 7067
          7069 7070 7072 7087 7097 7098
          7101 7103 7104 7106 7117 7121
          15915 15916 15917 15918 15919 15920
          15921 15922 15923 15924 16222 16223
          16224 16225 16226 16227 16228 16229
          16230 16231 16232 16233 16234 16235
          16236 16237 16238 16239 16240 16241
          16242 16243 16244 16245 16246 16247
          16248 16249 16250 16251 16259 16260
          16261 16265 16269 16271 16272 16273
          16274 16275 16276 16277 16278 16279
          16284 16285 16288 16292 16294 16295
          16296 16297 16298 16299 16300 16302
          16304 16305 16306 16307 16309 16310
          16312 16313 16314 16315 16316 16317
          16318 16319 1960 1961 2080 2081
          2120 2150 2201 2240 2270 2360
          2390 2519 2520 2523 2798 2799
          2800 2803
        </DataArray>
        <DataArray type="Float64" Name="bounds" format="ascii" RangeMin="0" RangeMax="0">
          0 0 0 0 0 0
          0 0 0 0 0 0
          0 0 0 0 0 0
          0 0 0 0 0 0
          0 0 0 0 0 0
          0 0 0 0 0 0
          0 0 0 0 0 0
          0 0 0 0 0 0
          0 0 0 0 0 0
          0 0 0 0 0 0
          0 0 0 0 0 0
          0 0 0 0 0 0
          0 0 0 0 0 0
          0 0 0 0 0 0
          0 0 0 0 0 0
          0 0 0 0 0 0
          0 0 0 0 0 0
          0 0 0 0 0 0
          0 0 0 0 0 0
          0 0 0 0 0 0
          0 0 0 0 0 0
          0 0 0 0 0 0
          0 0 0 0 0 0
          0 0 0 0 0 0
          0 0 0 0 0 0
          0 0 0 0 0 0
          0 0 0 0 0 0
          0 0 0 0 0 0
          0 0 0 0 0 0
          0 0 0 0 0 0
          0 0 0 0 0 0
          0 0 0 0 0 0
          0 0 0 0 0 0
          0 0 0 0 0 0
          0 0 0 0 0 0
          0 0 0 0 0 0
          0 0 0 0 0 0
          0 0 0 0 0 0
          0 0 0 0 0 0
          0 0 0 0 0 0
          0 0 0 0 0 0
          0 0 0 0 0 0
          0 0 0 0 0 0
          0 0 0 0 0 0
          0 0 0 0 0 0
          0 0 0 0 0 0
          0 0 0 0 0 0
          0 0 0 0 0 0
          0 0 0 0 0 0
          0 0 0 0 0 0
          0 0 0 0 0 0
          0 0 0 0 0 0
          0 0 0 0 0 0
          0 0 0 0 0 0
          0 0 0 0 0 0
          0 0 0 0 0 0
          0 0 0 0 0 0
          0 0 0 0 0 0
          0 0 0 0 0 0
          0 0 0 0 0 0
          0 0 0 0 0 0
          0 0 0 0 0 0
          0 0 0 0 0 0
          0 0 0 0 0 0
          0 0 0 0 0 0
          0 0 0 0 0 0
          0 0 0 0 0 0
          0 0 0 0 0 0
          0 0 0 0 0 0
          0 0 0 0 0 0
          0 0 0 0 0 0
          0 0 0 0 0 0
          0 0 0 0 0 0
          0 0 0 0 0 0
          0 0 0 0 0 0
          0 0 0 0 0 0
          0 0 0 0 0 0
          0 0 0 0 0 0
          0 0 0 0 0 0
          0 0 0 0 0 0
          0 0 0 0 0 0
          0 0 0 0 0 0
          0 0 0 0 0 0
          0 0 0 0 0 0
          0 0 0 0 0 0
          0 0 0 0 0 0
          0 0 0 0 0 0
          0 0 0 0 0 0
          0 0 0 0 0 0
          0 0 0 0 0 0
          0 0 0 0 0 0
          0 0 0 0 0 0
          0 0 0 0 0 0
          0 0 0 0 0 0
          0 0 0 0 0 0
          0 0 0 0 0 0
          0 0 0 0 0 0
          0 0 0 0 0 0
          0 0 0 0 0 0
          0 0 0 0 0 0
          0 0 0 0 0 0
          0 0 0 0 0 0
          0 0 0 0 0 0
          0 0 0 0 0 0
          0 0 0 0 0 0
          0 0 0 0 0 0
          0 0 0 0 0 0
          0 0 0 0 0 0
          0 0 0 0 0 0
          0 0 0 0 0 0
          0 0 0 0 0 0
          0 0 0 0 0 0
          0 0 0 0 0 0
          0 0 0 0 0 0
          0 0 0 0 0 0
          0 0 0 0 0 0
          0 0 0 0 0 0
          0 0 0 0 0 0
          0 0 0 0 0 0
          0 0 0 0 0 0
          0 0 0 0 0 0
          0 0 0 0 0 0
          0 0 0 0 0 0
          0 0 0 0 0 0
          0 0 0 0 0 0
          0 0 0 0 0 0
          0 0 0 0 0 0
          0 0 0 0 0 0
          0 0 0 0 0 0
          0 0 0 0 0 0
          0 0 0 0 0 0
          0 0 0 0 0 0
          0 0 0 0 0 0
          0 0 0 0 0 0
          0 0 0 0 0 0
          0 0 0 0 0 0
          0 0 0 0 0 0
          0 0 0 0 0 0
          0 0 0 0 0 0
          0 0 0 0 0 0
          0 0 0 0 0 0
          0 0 0 0 0 0
          0 0 0 0 0 0
          0 0 0 0 0 0
          0 0 0 0 0 0
          0 0 0 0 0 0
          0 0 0 0 0 0
          0 0 0 0 0 0
          0 0 0 0 0 0
          0 0 0 0 0 0
          0 0 0 0 0 0
          0 0 0 0 0 0
          0 0 0 0 0 0
          0 0 0 0 0 0
          0 0 0 0 0 0
          0 0 0 0 0 0
          0 0 0 0 0 0
          0 0 0 0 0 0
          0 0 0 0 0 0
          0 0 0 0 0 0
          0 0 0 0 0 0
          0 0 0 0 0 0
          0 0 0 0 0 0
          0 0 0 0 0 0
          0 0 0 0 0 0
          0 0 0 0 0 0
          0 0 0 0 0 0
          0 0 0 0 0 0
          0 0 0 0 0 0
          0 0 0 0 0 0
          0 0 0 0 0 0
          0 0 0 0 0 0
          0 0 0 0 0 0
          0 0 0 0 0 0
          0 0 0 0 0 0
          0 0 0 0 0 0
          0 0 0 0 0 0
          0 0 0 0 0 0
          0 0 0 0 0 0
          0 0 0 0 0 0
          0 0 0 0 0 0
          0 0 0 0 0 0
          0 0 0 0 0 0
          0 0 0 0 0 0
          0 0 0 0 0 0
          0 0 0 0 0 0
          0 0 0 0 0 0
          0 0 0 0 0 0
          0 0 0 0 0 0
          0 0 0 0 0 0
          0 0 0 0 0 0
          0 0 0 0 0 0
          0 0 0 0 0 0
          0 0 0 0 0 0
          0 0 0 0 0 0
          0 0 0 0 0 0
          0 0 0 0 0 0
          0 0 0 0 0 0
          0 0 0 0 0 0
          0 0 0 0 0 0
          0 0 0 0 0 0
          0 0 0 0 0 0
          0 0 0 0 0 0
          0 0 0 0 0 0
          0 0 0 0 0 0
          0 0 0 0 0 0
          0 0 0 0 0 0
          0 0 0 0 0 0
          0 0 0 0 0 0
          0 0 0 0 0 0
          0 0 0 0 0 0
          0 0 0 0 0 0
          0 0 0 0 0 0
          0 0 0 0 0 0
          0 0 0 0 0 0
          0 0 0 0 0 0
          0 0 0 0 0 0
          0 0 0 0 0 0
          0 0 0 0 0 0
          0 0 0 0 0 0
          0 0 0 0 0 0
          0 0 0 0 0 0
          0 0 0 0 0 0
          0 0 0 0 0 0
          0 0 0 0 0 0
          0 0 0 0 0 0
          0 0 0 0 0 0
          0 0 0 0 0 0
          0 0 0 0 0 0
          0 0 0 0 0 0
          0 0 0 0 0 0
          0 0 0 0 0 0
          0 0 0 0 0 0
          0 0 0 0 0 0
          0 0 0 0 0 0
          0 0 0 0 0 0
          0 0 0 0 0 0
          0 0 0 0 0 0
          0 0 0 0 0 0
          0 0 0 0 0 0
          0 0 0 0 0 0
          0 0 0 0 0 0
          0 0 0 0 0 0
          0 0 0 0 0 0
          0 0 0 0 0 0
          0 0 0 0 0 0
          0 0 0 0 0 0
          0 0 0 0 0 0
          0 0 0 0 0 0
          0 0 0 0 0 0
          0 0 0 0 0 0
          0 0 0 0 0 0
          0 0 0 0 0 0
          0 0 0 0 0 0
          0 0 0 0 0 0
          0 0 0 0 0 0
          0 0 0 0 0 0
          0 0 0 0 0 0
          0 0 0 0 0 0
          0 0 0 0 0 0
          0 0 0 0 0 0
          0 0 0 0 0 0
          0 0 0 0 0 0
          0 0 0 0 0 0
          0 0 0 0 0 0
          0 0 0 0 0 0
          0 0 0 0 0 0
          0 0 0 0 0 0
          0 0 0 0 0 0
          0 0 0 0 0 0
          0 0 0 0 0 0
          0 0 0 0 0 0
          0 0 0 0 0 0
          0 0 0 0 0 0
          0 0 0 0 0 0
          0 0 0 0 0 0
          0 0 0 0 0 0
          0 0 0 0 0 0
          0 0 0 0 0 0
          0 0 0 0 0 0
          0 0 0 0 0 0
          0 0 0 0 0 0
          0 0 0 0 0 0
          0 0 0 0 0 0
          0 0 0 0 0 0
          0 0
        </DataArray>
        <DataArray type="Float64" Name="gradient_error" format="ascii" RangeMin="8.640374374747629e-13" RangeMax="1.5591286682087955e-7">
          2.765980133140944e-10 1.9680292793299513e-10 1.8405130680975284e-10 1.3781662753349633e-10 1.067605684871762e-10 9.360836243609475e-11
          5.981757574935e-11 5.686320683658511e-11 2.368028239858182e-11 2.0604367994499914e-11 7.504192397110065e-11 6.003461323133421e-11
          5.3324017486714115e-11 3.5802948726189476e-11 1.1619300233913084e-11 3.307600539030546e-11 2.8487278205428588e-11 2.6191878588414926e-11
          1.7697059528558747e-11 5.710146877408154e-12 1.2722954632008274e-9 9.464630693631804e-10 8.426230394239797e-10 6.515839802160303e-10
          4.844279047438805e-10 4.3010371628583334e-10 2.6448140448221534e-10 2.5369630584677925e-10 1.0123257315801876e-10 9.100490403033829e-11
          3.839061980180285e-10 2.928705426872152e-10 2.4378390539416664e-10 1.5859677325587808e-10 5.228585008809913e-11 3.4699606115170447e-12
          1.4718172051052353e-10 1.2519616436634943e-10 1.1178828296054717e-10 7.428233930041308e-11 2.3794465273540455e-11 8.640374374747629e-13
          2.8045598030920706e-9 2.0936018700627484e-9 1.7689194084722625e-9 1.456313754631749e-9 1.1575931982245188e-9 1.215593557334594e-9
          6.929585754893766e-10 7.670638605006987e-10 1.0944479745915235e-10 1.7943534312394643e-10 1.6529368799401426e-9 1.1330186887906283e-9
          8.767972909280388e-10 5.401002940019112e-10 1.6878414982998845e-10 5.684419500167603e-10 4.5676841562595397e-10 3.9374305484750035e-10
          2.51165787412578e-10 7.761612208429863e-11 5.113821502633367e-8 1.9045741632492304e-8 4.072479804566668e-8 1.1342627285457662e-8
          2.8753471404136192e-8 3.820846304421554e-9 1.0219967299374664e-8 8.243832975087835e-10 1.924101464681466e-10 2.0828464156227127e-9
          1.4311547386832333e-9 1.098119098189644e-9 6.64576175721756e-10 1.678827966298479e-10 1.323896515772826e-9 1.1737177894090322e-9
          8.892934789220105e-10 4.6163314210260643e-10 1.2276130067944517e-10 4.8511905519468416e-8 1.1374962010839663e-7 3.584590662546925e-8
          1.1926079290036405e-8 2.2382096521207896e-8 2.1933033126544184e-8 1.1799130009612696e-8 1.3667491897215902e-10 2.8712839475134004e-9
          9.403894754785336e-10 3.470258951113852e-9 2.8019173320122733e-9 1.6878508259110249e-9 6.105752663868141e-10 1.3389382819901555e-10
          1.751067555252653e-9 1.6377637132602655e-9 1.1721869995988258e-9 5.408976709862581e-10 1.287071922449382e-10 1.530977075020118e-8
          4.1569589614859885e-8 4.850449671360131e-8 1.3014427305660212e-7 1.4144676373658276e-7 1.0762464353124817e-7 1.1029278256365417e-7
          3.367079048614346e-8 5.978071833692457e-8 8.298795573587624e-8 4.577348513316433e-8 4.429778088284845e-8 5.360044927176843e-8
          3.5002669525072696e-8 7.305355492371705e-8 1.4931131035674534e-7 1.3463566399212806e-7 7.475202093551118e-8 2.9163940886970756e-8
          7.49133666505608e-9 2.524563148203002e-8 5.7683011352507413e-8 5.448753023443349e-8 1.2421906464127048e-8 5.182620379584993e-8
          3.9773735952483905e-8 2.871261677541915e-8 2.5670529396957075e-8 1.2534086207967606e-8 1.550132414428799e-8 2.537414040820126e-8
          2.8211466110996782e-8 1.7091726578833276e-8 1.4836943561701143e-9 1.5114261263825166e-9 4.153568772616473e-8 2.5758682454418486e-8
          3.509485328277961e-10 2.757741420720866e-8 1.5941211212844766e-8 1.0861569218187899e-9 2.2239974700419586e-9 7.210932342954266e-10
          3.675103258857731e-8 3.050226678425518e-8 3.08474739493065e-8 6.943022705087533e-9 3.870255620259684e-10 1.7575795398471522e-10
          1.3001738148751392e-8 7.654334166911033e-9 3.6082894966303735e-11 2.4469770378795867e-10 7.816336659165657e-11 5.200647154451666e-8
          1.4121032505303062e-9 5.387343518075453e-10 1.3584767650630438e-9 6.168691583479036e-10 1.7416374608321208e-9 7.241153815411921e-11
          7.42028843909398e-11 2.1645192470188453e-10 2.766625519567626e-10 5.774885230112431e-10 8.917809028092045e-11 7.277792824860256e-10
          2.124798156601198e-9 1.2629180268492207e-10 3.368731792116406e-10 1.575410274132804e-11 1.368259356380369e-11 5.338409660059698e-12
          9.390115234223055e-12 2.417062339468246e-11 2.69084148028516e-11 1.3441820808386413e-11 1.0202127904602738e-7 1.075540150157237e-7
          1.2672581103263557e-7 1.3134779727821183e-7 6.650830481585408e-8 1.0117020042304015e-7 1.5107587174942844e-7 6.790406034893115e-8
          2.7218479143947525e-8 4.494429035921643e-8 1.0222451618001386e-7 1.1762490708715779e-7 1.3473824084672052e-7 8.011328352538695e-8
          1.0769793729341048e-8 6.3560035572682e-8 1.279049988619223e-7 2.435786533744651e-8 1.1331934205534004e-7 5.917598769183272e-8
          4.843109447168101e-8 3.02061847619469e-8 2.994239655626994e-8 4.674068676113538e-8 3.3814101692155656e-8 3.2771680643259036e-8
          5.0025984676341054e-8 4.857550327913161e-8 3.511505230681783e-8 1.347620395215505e-8 2.686381499565205e-8 3.008538995142411e-8
          4.99372395672863e-8 5.528403099345833e-8 4.427991110526043e-8 3.8199518724568775e-8 3.5998781806702516e-8 4.1064540986476424e-8
          4.3567154977635474e-8 3.970860971901642e-8 4.4435438434744935e-8 3.4737153373273385e-8 3.411368605027447e-8 1.818529484943363e-8
          3.4025680262709075e-8 3.896865830353701e-8 2.6844204823391074e-8 4.720931013948828e-8 3.704168512657133e-8 5.014526094553902e-8
          4.392645797356251e-8 3.210511069804082e-8 5.805900663531448e-8 4.8596191708806116e-8 2.994823398203435e-8 3.305058658497913e-8
          3.1368217065900937e-8 2.760794568539108e-8 4.5234694196232907e-8 5.323612493882322e-8 2.946700994616705e-8 3.492511692588601e-8
          2.6406623926199858e-8 6.684778195466136e-8 5.347502789585099e-8 2.0322609729034144e-8 3.6902758899639674e-8 5.801317361272889e-8
          2.0853675899238584e-8 2.8965024354641584e-8 2.577757352333969e-8 3.767044374634559e-10 4.851767055071246e-8 4.169823409740722e-8
          3.111319939240044e-8 2.0049911568471385e-8 2.763064986977909e-8 2.325067307977898e-8 2.656299812631514e-8 1.6819574066582283e-8
          1.9697458971961312e-8 5.652890845204091e-9 1.1922579499876054e-8 1.5337680050578662e-8 6.000260288897763e-9 1.3269729432025039e-8
          1.5592905502779056e-8 1.0932302375553758e-8 1.621891189129353e-8 1.3548133512508461e-8 1.6002142297519372e-8 1.0466864720334361e-8
          1.23619104417016e-8 1.5064964724326787e-9 3.2343867725657487e-9 1.910810865241208e-9 8.640618065432754e-9 6.676720841023211e-9
          4.818633711617293e-9 2.003123291060477e-8 1.4354140002696153e-8 3.846668230545327e-8 5.0728876265927996e-8 9.08135233574194e-9
          1.1464212798668057e-8 2.904468876208037e-8 3.042984419776493e-8 3.357322080341507e-10 4.945150194666756e-8 4.32225614512404e-8
          7.726161024607774e-9 1.691623702824238e-8 5.375732819105006e-9 2.0347207889653964e-8 5.427603611261948e-10 1.0426409693482164e-9
          8.39034271105599e-10 2.0269189223231052e-8 3.0498705570770156e-8 1.5873516375881388e-9 3.4351371122717667e-9 1.4583604631050184e-8
          1.3599610433592868e-9 6.255868552810358e-9 1.857945783319876e-10 7.52725514783907e-10 5.114723822086994e-10 2.258344752940811e-8
          1.0165866455319965e-8 1.3513118076557618e-9 3.6252136689402904e-10 3.755640891547546e-10 9.66406872148086e-10 3.0361386093789954e-9
          1.1712913412422038e-9 1.1890827895627546e-9 3.0819265718498e-9 4.398739057808121e-11 2.0224242934496427e-10 1.6902979765787524e-10
          3.886068114154801e-10 1.2068742378833053e-9 3.1277145343206053e-9 1.3581716597078624e-10 3.7291868856364346e-11 2.1718187900091414e-11
          1.0294995665999213e-10 6.534117865295867e-11 6.1445069438184824e-12 2.773240064592521e-11 1.7863421909600114e-9 1.5023469330748548e-9
          3.109841460575228e-9 4.596004156345093e-9 5.884739576666468e-10 9.728266476121682e-10 1.3584626401827842e-9 4.433340730190445e-9
          7.689661379615333e-9 1.3571793375576897e-9 4.8240650415904866e-8 5.0759931406385815e-8 4.84479803442113e-8 6.398542081270694e-8
          4.4904521331077174e-8 3.215677404039462e-8 1.9799599197851954e-8 2.4300300255945718e-8 2.71688512853378e-8 2.171783217568673e-8
          4.91239694709471e-8 7.721091021902806e-8 1.9637608896335173e-8 2.880100131403948e-8 4.137635736526856e-8 2.9522700240623177e-8
          1.3699978890598585e-8 1.8743810990746987e-8 1.7809975669292795e-8 2.3787643090895386e-8 1.1789928770178918e-9 2.018625119920953e-9
          4.118614453277078e-9 3.7723958635507334e-8 3.222821412543176e-8 2.6226514618267736e-8 3.113426158564741e-8 1.0149327020958974e-9
          2.6664571552390068e-8 2.1296351427080894e-8 3.0108880724749087e-9 1.3306097371474124e-8 1.883671418109034e-8 1.019148344179522e-8
          1.2820285435001623e-9 9.809993220833002e-10 2.0999308457007753e-8 1.6526253681967782e-8 9.645807049329083e-10 1.5260840884545034e-8
          1.1895322544092148e-8 5.165393617819121e-10 7.471895982227413e-9 5.130365125078512e-9 1.0023194607820165e-9 7.546378750555905e-10
          9.983415192607905e-9 7.740986639275398e-9 4.745322130688821e-10 5.760827943637906e-9 4.467850466516245e-9 3.2655284305719074e-10
          3.2032365627877275e-9 1.7955121331859886e-9 2.5977429277200773e-8 2.600870066324203e-8 2.4454733575128728e-8 1.688284818630502e-8
          1.7508703773065606e-8 2.048018178608513e-8 1.962060825307793e-8 2.7496574508553792e-8 1.8328119339626276e-8 2.1426644841904626e-8
          2.598697708804549e-8 2.4812454291018792e-8 2.339156838747959e-8 2.6038141011988e-8 1.1172910866586893e-8 1.602941591960842e-8
          1.5629653706958573e-8 1.6686481024489115e-8 2.3675715686462954e-8 2.8641693703679878e-8 2.896949111831872e-8 1.9405049704602875e-8
          2.2581622775435226e-8 3.048771172932436e-8 2.0643011590965423e-8 2.388898688131235e-8 2.8542029391945323e-8 2.729588866915462e-8
          2.865084912729184e-8 1.2651649360195487e-8 1.7622723148752445e-8 1.8715404570303573e-8 2.5512239350474484e-8 3.192380487360798e-8
          3.2131356383003714e-8 2.203068545841663e-8 2.5389005369574158e-8 3.3923647073555795e-8 2.3597451800513254e-8 2.707823724827256e-8
          3.132132645607969e-8 3.020577373984567e-8 3.1912992379230514e-8 1.4423492285864522e-8 1.9931493091540912e-8 2.1306678299726566e-8
          2.8395281830730135e-8 2.5580690567796747e-8 2.5265490767075845e-8 2.778450986067772e-8 2.6630422628153466e-8 2.6528260726441493e-8
          2.8845240158221514e-8 2.3374610884660408e-8 2.6735438229313794e-8 2.5709733576513918e-8 2.4101113301878825e-8 2.8105871204867514e-8
          2.6969727142162885e-8 2.9177209069333734e-8 2.778106064609546e-8 2.74017899259287e-8 2.9852749719175804e-8 2.8324928884813906e-8
          3.1034658298554606e-8 2.1785560781584977e-8 2.3059556375334358e-8 2.395439509803728e-8 3.016437027238201e-8 3.1363829473406136e-8
          2.4388164561257308e-8 3.589802630194195e-8 3.588572486684294e-8 2.537503153175262e-8 2.8981978773452516e-8 3.8037828665099876e-8
          2.7406534608155742e-8 3.113505172288233e-8 3.432681119553796e-8 3.378813276120651e-8 3.5868030219784195e-8 1.6740614465213997e-8
          2.2872256801308934e-8 2.4663134205861604e-8 3.194628116232842e-8 4.0745851002001355e-8 4.0401685359935946e-8 2.9747236246326635e-8
          3.3585555592096777e-8 4.299755348687122e-8 3.247078459616663e-8 3.639299166265777e-8 3.779071416674801e-8 3.817549684662831e-8
          4.073869940013681e-8 1.9889532453346414e-8 2.6730601643579307e-8 2.91419210522082e-8 3.635423906762158e-8 2.926777348278587e-8