<?xml version="1.0"?>
<VTKFile type="UnstructuredGrid" version="0.1" byte_order="LittleEndian" header_type="UInt32" compressor="vtkZLibDataCompressor">
  <UnstructuredGrid>
    <Piece NumberOfPoints="1532" NumberOfCells="1081">
      <PointData>
        <DataArray type="Int32" Name="libmesh_node_id" format="ascii" RangeMin="2464" RangeMax="12149">
          2472 2702 2703 2707 2730 3486
          3488 3489 3490 3491 3492 3493
          3494 3495 3496 3497 3519 3521
          3523 3525 3526 3527 3528 3529
          3530 3531 3617 3620 3622 3624
          3625 3626 3627 3628 3629 3630
          3631 3632 3633 4031 4032 4035
          4036 4676 4677 4678 4679 4680
          4681 4682 4683 4684 4685 4686
          4687 4688 4689 4690 4691 4692
          4693 4694 4695 4696 4697 4698
          4699 4700 4701 4702 4703 4704
          4705 4706 4707 4708 4709 4710
          4711 4712 4713 4714 4715 4716
          4717 4718 4719 4720 4721 4722
          4723 4863 4864 4866 4868 4869
          4870 4879 4881 4883 4885 4886
          4887 4888 4889 4890 4891 4892
          4893 4894 4895 4896 4897 4898
          4899 4900 4901 4902 4903 4904
          4905 4906 4907 4908 4909 4910
          4911 4912 4913 4914 4915 4916
          4917 4918 4919 4920 4921 4922
          4923 4924 4925 4926 4927 4928
          4929 4930 4931 4932 4933 4934
          4935 4936 4937 4938 4939 4940
          4941 4942 4943 5246 5273 5277
          5347 5348 5349 5350 5351 5352
          5353 5354 5355 5356 5357 5358
          5359 5360 5361 5362 5363 5364
          5365 5366 5367 5368 5369 5370
          5371 5372 5373 5374 5375 5376
          5377 5378 5379 5380 5381 5382
          5383 5384 5385 5386 5387 5388
          5389 5390 5391 5392 5393 5394
          5395 5396 5397 5398 5399 5400
          5401 5402 5403 5404 5405 5406
          5407 5408 5409 5410 5411 5412
          5413 5416 5417 5419 5421 5432
          5434 5436 5438 5446 5447 5450
          5451 5453 5455 6399 6400 6401
          6402 6403 6404 6405 6406 6407
          6408 6409 6410 6411 6412 6413
          6414 6415 6416 6417 6420 6421
          6573 6574 6575 6576 6577 6578
          6579 6580 6581 6582 6583 6584
          6585 6586 6587 6588 6589 6590
          6591 6594 6595 8010 8011 8012
          8013 8014 8015 8016 8017 8018
          8019 8020 8021 8022 8023 8024
          8025 8026 8027 8028 8029 8030
          8031 8032 8033 8034 8035 8036
          8037 8038 8039 8042 8043 8044
          8045 8047 8052 8053 8054 8057
          8058 8059 8060 8061 8062 8063
          8064 8065 8066 8067 8068 8069
          8070 8071 8072 8073 8074 8075
          8076 8077 8078 8079 8080 8081
          8082 8083 8084 8085 8086 8087
          8088 8089 8090 8091 8092 8093
          8094 8095 8096 8097 8098 8099
          8100 8101 8102 8103 8104 8105
          8106 8107 8108 8109 8110 8111
          8812 8813 8814 8815 8816 8817
          8818 8819 8820 8821 8822 8823
          8824 8825 8826 8827 8828 8829
          8830 8831 8832 8833 8834 8835
          8836 8837 8838 8839 8840 8841
          8842 8843 8844 8845 8846 8847
          8848 8849 8850 8851 8852 8854
          8855 8856 8858 8861 8862 8865
          8866 8867 8868 8869 8870 8871
          8872 8873 8874 8875 8876 8877
          8878 8879 8880 8881 8882 8883
          8884 8885 8886 8887 8888 8889
          8890 8891 8892 8893 8894 8895
          8896 8897 8898 8899 8900 8901
          8902 8903 8904 8905 8906 8907
          8908 8909 8910 8911 8912 8913
          8914 8915 8916 8917 8918 8919
          8920 8921 8922 8923 8924 8925
          8926 8927 8928 8929 8930 8931
          8932 8933 8934 8935 8936 8937
          8938 8939 8940 8941 8942 8943
          8944 8945 8946 8947 8948 8949
          8950 8951 8952 8953 8954 8955
          8956 8957 8958 8959 8960 8961
          8962 8963 8964 8965 8966 8967
          8968 8969 8970 8971 8972 8973
          8974 8975 8976 8977 8978 8979
          8980 8981 8982 8983 8984 8985
          8986 8987 8988 8989 8990 8991
          8992 8993 8994 8995 8996 8997
          8998 8999 9000 9001 9002 9003
          9004 9005 9006 9007 9008 9009
          9010 9011 9012 9013 9014 9015
          9016 9017 9018 9019 9020 9021
          9022 9023 9024 9025 9026 9027
          9028 9029 9030 9031 9032 9033
          9034 9035 9036 9037 9038 9039
          9040 9041 9042 9043 9044 9045
          9046 9047 9048 9049 9050 9051
          9052 9053 9054 9055 9056 9057
          9058 9059 9060 9061 9062 9063
          9064 9065 9066 9067 9068 9069
          9070 9071 9072 9073 9074 9075
          9076 9077 9078 9079 9080 9081
          9082 9083 9084 9085 9086 9087
          9088 9089 9090 9091 9092 9093
          9094 9095 9096 9097 9098 9099
          9100 9101 9102 9103 9104 9105
          9106 9107 9108 9109 9110 9111
          9112 9113 9114 9115 9116 9117
          9118 9119 9120 9121 9122 9123
          9124 9125 9126 9127 9128 9129
          9130 9131 9132 9133 9134 9135
          9136 9137 9138 9139 9140 9141
          9142 9143 9144 9145 9146 9147
          9148 9149 9150 9151 9152 9153
          9154 9155 9156 9157 9158 9159
          9160 9161 9162 9163 9164 9165
          9166 9167 9168 9169 9170 9171
          9172 9173 9174 9175 9176 9177
          9178 9179 9180 9181 9182 9183
          9184 9185 9186 9187 9188 9189
          9190 9191 9192 9193 9194 9195
          9196 9197 9198 9199 9200 9201
          9202 9203 9204 9205 9572 9573
          9577 9588 9589 9592 9593 9595
          9597 9648 9649 9652 9653 9655
          9657 10732 10736 10744 10746 10748
          10750 10758 10760 10772 10774 10842
          10844 10846 10848 10856 10857 10860
          10861 10863 10865 10876 10878 10882
          10890 10892 10893 10894 10896 10899
          10903 11086 11090 11098 11100 11101
          11102 11104 11107 11111 11114 11118
          11126 11128 11129 11130 11132 11135
          11139 11671 11672 11673 11674 11675
          11676 11677 11678 11679 11680 11681
          11682 11683 11684 11685 11686 11687
          11688 11689 11690 11691 11692 11693
          11694 11695 11696 11697 11698 11699
          11700 11701 11702 11703 11704 11705
          11706 11707 11708 11709 11710 11711
          11712 11713 11714 11715 11716 11717
          11718 11719 11720 11721 11722 11723
          11724 11725 11726 11727 11728 11729
          11730 11731 11732 11733 11734 11735
          11736 11737 11738 11739 11740 11741
          11742 11743 11744 11745 11746 11747
          11748 11749 11750 11751 11752 11753
          11754 11755 11756 11757 11758 11759
          11760 11761 11762 11763 11764 11765
          11766 11767 11768 11769 11770 11771
          11772 11773 11774 11775 11776 11777
          11778 11779 11780 11781 11782 11783
          11784 11785 11786 11787 11788 11789
          11790 11791 11792 11793 11794 11795
          11796 11797 11798 11799 11800 11801
          11802 11803 11804 11805 11806 11807
          11808 11809 11810 11811 11812 11813
          11814 11815 11816 11817 11818 11819
          11820 11821 11822 11823 11824 11825
          11826 11827 11828 11829 11830 11831
          11832 11833 11834 11835 11836 11837
          11838 11839 11840 11841 11842 11843
          11844 11845 11846 11847 11848 11849
          11850 11851 11852 11853 11854 11855
          11856 11857 11858 11859 11860 11861
          11862 11863 11864 11865 11866 11867
          11868 11869 11870 11871 11872 11873
          11874 11875 11876 11877 11878 11879
          11880 11881 11882 11883 11884 11885
          11886 11887 11888 11889 11890 11891
          11892 11893 11894 11895 11896 11897
          11898 11899 11900 11901 11902 11903
          11904 11905 11906 11907 11908 11909
          11910 11911 11912 11913 11914 11915
          11916 11917 11918 11919 11920 11921
          11922 11923 11924 11925 11926 11927
          11928 11931 11932 11934 11936 11937
          11938 11939 11940 11941 11942 11943
          11944 11946 11948 11950 11951 11952
          11953 11954 11955 11956 11957 11958
          11959 11960 11961 11962 11965 11966
          11968 11970 12018 12019 12020 12021
          12022 12023 12024 12025 12027 12029
          12031 12032 12033 12034 12035 12036
          12037 12038 12039 12041 12043 12046
          12047 12048 12049 12050 12051 12052
          12053 12055 12057 12059 12060 12061
          12062 12063 12064 12065 12066 12067
          12071 12130 12131 12132 12133 12134
          12135 12136 12137 12138 12139 2722
          2724 2469 2726 2723 2725 2728
          2727 3458 3459 3481 3479 3463
          2697 3485 3484 3483 3487 2695
          3471 3480 3472 2698 3473 2701
          2464 3502 3503 3518 3520 3522
          3524 3539 3560 3540 3561 3564
          3565 3616 3614 3615 3618 3619
          3621 2729 3623 2906 2907 3874
          3872 4027 4025 4026 4033 4034
          4030 4037 4042 4038 4043 4039
          4044 4045 4049 4041 4050 4052
          4053 4057 3634 3638 4066 3639
          4067 3643 4073 4660 4624 4661
          4662 4665 4670 4671 4672 4757
          4865 4787 4788 4878 4867 4880
          4791 2705 4882 4884 4754 4814
          4818 4848 4852 4976 5040 4977
          5041 5044 5045 5060 5061 5064
          5065 5067 5069 5414 5415 5418
          3635 5448 5435 5449 5452 5454
          6418 6419 6422 6592 5066 6593
          6596 3569 7964 7958 7965 7966
          7969 3477 7994 7995 8040 7996
          8041 7999 4675 8046 8048 8049
          8050 8051 8055 8056 8489 8493
          8494 8497 4815 8509 8513 8514
          8517 3512 8534 8535 8853 8538
          4821 8857 8859 8860 8863 8864
          8562 8563 8566 4825 8545 8569
          4822 8570 8573 3513 8723 8727
          8728 8731 4849 8747 8751 8752
          8755 3517 8772 8773 8776 4855
          8779 8780 8783 4856 8800 8801
          8804 4859 8807 8808 8811 2706
          9568 9569 9570 9571 9574 9575
          9576 5047 9590 9591 9594 9596
          5049 9650 9651 9654 9656 10730
          10731 10733 10734 10735 5226 10745
          10747 10749 5228 9894 9918 5112
          9919 10759 10761 9922 10762 5116
          10763 10764 5230 10773 10775 10776
          10777 10778 5232 10843 10845 10847
          5240 10858 10859 10862 10864 5242
          10877 10879 10880 10881 5244 10891
          10895 10873 10875 10897 10874 5243
          10898 10900 10901 10902 3602 10138
          10972 10974 10142 10976 10978 10986
          10988 10990 10992 10166 11000 11002
          10170 11004 11006 11014 11016 11018
          11020 11084 11085 11087 11088 11089
          5271 11099 11103 11105 11106 11108
          11109 11110 5274 11112 11113 11115
          11116 11117 5275 11127 11131 11133
          11134 11136 11137 11138 3606 10870
          10871 11929 10872 11930 11933 11935
          11945 11947 11949 5420 11963 11964
          11967 11969 12026 12028 12030 5433
          12040 12042 12044 12045 12054 12056
          12058 5437 12068 12069 12070 12072
          12073 3641 12140 12141 12144 12145
          12147 12149
        </DataArray>
        <DataArray type="Float64" Name="bounds" format="ascii" RangeMin="0" RangeMax="0">
          0 0 0 0 0 0
          0 0 0 0 0 0
          0 0 0 0 0 0
          0 0 0 0 0 0
          0 0 0 0 0 0
          0 0 0 0 0 0
          0 0 0 0 0 0
          0 0 0 0 0 0
          0 0 0 0 0 0
          0 0 0 0 0 0
          0 0 0 0 0 0
          0 0 0 0 0 0
          0 0 0 0 0 0
          0 0 0 0 0 0
          0 0 0 0 0 0
          0 0 0 0 0 0
          0 0 0 0 0 0
          0 0 0 0 0 0
          0 0 0 0 0 0
          0 0 0 0 0 0
          0 0 0 0 0 0
          0 0 0 0 0 0
          0 0 0 0 0 0
          0 0 0 0 0 0
          0 0 0 0 0 0
          0 0 0 0 0 0
          0 0 0 0 0 0
          0 0 0 0 0 0
          0 0 0 0 0 0
          0 0 0 0 0 0
          0 0 0 0 0 0
          0 0 0 0 0 0
          0 0 0 0 0 0
          0 0 0 0 0 0
          0 0 0 0 0 0
          0 0 0 0 0 0
          0 0 0 0 0 0
          0 0 0 0 0 0
          0 0 0 0 0 0
          0 0 0 0 0 0
          0 0 0 0 0 0
          0 0 0 0 0 0
          0 0 0 0 0 0
          0 0 0 0 0 0
          0 0 0 0 0 0
          0 0 0 0 0 0
          0 0 0 0 0 0
          0 0 0 0 0 0
          0 0 0 0 0 0
          0 0 0 0 0 0
          0 0 0 0 0 0
          0 0 0 0 0 0
          0 0 0 0 0 0
          0 0 0 0 0 0
          0 0 0 0 0 0
          0 0 0 0 0 0
          0 0 0 0 0 0
          0 0 0 0 0 0
          0 0 0 0 0 0
          0 0 0 0 0 0
          0 0 0 0 0 0
          0 0 0 0 0 0
          0 0 0 0 0 0
          0 0 0 0 0 0
          0 0 0 0 0 0
          0 0 0 0 0 0
          0 0 0 0 0 0
          0 0 0 0 0 0
          0 0 0 0 0 0
          0 0 0 0 0 0
          0 0 0 0 0 0
          0 0 0 0 0 0
          0 0 0 0 0 0
          0 0 0 0 0 0
          0 0 0 0 0 0
          0 0 0 0 0 0
          0 0 0 0 0 0
          0 0 0 0 0 0
          0 0 0 0 0 0
          0 0 0 0 0 0
          0 0 0 0 0 0
          0 0 0 0 0 0
          0 0 0 0 0 0
          0 0 0 0 0 0
          0 0 0 0 0 0
          0 0 0 0 0 0
          0 0 0 0 0 0
          0 0 0 0 0 0
          0 0 0 0 0 0
          0 0 0 0 0 0
          0 0 0 0 0 0
          0 0 0 0 0 0
          0 0 0 0 0 0
          0 0 0 0 0 0
          0 0 0 0 0 0
          0 0 0 0 0 0
          0 0 0 0 0 0
          0 0 0 0 0 0
          0 0 0 0 0 0
          0 0 0 0 0 0
          0 0 0 0 0 0
          0 0 0 0 0 0
          0 0 0 0 0 0
          0 0 0 0 0 0
          0 0 0 0 0 0
          0 0 0 0 0 0
          0 0 0 0 0 0
          0 0 0 0 0 0
          0 0 0 0 0 0
          0 0 0 0 0 0
          0 0 0 0 0 0
          0 0 0 0 0 0
          0 0 0 0 0 0
          0 0 0 0 0 0
          0 0 0 0 0 0
          0 0 0 0 0 0
          0 0 0 0 0 0
          0 0 0 0 0 0
          0 0 0 0 0 0
          0 0 0 0 0 0
          0 0 0 0 0 0
          0 0 0 0 0 0
          0 0 0 0 0 0
          0 0 0 0 0 0
          0 0 0 0 0 0
          0 0 0 0 0 0
          0 0 0 0 0 0
          0 0 0 0 0 0
          0 0 0 0 0 0
          0 0 0 0 0 0
          0 0 0 0 0 0
          0 0 0 0 0 0
          0 0 0 0 0 0
          0 0 0 0 0 0
          0 0 0 0 0 0
          0 0 0 0 0 0
          0 0 0 0 0 0
          0 0 0 0 0 0
          0 0 0 0 0 0
          0 0 0 0 0 0
          0 0 0 0 0 0
          0 0 0 0 0 0
          0 0 0 0 0 0
          0 0 0 0 0 0
          0 0 0 0 0 0
          0 0 0 0 0 0
          0 0 0 0 0 0
          0 0 0 0 0 0
          0 0 0 0 0 0
          0 0 0 0 0 0
          0 0 0 0 0 0
          0 0 0 0 0 0
          0 0 0 0 0 0
          0 0 0 0 0 0
          0 0 0 0 0 0
          0 0 0 0 0 0
          0 0 0 0 0 0
          0 0 0 0 0 0
          0 0 0 0 0 0
          0 0 0 0 0 0
          0 0 0 0 0 0
          0 0 0 0 0 0
          0 0 0 0 0 0
          0 0 0 0 0 0
          0 0 0 0 0 0
          0 0 0 0 0 0
          0 0 0 0 0 0
          0 0 0 0 0 0
          0 0 0 0 0 0
          0 0 0 0 0 0
          0 0 0 0 0 0
          0 0 0 0 0 0
          0 0 0 0 0 0
          0 0 0 0 0 0
          0 0 0 0 0 0
          0 0 0 0 0 0
          0 0 0 0 0 0
          0 0 0 0 0 0
          0 0 0 0 0 0
          0 0 0 0 0 0
          0 0 0 0 0 0
          0 0 0 0 0 0
          0 0 0 0 0 0
          0 0 0 0 0 0
          0 0 0 0 0 0
          0 0 0 0 0 0
          0 0 0 0 0 0
          0 0 0 0 0 0
          0 0 0 0 0 0
          0 0 0 0 0 0
          0 0 0 0 0 0
          0 0 0 0 0 0
          0 0 0 0 0 0
          0 0 0 0 0 0
          0 0 0 0 0 0
          0 0 0 0 0 0
          0 0 0 0 0 0
          0 0 0 0 0 0
          0 0 0 0 0 0
          0 0 0 0 0 0
          0 0 0 0 0 0
          0 0 0 0 0 0
          0 0 0 0 0 0
          0 0 0 0 0 0
          0 0 0 0 0 0
          0 0 0 0 0 0
          0 0 0 0 0 0
          0 0 0 0 0 0
          0 0 0 0 0 0
          0 0 0 0 0 0
          0 0 0 0 0 0
          0 0 0 0 0 0
          0 0 0 0 0 0
          0 0 0 0 0 0
          0 0 0 0 0 0
          0 0 0 0 0 0
          0 0 0 0 0 0
          0 0 0 0 0 0
          0 0 0 0 0 0
          0 0 0 0 0 0
          0 0 0 0 0 0
          0 0 0 0 0 0
          0 0 0 0 0 0
          0 0 0 0 0 0
          0 0 0 0 0 0
          0 0 0 0 0 0
          0 0 0 0 0 0
          0 0 0 0 0 0
          0 0 0 0 0 0
          0 0 0 0 0 0
          0 0 0 0 0 0
          0 0 0 0 0 0
          0 0 0 0 0 0
          0 0 0 0 0 0
          0 0 0 0 0 0
          0 0 0 0 0 0
          0 0 0 0 0 0
          0 0 0 0 0 0
          0 0 0 0 0 0
          0 0 0 0 0 0
          0 0 0 0 0 0
          0 0 0 0 0 0
          0 0 0 0 0 0
          0 0 0 0 0 0
          0 0 0 0 0 0
          0 0 0 0 0 0
          0 0 0 0 0 0
          0 0 0 0 0 0
          0 0 0 0 0 0
          0 0 0 0 0 0
          0 0 0 0 0 0
          0 0 0 0 0 0
          0 0 0 0 0 0
          0 0 0 0 0 0
          0 0 0 0 0 0
          0 0
        </DataArray>
        <DataArray type="Float64" Name="gradient_error" format="ascii" RangeMin="1.5556566247939496e-12" RangeMax="2.3974290707946468e-8">
          7.332137559625859e-11 2.4814649598016388e-9 2.5364994702668454e-11 8.620858912528294e-9 1.1955325829908418e-11 8.288662911140069e-9
          3.286965842678708e-10 2.3165058433709093e-10 1.675000422336605e-10 1.138554597663921e-10 1.2213498382685701e-10 8.058736370398285e-11
          3.682150326117656e-11 6.932559655706261e-11 3.582882924058567e-11 5.680343519895262e-11 1.2783434038946546e-8 6.2533190860700525e-9
          1.2445688700453804e-8 3.5172763849078123e-10 2.2806498530795832e-10 6.379732932547059e-11 3.598587674047403e-11 6.950375156128364e-10
          5.066982569542607e-10 1.186191780320668e-10 1.0460972542317765e-9 2.7127727854059573e-10 1.2994328005962977e-9 3.990424007549231e-11
          1.4815148783493402e-11 1.604114060173739e-11 8.818188978021212e-12 3.018400838238716e-11 1.7727846594007274e-11 9.118322053901038e-12
          1.2628971681334062e-11 6.815232540102694e-12 2.276202630114281e-11 4.1671777671854597e-11 4.015545901917065e-11 2.053732311768407e-11
          4.249990759941735e-11 5.07187762732048e-10 6.737593483356553e-10 4.3205231976539996e-10 1.971555210792598e-9 1.8682934012739987e-10
          2.544033872968474e-10 1.351573738237858e-10 6.261223123201097e-10 3.8820271632187583e-10 4.262040440828869e-10 2.2191266052789162e-10
          1.3860272313354218e-10 2.441652048730611e-10 2.7020989632452977e-10 8.299372445087495e-11 1.0745223276068358e-9 1.2627651038743903e-10
          6.332323459503089e-10 1.4765264706119424e-10 9.316784627987956e-11 1.02972005225754e-10 6.541244366694887e-11 8.711844342392836e-11
          5.425575701433306e-11 3.7714066330008545e-11 9.164913375115564e-11 6.835884625428579e-11 4.878756889103478e-11 1.4017573647861492e-10
          1.749244911127247e-10 7.487150362545014e-11 7.51026509280349e-11 7.29404780662003e-11 1.0911411955282726e-10 6.696603854366702e-11
          3.553444785668271e-10 6.104702604285951e-11 1.9425443063961975e-10 4.6981262420571614e-11 4.7687371238694495e-11 3.184281815582283e-11
          3.279063221148072e-11 2.446766072729144e-11 4.254017351370937e-11 2.8991011821516726e-11 4.0311901357177454e-11 2.8636636363188622e-11
          3.6548812282756246e-11 4.029902891013152e-9 2.3540311230909333e-9 8.16710488159673e-9 1.2197023079156215e-9 6.088262424750776e-10
          1.991508414444922e-9 1.107415259903964e-8 6.664684981470107e-9 1.2376161022874369e-8 2.9335790610386424e-9 1.4189158771164876e-9
          3.3932787188447593e-9 2.2175831832644937e-9 3.1668302544414384e-10 1.2891516390488967e-9 1.6731931760566933e-10 3.993581103143587e-9
          6.867040300933065e-10 2.1852351525523732e-9 2.468900796498415e-10 1.9315615163388636e-10 1.2614731981232598e-10 9.672347451827576e-11
          5.73048478094367e-10 4.733570956335071e-10 2.8380094252706964e-10 6.659172983053173e-10 7.895446215472576e-11 3.2985347171176725e-10
          3.3861340698485873e-11 1.097817213371687e-9 1.5805167078249358e-10 5.308971104471499e-10 5.7409875274776085e-11 4.313328767069716e-11
          2.363748537558203e-11 1.7385851362274845e-11 1.2247347937626667e-10 9.578216273989403e-11 4.725569608792205e-11 5.982708981411229e-9
          1.1556845838841951e-9 3.187210288317257e-9 5.940688881656686e-10 6.726722404844692e-9 1.2905995601230334e-9 3.613570553308459e-9
          1.0151444973798434e-9 8.766767931323825e-10 5.047766945115741e-10 4.2235672798024713e-10 1.1422772708487344e-9 9.969448679837912e-10
          5.985357290992929e-10 1.6261833891101551e-9 2.605010965527755e-10 7.759911714197192e-10 1.0036794836526723e-10 1.887361329622959e-9
          3.0986409634872414e-10 9.048882862800411e-10 2.1154525016379124e-10 1.7122346089899047e-10 7.736673365236378e-11 6.064890860368911e-11
          2.5517942615551575e-10 2.0888978187705923e-10 9.255710264185458e-11 2.7116926786881593e-11 4.690352251451797e-11 5.724919705641083e-11
          1.2706297949097938e-10 2.292715001038355e-10 1.0658074541727066e-10 3.258164467925011e-10 4.1073363549702455e-10 1.917778938204532e-10
          4.509927217209923e-10 4.7594873207108864e-11 6.048557959230555e-11 4.7051504647435374e-11 6.680565125419086e-11 8.662506831254655e-11
          1.3134557136035526e-10 3.630600326867258e-11 2.3806730833235322e-11 5.6574456390174974e-11 7.09945385516877e-11 2.7637260872801668e-11
          1.7972060161446223e-10 2.3301723663023475e-11 8.69865092201265e-11 2.2952866285552514e-11 1.5498621805525745e-11 1.5628745455317963e-11
          1.0967069056091495e-11 1.9655044439130963e-11 1.7295315023629953e-11 1.1930213487082552e-11 1.6682306328067338e-11 1.2386658238580476e-11
          9.685603760042838e-12 2.288987017437194e-10 3.449457839314818e-11 1.0409171851764094e-10 1.1189255390486905e-11 2.5258979248878416e-10
          3.990281424585027e-11 1.1376768030842028e-10 2.5724141170189437e-11 1.957638056739561e-11 7.959701885273264e-12 7.685444003685332e-12
          3.012382265025205e-11 2.314084000457622e-11 9.149785946035262e-12 3.392598952579179e-11 3.7588944225929883e-11 1.5848564074468383e-11
          1.0762518566384046e-11 2.653084524808958e-11 3.413560073259307e-11 1.6947782430139508e-11 4.1463967720770464e-11 1.178800962145628e-11
          3.766105222703763e-11 9.907098838732094e-12 6.868997518021581e-12 8.83892404059586e-12 6.891701167159236e-12 8.062334973842432e-12
          1.0587408809449678e-11 7.1854769852672595e-12 7.56053715892479e-12 5.298378212764738e-12 1.1642516449168711e-11 1.09093566799098e-11
          7.84562736164247e-12 9.317220485887772e-12 8.436658283551409e-12 9.139690436477415e-12 8.38919432274591e-12 1.475946206268904e-11
          7.565423848478958e-12 1.75988817623459e-11 5.04503836598123e-12 8.419230288986757e-12 7.035647910381777e-12 3.739598066443319e-12
          5.075869270289823e-12 3.8029512424574465e-12 5.768622857823036e-12 2.7519339375162706e-11 3.4271788929480094e-11 2.6621414062402977e-11
          2.233525496965853e-11 2.828326497610566e-11 1.3489356697723838e-11 1.768116314915995e-11 1.62647621486133e-11 1.9358151703321984e-11
          9.579485186668232e-12 8.197245920896412e-12 1.091520906524522e-11 5.454861531806114e-12 7.405892510375127e-12 5.176867220735873e-12
          5.884617999345047e-12 3.923025701028662e-12 3.6468375128610615e-12 5.162960885943862e-12 2.2217702486872388e-12 2.658925349408633e-12
          4.556015988060348e-11 6.115073148341838e-11 4.604001343990393e-11 3.4768550856055087e-11 4.9548318639018567e-11 1.9342654972522607e-11
          3.064757740081293e-11 2.502777054040173e-11 3.48619368172997e-11 1.8847348639757104e-11 1.2152325324587396e-11 1.934414955514351e-11
          7.965616742862497e-12 1.288207758252418e-11 7.813092256849183e-12 1.1573128557909524e-11 7.632756487774335e-12 5.375409830633272e-12
          8.826966113192222e-12 3.4541583496447257e-12 5.2012630614148785e-12 1.1143333198085545e-10 1.3125509698830504e-10 1.0438627959542878e-10
          2.2412287664787105e-10 9.46666489200613e-11 1.185809533037721e-10 7.080470890996279e-11 9.68183940582476e-11 7.457167109445958e-11
          9.357078658285325e-11 7.531047079034167e-11 2.0060961302204384e-10 1.633931500971491e-10 1.5757653502220797e-10 6.781772139052388e-11
          8.096604616787831e-11 6.106468141664501e-11 1.3655038400500395e-10 5.724689374732609e-11 7.197659623702268e-11 4.2102482635387776e-11
          5.7066970104310686e-11 4.2929388981298846e-11 5.389788251359644e-11 4.216937565427223e-11 1.2029632720392465e-10 9.491987782786267e-11
          8.875275755801216e-11 5.892580099358281e-11 8.125398959204955e-11 4.5687749683792575e-11 6.267313355190114e-11 5.3285225603704096e-11
          1.3937716222298876e-10 1.0662091826748222e-10 3.282494925852671e-11 4.5532409188937524e-11 3.89074110019949e-11 7.918543848059305e-11
          3.45266086354348e-11 4.709140416675778e-11 2.9074398579086017e-11 3.980994747954264e-11 2.5543437780309916e-11 3.45196689925324e-11
          2.9017001862661214e-11 7.935691323680114e-11 6.779446911519375e-11 5.7454206338670106e-11 2.457644648179284e-11 3.3882364124909104e-11
          2.0802300599509e-11 2.8868326953112698e-11 1.801847131337809e-11 2.4599957595488246e-11 2.0897343355797408e-11 5.832433987244809e-11
          5.018130572066554e-11 4.178980543204869e-11 3.7436913281662873e-11 4.452172334928773e-11 3.797672206569097e-11 7.27325291768742e-11
          3.1676148777172995e-11 3.909083722710485e-11 2.3148740862432396e-11 3.018162007665906e-11 2.7285479918386534e-11 3.2959585656755306e-11
          2.4919419498234522e-11 6.350520406748007e-11 4.9050798907868414e-11 5.032785096985315e-11 1.8672824016546605e-11 2.4466820043685004e-11
          1.5568050894358738e-11 2.046536618242947e-11 1.598276050687187e-11 2.006526116692724e-11 1.674406166264572e-11 4.029311136917731e-11
          3.4032671379636676e-11 3.078754566069704e-11 1.3060811167226436e-11 1.727505934074073e-11 1.1011659745424427e-11 1.463257733404279e-11
          1.11284947368146e-11 1.4089887656308641e-11 1.1914170685550956e-11 2.9034224407592854e-11 2.4806780686870536e-11 2.2063001507345044e-11
          3.445067095881605e-10 2.7324916620325473e-10 5.195934007076429e-10 3.148555701268041e-10 2.656226291302729e-10 2.466391688845416e-10
          2.0370457847062081e-10 4.805469708799861e-10 4.1597645889752814e-10 3.715954560878549e-10 2.1021971796618504e-10 1.5442010753282292e-10
          3.0814336237398934e-10 1.8753131542706595e-10 1.5173214533755738e-10 1.370865392078308e-10 1.0969573786029645e-10 2.7950821391027904e-10
          2.3377968180012034e-10 2.0237615127454723e-10 7.401882986773726e-10 5.711517623730013e-10 1.0471819284524346e-9 6.999087463677275e-10
          6.280776882987149e-10 5.364267027031573e-10 4.755409246957517e-10 9.979684443772923e-10 9.099215142515336e-10 7.59007737186028e-10
          4.300538910980299e-10 3.1158329192263813e-10 5.939534432275639e-10 3.997190315561382e-10 3.483485301177884e-10 2.8736775678347506e-10
          2.4689873665734284e-10 5.599677320881438e-10 5.00306393652579e-10 3.987429766475714e-10 2.308590618548176e-10 1.7521524044112581e-10
          1.5285279229615563e-10 3.693830225287989e-10 2.785435586797513e-10 1.3367154707029436e-10 1.166333861892944e-10 2.1876610141165062e-10
          1.2916312769390566e-10 1.119421824707224e-10 9.252423536197951e-11 7.967319427544409e-11 2.0355592123773748e-10 1.7919286242457047e-10
          1.4429209295755094e-10 9.7430023708429e-11 8.468397877999253e-11 6.901138640667784e-11 5.974852612393182e-11 1.5792440533474447e-10
          1.38787466771556e-10 1.105716698366594e-10 5.688117885959233e-10 5.155707489984419e-10 4.2705705009426753e-10 3.845090251598737e-10
          8.369004187993619e-10 7.702908008617736e-10 6.268597377780294e-10 4.65973397460755e-10 4.190846567229799e-10 3.454555102462457e-10
          3.0897099349995253e-10 7.064361684151623e-10 6.444506353007215e-10 5.221585063809371e-10 3.0991310346196916e-10 2.77041915518483e-10
          2.1755609188060184e-10 1.9304672103739793e-10 4.5274945192927847e-10 4.1075391359673454e-10 3.153317787567902e-10 2.473649275556076e-10
          2.1999023577017757e-10 1.7129015119512557e-10 1.5148242087852573e-10 3.716657434748948e-10 3.346947719325028e-10 2.549535302929522e-10
          1.1055448262303076e-10 7.858851275318934e-11 1.5852131210292096e-10 9.762824963088884e-11 7.724053387859685e-11 6.847776814022213e-11
          5.287784558671615e-11 1.4232834178461478e-10 1.1634055723624886e-10 9.914732882839616e-11 4.5039155995062815e-11 5.3885354710643486e-11
          3.638167890141146e-11 7.604492507609327e-11 3.8298487616655655e-11 4.666557466452287e-11 2.8139594627707663e-11 3.545819508814574e-11
          2.569727610589133e-11 3.1216229779518444e-11 2.3305570703337542e-11 6.680062191749759e-11 5.2361276775013654e-11 4.4155532810156006e-11
          2.179348619982516e-10 1.5301779166607786e-10 2.9346680893705056e-10 1.99899251290284e-10 1.6970894715262523e-10 1.3782269368628828e-10
          1.1364609059288028e-10 2.7373946923407826e-10 2.391631108245344e-10 1.8659019568105853e-10 1.0238226602411697e-10 6.789981387848818e-11
          1.3440614759050445e-10 9.159288819085248e-11 7.430232187389912e-11 5.983728613729227e-11 4.732473777247988e-11 1.2210541961038495e-10
          1.0181605032521381e-10 7.857154036688873e-11 6.457882603620265e-11 5.526206016543482e-11 4.370522244278611e-11 3.715671359805618e-11
          9.936086316871465e-11 8.62581183675695e-11 6.66361876789901e-11 4.764576702052421e-11 4.1088913920209076e-11 3.1888342931080816e-11
          2.7396152710090026e-11 7.519463660813446e-11 6.547500889975126e-11 4.9765628389207674e-11 2.2664191531876208e-11 2.892138241545863e-11
          1.9012434729644554e-11 2.4410587866809895e-11 1.4962077287842286e-11 1.8831564949593093e-11 1.5785499799804712e-11 4.3609896991132763e-11
          3.726281487246264e-11 2.7888666071612598e-11 1.614370914239426e-11 2.0838956701803032e-11 1.3750920266688681e-11 1.7832485306223744e-11