<?xml version="1.0"?>
<VTKFile type="UnstructuredGrid" version="0.1" byte_order="LittleEndian" header_type="UInt32" compressor="vtkZLibDataCompressor">
  <UnstructuredGrid>
    <Piece NumberOfPoints="1594" NumberOfCells="1019">
      <PointData>
        <DataArray type="Int32" Name="libmesh_node_id" format="ascii" RangeMin="2200" RangeMax="8332">
          2200 2320 2451 2452 2453 2457
          2459 2651 2652 2658 2660 2661
          2662 2663 2664 2665 2666 2667
          2668 2669 2670 2671 2672 2673
          2695 2701 2722 2723 2726 2727
          2729 2731 2888 2889 2890 2891
          2892 2893 2894 2895 2896 2897
          2898 2899 2900 2901 2905 2906
          3296 3298 3330 3331 3332 3333
          3335 3336 3337 3338 3339 3354
          3355 3356 3357 3358 3359 3360
          3361 3362 3363 3364 3365 3366
          3367 3368 3369 3370 3371 3372
          3373 3374 3375 3376 3377 3378
          3379 3380 3381 3382 3383 3384
          3385 3386 3387 3388 3389 3390
          3391 3392 3393 3394 3395 3396
          3397 3398 3399 3400 3401 3402
          3403 3404 3405 3406 3407 3408
          3409 3410 3411 3412 3413 3414
          3415 3416 3417 3418 3419 3420
          3421 3422 3423 3424 3425 3426
          3427 3428 3429 3430 3431 3432
          3433 3434 3435 3446 3447 3448
          3449 3450 3451 3452 3453 3457
          3458 3459 3460 3461 3463 3478
          3479 3480 3481 3482 3483 3484
          3485 3487 3499 3502 3505 3507
          3518 3520 3522 3524 3614 3615
          3616 3618 3619 3621 3623 3866
          3867 3870 3871 3872 3875 3876
          3916 3917 3920 3921 3923 3925
          4021 4022 4023 4024 4025 4026
          4027 4028 4029 4030 4038 4039
          4040 4041 4042 4043 4046 4047
          4049 4051 4255 4256 4257 4259
          4260 4261 4262 4266 4267 4268
          4331 4332 4333 4334 4337 4338
          4339 4340 4341 4342 4343 4344
          4345 4346 4347 4348 4349 4350
          4355 4356 4357 4358 4359 4360
          4361 4362 4363 4364 4365 4366
          4367 4368 4369 4370 4371 4372
          4373 4374 4375 4376 4377 4378
          4379 4380 4381 4382 4383 4384
          4385 4386 4387 4388 4389 4390
          4391 4392 4393 4394 4395 4396
          4397 4398 4399 4400 4401 4402
          4403 4404 4405 4406 4407 4408
          4409 4410 4411 4412 4413 4414
          4415 4416 4417 4418 4419 4420
          4421 4422 4423 4424 4425 4426
          4427 4428 4429 4430 4431 4432
          4433 4434 4435 4436 4437 4438
          4439 4440 4441 4442 4443 4444
          4445 4446 4447 4448 4449 4450
          4451 4452 4453 4454 4455 4456
          4457 4458 4459 4460 4461 4462
          4463 4464 4465 4466 4467 4468
          4469 4470 4471 4472 4473 4474
          4475 4476 4477 4478 4479 4480
          4481 4482 4483 4484 4485 4486
          4487 4488 4489 4490 4491 4492
          4493 4494 4495 4496 4497 4498
          4499 4500 4501 4502 4503 4504
          4505 4506 4507 4508 4509 4510
          4511 4512 4513 4514 4515 4516
          4517 4518 4519 4520 4521 4522
          4523 4524 4525 4526 4527 4528
          4529 4530 4531 4532 4533 4534
          4535 4536 4537 4538 4539 4540
          4541 4542 4543 4544 4545 4546
          4547 4548 4549 4550 4551 4552
          4553 4554 4555 4556 4557 4558
          4559 4560 4561 4562 4563 4564
          4565 4566 4567 4568 4569 4570
          4571 4572 4573 4574 4575 4576
          4577 4578 4579 4580 4581 4582
          4583 4584 4585 4586 4587 4588
          4589 4590 4591 4592 4593 4594
          4595 4596 4597 4598 4599 4600
          4601 4602 4603 4604 4605 4606
          4607 4608 4609 4610 4619 4620
          4621 4724 4725 4726 4727 4728
          4729 4730 4731 4732 4733 4744
          4745 4746 4747 4748 4749 4750
          4757 4758 4759 4761 4762 4763
          4764 4765 4766 4767 4778 4779
          4780 4781 4782 4783 4784 4787
          4791 4860 4861 4862 4865 4867
          4871 4872 4873 4874 4875 4876
          4877 4878 4880 4882 4884 6850
          7004 7005 7025 7027 7028 7029
          7030 7031 7032 7033 7034 7035
          7036 7037 7038 7039 7040 7041
          7042 7043 7044 7045 7046 7047
          7048 7049 7050 7051 7052 7053
          7054 7055 7056 7057 7058 7059
          7060 7061 7062 7065 7066 7068
          7071 7073 7074 7075 7076 7077
          7078 7079 7080 7081 7082 7083
          7084 7085 7086 7088 7089 7090
          7091 7092 7093 7094 7095 7096
          7099 7100 7102 7105 7107 7108
          7109 7110 7111 7112 7113 7114
          7115 7116 7118 7119 7120 7122
          7123 7124 7125 7126 7127 7128
          7129 7130 7131 7132 7133 7134
          7135 7136 7137 7138 7139 7140
          7141 7142 7143 7144 7145 7146
          7147 7148 7149 7150 7151 7152
          7153 7154 7155 7156 7157 7158
          7159 7160 7161 7162 7163 7164
          7165 7166 7167 7168 7169 7170
          7171 7172 7173 7174 7175 7176
          7177 7178 7179 7180 7181 7182
          7183 7184 7185 7186 7187 7188
          7189 7190 7191 7192 7193 7194
          7195 7196 7197 7198 7199 7200
          7201 7202 7203 7204 7205 7206
          7207 7208 7209 7210 7211 7212
          7213 7214 7215 7216 7217 7218
          7219 7220 7221 7222 7223 7224
          7225 7226 7227 7228 7229 7230
          7231 7232 7233 7234 7235 7236
          7237 7238 7239 7240 7241 7242
          7243 7244 7245 7246 7247 7248
          7249 7250 7251 7252 7253 7254
          7255 7256 7257 7258 7259 7260
          7261 7262 7263 7264 7265 7266
          7267 7268 7269 7270 7271 7272
          7273 7274 7275 7276 7277 7278
          7279 7280 7281 7282 7283 7284
          7285 7286 7287 7288 7289 7290
          7291 7292 7293 7294 7295 7296
          7297 7298 7299 7300 7301 7302
          7303 7304 7305 7306 7307 7308
          7309 7310 7311 7312 7313 7314
          7315 7316 7317 7318 7319 7320
          7321 7322 7323 7324 7325 7326
          7327 7328 7329 7330 7331 7332
          7333 7334 7335 7336 7337 7338
          7339 7340 7341 7342 7343 7344
          7345 7346 7347 7348 7349 7350
          7351 7352 7353 7354 7355 7356
          7357 7358 7359 7360 7361 7362
          7363 7364 7365 7366 7367 7368
          7369 7370 7371 7372 7373 7374
          7375 7376 7377 7378 7379 7380
          7381 7382 7383 7384 7385 7386
          7387 7388 7389 7390 7391 7392
          7393 7394 7395 7396 7397 7398
          7399 7400 7401 7402 7403 7404
          7405 7406 7407 7408 7409 7410
          7411 7412 7413 7414 7415 7416
          7417 7418 7419 7420 7421 7422
          7423 7424 7425 7426 7427 7428
          7429 7430 7431 7432 7433 7434
          7435 7436 7437 7438 7439 7440
          7441 7442 7443 7444 7445 7446
          7447 7448 7449 7450 7451 7452
          7453 7454 7455 7456 7457 7458
          7459 7460 7461 7462 7463 7464
          7465 7466 7467 7468 7469 7470
          7471 7472 7473 7474 7475 7476
          7477 7478 7479 7480 7481 7482
          7483 7484 7485 7486 7487 7488
          7489 7490 7491 7492 7493 7494
          7495 7496 7497 7498 7499 7500
          7501 7502 7503 7504 7505 7506
          7507 7508 7509 7510 7511 7512
          7513 7514 7515 7516 7517 7518
          7519 7520 7521 7522 7523 7524
          7525 7526 7527 7528 7529 7530
          7531 7532 7533 7534 7535 7536
          7537 7538 7539 7540 7541 7542
          7543 7544 7545 7546 7547 7548
          7549 7550 7551 7552 7553 7554
          7555 7556 7557 7558 7559 7560
          7561 7562 7563 7564 7565 7566
          7567 7568 7569 7570 7571 7572
          7573 7574 7575 7576 7577 7578
          7579 7580 7581 7582 7583 7584
          7585 7586 7587 7588 7589 7590
          7591 7592 7593 7594 7595 7596
          7597 7598 7599 7600 7601 7602
          7603 7604 7605 7606 7607 7608
          7609 7610 7611 7612 7613 7614
          7615 7616 7617 7618 7619 7620
          7621 7622 7623 7624 7625 7626
          7627 7628 7629 7630 7631 7632
          7633 7634 7635 7636 7637 7638
          7639 7640 7641 7642 7643 7644
          7645 7646 7647 7648 7649 7650
          7651 7652 7653 7654 7655 7656
          7657 7658 7659 7660 7661 7662
          7663 7664 7665 7666 7667 7668
          7669 7670 7671 7672 7673 7674
          7675 7676 7677 7678 7679 7680
          7681 7682 7683 7684 7685 7686
          7687 7688 7689 7690 7691 7692
          7693 7694 7695 7696 7697 7698
          7699 7700 7701 7702 7703 7704
          7705 7706 7707 7708 7709 7710
          7711 7712 7713 7714 7715 7716
          7717 7718 7719 7720 7721 7722
          7723 7724 7725 7726 7727 7728
          7729 7730 7731 7732 7733 7734
          7735 7736 7737 7738 7739 7740
          7741 7742 7743 7744 7745 7746
          7747 7748 7749 7750 7751 7752
          7753 7754 7755 7756 7757 7758
          7759 7760 7761 7762 7763 7764
          7765 7766 7767 7768 7769 7770
          7771 7772 7773 7774 7775 7776
          7777 7778 7779 7780 7781 7782
          7783 7784 7785 7786 7787 7788
          7789 7790 7791 7792 7793 7794
          7795 7796 7797 7798 7799 7800
          7801 7802 8112 8113 8114 8115
          8119 8120 8121 8122 8123 8124
          8125 8140 8141 8142 8143 8144
          8145 8149 8150 8151 8152 8153
          8154 8155 8156 8157 8158 8163
          8164 8168 8169 8170 8171 8172
          8173 8174 8175 8176 8177 8178
          8179 8180 8181 8182 8183 8184
          8185 8186 8187 8188 8189 8190
          8191 8192 8197 8198 8202 8203
          8204 8205 8206 8207 8208 8209
          8210 8211 8212 8213 8214 8215
          8216 8285 8286 8287 8288 8289
          8290 8291 8292 8293 8294 8295
          8296 8297 8298 8299 8300 8301
          8302 8303 8304 8305 8306 8307
          8308 8309 8310 8311 8312 8313
          8314 8315 8316 8317 8318 8319
          8320 8321 8322 8323 8324 8325
          8326 8327 8328 8329 8330 8331
          8332 2201 2468 2527 2519 2456
          2469 2528 2520 2532 2523 2525
          2534 2536 2360 2450 2684 2676
          2655 2685 2677 2686 2687 2458
          2691 2682 2692 2690 2321 2796
          2799 2800 2797 2447 2448 2803
          2802 2454 2806 2807 2461 2462
          2812 2882 2883 2884 2887 2449
          2650 2902 2904 2907 3277 3288
          3289 3278 2648 3297 3284 3291
          3292 3295 3294 3299 3313 3311
          3318 3317 3334 3348 3347 3325
          3341 2657 3351 3345 3352 3290
          3312 3316 3350 3864 3859 3865
          3860 3868 3869 2688 3873 3874
          3877 2724 3906 3907 3918 2728
          3919 3911 3922 3914 2474 3924
          4044 4045 4048 4050 4252 4281
          4282 4258 4335 4284 4336 3322
          4287 3323 4351 4292 4295 4352
          4353 4293 4354 4264 4325 4327
          4329 7023 7024 7063 7064 7026
          7067 7069 7070 7072 6848 6934
          6947 6949 4310 7087 6951 4312
          7097 7098 7101 7103 7104 7106
          7117 6981 6983 7121 6985 3328
          7007 7017 7019 7021
        </DataArray>
        <DataArray type="Float64" Name="bounds" format="ascii" RangeMin="0" RangeMax="0">
          0 0 0 0 0 0
          0 0 0 0 0 0
          0 0 0 0 0 0
          0 0 0 0 0 0
          0 0 0 0 0 0
          0 0 0 0 0 0
          0 0 0 0 0 0
          0 0 0 0 0 0
          0 0 0 0 0 0
          0 0 0 0 0 0
          0 0 0 0 0 0
          0 0 0 0 0 0
          0 0 0 0 0 0
          0 0 0 0 0 0
          0 0 0 0 0 0
          0 0 0 0 0 0
          0 0 0 0 0 0
          0 0 0 0 0 0
          0 0 0 0 0 0
          0 0 0 0 0 0
          0 0 0 0 0 0
          0 0 0 0 0 0
          0 0 0 0 0 0
          0 0 0 0 0 0
          0 0 0 0 0 0
          0 0 0 0 0 0
          0 0 0 0 0 0
          0 0 0 0 0 0
          0 0 0 0 0 0
          0 0 0 0 0 0
          0 0 0 0 0 0
          0 0 0 0 0 0
          0 0 0 0 0 0
          0 0 0 0 0 0
          0 0 0 0 0 0
          0 0 0 0 0 0
          0 0 0 0 0 0
          0 0 0 0 0 0
          0 0 0 0 0 0
          0 0 0 0 0 0
          0 0 0 0 0 0
          0 0 0 0 0 0
          0 0 0 0 0 0
          0 0 0 0 0 0
          0 0 0 0 0 0
          0 0 0 0 0 0
          0 0 0 0 0 0
          0 0 0 0 0 0
          0 0 0 0 0 0
          0 0 0 0 0 0
          0 0 0 0 0 0
          0 0 0 0 0 0
          0 0 0 0 0 0
          0 0 0 0 0 0
          0 0 0 0 0 0
          0 0 0 0 0 0
          0 0 0 0 0 0
          0 0 0 0 0 0
          0 0 0 0 0 0
          0 0 0 0 0 0
          0 0 0 0 0 0
          0 0 0 0 0 0
          0 0 0 0 0 0
          0 0 0 0 0 0
          0 0 0 0 0 0
          0 0 0 0 0 0
          0 0 0 0 0 0
          0 0 0 0 0 0
          0 0 0 0 0 0
          0 0 0 0 0 0
          0 0 0 0 0 0
          0 0 0 0 0 0
          0 0 0 0 0 0
          0 0 0 0 0 0
          0 0 0 0 0 0
          0 0 0 0 0 0
          0 0 0 0 0 0
          0 0 0 0 0 0
          0 0 0 0 0 0
          0 0 0 0 0 0
          0 0 0 0 0 0
          0 0 0 0 0 0
          0 0 0 0 0 0
          0 0 0 0 0 0
          0 0 0 0 0 0
          0 0 0 0 0 0
          0 0 0 0 0 0
          0 0 0 0 0 0
          0 0 0 0 0 0
          0 0 0 0 0 0
          0 0 0 0 0 0
          0 0 0 0 0 0
          0 0 0 0 0 0
          0 0 0 0 0 0
          0 0 0 0 0 0
          0 0 0 0 0 0
          0 0 0 0 0 0
          0 0 0 0 0 0
          0 0 0 0 0 0
          0 0 0 0 0 0
          0 0 0 0 0 0
          0 0 0 0 0 0
          0 0 0 0 0 0
          0 0 0 0 0 0
          0 0 0 0 0 0
          0 0 0 0 0 0
          0 0 0 0 0 0
          0 0 0 0 0 0
          0 0 0 0 0 0
          0 0 0 0 0 0
          0 0 0 0 0 0
          0 0 0 0 0 0
          0 0 0 0 0 0
          0 0 0 0 0 0
          0 0 0 0 0 0
          0 0 0 0 0 0
          0 0 0 0 0 0
          0 0 0 0 0 0
          0 0 0 0 0 0
          0 0 0 0 0 0
          0 0 0 0 0 0
          0 0 0 0 0 0
          0 0 0 0 0 0
          0 0 0 0 0 0
          0 0 0 0 0 0
          0 0 0 0 0 0
          0 0 0 0 0 0
          0 0 0 0 0 0
          0 0 0 0 0 0
          0 0 0 0 0 0
          0 0 0 0 0 0
          0 0 0 0 0 0
          0 0 0 0 0 0
          0 0 0 0 0 0
          0 0 0 0 0 0
          0 0 0 0 0 0
          0 0 0 0 0 0
          0 0 0 0 0 0
          0 0 0 0 0 0
          0 0 0 0 0 0
          0 0 0 0 0 0
          0 0 0 0 0 0
          0 0 0 0 0 0
          0 0 0 0 0 0
          0 0 0 0 0 0
          0 0 0 0 0 0
          0 0 0 0 0 0
          0 0 0 0 0 0
          0 0 0 0 0 0
          0 0 0 0 0 0
          0 0 0 0 0 0
          0 0 0 0 0 0
          0 0 0 0 0 0
          0 0 0 0 0 0
          0 0 0 0 0 0
          0 0 0 0 0 0
          0 0 0 0 0 0
          0 0 0 0 0 0
          0 0 0 0 0 0
          0 0 0 0 0 0
          0 0 0 0 0 0
          0 0 0 0 0 0
          0 0 0 0 0 0
          0 0 0 0 0 0
          0 0 0 0 0 0
          0 0 0 0 0 0
          0 0 0 0 0 0
          0 0 0 0 0 0
          0 0 0 0 0 0
          0 0 0 0 0 0
          0 0 0 0 0 0
          0 0 0 0 0 0
          0 0 0 0 0 0
          0 0 0 0 0 0
          0 0 0 0 0 0
          0 0 0 0 0 0
          0 0 0 0 0 0
          0 0 0 0 0 0
          0 0 0 0 0 0
          0 0 0 0 0 0
          0 0 0 0 0 0
          0 0 0 0 0 0
          0 0 0 0 0 0
          0 0 0 0 0 0
          0 0 0 0 0 0
          0 0 0 0 0 0
          0 0 0 0 0 0
          0 0 0 0 0 0
          0 0 0 0 0 0
          0 0 0 0 0 0
          0 0 0 0 0 0
          0 0 0 0 0 0
          0 0 0 0 0 0
          0 0 0 0 0 0
          0 0 0 0 0 0
          0 0 0 0 0 0
          0 0 0 0 0 0
          0 0 0 0 0 0
          0 0 0 0 0 0
          0 0 0 0 0 0
          0 0 0 0 0 0
          0 0 0 0 0 0
          0 0 0 0 0 0
          0 0 0 0 0 0
          0 0 0 0 0 0
          0 0 0 0 0 0
          0 0 0 0 0 0
          0 0 0 0 0 0
          0 0 0 0 0 0
          0 0 0 0 0 0
          0 0 0 0 0 0
          0 0 0 0 0 0
          0 0 0 0 0 0
          0 0 0 0 0 0
          0 0 0 0 0 0
          0 0 0 0 0 0
          0 0 0 0 0 0
          0 0 0 0 0 0
          0 0 0 0 0 0
          0 0 0 0 0 0
          0 0 0 0 0 0
          0 0 0 0 0 0
          0 0 0 0 0 0
          0 0 0 0 0 0
          0 0 0 0 0 0
          0 0 0 0 0 0
          0 0 0 0 0 0
          0 0 0 0 0 0
          0 0 0 0 0 0
          0 0 0 0 0 0
          0 0 0 0 0 0
          0 0 0 0 0 0
          0 0 0 0 0 0
          0 0 0 0 0 0
          0 0 0 0 0 0
          0 0 0 0 0 0
          0 0 0 0 0 0
          0 0 0 0 0 0
          0 0 0 0 0 0
          0 0 0 0 0 0
          0 0 0 0 0 0
          0 0 0 0 0 0
          0 0 0 0 0 0
          0 0 0 0 0 0
          0 0 0 0 0 0
          0 0 0 0 0 0
          0 0 0 0 0 0
          0 0 0 0 0 0
          0 0 0 0 0 0
          0 0 0 0 0 0
          0 0 0 0 0 0
          0 0 0 0 0 0
          0 0 0 0 0 0
          0 0 0 0 0 0
          0 0 0 0 0 0
          0 0 0 0 0 0
          0 0 0 0 0 0
          0 0 0 0 0 0
          0 0 0 0 0 0
          0 0 0 0 0 0
          0 0 0 0 0 0
          0 0 0 0 0 0
          0 0 0 0 0 0
          0 0 0 0 0 0
          0 0 0 0 0 0
          0 0 0 0
        </DataArray>
        <DataArray type="Float64" Name="gradient_error" format="ascii" RangeMin="1.825268987629325e-12" RangeMax="6.929569383312375e-8">
          8.206212016864582e-11 1.3604950940380201e-9 6.752760585109365e-11 3.438005573049217e-9 1.959429602720516e-9 6.316694261709296e-10
          2.714346497700532e-8 3.750098465344446e-8 3.847285272844312e-8 3.2235997423077506e-8 7.30638056866211e-9 4.989773231838871e-9
          3.2548012664867155e-8 3.270178182641841e-8 2.3269449330985533e-9 2.3743081668354218e-8 2.4252537858782108e-8 4.651163265282989e-9
          2.2313074492333397e-8 1.1806292406988249e-8 9.894616919855014e-10 9.983026802198027e-9 1.030808203178071e-8 4.249621848148548e-8
          8.501933560394675e-10 2.799291279754854e-10 6.991518596359304e-11 2.7428069523612615e-10 4.547847814466301e-11 1.9410220721629894e-10
          5.344078199374446e-10 3.435816134217902e-10 2.8225953131319574e-10 2.427833647017663e-10 2.891735208712069e-9 2.2617211142318578e-9
          9.940125603094002e-11 1.2716009481698603e-9 1.002956856556554e-9 1.6223795328055842e-10 9.271256101261896e-10 4.3918287350097917e-10
          3.126238402594248e-11 3.087888225604728e-11 3.936933305898901e-10 3.305644275815103e-10 2.9091959475989012e-11 1.6840259785880872e-10
          3.8408580949933556e-8 3.342497099411733e-8 9.169883671708449e-9 8.878827236289433e-9 1.040578404913846e-8 9.924945306480664e-9
          3.8194568512184094e-8 4.774674374729323e-10 8.516469495446754e-10 1.111714676208447e-9 5.362802930562186e-8 1.2007332327335283e-8
          1.0712243211629456e-8 3.3651954159725e-8 2.989859629355244e-8 8.095232637451842e-9 2.9262317058474803e-8 2.582438179775412e-8
          7.607584135242985e-9 2.0655139131659006e-8 1.7446641923840276e-8 3.5567476164654956e-8 3.1400880097281925e-8 2.846357124259655e-8
          3.596138797372943e-8 6.549482225862516e-9 5.800506519865173e-9 2.4389834269116213e-8 2.1375345087973132e-8 3.9173322549254995e-9
          1.9362408714321257e-8 1.685264951541697e-8 4.066500030490887e-9 1.4100216165154552e-8 1.0842163065688286e-8 2.851292166320341e-8
          2.471181514516028e-8 2.0414199171913324e-8 2.876020160336238e-8 4.45768656101611e-9 1.094962819775575e-8 3.3234162665871717e-9
          8.933126111065668e-9 3.1173589474698747e-9 6.734216559573365e-9 5.359414911484225e-9 3.226603996524016e-8 2.9138232958945876e-8
          1.9343781007340478e-8 2.3725352499846338e-9 6.966937555608744e-9 1.6023461217298895e-9 5.174296037308004e-9 1.6636012528553232e-9
          4.094298687738428e-9 2.3112621448963833e-9 2.5567706814733136e-8 2.1613819051327354e-8 1.4140776148020798e-8 1.1749038642318116e-8
          1.0944249421525356e-8 1.301752731310683e-8 1.1797124299550493e-8 2.8328322268691362e-8 2.807335251121795e-8 8.024899818577307e-10
          1.4232167265392753e-9 1.7394141445271782e-9 9.271741166912058e-9 1.3950611958837042e-8 1.2266616482269475e-8 1.4205067908213266e-8
          1.2089908272685489e-8 2.7067875805840284e-8 2.5071055535847433e-8 1.191252427136678e-9 2.037746571151705e-9 2.272547229958138e-9
          1.0369114872367387e-8 3.730343931418779e-8 3.505721690945265e-8 3.637934975425256e-8 3.3722813190191164e-8 2.8126292862496087e-8
          2.7093516029251537e-8 4.4422211665501e-8 3.203382405921622e-8 2.827311706781259e-8 3.0296035295703136e-8 1.8863220831939878e-8
          2.5328534593955403e-8 2.298469992666191e-8 3.883551441798621e-8 1.6070245276934185e-9 2.9950403395177184e-9 2.1627880304247976e-9
          3.7029641658222986e-9 2.789279373398157e-9 2.4693837665933187e-9 1.4564951645897807e-8 1.2587781491151346e-8 1.751565342327237e-9
          7.876886442355984e-9 3.641767244618266e-9 1.8726552354009733e-8 1.5942825892682603e-8 1.9509976222048628e-8 1.005166065984432e-9
          3.618482328647524e-9 5.885280366487929e-10 1.640063954613e-9 5.481249418719524e-10 1.3992740992917518e-9 6.057403758406984e-10
          1.749170068301931e-8 5.399680993787949e-9 1.1144838571586691e-8 2.230187281695135e-8 2.3916384920974466e-9 1.4734275693636238e-8
          2.3974290707946468e-8 1.2801206084981864e-8 2.0173717606132342e-8 1.705347343909938e-8 1.2995453961982193e-9 2.4669573131742164e-9
          5.353478970847818e-10 7.532319329900387e-10 1.4565791831647798e-9 3.0462686015588707e-9 1.8596541330131976e-9 4.7058553917465995e-11
          1.0728487119613768e-10 7.051676033356425e-11 1.6569490532880537e-11 4.419240695482189e-11 5.450442599935127e-12 2.4321122661792843e-11
          9.384507437327039e-12 4.164617112368893e-11 3.5176662079670855e-12 1.488877806948507e-11 7.390783481005081e-11 2.6259889931003052e-11
          4.6100363814749127e-10 6.939680901605951e-10 4.68462265136275e-10 3.0957036308054917e-10 5.105075653437131e-10 1.0896820434411847e-10
          1.9454225829727892e-10 1.7958044952006433e-10 3.1627004109188984e-10 1.1309669626978786e-10 1.9518279663727926e-11 2.4244166340609414e-11
          2.1661575195630723e-11 2.8970053017490898e-11 1.5288682984602377e-11 1.900046117407376e-11 1.2894259356266573e-11 1.563331314546999e-11
          2.271223936354514e-11 1.8372366934673408e-11 1.4115188645086086e-8 1.3813914555312647e-8 1.4211867677397195e-8 1.5036920743479588e-8
          1.459637553208969e-8 1.4923750767405234e-8 1.335930223237597e-8 1.1667234507659406e-8 1.1762342702957122e-8 1.0771694871266666e-8
          1.488692223980489e-8 1.4629469084373647e-8 1.5645504551462876e-8 1.5350256075255755e-8 8.63002966599939e-9 8.596022826039502e-9
          9.156439636114056e-9 8.327521596435844e-9 1.6405421401944264e-8 1.6065175775045114e-8 1.7146657478886784e-8 1.6760257899604082e-8
          1.5000693642125732e-8 1.5554486360737622e-8 9.768110372151164e-9 9.72653322519743e-9 1.0324203048099743e-8 9.401339181518055e-9
          1.0632109439268154e-8 1.12539593634185e-8 1.3180781122649747e-8 1.3154379411001211e-8 1.3498940646195997e-8 1.2032301685896923e-8
          1.2262766891238138e-8 1.1835376234822604e-8 1.2393842408460497e-8 1.463136569235443e-8 8.446792300751147e-10 9.132592138312518e-10
          1.0098982443720822e-9 1.048198032116149e-9 1.3281612586131977e-9 1.3778537496134406e-9 4.052053931850224e-10 5.310321894740647e-10
          6.262341828398046e-10 7.655437978238735e-10 1.1910216074222302e-9 1.2187093364887227e-9 1.3874448388656926e-9 1.4133887827715648e-9
          1.4663901147542326e-9 1.5951970793874118e-9 5.527760969046099e-10 7.264767916880768e-10 8.320532867762127e-10 9.758162357377069e-10
          7.960029384038977e-9 8.474460310329045e-9 1.41812378147752e-8 1.51136479914114e-8 7.922597082817639e-9 8.38477458604843e-9
          1.4301854935088937e-8 9.026379707278621e-9 7.616966603489111e-9 1.6125695869899254e-8 1.3364273901470778e-8 8.896466031084276e-9
          5.485671970619581e-9 1.6281568855616827e-8 1.1637754152185012e-8 1.261249764304107e-8 1.1557165342848542e-8 1.3587241133897124e-8
          1.568600082190022e-8 1.516062274613045e-8 1.5276643627906825e-8 1.369955066274982e-8 1.5845141249799164e-8 1.5249479495846288e-8
          1.5060071286195165e-8 1.3613167078005722e-8 1.1753031191491238e-8 1.1657171004680141e-8 1.0742205727843507e-8 1.149274482533925e-8
          1.1236042353328643e-8 1.0412973236560468e-8 1.5337504812215736e-8 1.4699910770522377e-8 1.4160669324437323e-8 1.2994399785376375e-8
          1.4068849281832508e-8 1.3455086637608595e-8 1.2608517367364413e-8 1.1819723491481766e-8 1.0871936562637882e-8 1.0401281042203768e-8
          9.817390283352034e-9 9.830729063942352e-9 9.162250781566909e-9 8.863335138305858e-9 1.7859671365745683e-8 1.741746680012371e-8
          1.851395418776202e-8 1.800820689304497e-8 1.605513502358589e-8 1.647730605793667e-8 1.1073286808481624e-8 1.0946471866539701e-8
          1.1574610292043723e-8 1.0444658157681546e-8 1.906331959358011e-8 1.8493284227342555e-8 1.9462463661118104e-8 1.883289432895821e-8
          1.6794296786894147e-8 1.6974352440420667e-8 1.2407234165864792e-8 1.2180295568238712e-8 1.2729327809887055e-8 1.1403437841102317e-8
          1.3788073434540034e-8 1.3991862169517408e-8 1.2441139056410022e-8 1.2531571821489395e-8 1.2941631244032147e-8 1.3494668453544938e-8
          1.5070831868275182e-8 1.4090095988533323e-8 1.4067777696720582e-8 1.2514847264383352e-8 1.239017550939814e-8 1.3959288203183585e-8
          1.4297287204631241e-8 1.6329460233905235e-8 1.6055685262203478e-9 1.628631129474069e-9 1.8479645310312858e-9 1.862090621380728e-9
          1.7542420445351758e-9 1.937562174192553e-9 7.147982653066523e-10 9.436662271684709e-10 1.0607515107035796e-9 1.2628319245985002e-9
          2.106063300987457e-9 2.1089767116679877e-9 2.370400172264133e-9 2.3644575484250257e-9 2.1413042678819654e-9 2.3577078233866085e-9
          8.94144658082548e-10 1.1815657303224845e-9 1.3046118262712991e-9 1.583079861060766e-9 6.1038973127425965e-9 6.453037437386873e-9
          1.2146421107546754e-8 1.2888156682142854e-8 1.794707896294297e-9 1.869631772881927e-9 8.730765281841174e-9 6.806369274250287e-9
          7.122747170715815e-9 1.342437262482367e-8 1.3846553313059588e-8 1.9650808048543767e-9 2.0808246920643225e-9 9.665231783304145e-9
          1.9683790458333173e-8 1.899658130204482e-8 1.969956640364132e-8 1.8952424328190154e-8 1.6987758065171352e-8 1.6809216722569692e-8
          1.3545741735751846e-8 1.319023407017078e-8 1.3532747012503869e-8 1.2095256508548666e-8 1.9469161463982628e-8 1.8663780723134543e-8
          1.8934034967905863e-8 1.809371570616298e-8 1.6419421073492775e-8 1.5807484854802353e-8 1.4189731391881908e-8 1.3717706099978662e-8
          1.3702744879625597e-8 1.2269990532270783e-8 1.3906457433987244e-8 1.3592845772125823e-8 1.2146770883388255e-8 1.1772540351851244e-8
          1.4513234338754582e-8 1.4579769918577932e-8 1.6902051873460178e-8 1.3127359434772264e-8 1.2513594248267168e-8 1.127427670484544e-8
          1.0665615231349726e-8 1.4465557592343934e-8 1.4156380139279106e-8 1.682050739874111e-8 2.6396084866723337e-9 2.622378008747685e-9
          2.9137254686149703e-9 2.8735776549564195e-9 2.5788705937161016e-9 2.7982841687710108e-9 1.0887645206912847e-9 1.4283599800317515e-9
          1.5500711045179924e-9 1.8922187717838344e-9 3.176487860603815e-9 3.1052145777293007e-9 3.40244652783177e-9 3.303777683229882e-9
          3.018141724514718e-9 3.2204162535039304e-9 1.2922510030221353e-9 1.6657042470577281e-9 1.7717008286114927e-9 2.168684363703356e-9
          7.410619675199864e-9 7.651317431910843e-9 1.4170831759520617e-8 1.4367474882614466e-8 2.2070980984995165e-9 2.3339206831432266e-9
          1.0222228615647998e-8 7.81990690540426e-9 7.900352558636034e-9 1.4400148335347857e-8 1.4247524184695385e-8 2.4581971020701195e-9
          2.58111174404384e-9 1.0406268919573335e-8 1.1959245186306697e-8 1.2397614468622383e-8 1.0611987147053536e-8 1.2582639477216311e-8
          1.2678021683481082e-8 1.0594913119428425e-8 1.283587772493684e-8 1.3208911733901132e-8 1.1386610352317375e-8 1.1220449729385743e-8
          1.3712510263566978e-8 1.402020899917988e-8 1.2161233557581216e-8 1.3476859895198904e-8 1.3668419002373204e-8 1.1242179858607341e-8
          1.1239681380754188e-8 1.43710803131815e-8 1.465881632126533e-8 1.1889446597786254e-8 1.26788702687903e-8 1.256748820179332e-8
          1.0380515533005415e-8 1.2339274167921273e-8 1.1998514143831708e-8 9.842764716498898e-9 1.3758524896529567e-8 1.3728120287161145e-8
          1.1157220947404789e-8 1.0986594526168223e-8 1.4838179524268834e-8 1.4888752372528972e-8 1.1933926361804164e-8 1.3566424487460976e-8
          1.326981606306956e-8 1.0725819711560746e-8 1.0381946589284738e-8 1.479357480700068e-8 1.454111798230742e-8 1.1608874706622591e-8
          1.2210091016004347e-8 1.1647694447193722e-8 1.0575656452058373e-8 1.0149687517263807e-8 8.413045553161674e-9 7.614243462125958e-9
          7.612013950178834e-9 1.8079755526656547e-8 1.724666950761726e-8 1.6969677737946153e-8 1.6158826634245648e-8 1.4982976427489503e-8
          1.394413127599267e-8 1.3997800502738558e-8 1.3445678333953599e-8 1.2923667142111259e-8 1.1718097862991014e-8 1.1752409067738955e-8
          1.0840396781040257e-8 9.95244876907688e-9 9.14050654064031e-9 1.3693659881934186e-8 1.3084609479293518e-8 1.5968439725613936e-8
          1.4645954577081156e-8 3.5520923591581804e-9 3.4742076406120264e-9 3.643532042158284e-9 3.3984839925384484e-9 3.551423869642592e-9
          1.4812952847571446e-9 1.8635116247856035e-9 1.937003184617045e-9 2.355695776768355e-9 7.880135455800567e-9 1.0196679470521098e-8
          1.3935289072073148e-8 1.6022028883373316e-8 2.688936521263038e-9 7.798820032462081e-9 1.0051907972054937e-8 1.8017909294771142e-8
          1.9275093877047056e-8 1.1553567428983783e-8 1.102942421961947e-8 9.025066413921755e-9 1.0439114039010483e-8 7.929620458541855e-9
          1.2832649149840662e-8 1.2303700508978975e-8 9.976068256453794e-9 9.496632439203058e-9 1.4111730870697538e-8 1.3577976798338479e-8
          1.0927070098985834e-8 1.1737321975651341e-8 8.913394901484498e-9 1.3035529912292199e-8 9.897169344427143e-9 1.759976039686807e-9