<?xml version="1.0"?>
<VTKFile type="UnstructuredGrid" version="0.1" byte_order="LittleEndian" header_type="UInt32" compressor="vtkZLibDataCompressor">
  <UnstructuredGrid>
    <Piece NumberOfPoints="389" NumberOfCells="223">
      <PointData>
        <DataArray type="Int32" Name="libmesh_node_id" format="ascii" RangeMin="272" RangeMax="3295">
          272 277 280 282 592 593
          595 596 597 609 610 611
          613 614 615 616 617 1117
          1156 1192 1194 1195 1196 1197
          1198 1199 1200 1206 1215 1216
          1220 1222 1224 1226 1228 1229
          1230 1231 1232 1233 1234 1257
          1261 1291 1295 1311 1314 1315
          1316 1318 1319 1320 1321 1322
          1324 1326 1328 1330 1331 1332
          1333 1334 1335 1336 1337 1338
          1341 1342 1344 1346 1473 1474
          1477 1478 2053 2073 2229 2231
          2407 2417 2424 2427 2429 2430
          2431 2432 2438 2441 2443 2444
          2445 2446 2448 2450 2451 2452
          2453 2454 2455 2456 2457 2458
          2459 2460 2462 2464 2465 2466
          2467 2468 2469 2470 2471 2472
          2473 2474 2539 2569 2576 2599
          2600 2603 2606 2607 2610 2615
          2617 2619 2625 2627 2629 2635
          2637 2639 2645 2647 2649 2651
          2652 2653 2654 2655 2656 2657
          2658 2659 2660 2661 2662 2663
          2664 2665 2666 2667 2668 2669
          2670 2671 2672 2673 2674 2675
          2676 2677 2678 2679 2680 2681
          2682 2683 2684 2685 2686 2687
          2688 2689 2690 2691 2692 2693
          2694 2695 2696 2697 2698 2699
          2700 2701 2702 2703 2704 2705
          2706 2843 2845 2847 2849 2857
          2858 2859 2860 2861 2862 2863
          2864 2865 2866 2867 2868 2869
          2870 2871 2872 2873 2874 2876
          2877 2879 2881 2883 2891 2892
          2893 2894 2895 2896 2897 2898
          2900 2902 2904 2982 3012 3016
          3092 3094 3096 3098 3106 3107
          3108 3109 3110 3111 3112 3113
          3115 3117 3119 3120 3122 3124
          3126 3134 3135 3136 3137 3138
          3139 3140 3141 3143 3145 3147
          3216 3225 3226 3227 3232 3234
          3236 3242 3244 3246 3248 3249
          3250 3251 3252 3253 3254 3255
          3256 3257 3258 3259 3260 3261
          3262 3263 3264 3265 3266 3267
          3268 3269 3270 3271 3272 3273
          3274 3275 3276 3277 3278 3279
          3280 3281 3282 3283 3284 3285
          3286 3287 3288 3289 3290 3291
          3292 3293 3294 3295 618 622
          619 623 625 627 602 1339
          1292 1340 1343 607 1345 587
          1475 1258 1476 1479 2230 1154
          2844 2846 2848 1255 2241 2852
          1155 2853 2856 1256 2875 2878
          2880 2882 1259 2886 2887 2899
          2901 2890 1260 2903 3093 3095
          3097 1289 3101 3102 3114 3116
          3105 1290 3118 1273 3013 3121
          3123 1278 3125 1293 3129 3130
          3142 3144 3133 1294 3146
        </DataArray>
        <DataArray type="Float64" Name="bounds" format="ascii" RangeMin="0" RangeMax="0">
          0 0 0 0 0 0
          0 0 0 0 0 0
          0 0 0 0 0 0
          0 0 0 0 0 0
          0 0 0 0 0 0
          0 0 0 0 0 0
          0 0 0 0 0 0
          0 0 0 0 0 0
          0 0 0 0 0 0
          0 0 0 0 0 0
          0 0 0 0 0 0
          0 0 0 0 0 0
          0 0 0 0 0 0
          0 0 0 0 0 0
          0 0 0 0 0 0
          0 0 0 0 0 0
          0 0 0 0 0 0
          0 0 0 0 0 0
          0 0 0 0 0 0
          0 0 0 0 0 0
          0 0 0 0 0 0
          0 0 0 0 0 0
          0 0 0 0 0 0
          0 0 0 0 0 0
          0 0 0 0 0 0
          0 0 0 0 0 0
          0 0 0 0 0 0
          0 0 0 0 0 0
          0 0 0 0 0 0
          0 0 0 0 0 0
          0 0 0 0 0 0
          0 0 0 0 0 0
          0 0 0 0 0 0
          0 0 0 0 0 0
          0 0 0 0 0 0
          0 0 0 0 0 0
          0 0 0 0 0 0
          0 0 0 0 0 0
          0 0 0 0 0 0
          0 0 0 0 0 0
          0 0 0 0 0 0
          0 0 0 0 0 0
          0 0 0 0 0 0
          0 0 0 0 0 0
          0 0 0 0 0 0
          0 0 0 0 0 0
          0 0 0 0 0 0
          0 0 0 0 0 0
          0 0 0 0 0 0
          0 0 0 0 0 0
          0 0 0 0 0 0
          0 0 0 0 0 0
          0 0 0 0 0 0
          0 0 0 0 0 0
          0 0 0 0 0 0
          0 0 0 0 0 0
          0 0 0 0 0 0
          0 0 0 0 0 0
          0 0 0 0 0 0
          0 0 0 0 0 0
          0 0 0 0 0 0
          0 0 0 0 0 0
          0 0 0 0 0 0
          0 0 0 0 0 0
          0 0 0 0 0
        </DataArray>
        <DataArray type="Float64" Name="gradient_error" format="ascii" RangeMin="2.1388984444835755e-10" RangeMax="3.517246839883978e-8">
          2.5054028782317257e-9 1.177482350398683e-8 1.9475055253747267e-9 1.7013437796753636e-8 4.29675958143398e-9 2.4719748158415907e-9
          3.517246839883978e-8 1.629286066641767e-8 5.926450033649324e-9 1.687398756832359e-8 4.436112360815269e-9 6.199132261278261e-9
          2.4452395425353145e-8 9.909463076536764e-9 1.988526790825331e-8 7.39121148687327e-9 2.7982395885928898e-8 1.3622324085584657e-9
          1.3743227965136282e-9 1.0190105122360514e-8 4.010165385819256e-9 2.21056189282769e-9 3.817026676259708e-9 2.7879876864430186e-9
          6.597822778513791e-9 3.754945192203366e-9 3.2058010925587297e-9 3.129752469448077e-8 2.2860128923205894e-8 1.434989376251979e-8
          2.5902248284048623e-8 1.342891020435843e-8 5.466079272299719e-9 1.4745161136151723e-8 8.957055141448377e-9 5.21579441093842e-9
          3.263771903435697e-9 1.769603677995994e-9 9.927910818826931e-9 5.826851055460531e-9 3.5721604540992006e-9 1.3928311574516876e-9
          1.4647484998188128e-9 1.3467773274834197e-9 1.4682575048023475e-9 5.692194338963116e-9 4.568155126378277e-9 2.4490336842143744e-9
          3.2251687055136087e-9 3.608679585137791e-9 1.9129635058877912e-9 3.774848493799168e-9 2.797721972637408e-9 4.788059260876178e-9
          6.845806221428399e-9 1.111706406917864e-8 7.279384995329537e-9 3.618219939952141e-9 1.8867716356557045e-9 5.811539732541902e-9
          3.0383583703835945e-9 3.870312070575519e-9 2.0289259238317868e-9 6.1991067010330385e-9 1.677592865114126e-9 1.471765220020029e-9
          1.2781822537597076e-9 1.4805739500378264e-9 1.5696220419484384e-9 1.5634627729462974e-9 1.3434990492958156e-9 1.6611644389402638e-9
          9.117396605385789e-10 1.0352095204643193e-9 1.6260479984206864e-9 8.15016578654733e-10 1.1413859148734248e-9 8.500404134135303e-10
          1.516125741393837e-8 6.693425162593826e-9 6.089781685992677e-9 2.42299279777983e-9 1.5927371882278688e-9 4.677464944963729e-9
          3.4628503244802162e-9 3.0253383642083272e-9 2.5800865584856448e-9 1.0259418910745267e-9 8.064039125254783e-10 1.904704265841177e-9
          1.3727818791771877e-9 1.4548017751271672e-9 8.15694075878058e-9 5.262037792532869e-9 1.2758922500900294e-8 1.0402475588047485e-8
          8.309651745492323e-9 6.3391180280969805e-9 4.73655335951609e-9 4.007557859503421e-9 2.948969823849886e-9 8.167677531615126e-9
          6.154734402306715e-9 5.068670627642235e-9 3.3379932415240856e-9 2.290284568112286e-9 5.32034943475577e-9 4.124530925675702e-9
          3.31097046966413e-9 2.477911821705825e-9 1.791659218961924e-9 1.877409929688061e-9 1.3388710447026527e-9 3.0910195125596563e-9
          2.249734204401038e-9 2.0190175128881034e-9 3.415999422664397e-8 2.72729373346293e-8 1.845833060581488e-8 2.987440777206251e-8
          2.5102131301542162e-8 3.0806898927893505e-8 2.0277304620968338e-8 1.5783900833977518e-8 2.092948418477711e-8 1.805124361801998e-8
          1.1962456771533838e-8 2.0555011155571757e-8 7.77745617810542e-9 4.9452012381109945e-9 8.662025386505523e-9 2.2274690617124984e-8
          1.4404172767602664e-8 2.288131982785685e-8 9.246255724505372e-9 5.807796250681979e-9 9.449756433565633e-9 1.531371111210827e-8
          1.2591471331979934e-8 9.844154393453218e-9 7.881591315012798e-9 1.749390947031521e-8 1.4444925991503516e-8 1.1120275359540351e-8
          9.969719636517045e-9 7.566960815872681e-9 6.098390269297679e-9 4.544963103210649e-9 1.1504366411924016e-8 8.7807531077558e-9
          6.966847346578276e-9 6.2155755867133465e-9 4.848888437457503e-9 3.839755881859432e-9 2.9058973797710608e-9 6.95392029108223e-9
          5.449940338109846e-9 4.269238319671642e-9 3.667444090071384e-9 2.68862284447374e-9 2.1481177777047817e-9 1.554982140280865e-9
          4.1470058917616724e-9 3.055998549341056e-9 2.435949607526009e-9 1.8983354427218566e-8 1.5695978783501307e-8 1.196814331801641e-8
          9.675136147359526e-9 1.9515354563662456e-8 1.6139742381004097e-8 1.226593778464809e-8 1.2538002911183542e-8 9.604122395976372e-9
          7.549459539237626e-9 5.667364278634811e-9 1.2902824158967929e-8 9.895842464633694e-9 7.755054061819038e-9 7.4497690140019655e-9
          5.858660974603306e-9 4.5546598270388145e-9 3.4926972357327653e-9 7.623484637678221e-9 6.00165355851292e-9 4.653833247326485e-9
          4.4711722262409925e-9 3.302419351068554e-9 2.6133307121217375e-9 1.901905791468192e-9 4.584547333713585e-9 3.3885173509697896e-9
          2.674783765454743e-9 1.7147445990984517e-9 1.11499595248489e-9 2.4679545424421183e-9 1.563507388506414e-9 5.890218858986869e-10
          7.070117355099482e-10 3.9485850310427567e-10 4.784769511493372e-10 4.71820015749909e-10 5.497318020653337e-10 3.6963483691721076e-10
          9.639885553480765e-10 6.600263059353331e-10 7.261231676921317e-10 2.682760599329008e-10 3.207466341519265e-10 2.2568153296432777e-10
          2.6104056229104046e-10 2.1871182612192523e-10 2.528171096119289e-10 2.1388984444835755e-10 4.388561024601772e-10 3.336282171371614e-10
          3.3971760750798817e-9 2.0953232174599083e-9 4.4419907407077364e-9 2.679357368896106e-9 1.263657905960493e-9 8.671884718872295e-10
          9.41129981300081e-10 6.484596191758534e-10 1.592698750753782e-9 1.0910930703914275e-9 1.0242396954811043e-9 5.749034294976925e-10
          4.289287453321892e-10 7.193693374166994e-10 5.288582897125552e-10 1.0650723984427225e-8 1.176091951044499e-8 1.2156042050924594e-8
          5.492296942155076e-9 3.2560024274693896e-9 6.401968930327517e-9 3.748978443671646e-9 1.914590963814851e-9 1.3118391045965019e-9
          1.0984991441534473e-9 8.573494992883852e-10 2.1851235494776204e-9 1.4991946641854387e-9 1.2509814555303542e-9 8.617660829957181e-10
          6.277665136283088e-10 9.829718710061215e-10 7.121467256832076e-10 7.022419244564363e-9 4.082306451957994e-9 7.242876712148535e-9
          4.200218115153381e-9 2.3646897147739606e-9 1.623672899398356e-9 1.3447664150195624e-9 1.0455833642413135e-9 2.4272570430608613e-9
          1.666868269934175e-9 1.3770372718619834e-9 1.0642024941677963e-9 7.680845272222974e-10 1.0925665999273707e-9 7.872155004016747e-10
          2.721496852918595e-9 2.0284070244439157e-9 1.6007226007298935e-9 1.5722983020705608e-9 3.100903924316018e-9 2.3591970012175654e-9
          3.4045278889449145e-9 3.6044822605916005e-9 2.718961534781726e-9 3.6745593531121463e-9 2.3326525021496825e-9 1.732124291702599e-9
          1.7681307805064553e-9 1.3276287534354845e-9 2.572982439956044e-9 1.928690711760257e-9 1.9209857714680334e-9 1.1733724837559198e-9
          1.2629398278141327e-9 8.479627372109565e-10 9.089856067189003e-10 9.4955057528804e-10 9.690885957938563e-10 6.961339839294153e-10
          1.4107574587292676e-9 1.0132689211615203e-9 1.0256970603714403e-9 2.7310072069436365e-9 2.0500463143891865e-9 2.031215663763574e-9
          1.5071798052395271e-9 2.7881994112402333e-9 2.0953442442144192e-9 2.0744218399290617e-9 1.5027031488301267e-9 1.0805492068102182e-9
          1.0873259762709543e-9 7.79792291752932e-10 1.5363985520740641e-9 1.1045690475242395e-9 1.1118844480987008e-9 5.988424836814414e-10
          6.383799205021533e-10 5.087306649911916e-10 5.300737594171713e-10 4.89054490704712e-10 4.982344745550661e-10 4.2752042615798505e-10
          7.079092150797495e-10 5.770050725777186e-10 5.281356404189265e-10 7.543495390662369e-10 6.154954012721638e-10 5.605752149422108e-10
          4.807585959954923e-10 7.707980052958395e-10 6.283975112320419e-10 5.722936074519891e-10 2.038836480311295e-9 2.06891715914886e-9
          1.8628881564969303e-9 3.07810080105787e-9 2.1358511959006143e-9 3.5271104722302697e-9 9.116018222616209e-10 1.0647912952930013e-9
          1.137602497074809e-9 1.27051622190224e-9 7.179424948091103e-10 1.2292601333898727e-9 1.35234641353478e-9 1.4852690284131512e-9
          6.671107747117061e-10 7.537715099737475e-10 8.040036675140046e-10 5.483467077305666e-10 7.789581591254183e-10 9.424145214344066e-10
          1.1730781245514932e-9 7.601587060367172e-10 1.694142015182251e-9 1.070836257474673e-9 3.837373652600301e-10 5.053562754830603e-10
          5.366967530394423e-10 3.6680530870761833e-10 7.127685164529031e-10 5.560391782263002e-10 3.131669936323394e-10 2.3390169380538765e-9
          1.4376862028210348e-9 3.068748229129622e-9 1.8412583619770912e-9 9.545437523633874e-10 6.091855690774775e-10 3.6912690400027294e-10
          2.799265473059012e-10 1.2195594671930383e-9 7.801494395017601e-10 4.6277885059938166e-10 3.808342410304544e-9 2.241950829901854e-9
          4.4533541413979335e-9 2.586089422370183e-9 1.4854614896079592e-9 9.489009264652125e-10 5.514923518914922e-10 4.0109077180869377e-10
          1.7140387756068206e-9 1.093861646701761e-9 6.270492566692951e-10 7.497193620248488e-9 8.308272198385524e-9 4.895388570076455e-9
          2.8194744980381643e-9 8.5982471356286e-9 5.052849516120746e-9 2.9021669541211846e-9 1.8693375515095162e-9 1.1923761162414334e-9
          6.778967669632657e-10 4.863648082040673e-10 1.9244123968784597e-9 1.2273210510323718e-9 6.958251365330758e-10
        </DataArray>
        <DataArray type="Float64" Name="gradient_matprop_error" format="ascii" RangeMin="0" RangeMax="0">
          0 0 0 0 0 0
          0 0 0 0 0 0
          0 0 0 0 0 0
          0 0 0 0 0 0
          0 0 0 0 0 0
          0 0 0 0 0 0
          0 0 0 0 0 0
          0 0 0 0 0 0
          0 0 0 0 0 0
          0 0 0 0 0 0
          0 0 0 0 0 0
          0 0 0 0 0 0
          0 0 0 0 0 0
          0 0 0 0 0 0
          0 0 0 0 0 0
          0 0 0 0 0 0
          0 0 0 0 0 0
          0 0 0 0 0 0
          0 0 0 0 0 0
          0 0 0 0 0 0
          0 0 0 0 0 0
          0 0 0 0 0 0
          0 0 0 0 0 0
          0 0 0 0 0 0
          0 0 0 0 0 0
          0 0 0 0 0 0
          0 0 0 0 0 0
          0 0 0 0 0 0
          0 0 0 0 0 0
          0 0 0 0 0 0
          0 0 0 0 0 0
          0 0 0 0 0 0
          0 0 0 0 0 0
          0 0 0 0 0 0
          0 0 0 0 0 0
          0 0 0 0 0 0
          0 0 0 0 0 0
          0 0 0 0 0 0
          0 0 0 0 0 0
          0 0 0 0 0 0
          0 0 0 0 0 0
          0 0 0 0 0 0
          0 0 0 0 0 0
          0 0 0 0 0 0
          0 0 0 0 0 0
          0 0 0 0 0 0
          0 0 0 0 0 0
          0 0 0 0 0 0
          0 0 0 0 0 0
          0 0 0 0 0 0
          0 0 0 0 0 0
          0 0 0 0 0 0
          0 0 0 0 0 0
          0 0 0 0 0 0
          0 0 0 0 0 0
          0 0 0 0 0 0
          0 0 0 0 0 0
          0 0 0 0 0 0
          0 0 0 0 0 0
          0 0 0 0 0 0
          0 0 0 0 0 0
          0 0 0 0 0 0
          0 0 0 0 0 0
          0 0 0 0 0 0
          0 0 0 0 0
        </DataArray>
        <DataArray type="Float64" Name="initial_marker" format="ascii" RangeMin="0" RangeMax="2">
          0 0 2 0 2 1.25
          2 2 2 0 0 0
          0 0 0 0 0 1.75
          0 2 2 2 1 1
          2 2 1.5 2 2 2
          2 2 2 2 2 2
          2 2 2 2 2 0.5
          1 1.25 1.5 0 0 0
          0 0 0 0 0 0
          0 0 0 0 0 0
          0 0 0 0 0 0
          0 0 0 0 0 0
          0 0 2 1 2 2
          2 2 2 2 2 2
          2 2 2 1.5 1 2
          2 2 2 2 2 2
          2 2 2 2 2 2
          2 2 2 1.3333333333333333 2 2
          1.75 2 2 2 2 2
          2 2 2 2 2 2
          2 2 2 2 2 2
          2 2 2 2 2 2
          2 2 2 2 2 2
          2 2 2 2 2 2
          2 2 2 2 2 2
          2 2 2 2 2 2
          2 2 2 2 2 1.75
          2 2 2 2 2 2
          2 2 2 2 2 2
          2 2 2 2 2 2
          2 2 2 2 2 2
          2 2 2 2 2 2
          2 2 2 2 2 1
          1.25 1 1 0 0.5 0
          1.75 1.5 1.5 0.5 0.75 0
          0.5 0 0 0 1.25 0.5
          2 2 2 2 2 2
          2 2 2 2 1.3333333333333333 1.75
          1.5 2 2 2 2 2
          2 2 2 2 2 2
          1.25 1.3333333333333333 2 2 1.75 2
          2 2 2 2 2 2
          2 2 2 2 2 2
          2 2 2 2 2 2
          1 0.75 0.6666666666666666 0 1 0
          1 1 0 1 1 1
          0 0 1 1 0 1
          1 0.5 0.75 0 0 0
          1 1 0 1 1 0
          0 1 1 0 1 1
          0 0 1 1 0 0
          0.25 0 0 0 0 0
          0.75 0.5 0 1 1 0
          0 1 1 0 0 0
          0 0 0 0 0.75 0
          1 0 0 1 0 0
          0 0 0 0 2 1.5
          2 2 2 2 1.6666666666666667 1.75
          0.75 1.6666666666666667 2 1.75 1 2
          2 2 2 2 2 1.25
          0.5 2 2 1.75 2 2
          2 2 2 2 2 2
          2 2 2 2 2 2
          2 2 2 2 2 2
          2 2 2 2 2
        </DataArray>
        <DataArray type="Float64" Name="markers_norefine" format="ascii" RangeMin="0" RangeMax="0">
          0 0 0 0 0 0
          0 0 0 0 0 0
          0 0 0 0 0 0
          0 0 0 0 0 0
          0 0 0 0 0 0
          0 0 0 0 0 0
          0 0 0 0 0 0
          0 0 0 0 0 0
          0 0 0 0 0 0
          0 0 0 0 0 0
          0 0 0 0 0 0
          0 0 0 0 0 0
          0 0 0 0 0 0
          0 0 0 0 0 0
          0 0 0 0 0 0
          0 0 0 0 0 0
          0 0 0 0 0 0
          0 0 0 0 0 0
          0 0 0 0 0 0
          0 0 0 0 0 0
          0 0 0 0 0 0
          0 0 0 0 0 0
          0 0 0 0 0 0
          0 0 0 0 0 0
          0 0 0 0 0 0
          0 0 0 0 0 0
          0 0 0 0 0 0
          0 0 0 0 0 0
          0 0 0 0 0 0
          0 0 0 0 0 0
          0 0 0 0 0 0
          0 0 0 0 0 0
          0 0 0 0 0 0
          0 0 0 0 0 0
          0 0 0 0 0 0
          0 0 0 0 0 0
          0 0 0 0 0 0
          0 0 0 0 0 0
          0 0 0 0 0 0
          0 0 0 0 0 0
          0 0 0 0 0 0
          0 0 0 0 0 0
          0 0 0 0 0 0
          0 0 0 0 0 0
          0 0 0 0 0 0
          0 0 0 0 0 0
          0 0 0 0 0 0
          0 0 0 0 0 0
          0 0 0 0 0 0
          0 0 0 0 0 0
          0 0 0 0 0 0
          0 0 0 0 0 0
          0 0 0 0 0 0
          0 0 0 0 0 0
          0 0 0 0 0 0
          0 0 0 0 0 0
          0 0 0 0 0 0
          0 0 0 0 0 0
          0 0 0 0 0 0
          0 0 0 0 0 0
          0 0 0 0 0 0
          0 0 0 0 0 0
          0 0 0 0 0 0
          0 0 0 0 0 0
          0 0 0 0 0
        </DataArray>
        <DataArray type="Float64" Name="markers_mustrefine" format="ascii" RangeMin="0" RangeMax="2">
          0 0 2 0 2 1.25
          2 2 2 0 0 0
          0 0 0 0 0 1.75
          0 2 2 2 1 1
          2 2 1.5 2 2 2
          2 2 2 2 2 2
          2 2 2 2 2 0.5
          1 1.25 1.5 0 0 0
          0 0 0 0 0 0
          0 0 0 0 0 0
          0 0 0 0 0 0
          0 0 0 0 0 0
          0 0 2 1 2 2
          2 2 2 2 2 2
          2 2 2 1.5 1 2
          2 2 2 2 2 2
          2 2 2 2 2 2
          2 2 2 1.3333333333333333 2 2
          1.75 2 2 2 2 2
          2 2 2 2 2 2
          2 2 2 2 2 2
          2 2 2 2 2 2
          2 2 2 2 2 2
          2 2 2 2 2 2
          2 2 2 2 2 2
          2 2 2 2 2 2
          2 2 2 2 2 1.75
          2 2 2 2 2 2
          2 2 2 2 2 2
          2 2 2 2 2 2
          2 2 2 2 2 2
          2 2 2 2 2 2
          2 2 2 2 2 1
          1.25 1 1 0 0.5 0
          1.75 1.5 1.5 0.5 0.75 0
          0.5 0 0 0 1.25 0.5
          2 2 2 2 2 2
          2 2 2 2 1.3333333333333333 1.75
          1.5 2 2 2 2 2
          2 2 2 2 2 2
          1.25 1.3333333333333333 2 2 1.75 2
          2 2 2 2 2 2
          2 2 2 2 2 2
          2 2 2 2 2 2
          1 0.75 0.6666666666666666 0 1 0
          1 1 0 1 1 1
          0 0 1 1 0 1
          1 0.5 0.75 0 0 0
          1 1 0 1 1 0
          0 1 1 0 1 1
          0 0 1 1 0 0
          0.25 0 0 0 0 0
          0.75 0.5 0 1 1 0
          0 1 1 0 0 0
          0 0 0 0 0.75 0
          1 0 0 1 0 0
          0 0 0 0 2 1.5
          2 2 2 2 1.6666666666666667 1.75
          0.75 1.6666666666666667 2 1.75 1 2
          2 2 2 2 2 1.25
          0.5 2 2 1.75 2 2
          2 2 2 2 2 2
          2 2 2 2 2 2
          2 2 2 2 2 2
          2 2 2 2 2
        </DataArray>
        <DataArray type="Float64" Name="gradient_marker" format="ascii" RangeMin="0.5" RangeMax="1">
          1 1 1 1 1 1
          1 1 1 0.5 1 1
          0.5 1 0.5 1 0.5 1
          1 1 1 1 1 1
          1 1 1 1 1 1
          1 1 1 1 1 1
          1 1 1 1 1 1
          1 1 1 0.75 1 1
          1 1 1 1 1 1
          0.75 0.5 0.75 1 1 1
          1 1 1 1 1 1
          1 1 1 1 1 1
          1 1 1 1 1 1
          1 1 1 1 1 1
          1 1 1 1 1 1
          1 1 1 1 1 1
          1 1 1 1 1 1
          1 1 1 1 1 1
          1 1 1 1 1 1
          1 1 1 1 1 1
          1 1 1 1 1 1
          1 1 1 1 1 1
          1 1 1 1 1 1
          1 1 1 1 1 1
          1 1 1 1 1 1
          1 1 1 1 1 1
          1 1 1 1 1 1
          1 1 1 1 1 1
          1 1 1 1 1 1
          1 1 1 1 1 1
          1 1 1 1 1 1
          1 1 1 1 1 1
          1 1 1 1 1 1
          1 1 1 1 1 1
          1 1 1 1 1 1
          1 1 1 1 1 1
          1 1 1 1 1 1
          1 1 1 1 1 1
          1 1 1 1 1 1
          1 1 1 1 1 1
          1 1 1 1 1 1
          1 1 1 1 1 1
          1 1 1 1 1 1
          1 1 1 1 1 1
          1 1 1 1 1 1
          1 1 1 1 1 1
          1 1 1 1 1 1
          1 1 1 1 1 1
          1 1 1 1 1 1
          1 1 1 1 1 1
          1 1 1 1 1 1
          1 1 1 1 1 1
          1 1 1 1 1 1
          1 1 1 1 1 1
          1 1 1 1 1 1
          1 1 1 1 1 1
          1 1 1 1 1 1
          1 1 1 1 1 1
          1 1 1 1 1 1
          1 1 1 1 1 1
          1 1 1 1 1 1
          1 1 1 1 1 1
          1 1 1 1 1 1
          1 1 1 1 1 1
          1 1 1 1 1
        </DataArray>
        <DataArray type="Float64" Name="gradient_matprop_marker" format="ascii" RangeMin="0" RangeMax="0">
          0 0 0 0 0 0
          0 0 0 0 0 0
          0 0 0 0 0 0
          0 0 0 0 0 0
          0 0 0 0 0 0
          0 0 0 0 0 0
          0 0 0 0 0 0
          0 0 0 0 0 0
          0 0 0 0 0 0
          0 0 0 0 0 0
          0 0 0 0 0 0
          0 0 0 0 0 0
          0 0 0 0 0 0
          0 0 0 0 0 0
          0 0 0 0 0 0
          0 0 0 0 0 0
          0 0 0 0 0 0
          0 0 0 0 0 0
          0 0 0 0 0 0
          0 0 0 0 0 0
          0 0 0 0 0 0
          0 0 0 0 0 0
          0 0 0 0 0 0
          0 0 0 0 0 0
          0 0 0 0 0 0
          0 0 0 0 0 0
          0 0 0 0 0 0
          0 0 0 0 0 0
          0 0 0 0 0 0
          0 0 0 0 0 0
          0 0 0 0 0 0
          0 0 0 0 0 0
          0 0 0 0 0 0
          0 0 0 0 0 0
          0 0 0 0 0 0
          0 0 0 0 0 0
          0 0 0 0 0 0
          0 0 0 0 0 0
          0 0 0 0 0 0
          0 0 0 0 0 0
          0 0 0 0 0 0
          0 0 0 0 0 0
          0 0 0 0 0 0
          0 0 0 0 0 0
          0 0 0 0 0 0
          0 0 0 0 0 0
          0 0 0 0 0 0
          0 0 0 0 0 0
          0 0 0 0 0 0
          0 0 0 0 0 0
          0 0 0 0 0 0
          0 0 0 0 0 0
          0 0 0 0 0 0
          0 0 0 0 0 0
          0 0 0 0 0 0
          0 0 0 0 0 0
          0 0 0 0 0 0
          0 0 0 0 0 0
          0 0 0 0 0 0
          0 0 0 0 0 0
          0 0 0 0 0 0
          0 0 0 0 0 0
          0 0 0 0 0 0
          0 0 0 0 0 0
          0 0 0 0 0
        </DataArray>
        <DataArray type="Float64" Name="combo" format="ascii" RangeMin="0.5" RangeMax="1">
          1 1 1 1 1 1
          1 1 1 0.5 1 1
          0.5 1 0.5 1 0.5 1
          1 1 1 1 1 1
          1 1 1 1 1 1
          1 1 1 1 1 1
          1 1 1 1 1 1
          1 1 1 0.75 1 1
          1 1 1 1 1 1
          0.75 0.5 0.75 1 1 1
          1 1 1 1 1 1
          1 1 1 1 1 1
          1 1 1 1 1 1
          1 1 1 1 1 1
          1 1 1 1 1 1
          1 1 1 1 1 1
          1 1 1 1 1 1
          1 1 1 1 1 1
          1 1 1 1 1 1
          1 1 1 1 1 1
          1 1 1 1 1 1
          1 1 1 1 1 1
          1 1 1 1 1 1
          1 1 1 1 1 1
          1 1 1 1 1 1
          1 1 1 1 1 1
          1 1 1 1 1 1
          1 1 1 1 1 1
          1 1 1 1 1 1
          1 1 1 1 1 1
          1 1 1 1 1 1
          1 1 1 1 1 1
          1 1 1 1 1 1
          1 1 1 1 1 1
          1 1 1 1 1 1
          1 1 1 1 1 1
          1 1 1 1 1 1
          1 1 1 1 1 1
          1 1 1 1 1 1
          1 1 1 1 1 1
          1 1 1 1 1 1
          1 1 1 1 1 1
          1 1 1 1 1 1
          1 1 1 1 1 1
          1 1 1 1 1 1
          1 1 1 1 1 1
          1 1 1 1 1 1
          1 1 1 1 1 1
          1 1 1 1 1 1
          1 1 1 1 1 1
          1 1 1 1 1 1
          1 1 1 1 1 1
          1 1 1 1 1 1
          1 1 1 1 1 1
          1 1 1 1 1 1
          1 1 1 1 1 1
          1 1 1 1 1 1
          1 1 1 1 1 1
          1 1 1 1 1 1
          1 1 1 1 1 1
          1 1 1 1 1 1
          1 1 1 1 1 1
          1 1 1 1 1 1
          1 1 1 1 1 1
          1 1 1 1 1
        </DataArray>
        <DataArray type="Float64" Name="dHdT" format="ascii" RangeMin="25.835932543774714" RangeMax="37.39350409073002">
          25.95280350574058 25.852903966710777 26.320128846643897 25.873778408284153 27.05385460517487 26.165780922571365
          37.39350409073002 30.446095566839272 27.538605137611732 26.10532128138231 25.87699448354566 25.91582542915809
          25.991730443392104 25.890615338217035 26.16936127164854 25.936739395758014 26.018603815317483 26.094793151009863
          25.90071180286517 28.869389166237408 26.8736165889202 26.372278092251698 26.256015918584975 26.051265649994516
          27.56789249184763 26.74555340811654 26.48438755286968 36.26869556201556 33.34143580177619 29.713755054568075
          34.26545312301624 30.129892779803 27.39949818048919 30.720561395984355 28.25262049531546 27.105247073721777
          26.704364942190235 26.278267764429454 28.554716182001677 27.25854751612891 26.785521513721577 25.932280203331
          25.980050591766677 26.0229138846387 26.041316655473054 26.341474709260744 26.05004172642017 25.926199798052227
          25.956073730670163 25.992524735257 25.91467189049566 26.10757850443579 25.982695279932184 26.044603219767268
          26.45129361922715 26.29183119009145 26.493817487066366 26.168525111828153 26.000966965951413 26.087636576673003
          25.96248270254054 26.19306330964551 26.013098247295616 26.104973948219993 25.90259408916939 25.90991082259304
          25.882534645817742 25.89167191111594 25.91532750211583 25.895257671524384 25.87867568118805 25.890010636995353
          25.864121394185148 25.87055226755657 26.223909372891274 26.034631672939753 26.099366836435664 26.036252884046462
          30.87724684411428 27.739898471484253 27.411718238055485 26.413613587124388 26.2209740488033 26.99504697040755
          26.663721080268424 26.592524133251928 26.51173106446457 26.088842670811047 26.03605906744407 26.324319377046972
          26.180114935903166 26.21841267785323 27.98987024472647 27.203782174099448 29.635909277895653 28.67089632143795
          28.14287444474716 27.42206069968399 26.972112418099393 26.838726770341495 26.550639306985033 27.914729209273137
          27.323566129847684 27.10839751583375 26.70148247990617 26.44858961302802 27.273709894475154 26.905421538653854
          26.74164783255765 26.46530141422653 26.282197638697305 26.319983764122664 26.17891105439054 26.615934490597567
          26.390209499772613 26.365105078319615 36.98397780360429 34.990156914575316 31.455423430001325 35.583467017620194
          34.04109772466116 35.76896473086387 32.16210353478337 30.24804983662186 32.40404753167025 32.236193131736215
          29.529014170696215 33.328648153212086 28.079528979780818 27.242774454905103 28.369532171458033 33.96850106602854
          30.562030482766176 34.17236310116831 28.565634736663753 27.50272263667341 28.63470699188443 30.683032538235025
          29.40840082304982 28.633522650518245 27.932818394350633 31.65357683462078 30.109559636555442 29.070211062350197
          28.43363741158087 27.68692033740907 27.37674250114241 26.938834400779033 28.908517617482037 28.01277837772416
          27.609066382177172 27.534680189372814 27.10396918349636 26.88852877914425 26.612865641205165 27.75610752252144
          27.27123897922757 27.01004265524952 26.762764081931007 26.49508484365361 26.398788194192985 26.232693538979667
          26.886141563097677 26.583453108672177 26.464507052132394 32.309832694310195 30.626440558622217 29.377213111284885
          28.475055417193712 32.534764677767924 30.816491785610147 29.48730506971393 29.25019044493442 28.242439118514476
          27.768692444843772 27.218309870723346 29.37650749482792 28.326026413783215 27.826172932468527 27.905842699299217
          27.383715944384797 27.089917334660054 26.764371309580042 27.95829056472323 27.423487758910824 27.117812492502996
          26.96849220943164 26.64252078861097 26.508260925958258 26.309201806949908 26.99768114719786 26.663355104466277
          26.523722336234812 26.23207934834017 26.09802169549494 26.407447305581833 26.203568673051926 25.979041089735837
          26.007632528246425 25.930337365445478 25.948378384958545 25.950244444406536 25.972109171998294 25.925747160421658
          26.07024330164981 25.98893685668412 26.01876659388891 25.89357465626673 25.904897917732804 25.877922951447147
          25.88667313919774 25.882604961523832 25.890839113862 25.876030824687888 25.930779403249595 25.909457026919725
          26.623647665070976 26.328773376874803 26.868788661788958 26.46564350519416 26.141499446429528 26.03667094256682
          26.069728663194354 25.988714817038222 26.21669165405037 26.087465919017 26.090859082618977 25.961947655696893
          25.931514182233187 25.995369749060444 25.95464497427222 28.435613704320772 28.761265741245595 28.88136810433485
          27.119052141416116 26.601002202757048 27.34091511824906 26.7171994905975 26.289205434067362 26.136256853368728