<?xml version="1.0"?>
<VTKFile type="UnstructuredGrid" version="0.1" byte_order="LittleEndian" header_type="UInt32" compressor="vtkZLibDataCompressor">
  <UnstructuredGrid>
    <Piece NumberOfPoints="425" NumberOfCells="229">
      <PointData>
        <DataArray type="Int32" Name="libmesh_node_id" format="ascii" RangeMin="81" RangeMax="3897">
          108 109 110 111 112 114
          126 127 136 137 139 140
          141 142 153 154 155 156
          164 166 167 168 169 180
          181 182 183 331 332 333
          334 335 336 337 338 339
          340 341 342 343 344 3524
          3525 3526 3527 3528 3529 3530
          3531 3532 3533 3534 3535 3536
          3537 3541 3543 3544 3545 3546
          3547 3548 3549 3550 3551 3552
          3557 3558 3561 3567 3568 3569
          3570 3571 3572 3573 3574 3575
          3576 3577 3578 3579 3580 3581
          3582 3583 3584 3585 3586 3587
          3588 3589 3590 3591 3592 3593
          3594 3595 3596 3597 3598 3599
          3600 3601 3602 3603 3604 3605
          3606 3607 3608 3609 3610 3611
          3612 3613 3634 3635 3636 3637
          3638 3639 3640 3641 3642 3643
          3644 3645 3646 3647 3648 3649
          3650 3651 3652 3653 3654 3655
          3656 3657 3658 3659 3660 3661
          3662 3663 3664 3665 3666 3667
          3668 3669 3670 3671 3672 3673
          3674 3675 3676 3677 3678 3679
          3680 3681 3682 3683 3684 3685
          3686 3687 3688 3689 3690 3691
          3692 3693 3694 3695 3696 3697
          3698 3699 3700 3701 3702 3703
          3704 3705 3706 3707 3708 3709
          3710 3711 3712 3713 3714 3715
          3716 3717 3718 3719 3720 3721
          3722 3723 3724 3725 3726 3727
          3728 3729 3730 3731 3732 3733
          3757 3767 3768 3769 3770 3771
          3772 3773 3774 3775 3776 3777
          3778 3779 3780 3781 3782 3783
          3784 3785 3786 3787 3788 3789
          3790 3791 3792 3793 3794 3795
          3796 3797 3798 3799 3800 3801
          3802 3803 3804 3805 3806 3807
          3808 3809 3810 3811 3812 3813
          3814 3815 3816 3817 3818 3819
          3820 3821 3822 3823 3824 3825
          3826 3827 3828 3829 3830 3831
          3832 3833 3834 3835 3836 3837
          3838 3839 3840 3841 3842 3843
          3844 3845 3846 3847 3848 3849
          3850 3851 3852 3853 3854 3855
          3856 3857 3858 3859 3860 3861
          3862 3863 3864 3865 3866 3867
          3868 3869 3870 3871 3872 3873
          3874 3875 3876 3877 3878 3879
          3880 3881 3882 3883 3884 3885
          3886 3887 3888 3889 3890 3891
          3892 3893 3894 3895 3896 3897
          81 82 83 84 85 86
          113 87 88 115 89 90
          116 117 99 100 101 128
          138 129 130 144 157 191
          195 201 135 3538 3539 3540
          3542 299 300 303 309 143
          3554 3555 3559 3563 3565 3566
          3560 165 667 669 672 171
          674 184 3616 3617 3620 3623
          192 375 376 379 382 170
          385 205 3625 3627 3630 3632
          3753 3754 3755 3758 3759 3756
          3760 3762 3761 163 3765
        </DataArray>
        <DataArray type="Float64" Name="bounds" format="ascii" RangeMin="0" RangeMax="0">
          0 0 0 0 0 0
          0 0 0 0 0 0
          0 0 0 0 0 0
          0 0 0 0 0 0
          0 0 0 0 0 0
          0 0 0 0 0 0
          0 0 0 0 0 0
          0 0 0 0 0 0
          0 0 0 0 0 0
          0 0 0 0 0 0
          0 0 0 0 0 0
          0 0 0 0 0 0
          0 0 0 0 0 0
          0 0 0 0 0 0
          0 0 0 0 0 0
          0 0 0 0 0 0
          0 0 0 0 0 0
          0 0 0 0 0 0
          0 0 0 0 0 0
          0 0 0 0 0 0
          0 0 0 0 0 0
          0 0 0 0 0 0
          0 0 0 0 0 0
          0 0 0 0 0 0
          0 0 0 0 0 0
          0 0 0 0 0 0
          0 0 0 0 0 0
          0 0 0 0 0 0
          0 0 0 0 0 0
          0 0 0 0 0 0
          0 0 0 0 0 0
          0 0 0 0 0 0
          0 0 0 0 0 0
          0 0 0 0 0 0
          0 0 0 0 0 0
          0 0 0 0 0 0
          0 0 0 0 0 0
          0 0 0 0 0 0
          0 0 0 0 0 0
          0 0 0 0 0 0
          0 0 0 0 0 0
          0 0 0 0 0 0
          0 0 0 0 0 0
          0 0 0 0 0 0
          0 0 0 0 0 0
          0 0 0 0 0 0
          0 0 0 0 0 0
          0 0 0 0 0 0
          0 0 0 0 0 0
          0 0 0 0 0 0
          0 0 0 0 0 0
          0 0 0 0 0 0
          0 0 0 0 0 0
          0 0 0 0 0 0
          0 0 0 0 0 0
          0 0 0 0 0 0
          0 0 0 0 0 0
          0 0 0 0 0 0
          0 0 0 0 0 0
          0 0 0 0 0 0
          0 0 0 0 0 0
          0 0 0 0 0 0
          0 0 0 0 0 0
          0 0 0 0 0 0
          0 0 0 0 0 0
          0 0 0 0 0 0
          0 0 0 0 0 0
          0 0 0 0 0 0
          0 0 0 0 0 0
          0 0 0 0 0 0
          0 0 0 0 0
        </DataArray>
        <DataArray type="Float64" Name="gradient_error" format="ascii" RangeMin="6.6999447263756805e-9" RangeMax="0.000001582011173188581">
          3.3791714242657996e-8 2.5259955316728457e-8 8.967067574300276e-8 1.0575187249588626e-7 1.5757675406078296e-8 1.4197410023093486e-8
          1.4773365462505092e-7 1.728952179783289e-7 9.40100070362853e-7 5.705399211056385e-7 3.603770020959795e-7 4.6360726424080075e-7
          2.460474406374381e-7 3.3409587414606535e-7 1.4887589306562538e-7 1.764332765777626e-7 9.476344469002185e-8 5.1699426115042554e-8
          9.016711533597378e-7 3.4924032280331776e-7 3.250606411331313e-7 6.133601814363061e-7 2.1227596736550202e-7 1.8196919562408712e-8
          2.7651671214214893e-8 1.5550232034336232e-8 1.5717714779596793e-8 1.7771121313306848e-7 3.1896838876022687e-7 4.105821234757247e-7
          7.486010529460703e-7 9.0578072563965e-7 6.974174653042291e-7 7.04840209177901e-7 3.255402239861335e-7 3.063879832640248e-7
          3.924266352346929e-7 8.763781619179775e-7 8.9302920098233e-7 7.439234978570276e-7 1.4851217688485464e-7 3.26711386724336e-8
          3.775657297570234e-8 4.0996409906293536e-8 3.339033101365947e-7 3.206843079383436e-7 2.5495293412243903e-7 2.6633483730002876e-7
          2.9513566974773704e-8 2.9325036616377293e-7 2.2958761080692379e-7 4.284200727897109e-8 1.8922156030653436e-7 1.9876636446346288e-7
          1.659248554500746e-7 8.997226717872989e-7 1.1340324018842769e-8 9.750068239891501e-9 1.2499028624208805e-8 1.3030803741690756e-7
          8.302976315889775e-8 5.1741448553370446e-8 8.613003434387766e-8 8.159812460940237e-9 2.0453133947843133e-8 4.195203127084776e-8
          8.803505131539106e-7 0.0000011206302527468994 8.750238181225872e-7 3.9728833880536177e-7 5.993961474339254e-7 4.476438963979518e-7
          6.487125318271642e-7 5.506826883241921e-7 5.26112933936914e-7 6.723112844917625e-7 6.203794102778306e-7 5.775878435048304e-7
          5.289895416268838e-7 2.7843577773637236e-7 4.4883366694482755e-7 5.267352602880513e-7 3.630185143918167e-7 3.0803900862683445e-7
          4.887244767460181e-7 6.241426237284782e-7 6.939805616048173e-7 4.946619073296608e-7 4.6796811283371876e-7 4.53296400016086e-7
          6.23107146160541e-7 2.725168000988478e-7 1.7634625448728668e-7 1.8609858143352048e-7 2.3271330536834585e-7 2.44227462101111e-7
          1.5278732047146423e-7 2.0742524856657784e-7 4.0304356699814494e-8 3.2789831058281015e-8 3.5427015336796054e-8 2.5881364895952755e-8
          2.8908035624940505e-7 3.0235634276870144e-7 2.620631766616915e-7 2.5275305416747537e-8 1.6749322252890498e-8 3.277235421790109e-8
          4.2679935243849e-8 7.137175551020925e-8 8.747667405900481e-9 1.0107250828099423e-8 1.3086869726256732e-8 6.861054823480752e-8
          1.099711568025174e-7 1.1466834250298366e-8 2.262197310692845e-7 2.0841739736530386e-7 2.2697872840721827e-7 4.3472132740731084e-7
          4.392327173227716e-7 3.819231804060926e-7 3.8221318760826706e-7 1.849939409253096e-7 4.3767699204333196e-7 3.7594750283976415e-7
          1.9061506366132328e-7 3.2461364348941365e-7 3.297050478092233e-7 3.1421801363619634e-7 8.227721648799023e-7 7.500082362309106e-7
          6.920384191317901e-7 8.121680276098545e-7 5.972019403024267e-7 1.6992476675564988e-7 1.571323249388588e-7 4.27552019284063e-7
          3.623560046016622e-7 1.443398831220677e-7 2.9715998991926136e-7 9.97827431746495e-7 8.773964832101507e-7 6.444022030142908e-7
          7.435787736195679e-7 8.604495391544872e-7 9.052089352414897e-7 7.97770790540108e-7 0.000001006644426538899 0.0000010344968219482341
          7.406780848583462e-7 6.852076018024146e-7 7.993634135922111e-7 7.276004521254284e-7 8.65830361468039e-7 7.489123896259513e-7
          0.0000010115586534309782 8.148593709218046e-7 0.0000011916537769652322 0.000001191139207752546 8.597138620405985e-7 0.0000010728319622499501
          0.000001195065133349256 9.778144679179885e-7 3.073151910418024e-7 3.145143905268361e-7 3.596489963782957e-7 3.6318462871442423e-7
          2.9467970847307625e-7 3.499871913793066e-7 1.77513176340163e-7 1.879101543683907e-7 2.07916861284667e-7 1.6359677293176038e-7
          4.1198280171478893e-7 4.1185486690201237e-7 4.0529467428553694e-7 1.9830713239661837e-7 2.7531109674039685e-7 3.3227363788970134e-7
          1.3134665378553404e-7 1.3574419023806555e-7 3.8923617903900573e-7 1.4014172669059708e-7 1.3122264805030745e-8 2.029649269718719e-8
          2.6400916572454503e-7 2.003474660700414e-7 1.5710620017709668e-8 2.2709715099426323e-7 1.6564345205974263e-7 2.747072058934364e-8
          1.3668576641553783e-7 1.0418975312522198e-7 1.4840819165752968e-8 1.4607699212621705e-8 1.8041482788681263e-7 1.2584004213755411e-7
          1.4374579259490442e-8 7.12652563882956e-8 1.2375918233691298e-7 1.797516831647979e-7 9.193980176173315e-8 1.4685897607964415e-7
          2.5814501120762635e-8 1.9605688491462628e-8 1.7349574658550653e-8 2.3574418399268286e-7 2.0177815039755508e-7 1.339687586216262e-8
          6.005081470508326e-8 1.0837740520036299e-7 1.4155569480810933e-8 1.5967226744853254e-8 1.567039956956427e-7 1.777888400889558e-8
          3.881904656185193e-7 2.9359494423414903e-7 2.7062038183471246e-7 2.7836424781179475e-7 3.3947996840451446e-7 3.451164426047594e-7
          3.167800060938995e-7 3.098307820977056e-7 2.6146738338893896e-7 3.576304850273886e-7 3.295290748185364e-7 2.476458194352759e-7
          2.884435695830396e-7 2.801815957908967e-7 3.014276646096841e-7 4.1342580424811225e-7 4.010196074694388e-7 4.3582515756379e-7
          3.6711159389292315e-7 2.782083846745695e-7 2.6015668885951935e-7 3.72001754622865e-7 3.410767625857399e-7 2.594056347972405e-7
          3.868344594004636e-7 3.5225596071983175e-7 2.4210499304446916e-7 3.1015177054861474e-7 3.176774620392001e-7 4.849007022591081e-7
          4.700547688706968e-7 5.062336466740222e-7 4.2702807697532195e-7 3.394565841880582e-7 3.906963967309325e-7 3.690716057220815e-7
          4.2313336488681314e-7 4.0004506503977066e-7 4.348456831878651e-7 2.486995008552617e-7 3.4229320887607386e-7 3.7220718089418003e-7
          4.1404339910555827e-7 4.07287302990954e-7 4.644445636641963e-7 4.52937365716833e-7 5.12080638094342e-7 4.686956724093486e-7
          5.043125423614005e-7 3.1056832603485215e-7 4.1077642589895954e-7 4.5680026948306266e-7 4.859485033820944e-7 2.836834564972121e-7
          2.7630370532420017e-7 3.110568096869215e-7 3.047503299926348e-7 2.951630990575309e-7 3.2249012115328987e-7 2.4325895269718586e-7
          2.6395969856810844e-7 2.731343017308011e-7 2.524839999823943e-7 3.384301628766308e-7 3.331969546610694e-7 3.4981714324904887e-7
          2.846604444390311e-7 3.027047107945e-7 3.3266506662063324e-7 3.09034540269241e-7 3.423236496143164e-7 2.3474286162760483e-7
          2.4954061276000793e-7 2.4724612497768266e-7 3.626254224467665e-7 3.756127589593919e-7 2.6433836389241103e-7 2.7569799657707497e-7
          2.5644748272882576e-7 4.011843650069184e-7 3.6258561199585535e-7 2.5047929448118495e-7 4.1449309809560383e-7 3.7151848789174263e-7
          2.371969688805766e-7 3.2398685898479234e-7 3.2854387768788153e-7 5.722393480804972e-7 5.461168487886343e-7 5.901807286375626e-7
          4.800537153353572e-7 2.604737442958687e-7 2.408643398874209e-7 4.260213808602868e-7 3.783632998632578e-7 2.2125493547897313e-7
          3.307052188662287e-7 6.826498634550032e-7 6.387529563508892e-7 5.382745832557598e-7 5.069412205835837e-7 5.673547445706242e-7
          5.713423159638157e-7 6.319050951173996e-7 5.434438747661027e-7 5.865086157846587e-7 3.960744784429348e-7 5.111995328268647e-7
          5.760064142619744e-7 5.721955510736739e-7 6.489478261452468e-7 7.078190489824514e-7 6.337406949419162e-7 5.24164942805192e-7
          6.539944451022192e-7 6.80147266126935e-7 3.1398810736726055e-7 3.5087554285136457e-7 3.170072031320263e-7 3.577291907231444e-7
          2.278037677219927e-7 2.426316047281883e-7 2.3490902414795462e-7 3.877629783354686e-7 3.9845117831426247e-7 2.5745944173438393e-7
          3.1743753256452e-7 3.6214854407350717e-7 2.0976341385531096e-7 2.2350597008283825e-7 4.068595555824945e-7 2.3724852631036553e-7
          2.06265940495542e-8 1.8130949082381368e-8 1.895945038095219e-8 2.162991913514146e-8 1.3459779345483118e-8 1.3762563191690241e-8
          5.7925309130214805e-8 9.678354417217943e-9 9.563602573649203e-9 3.261904662716012e-8 6.771294376518631e-9 6.6999447263756805e-9
          7.939264336454214e-9 1.774996618712898e-8 1.978795167952301e-8 2.263324422072872e-8 1.4065347037897364e-8 9.590008019065645e-8
          6.128733866584208e-7 5.310076289126745e-8 2.786773581700478e-8 1.8773993237301772e-7 2.777749909627435e-8 2.2147997744740997e-7
          6.593664632536997e-7 2.1615953130951205e-7 0.0000014210059858362066 0.0000014389679478512452 0.000001170022694319643 0.0000011637116303005711
          7.048476779502803e-7 7.10404501250553e-9 4.559182276972961e-8 2.8062073502244212e-8 1.0532324234758813e-8 1.097100348192117e-7
          0.0000013094905116064594 0.000001582011173188581 0.0000011433239670263338 0.0000012976964255009424 8.73711076491925e-7 0.0000013971769737942962
          0.0000011384122095516282 0.000001381769495759412 1.3128585846996844e-8 2.605326520283298e-8 7.843025198995549e-9 8.879966051617035e-8
          3.897794455866912e-8 7.74292950301734e-9 1.26380556268541e-7 4.0557858665189664e-7 3.3872788118829543e-7 2.718771757246943e-7
          0.0000010981760662507249 9.432072623561122e-7 0.0000014298682508721349 0.0000013825562796129186 9.186327026322978e-7 0.0000013388940056559425
          0.0000014297732406216624 0.0000010672359317383164 2.4778389529899046e-7 3.0419338497631275e-7 1.0636567304173217e-7 3.6060287465363514e-7
          3.821537326450226e-7 3.8130029674164126e-7 2.9294608951941637e-7 3.161497755735967e-7 3.6518954895318005e-7 3.382829132121697e-7
          3.8044686083825984e-7 3.8827500097333175e-7 3.8361973690492303e-7 2.223051478769206e-7 3.187420576703893e-7
        </DataArray>
        <DataArray type="Float64" Name="gradient_matprop_error" format="ascii" RangeMin="0" RangeMax="0">
          0 0 0 0 0 0
          0 0 0 0 0 0
          0 0 0 0 0 0
          0 0 0 0 0 0
          0 0 0 0 0 0
          0 0 0 0 0 0
          0 0 0 0 0 0
          0 0 0 0 0 0
          0 0 0 0 0 0
          0 0 0 0 0 0
          0 0 0 0 0 0
          0 0 0 0 0 0
          0 0 0 0 0 0
          0 0 0 0 0 0
          0 0 0 0 0 0
          0 0 0 0 0 0
          0 0 0 0 0 0
          0 0 0 0 0 0
          0 0 0 0 0 0
          0 0 0 0 0 0
          0 0 0 0 0 0
          0 0 0 0 0 0
          0 0 0 0 0 0
          0 0 0 0 0 0
          0 0 0 0 0 0
          0 0 0 0 0 0
          0 0 0 0 0 0
          0 0 0 0 0 0
          0 0 0 0 0 0
          0 0 0 0 0 0
          0 0 0 0 0 0
          0 0 0 0 0 0
          0 0 0 0 0 0
          0 0 0 0 0 0
          0 0 0 0 0 0
          0 0 0 0 0 0
          0 0 0 0 0 0
          0 0 0 0 0 0
          0 0 0 0 0 0
          0 0 0 0 0 0
          0 0 0 0 0 0
          0 0 0 0 0 0
          0 0 0 0 0 0
          0 0 0 0 0 0
          0 0 0 0 0 0
          0 0 0 0 0 0
          0 0 0 0 0 0
          0 0 0 0 0 0
          0 0 0 0 0 0
          0 0 0 0 0 0
          0 0 0 0 0 0
          0 0 0 0 0 0
          0 0 0 0 0 0
          0 0 0 0 0 0
          0 0 0 0 0 0
          0 0 0 0 0 0
          0 0 0 0 0 0
          0 0 0 0 0 0
          0 0 0 0 0 0
          0 0 0 0 0 0
          0 0 0 0 0 0
          0 0 0 0 0 0
          0 0 0 0 0 0
          0 0 0 0 0 0
          0 0 0 0 0 0
          0 0 0 0 0 0
          0 0 0 0 0 0
          0 0 0 0 0 0
          0 0 0 0 0 0
          0 0 0 0 0 0
          0 0 0 0 0
        </DataArray>
        <DataArray type="Float64" Name="initial_marker" format="ascii" RangeMin="0" RangeMax="0">
          0 0 0 0 0 0
          0 0 0 0 0 0
          0 0 0 0 0 0
          0 0 0 0 0 0
          0 0 0 0 0 0
          0 0 0 0 0 0
          0 0 0 0 0 0
          0 0 0 0 0 0
          0 0 0 0 0 0
          0 0 0 0 0 0
          0 0 0 0 0 0
          0 0 0 0 0 0
          0 0 0 0 0 0
          0 0 0 0 0 0
          0 0 0 0 0 0
          0 0 0 0 0 0
          0 0 0 0 0 0
          0 0 0 0 0 0
          0 0 0 0 0 0
          0 0 0 0 0 0
          0 0 0 0 0 0
          0 0 0 0 0 0
          0 0 0 0 0 0
          0 0 0 0 0 0
          0 0 0 0 0 0
          0 0 0 0 0 0
          0 0 0 0 0 0
          0 0 0 0 0 0
          0 0 0 0 0 0
          0 0 0 0 0 0
          0 0 0 0 0 0
          0 0 0 0 0 0
          0 0 0 0 0 0
          0 0 0 0 0 0
          0 0 0 0 0 0
          0 0 0 0 0 0
          0 0 0 0 0 0
          0 0 0 0 0 0
          0 0 0 0 0 0
          0 0 0 0 0 0
          0 0 0 0 0 0
          0 0 0 0 0 0
          0 0 0 0 0 0
          0 0 0 0 0 0
          0 0 0 0 0 0
          0 0 0 0 0 0
          0 0 0 0 0 0
          0 0 0 0 0 0
          0 0 0 0 0 0
          0 0 0 0 0 0
          0 0 0 0 0 0
          0 0 0 0 0 0
          0 0 0 0 0 0
          0 0 0 0 0 0
          0 0 0 0 0 0
          0 0 0 0 0 0
          0 0 0 0 0 0
          0 0 0 0 0 0
          0 0 0 0 0 0
          0 0 0 0 0 0
          0 0 0 0 0 0
          0 0 0 0 0 0
          0 0 0 0 0 0
          0 0 0 0 0 0
          0 0 0 0 0 0
          0 0 0 0 0 0
          0 0 0 0 0 0
          0 0 0 0 0 0
          0 0 0 0 0 0
          0 0 0 0 0 0
          0 0 0 0 0
        </DataArray>
        <DataArray type="Float64" Name="markers_norefine" format="ascii" RangeMin="0" RangeMax="0">
          0 0 0 0 0 0
          0 0 0 0 0 0
          0 0 0 0 0 0
          0 0 0 0 0 0
          0 0 0 0 0 0
          0 0 0 0 0 0
          0 0 0 0 0 0
          0 0 0 0 0 0
          0 0 0 0 0 0
          0 0 0 0 0 0
          0 0 0 0 0 0
          0 0 0 0 0 0
          0 0 0 0 0 0
          0 0 0 0 0 0
          0 0 0 0 0 0
          0 0 0 0 0 0
          0 0 0 0 0 0
          0 0 0 0 0 0
          0 0 0 0 0 0
          0 0 0 0 0 0
          0 0 0 0 0 0
          0 0 0 0 0 0
          0 0 0 0 0 0
          0 0 0 0 0 0
          0 0 0 0 0 0
          0 0 0 0 0 0
          0 0 0 0 0 0
          0 0 0 0 0 0
          0 0 0 0 0 0
          0 0 0 0 0 0
          0 0 0 0 0 0
          0 0 0 0 0 0
          0 0 0 0 0 0
          0 0 0 0 0 0
          0 0 0 0 0 0
          0 0 0 0 0 0
          0 0 0 0 0 0
          0 0 0 0 0 0
          0 0 0 0 0 0
          0 0 0 0 0 0
          0 0 0 0 0 0
          0 0 0 0 0 0
          0 0 0 0 0 0
          0 0 0 0 0 0
          0 0 0 0 0 0
          0 0 0 0 0 0
          0 0 0 0 0 0
          0 0 0 0 0 0
          0 0 0 0 0 0
          0 0 0 0 0 0
          0 0 0 0 0 0
          0 0 0 0 0 0
          0 0 0 0 0 0
          0 0 0 0 0 0
          0 0 0 0 0 0
          0 0 0 0 0 0
          0 0 0 0 0 0
          0 0 0 0 0 0
          0 0 0 0 0 0
          0 0 0 0 0 0
          0 0 0 0 0 0
          0 0 0 0 0 0
          0 0 0 0 0 0
          0 0 0 0 0 0
          0 0 0 0 0 0
          0 0 0 0 0 0
          0 0 0 0 0 0
          0 0 0 0 0 0
          0 0 0 0 0 0
          0 0 0 0 0 0
          0 0 0 0 0
        </DataArray>
        <DataArray type="Float64" Name="markers_mustrefine" format="ascii" RangeMin="0" RangeMax="0">
          0 0 0 0 0 0
          0 0 0 0 0 0
          0 0 0 0 0 0
          0 0 0 0 0 0
          0 0 0 0 0 0
          0 0 0 0 0 0
          0 0 0 0 0 0
          0 0 0 0 0 0
          0 0 0 0 0 0
          0 0 0 0 0 0
          0 0 0 0 0 0
          0 0 0 0 0 0
          0 0 0 0 0 0
          0 0 0 0 0 0
          0 0 0 0 0 0
          0 0 0 0 0 0
          0 0 0 0 0 0
          0 0 0 0 0 0
          0 0 0 0 0 0
          0 0 0 0 0 0
          0 0 0 0 0 0
          0 0 0 0 0 0
          0 0 0 0 0 0
          0 0 0 0 0 0
          0 0 0 0 0 0
          0 0 0 0 0 0
          0 0 0 0 0 0
          0 0 0 0 0 0
          0 0 0 0 0 0
          0 0 0 0 0 0
          0 0 0 0 0 0
          0 0 0 0 0 0
          0 0 0 0 0 0
          0 0 0 0 0 0
          0 0 0 0 0 0
          0 0 0 0 0 0
          0 0 0 0 0 0
          0 0 0 0 0 0
          0 0 0 0 0 0
          0 0 0 0 0 0
          0 0 0 0 0 0
          0 0 0 0 0 0
          0 0 0 0 0 0
          0 0 0 0 0 0
          0 0 0 0 0 0
          0 0 0 0 0 0
          0 0 0 0 0 0
          0 0 0 0 0 0
          0 0 0 0 0 0
          0 0 0 0 0 0
          0 0 0 0 0 0
          0 0 0 0 0 0
          0 0 0 0 0 0
          0 0 0 0 0 0
          0 0 0 0 0 0
          0 0 0 0 0 0
          0 0 0 0 0 0
          0 0 0 0 0 0
          0 0 0 0 0 0
          0 0 0 0 0 0
          0 0 0 0 0 0
          0 0 0 0 0 0
          0 0 0 0 0 0
          0 0 0 0 0 0
          0 0 0 0 0 0
          0 0 0 0 0 0
          0 0 0 0 0 0
          0 0 0 0 0 0
          0 0 0 0 0 0
          0 0 0 0 0 0
          0 0 0 0 0
        </DataArray>
        <DataArray type="Float64" Name="gradient_marker" format="ascii" RangeMin="1" RangeMax="1">
          1 1 1 1 1 1
          1 1 1 1 1 1
          1 1 1 1 1 1
          1 1 1 1 1 1
          1 1 1 1 1 1
          1 1 1 1 1 1
          1 1 1 1 1 1
          1 1 1 1 1 1
          1 1 1 1 1 1
          1 1 1 1 1 1
          1 1 1 1 1 1
          1 1 1 1 1 1
          1 1 1 1 1 1
          1 1 1 1 1 1
          1 1 1 1 1 1
          1 1 1 1 1 1
          1 1 1 1 1 1
          1 1 1 1 1 1
          1 1 1 1 1 1
          1 1 1 1 1 1
          1 1 1 1 1 1
          1 1 1 1 1 1
          1 1 1 1 1 1
          1 1 1 1 1 1
          1 1 1 1 1 1
          1 1 1 1 1 1
          1 1 1 1 1 1
          1 1 1 1 1 1
          1 1 1 1 1 1
          1 1 1 1 1 1
          1 1 1 1 1 1
          1 1 1 1 1 1
          1 1 1 1 1 1
          1 1 1 1 1 1
          1 1 1 1 1 1
          1 1 1 1 1 1
          1 1 1 1 1 1
          1 1 1 1 1 1
          1 1 1 1 1 1
          1 1 1 1 1 1
          1 1 1 1 1 1
          1 1 1 1 1 1
          1 1 1 1 1 1
          1 1 1 1 1 1
          1 1 1 1 1 1
          1 1 1 1 1 1
          1 1 1 1 1 1
          1 1 1 1 1 1
          1 1 1 1 1 1
          1 1 1 1 1 1
          1 1 1 1 1 1
          1 1 1 1 1 1
          1 1 1 1 1 1
          1 1 1 1 1 1
          1 1 1 1 1 1
          1 1 1 1 1 1
          1 1 1 1 1 1
          1 1 1 1 1 1
          1 1 1 1 1 1
          1 1 1 1 1 1
          1 1 1 1 1 1
          1 1 1 1 1 1
          1 1 1 1 1 1
          1 1 1 1 1 1
          1 1 1 1 1 1
          1 1 1 1 1 1
          1 1 1 1 1 1
          1 1 1 1 1 1
          1 1 1 1 1 1
          1 1 1 1 1 1
          1 1 1 1 1
        </DataArray>
        <DataArray type="Float64" Name="gradient_matprop_marker" format="ascii" RangeMin="0" RangeMax="0">
          0 0 0 0 0 0
          0 0 0 0 0 0
          0 0 0 0 0 0
          0 0 0 0 0 0
          0 0 0 0 0 0
          0 0 0 0 0 0
          0 0 0 0 0 0
          0 0 0 0 0 0
          0 0 0 0 0 0
          0 0 0 0 0 0
          0 0 0 0 0 0
          0 0 0 0 0 0
          0 0 0 0 0 0
          0 0 0 0 0 0
          0 0 0 0 0 0
          0 0 0 0 0 0
          0 0 0 0 0 0
          0 0 0 0 0 0
          0 0 0 0 0 0
          0 0 0 0 0 0
          0 0 0 0 0 0
          0 0 0 0 0 0
          0 0 0 0 0 0
          0 0 0 0 0 0
          0 0 0 0 0 0
          0 0 0 0 0 0
          0 0 0 0 0 0
          0 0 0 0 0 0
          0 0 0 0 0 0
          0 0 0 0 0 0
          0 0 0 0 0 0
          0 0 0 0 0 0
          0 0 0 0 0 0
          0 0 0 0 0 0
          0 0 0 0 0 0
          0 0 0 0 0 0
          0 0 0 0 0 0
          0 0 0 0 0 0
          0 0 0 0 0 0
          0 0 0 0 0 0
          0 0 0 0 0 0
          0 0 0 0 0 0
          0 0 0 0 0 0
          0 0 0 0 0 0
          0 0 0 0 0 0
          0 0 0 0 0 0
          0 0 0 0 0 0
          0 0 0 0 0 0
          0 0 0 0 0 0
          0 0 0 0 0 0
          0 0 0 0 0 0
          0 0 0 0 0 0
          0 0 0 0 0 0
          0 0 0 0 0 0
          0 0 0 0 0 0
          0 0 0 0 0 0
          0 0 0 0 0 0
          0 0 0 0 0 0
          0 0 0 0 0 0
          0 0 0 0 0 0
          0 0 0 0 0 0
          0 0 0 0 0 0
          0 0 0 0 0 0
          0 0 0 0 0 0
          0 0 0 0 0 0
          0 0 0 0 0 0
          0 0 0 0 0 0
          0 0 0 0 0 0
          0 0 0 0 0 0
          0 0 0 0 0 0
          0 0 0 0 0
        </DataArray>
        <DataArray type="Float64" Name="combo" format="ascii" RangeMin="1" RangeMax="1">
          1 1 1 1 1 1
          1 1 1 1 1 1
          1 1 1 1 1 1
          1 1 1 1 1 1
          1 1 1 1 1 1
          1 1 1 1 1 1
          1 1 1 1 1 1
          1 1 1 1 1 1
          1 1 1 1 1 1
          1 1 1 1 1 1
          1 1 1 1 1 1
          1 1 1 1 1 1
          1 1 1 1 1 1
          1 1 1 1 1 1
          1 1 1 1 1 1
          1 1 1 1 1 1
          1 1 1 1 1 1
          1 1 1 1 1 1
          1 1 1 1 1 1
          1 1 1 1 1 1
          1 1 1 1 1 1
          1 1 1 1 1 1
          1 1 1 1 1 1
          1 1 1 1 1 1
          1 1 1 1 1 1
          1 1 1 1 1 1
          1 1 1 1 1 1
          1 1 1 1 1 1
          1 1 1 1 1 1
          1 1 1 1 1 1
          1 1 1 1 1 1
          1 1 1 1 1 1
          1 1 1 1 1 1
          1 1 1 1 1 1
          1 1 1 1 1 1
          1 1 1 1 1 1
          1 1 1 1 1 1
          1 1 1 1 1 1
          1 1 1 1 1 1
          1 1 1 1 1 1
          1 1 1 1 1 1
          1 1 1 1 1 1
          1 1 1 1 1 1
          1 1 1 1 1 1
          1 1 1 1 1 1
          1 1 1 1 1 1
          1 1 1 1 1 1
          1 1 1 1 1 1
          1 1 1 1 1 1
          1 1 1 1 1 1
          1 1 1 1 1 1
          1 1 1 1 1 1
          1 1 1 1 1 1
          1 1 1 1 1 1
          1 1 1 1 1 1
          1 1 1 1 1 1
          1 1 1 1 1 1
          1 1 1 1 1 1
          1 1 1 1 1 1
          1 1 1 1 1 1
          1 1 1 1 1 1
          1 1 1 1 1 1
          1 1 1 1 1 1
          1 1 1 1 1 1
          1 1 1 1 1 1
          1 1 1 1 1 1
          1 1 1 1 1 1
          1 1 1 1 1 1
          1 1 1 1 1 1
          1 1 1 1 1 1
          1 1 1 1 1
        </DataArray>
        <DataArray type="Float64" Name="dHdT" format="ascii" RangeMin="25.811186746237937" RangeMax="33.73088210259493">
          25.818224984282665 25.816033277413187 25.817449982846547 25.81840173311628 25.81271115889286 25.812694628572828
          25.818258753704693 25.81895293085607 26.352487822838405 25.976413139392356 26.198256713748442 25.935411749962704
          26.076695144438666 25.892457504869224 25.82025607290789 25.82178574792464 25.817748633103953 25.816428101853614
          26.324872087945906 29.610499597495135 26.16430867698954 30.865854623516718 26.04307931974629 25.81648871220837
          25.819696252267562 25.812058257380826 25.812824184972463 26.004419064023796 25.942149096857452 25.989990584339605
          28.22782546760994 28.336913895574725 26.853149670166562 26.936255562524792 25.889697353445595 25.932037644623772
          25.97828348560377 31.961765841625613 28.226283782957044 28.143922572018703 25.973668179666277 25.82268580189031
          25.822506123645542 25.823477341308177 25.926939366765254 25.921259721885733 25.89556329584438 25.900025718762528
          25.81982322930846 25.908209817117214 25.885104937578607 25.822326445400773 25.869866869803023 25.873112070759795
          25.862000058039996 26.204146499471772 25.812812402890682 25.814238223411405 25.813617899713154 25.843686519890763
          25.831334744707725 25.826016992937024 25.834893838845474 25.815664043932124 25.82069924116633 25.826101157800185
          27.661831049879503 26.95459424746827 26.19027238469463 26.243414613772842 26.117983412711688 27.890072052756913
          27.009897793646807 26.079002191525205 28.000709348771743 27.003405761321634 26.001848162364883 26.10414547964492
          26.065478386519278 29.208124894781246 27.849809357412198 27.949392776130633 26.21082230025617 26.142329802691997
          26.03605485996752 28.11437466688946 26.982166475003194 25.945711142522274 26.02322435735978 30.134507136731983
          28.050554266040255 26.107573110841827 25.863606483027045 25.866610502868184 25.886291303181565 25.890435131462347
          25.85635919474618 25.876645614042673 25.818318097059553 25.818594504164725 25.819229917573956 25.816862115762028
          25.90897612333608 25.91425976005651 25.896932033339166 25.818870911269897 25.81884127042333 25.823578109762522
          25.82321755566708 25.830912209128357 25.815581414725614 25.814770581426117 25.81407571200085 25.827593840910833
          25.838246308494192 25.813959748126614 26.22037508553673 26.16963972442769 26.22068496887437 26.794084086229553
          26.742419664528704 26.599067518449363 26.651346921328603 26.11536470410606 26.67975346233477 26.53766122610152
          26.11890436331865 26.455715372370022 26.508609756427656 26.395568989868273 28.283959529528882 27.841213121290394
          27.825461266950512 27.848490766660298 27.182064691755286 26.094591022167855 26.059025354016335 26.601958909927667
          26.46434939514155 26.023459685864815 26.326739880355426 28.382954063052345 27.843025757732562 27.0626383003229
          30.00548618403143 30.32563471440804 29.467583638052353 29.26889806578437 30.717533874814176 29.700051206353383
          27.782358397742037 27.773873752951296 27.78113003442948 31.347814613279 30.28123634599496 29.96888247145055
          30.663078627483152 28.187882948561835 31.215271695606134 29.981558650561098 27.765979750979337 32.773962062795064