<?xml version="1.0"?>
<VTKFile type="UnstructuredGrid" version="0.1" byte_order="LittleEndian" header_type="UInt32" compressor="vtkZLibDataCompressor">
  <UnstructuredGrid>
    <Piece NumberOfPoints="432" NumberOfCells="222">
      <PointData>
        <DataArray type="Int32" Name="libmesh_node_id" format="ascii" RangeMin="211" RangeMax="3247">
          219 261 264 267 509 511
          531 552 553 554 555 556
          558 559 568 571 573 608
          612 760 761 762 763 764
          765 766 767 768 771 772
          898 899 900 1002 1036 1040
          1041 1042 1043 1044 1045 1046
          1084 1099 1100 1101 1102 1103
          1104 1105 1106 1107 1108 1187
          1188 1189 1190 1191 1193 1221
          1223 1225 1227 1303 1304 1305
          1306 1307 1308 1309 1310 1312
          1317 1323 1325 1327 1329 1430
          1431 1433 1437 1517 1518 1519
          1520 1521 1522 1523 1524 1525
          1526 1527 1529 1531 1532 1533
          1901 1983 1984 1985 1986 1987
          1988 1989 1990 1991 1992 1993
          1994 1995 1996 1997 1998 1999
          2000 2001 2002 2003 2004 2005
          2006 2007 2008 2009 2010 2011
          2012 2013 2014 2015 2016 2017
          2018 2019 2020 2021 2022 2025
          2026 2028 2030 2041 2043 2045
          2047 2055 2056 2059 2060 2062
          2064 2379 2380 2381 2382 2384
          2385 2386 2388 2389 2390 2391
          2392 2393 2394 2395 2396 2397
          2398 2399 2400 2401 2402 2404
          2405 2406 2408 2409 2410 2411
          2412 2413 2414 2415 2416 2418
          2421 2425 2433 2435 2437 2439
          2449 2461 2463 2611 2612 2613
          2614 2616 2618 2620 2621 2622
          2623 2624 2626 2628 2630 2631
          2632 2633 2634 2636 2638 2640
          2641 2642 2643 2644 2646 2648
          2650 3204 3205 3206 3207 3208
          3209 3210 3211 3212 3213 3214
          3215 3217 3218 3219 3220 3221
          3222 3223 3224 3228 3229 3230
          3231 3233 3235 3237 3238 3239
          3240 3241 3243 3245 3247 390
          393 396 395 256 259 211
          262 411 407 263 412 409
          268 419 417 276 421 277
          422 282 428 515 550 530
          551 540 541 545 535 557
          548 609 613 610 611 614
          615 617 754 497 510 755
          759 258 567 270 769 569
          770 773 901 902 903 999
          1000 1001 1003 1004 1005 1033
          1034 1035 1037 1038 1039 1109
          1113 1110 1114 1311 1118 1313
          1196 1314 1318 1315 1316 1319
          1320 1322 1324 1326 1328 1435
          1438 1060 1073 1440 563 1078
          1444 1528 1115 1530 1933 1877
          1934 2023 1935 2024 2027 1938
          1093 2029 1971 1972 2042 2044
          1975 1098 2046 1116 2057 2058
          2061 2063 2383 2387 2403 2407
          1192 2417 592 2275 2333 2419
          2334 2420 2422 2423 2424 1194
          2434 2436 2438 2447 2448 2450
          2451 2453 2452 1198 2462 2464
          2465 2466 2467 1200 2615 2617
          2619 1222 2625 2627 2629 1224
          2635 2637 2639 1226 2645 2647
          2649 597 3216 3225 3226 3227
          3232 3234 3236 3242 3244 3246
        </DataArray>
        <DataArray type="Float64" Name="bounds" format="ascii" RangeMin="0" RangeMax="0">
          0 0 0 0 0 0
          0 0 0 0 0 0
          0 0 0 0 0 0
          0 0 0 0 0 0
          0 0 0 0 0 0
          0 0 0 0 0 0
          0 0 0 0 0 0
          0 0 0 0 0 0
          0 0 0 0 0 0
          0 0 0 0 0 0
          0 0 0 0 0 0
          0 0 0 0 0 0
          0 0 0 0 0 0
          0 0 0 0 0 0
          0 0 0 0 0 0
          0 0 0 0 0 0
          0 0 0 0 0 0
          0 0 0 0 0 0
          0 0 0 0 0 0
          0 0 0 0 0 0
          0 0 0 0 0 0
          0 0 0 0 0 0
          0 0 0 0 0 0
          0 0 0 0 0 0
          0 0 0 0 0 0
          0 0 0 0 0 0
          0 0 0 0 0 0
          0 0 0 0 0 0
          0 0 0 0 0 0
          0 0 0 0 0 0
          0 0 0 0 0 0
          0 0 0 0 0 0
          0 0 0 0 0 0
          0 0 0 0 0 0
          0 0 0 0 0 0
          0 0 0 0 0 0
          0 0 0 0 0 0
          0 0 0 0 0 0
          0 0 0 0 0 0
          0 0 0 0 0 0
          0 0 0 0 0 0
          0 0 0 0 0 0
          0 0 0 0 0 0
          0 0 0 0 0 0
          0 0 0 0 0 0
          0 0 0 0 0 0
          0 0 0 0 0 0
          0 0 0 0 0 0
          0 0 0 0 0 0
          0 0 0 0 0 0
          0 0 0 0 0 0
          0 0 0 0 0 0
          0 0 0 0 0 0
          0 0 0 0 0 0
          0 0 0 0 0 0
          0 0 0 0 0 0
          0 0 0 0 0 0
          0 0 0 0 0 0
          0 0 0 0 0 0
          0 0 0 0 0 0
          0 0 0 0 0 0
          0 0 0 0 0 0
          0 0 0 0 0 0
          0 0 0 0 0 0
          0 0 0 0 0 0
          0 0 0 0 0 0
          0 0 0 0 0 0
          0 0 0 0 0 0
          0 0 0 0 0 0
          0 0 0 0 0 0
          0 0 0 0 0 0
          0 0 0 0 0 0
        </DataArray>
        <DataArray type="Float64" Name="gradient_error" format="ascii" RangeMin="6.355915330743614e-10" RangeMax="2.872995225123508e-7">
          5.948621014783295e-8 1.0131312548341685e-7 4.102217589609671e-8 1.534362849220259e-7 6.88764960530556e-8 7.111979677151426e-8
          1.2474405776555904e-7 6.228386225342733e-8 1.0287037824362863e-7 5.19360979734151e-8 7.569421187810922e-8 4.6762630827039556e-8
          1.2112210084025362e-7 8.541880579306195e-8 7.282724920047905e-9 6.627338976050491e-9 6.096188803073191e-9 1.0405327197174961e-8
          1.6105625793490223e-8 3.108053445148146e-8 5.7384993780712857e-8 1.9044003841875237e-8 2.941617916966717e-8 1.705558191293099e-8
          2.747907994830235e-8 1.6433901976285968e-8 9.312632843323246e-9 8.069755370709596e-9 5.007465496322707e-9 8.148161059262878e-9
          1.5442861748113614e-8 2.931080772486194e-8 1.7470909671619732e-8 5.0127783151555626e-8 8.298498545622745e-8 1.5199861761612436e-8
          2.2897906566643718e-8 1.796102778907421e-8 2.9755736138170642e-8 3.512324357314904e-8 2.8753471416779724e-8 3.7641027714107555e-8
          2.9211819228774416e-9 1.0712427546084802e-8 1.7062663099551594e-8 4.485444564791344e-9 3.3696569700725124e-9 9.009029101789834e-9
          1.2210527594451459e-8 5.233281869551027e-9 2.738482584478642e-8 3.55886580855385e-9 1.8007157330008967e-8 4.5635273916303714e-8
          6.503421190039876e-9 2.4896389138349152e-8 5.531415357921414e-9 6.731544085071706e-8 3.166139669736026e-8 8.557669854460292e-8
          3.836239752617881e-8 9.270035686032766e-8 4.1086139281367665e-8 1.241015868864364e-8 1.613044818800234e-8 7.446855577752555e-9
          7.074697858293728e-9 8.940775995878346e-9 1.3555539153998664e-8 6.928944015963999e-9 1.883732787844116e-8 1.8146668460740783e-8
          2.5795096384278787e-9 2.2322274063510852e-8 2.171676291260208e-8 2.3880457506255578e-8 2.3218415485589146e-8 6.5619668031608594e-9
          5.399158615563138e-9 5.381714299091322e-9 4.4061745182725216e-9 7.506861254826311e-9 9.508392244457258e-9 7.3911097328516336e-9
          5.907548338210584e-9 7.652919143551458e-9 3.285011333126865e-9 4.479775413723615e-9 4.451599696754709e-9 5.650149981190311e-9
          3.031119779294378e-9 1.7783574125351662e-9 1.29492758041146e-9 1.3254213089126624e-9 1.7096135865972146e-9 1.2661778441346616e-9
          4.4599328789243884e-9 2.0304672480562553e-9 2.363328572601062e-9 2.083427920128821e-9 3.5173949946859005e-9 1.7126730724713076e-9
          2.052852943656632e-9 1.1878168432574328e-9 1.4956938516738465e-9 1.5461112477120992e-9 1.8194545824222426e-9 1.3163781805606582e-9
          3.0622391719123835e-9 2.2778154578406693e-9 2.57803011417992e-9 5.0000595551148036e-9 3.803786277741591e-9 6.991506692928694e-9
          4.424939607794568e-9 3.409037792165381e-9 3.3359159444563718e-9 2.510116164147038e-9 6.255973191151297e-9 4.9414821541622025e-9
          4.623677525357139e-9 2.41369174150932e-9 2.7981179181513164e-9 2.3946918147946856e-9 3.77677758128863e-9 2.079913642730348e-9
          2.434058987406009e-9 1.4879288893800958e-9 1.7847099478526184e-9 1.7798707379509425e-9 2.059005385587072e-9 1.4705207438263801e-9
          3.3062357959038296e-9 2.476388763161297e-9 2.7749254582840685e-9 8.65472838914732e-10 1.0963490073492664e-9 7.825904939120246e-10
          9.532803033596298e-10 1.7079905955501724e-9 1.3902231393902168e-9 2.6172792470508964e-9 1.886861839228613e-9 3.877121724734525e-9
          2.7315428563180663e-9 1.0859602108941133e-9 1.317218961081229e-9 9.147152779561927e-10 1.0771725188920976e-9 1.8595008541084563e-9
          1.4853658565934427e-9 9.4831526248428e-9 6.9660529147088144e-9 1.2324637898543561e-8 8.578898186910118e-9 6.221730501245933e-9
          4.894605003530933e-9 1.1309137966806729e-8 8.0829605643977e-9 4.934872401336416e-9 4.2411591043989705e-9 6.2412679146285895e-9
          4.368725017245336e-9 3.3459839238520806e-9 3.662884297456514e-9 2.6820479349027007e-9 5.589875895586694e-9 4.382709867518559e-9
          4.17375017170729e-9 1.562178998101493e-8 1.1236681088274152e-8 1.8938994904274712e-8 1.4434241284495556e-8 1.0197906797732201e-8
          8.309154263540942e-9 1.7653602496092463e-8 1.2325719321519706e-8 7.733389134125059e-9 5.340206846994737e-9 9.10868474287142e-9
          6.956264961288868e-9 5.528986066936579e-9 4.690899962901242e-9 3.5625616082047994e-9 8.274171381025086e-9 5.587016834865047e-9
          3.8246547865142275e-9 5.1648158649907455e-9 2.551171552264696e-9 2.0174486846384e-9 3.393704623158584e-9 2.3727176999883894e-9
          6.697115207793916e-9 4.34846251332997e-9 2.7162991251125813e-9 2.2510008811533416e-8 1.5748495571297225e-8 2.5431396710536055e-8
          2.096314109568326e-8 1.4404731753572578e-8 2.3753044340776577e-8 1.6121668961490836e-8 1.0372566656083786e-8 7.1999494228974566e-9
          1.1372011848482073e-8 9.493263224779514e-9 6.373201650650923e-9 1.0470486324300457e-8 6.998014867053713e-9 2.7340687300120352e-8
          1.884875039721499e-8 2.8199724040460635e-8 2.5620003083083733e-8 1.7255288130475414e-8 2.6367484997297528e-8 1.7702447296730543e-8
          1.2005949977864097e-8 8.313941701119695e-9 1.22786162590706e-8 1.1102037214479609e-8 7.397796794366924e-9 1.1347246374036185e-8
          7.550137010223769e-9 3.104704752842729e-9 3.471944558761363e-9 3.015289359927852e-9 4.097811574599149e-9 2.7603451879495902e-9
          3.0607916360531027e-9 2.0709912249037204e-9 2.293413845963824e-9 2.3703256976949987e-9 2.5694196101896635e-9 1.828152282350196e-9
          3.607594117456269e-9 2.970356590294013e-9 1.5260820074283412e-9 1.6948704646409286e-9 1.326167188105694e-9 1.4525519506990496e-9
          1.2739210392778963e-9 1.3681090688720438e-9 1.2034634334951707e-9 4.615771563677757e-9 3.992353971874467e-9 5.025177852117779e-9
          4.0809642338190134e-9 3.3574430867433133e-9 4.455929870449378e-9 3.6669383031328105e-9 5.275589591010283e-9 4.59340033119738e-9
          5.375927820622223e-9 4.692560383092229e-9 3.863896240393883e-9 4.7812393421678e-9 3.9366023901050725e-9 8.508726132736139e-8
          3.3803548388428184e-8 2.642783993950146e-8 5.774627766651217e-8 1.2756880697470528e-7 4.786852980064853e-8 3.7380758283109385e-8
          6.92296097792892e-8 2.0534984562242765e-8 4.5769688095737975e-8 9.500938070110663e-8 2.7995679478312698e-8 6.207669199932248e-8
          1.359680791517301e-7 3.5456374394382627e-8 7.838369590290697e-8 9.55082451505502e-9 7.546662967651954e-9 1.177482350398683e-8
          1.0194184787663309e-8 1.7013437796753636e-8 1.2841706607674664e-8 2.014124045597066e-7 1.2729936530302012e-7 2.1802719758406797e-7
          2.0432930699632838e-7 1.6364970786498667e-7 2.5079267602055913e-7 1.0850843225664434e-7 2.604870218671736e-7 2.377493364965607e-7
          2.872995225123508e-7 1.687398756832359e-8 2.4452395425353145e-8 4.436112360815269e-9 6.199132261278261e-9 9.909463076536764e-9
          1.988526790825331e-8 2.7982395885928898e-8 4.505527324295823e-8 1.8831396917165157e-7 1.5057799322732333e-7 7.903442972208207e-8
          4.0783996132341296e-8 2.416721368874025e-7 7.420782302895185e-9 5.710956434265983e-9 3.3775405773862706e-9 2.7939650179286394e-9
          3.571224962269847e-9 3.2186813780823396e-9 7.676730160106723e-8 5.729566266161733e-8 5.818523204817418e-8 9.692333465261827e-8
          8.778455366883575e-8 7.049199465712591e-8 1.3668801850907524e-7 1.2765319233320412e-7 9.584348613001197e-8 1.6746121493575907e-7
          1.6005275814456995e-7 1.1638762439026238e-7 1.7862576055753702e-7 1.7226885606109418e-7 1.238870337865785e-7 2.3668729337407226e-9
          2.712048529609393e-9 1.7779565971402498e-9 2.758490685421233e-9 5.692194338963116e-9 3.303292288911349e-9 4.038238279808141e-9
          3.817026676259708e-9 4.568155126378277e-9 3.608679585137791e-9 2.4490336842143744e-9 3.2251687055136087e-9 1.9129635058877912e-9
          3.774848493799168e-9 4.788059260876178e-9 6.845806221428399e-9 1.111706406917864e-8 7.279384995329537e-9 3.2475923217945757e-9
          2.605723068312254e-9 4.511971353350416e-9 2.4627551965618093e-9 1.8075843129955782e-9 3.945303598063591e-9 2.1332215126616783e-9
          1.4695159886790908e-9 2.4390259071350618e-9 1.9178760072519185e-9 1.7159470294685506e-9 1.0578324883624926e-9 1.8691597559393397e-9
          1.3926651252449973e-9 6.355915330743614e-10 1.0341040819614892e-9 8.087245568032428e-10 7.022304147794946e-10 2.2324927820708285e-9
          1.6827110186890243e-9 1.273593959705057e-9 3.489929657906994e-9 2.6796380345100523e-9 1.981092850989036e-9 1.4086278292901795e-9
          5.31191913145609e-9 4.157243536120382e-9 2.983460942926078e-9 2.0675616170406414e-9 7.998707605776627e-10 9.754307332839115e-10
          7.973293085226265e-10 1.391949707955471e-9 6.940183798825374e-9 9.393439658441984e-9 1.219272449770256e-8 1.516125741393837e-8
          1.0190105122360514e-8 6.693425162593826e-9 4.29675958143398e-9 9.521458752939255e-9 7.812314735703594e-9 5.559496922659246e-9
          6.232983314564301e-9 4.347696843159941e-9 2.9336050436329404e-9 7.667326230188181e-9 6.089781685992677e-9 4.010165385819256e-9
          1.9262963029031495e-9 1.5132126335080874e-9 2.5800865584856448e-9 1.0125493506590737e-8 8.15694075878058e-9 5.262037792532869e-9
          1.2758922500900294e-8 8.309651745492323e-9 1.0402475588047485e-8 6.597822778513791e-9 3.3379932415240856e-9 2.290284568112286e-9
          5.32034943475577e-9 4.124530925675702e-9 3.31097046966413e-9 3.2058010925587297e-9 1.805124361801998e-8 1.1962456771533838e-8
          2.0555011155571757e-8 1.342891020435843e-8 7.77745617810542e-9 4.9452012381109945e-9 8.662025386505523e-9 5.466079272299719e-9
          2.2274690617124984e-8 1.4404172767602664e-8 2.288131982785685e-8 1.4745161136151723e-8 9.246255724505372e-9 5.807796250681979e-9
          9.449756433565633e-9 5.926450033649324e-9 2.721496852918595e-9 2.0284070244439157e-9 1.6007226007298935e-9 1.5722983020705608e-9
          3.100903924316018e-9 2.3591970012175654e-9 3.4045278889449145e-9 3.6044822605916005e-9 2.718961534781726e-9 3.6745593531121463e-9
        </DataArray>
        <DataArray type="Float64" Name="gradient_matprop_error" format="ascii" RangeMin="0" RangeMax="0">
          0 0 0 0 0 0
          0 0 0 0 0 0
          0 0 0 0 0 0
          0 0 0 0 0 0
          0 0 0 0 0 0
          0 0 0 0 0 0
          0 0 0 0 0 0
          0 0 0 0 0 0
          0 0 0 0 0 0
          0 0 0 0 0 0
          0 0 0 0 0 0
          0 0 0 0 0 0
          0 0 0 0 0 0
          0 0 0 0 0 0
          0 0 0 0 0 0
          0 0 0 0 0 0
          0 0 0 0 0 0
          0 0 0 0 0 0
          0 0 0 0 0 0
          0 0 0 0 0 0
          0 0 0 0 0 0
          0 0 0 0 0 0
          0 0 0 0 0 0
          0 0 0 0 0 0
          0 0 0 0 0 0
          0 0 0 0 0 0
          0 0 0 0 0 0
          0 0 0 0 0 0
          0 0 0 0 0 0
          0 0 0 0 0 0
          0 0 0 0 0 0
          0 0 0 0 0 0
          0 0 0 0 0 0
          0 0 0 0 0 0
          0 0 0 0 0 0
          0 0 0 0 0 0
          0 0 0 0 0 0
          0 0 0 0 0 0
          0 0 0 0 0 0
          0 0 0 0 0 0
          0 0 0 0 0 0
          0 0 0 0 0 0
          0 0 0 0 0 0
          0 0 0 0 0 0
          0 0 0 0 0 0
          0 0 0 0 0 0
          0 0 0 0 0 0
          0 0 0 0 0 0
          0 0 0 0 0 0
          0 0 0 0 0 0
          0 0 0 0 0 0
          0 0 0 0 0 0
          0 0 0 0 0 0
          0 0 0 0 0 0
          0 0 0 0 0 0
          0 0 0 0 0 0
          0 0 0 0 0 0
          0 0 0 0 0 0
          0 0 0 0 0 0
          0 0 0 0 0 0
          0 0 0 0 0 0
          0 0 0 0 0 0
          0 0 0 0 0 0
          0 0 0 0 0 0
          0 0 0 0 0 0
          0 0 0 0 0 0
          0 0 0 0 0 0
          0 0 0 0 0 0
          0 0 0 0 0 0
          0 0 0 0 0 0
          0 0 0 0 0 0
          0 0 0 0 0 0
        </DataArray>
        <DataArray type="Float64" Name="initial_marker" format="ascii" RangeMin="0" RangeMax="2">
          0 1.25 0 2 0 0.25
          2 0.25 0.5 0 0 0
          0.5 0 0 2 0 0
          0 0 0 0 0 0
          0 0 0 0 0 0
          0.5 1.5 0.5 1.6666666666666667 2 0
          0.5 0 1 1 0 1
          2 0.25 1 0 0.5 0
          0.25 0 2 2 0.5 2
          2 1.25 1 2 2 2
          2 2 2 0 0.25 0
          0 0 0 0 0.5 0
          0 0.5 0 0.5 0 0
          0 0 0 0 0 0
          0 0 0 0 0 0
          0 0 0 0 0 0
          2 0 0.5 0 1.5 0
          0.5 0 0.5 0 0 0
          1.5 1.5 0.6666666666666666 2 1.5 2
          2 2 1.5 1.5 2 2
          2 0 0.5 0 1 0
          0.5 0 0.5 0 0 0
          1 1 0 0 0.5 0
          0 1.5 0.6666666666666666 2 1.5 2
          2 0 0.5 0 0 1
          0 2 2 2 2 2
          2 2 2 1.5 1 2
          1.5 1.5 1 1 2 2
          1.3333333333333333 2 2 2 2 2
          2 2 2 2 1.5 2
          2 2 1.5 1.5 2 2
          2 2 1.5 1 2 1.3333333333333333
          2 2 1.25 2 2 2
          2 2 2 2 2 2
          2 2 2 2 2 2
          2 2 2 2 2 2
          2 2 2 2 2 2
          2 0 0.5 0 1 0
          0.5 0 0.5 0 0 0
          1 0 0 0.25 0 0
          0 0 0 1 0 1
          1 0 1 0 1 0
          1 1 0 1 0 0
          0 0 0 0 0 0
          0 0 0 0 0 0
          0 0 0 0 0 0
          0 0 0 1.25 0.25 1.75
          0.75 0 0.5 0 2 1
          1 0 0 0 0 0
          0 0 0 0.5 0.5 0
          0 1 0 0 0 0
          0 0 2 2 2 2
          2 2 2 2 2 2
          2 2 2 2 2 0
          0 0.5 0 0 0 0
          1 0 0 0 0 0
          0 0 0 0 0 0
          0 0 0 0 0.5 0.5
          0 0 0 0 1 1.5
          1.5 0 1.5 0.5 0 2
          2 1.5 2 2 2 1.5
          2 2 2 2 0 0.5
          0 1 2 2 2 2
          2 2 2 2 2 2
          2 2 2 2 2 2
          1.5 1 2 2 2 2
          2 2 2 2 2 1.3333333333333333
          2 2 1.75 1.5 2 2
          2 2 2 2 2 2
          2 2 2 2 2 2
          2 2 1 0.75 0.6666666666666666 0
          1 0 1 1 0 1
        </DataArray>
        <DataArray type="Float64" Name="markers_norefine" format="ascii" RangeMin="0" RangeMax="0">
          0 0 0 0 0 0
          0 0 0 0 0 0
          0 0 0 0 0 0
          0 0 0 0 0 0
          0 0 0 0 0 0
          0 0 0 0 0 0
          0 0 0 0 0 0
          0 0 0 0 0 0
          0 0 0 0 0 0
          0 0 0 0 0 0
          0 0 0 0 0 0
          0 0 0 0 0 0
          0 0 0 0 0 0
          0 0 0 0 0 0
          0 0 0 0 0 0
          0 0 0 0 0 0
          0 0 0 0 0 0
          0 0 0 0 0 0
          0 0 0 0 0 0
          0 0 0 0 0 0
          0 0 0 0 0 0
          0 0 0 0 0 0
          0 0 0 0 0 0
          0 0 0 0 0 0
          0 0 0 0 0 0
          0 0 0 0 0 0
          0 0 0 0 0 0
          0 0 0 0 0 0
          0 0 0 0 0 0
          0 0 0 0 0 0
          0 0 0 0 0 0
          0 0 0 0 0 0
          0 0 0 0 0 0
          0 0 0 0 0 0
          0 0 0 0 0 0
          0 0 0 0 0 0
          0 0 0 0 0 0
          0 0 0 0 0 0
          0 0 0 0 0 0
          0 0 0 0 0 0
          0 0 0 0 0 0
          0 0 0 0 0 0
          0 0 0 0 0 0
          0 0 0 0 0 0
          0 0 0 0 0 0
          0 0 0 0 0 0
          0 0 0 0 0 0
          0 0 0 0 0 0
          0 0 0 0 0 0
          0 0 0 0 0 0
          0 0 0 0 0 0
          0 0 0 0 0 0
          0 0 0 0 0 0
          0 0 0 0 0 0
          0 0 0 0 0 0
          0 0 0 0 0 0
          0 0 0 0 0 0
          0 0 0 0 0 0
          0 0 0 0 0 0
          0 0 0 0 0 0
          0 0 0 0 0 0
          0 0 0 0 0 0
          0 0 0 0 0 0
          0 0 0 0 0 0
          0 0 0 0 0 0
          0 0 0 0 0 0
          0 0 0 0 0 0
          0 0 0 0 0 0
          0 0 0 0 0 0
          0 0 0 0 0 0
          0 0 0 0 0 0
          0 0 0 0 0 0
        </DataArray>
        <DataArray type="Float64" Name="markers_mustrefine" format="ascii" RangeMin="0" RangeMax="2">
          0 1.25 0 2 0 0.25
          2 0.25 0.5 0 0 0
          0.5 0 0 2 0 0
          0 0 0 0 0 0
          0 0 0 0 0 0
          0.5 1.5 0.5 1.6666666666666667 2 0
          0.5 0 1 1 0 1
          2 0.25 1 0 0.5 0
          0.25 0 2 2 0.5 2
          2 1.25 1 2 2 2
          2 2 2 0 0.25 0
          0 0 0 0 0.5 0
          0 0.5 0 0.5 0 0
          0 0 0 0 0 0
          0 0 0 0 0 0
          0 0 0 0 0 0
          2 0 0.5 0 1.5 0
          0.5 0 0.5 0 0 0
          1.5 1.5 0.6666666666666666 2 1.5 2
          2 2 1.5 1.5 2 2
          2 0 0.5 0 1 0
          0.5 0 0.5 0 0 0
          1 1 0 0 0.5 0
          0 1.5 0.6666666666666666 2 1.5 2
          2 0 0.5 0 0 1
          0 2 2 2 2 2
          2 2 2 1.5 1 2
          1.5 1.5 1 1 2 2
          1.3333333333333333 2 2 2 2 2
          2 2 2 2 1.5 2
          2 2 1.5 1.5 2 2
          2 2 1.5 1 2 1.3333333333333333
          2 2 1.25 2 2 2
          2 2 2 2 2 2
          2 2 2 2 2 2
          2 2 2 2 2 2
          2 2 2 2 2 2
          2 0 0.5 0 1 0
          0.5 0 0.5 0 0 0
          1 0 0 0.25 0 0
          0 0 0 1 0 1
          1 0 1 0 1 0
          1 1 0 1 0 0
          0 0 0 0 0 0
          0 0 0 0 0 0
          0 0 0 0 0 0
          0 0 0 1.25 0.25 1.75
          0.75 0 0.5 0 2 1
          1 0 0 0 0 0
          0 0 0 0.5 0.5 0
          0 1 0 0 0 0
          0 0 2 2 2 2
          2 2 2 2 2 2
          2 2 2 2 2 0
          0 0.5 0 0 0 0
          1 0 0 0 0 0
          0 0 0 0 0 0
          0 0 0 0 0.5 0.5
          0 0 0 0 1 1.5
          1.5 0 1.5 0.5 0 2
          2 1.5 2 2 2 1.5
          2 2 2 2 0 0.5
          0 1 2 2 2 2
          2 2 2 2 2 2
          2 2 2 2 2 2
          1.5 1 2 2 2 2
          2 2 2 2 2 1.3333333333333333
          2 2 1.75 1.5 2 2
          2 2 2 2 2 2
          2 2 2 2 2 2
          2 2 1 0.75 0.6666666666666666 0
          1 0 1 1 0 1
        </DataArray>
        <DataArray type="Float64" Name="gradient_marker" format="ascii" RangeMin="0" RangeMax="1">
          0.5 0.375 0.5 0.75 0.25 0.25
          0.375 0.25 0.25 0 0.25 0
          0.25 0.5 0.5 1 0.75 0.5
          0.5 0 0.25 0 0.125 0
          0 0 0.5 0.5 0.5 0.5
          0 0 0 0 0.5 0
          0 0 0 0 0 0
          1 0 0 0.625 0.875 0
          0 0.625 0 1 0 0.125
          1 0 0.875 0.25 0 0.375
          0.125 0.5 0.25 0 0 0.5
          0.625 0 0 0.5 0 0
          1 0 0 0 0 0
          0 0 0 0 0 0
          0 0 0.5 0.5 0 0
          0.5 1 1 1 1 1
          1 0 0 0 0 0.5
          0.5 1 1 0.5 0.5 1
          0.5 1 0.5 0 0 0
          0.5 1 0.5 1 0.5 1
          0.5 0 0 0 0 0.5
          0.5 1 1 0.5 0.5 1
          0.5 1 0.5 1 1 1
          1 1 1 1 1 1
          1 1 1 1 1 1
          1 0 0 0 0.5 0.5
          1 0.5 0.5 0 0 0
          0.5 1 0.5 1 0.5 1
          0.5 0 0 0 0.5 0.5
          1 0.5 0.5 0 0 0
          0.5 1 0.5 1 0.5 0.5
          1 1 1 1 1 1
          1 1 1 0 0 0
          0.5 0.5 0.5 0.5 0 0
          0 0.5 0.5 0.5 0.5 0
          0 0 0.5 0.5 0.5 0.5
          0 0 0 0.5 0.5 0.5
          0.5 0 0 0 0 0.5
          0.5 1 1 0.5 0.5 1
          0.5 0.5 1 1 1 1
          1 1 1 0 0 0
          0.5 0.5 0.5 0.5 0 0
          0 0.5 0.5 0.5 0.5 1
          0.875 1 1 0.75 0.375 0.75
          0.6666666666666666 1 1 0.625 1 1
          1 1 1 1 1 1
          1 1 1 0.75 0.5 0.75
          0.625 0.625 0.875 0.75 1 0.75
          1 0.5 0.5 1 1 1
          0.5 0.5 0 0.75 0.625 0.25
          0 0.75 0.5 1 1 1
          1 1 0.25 0 0 0.375
          0.25 0 0.75 0.625 0.5 1
          0.875 1 1 1 1 1
          1 1 1 0.75 1 1
          1 1 1 1 1 1
          1 1 0.75 0.5 0.75 0.5
          0.5 0.5 1 1 0.75 1
          1 1 1 1 1 1
          1 1 1 1 1 1
          1 1 1 1 1 1
          1 1 1 1 1 1
          1 1 1 1 1 1
          1 1 1 1 1 1
          1 1 1 1 1 1
          1 1 1 1 1 1
          1 1 1 1 1 1
          1 1 1 1 1 1
          1 1 1 1 1 1
          1 1 1 1 1 1
          1 1 1 1 1 1
          1 1 1 1 1 1
        </DataArray>
        <DataArray type="Float64" Name="gradient_matprop_marker" format="ascii" RangeMin="0" RangeMax="0">
          0 0 0 0 0 0
          0 0 0 0 0 0
          0 0 0 0 0 0
          0 0 0 0 0 0
          0 0 0 0 0 0
          0 0 0 0 0 0
          0 0 0 0 0 0
          0 0 0 0 0 0
          0 0 0 0 0 0
          0 0 0 0 0 0
          0 0 0 0 0 0
          0 0 0 0 0 0
          0 0 0 0 0 0
          0 0 0 0 0 0
          0 0 0 0 0 0
          0 0 0 0 0 0
          0 0 0 0 0 0
          0 0 0 0 0 0
          0 0 0 0 0 0
          0 0 0 0 0 0
          0 0 0 0 0 0
          0 0 0 0 0 0
          0 0 0 0 0 0
          0 0 0 0 0 0
          0 0 0 0 0 0
          0 0 0 0 0 0
          0 0 0 0 0 0
          0 0 0 0 0 0
          0 0 0 0 0 0
          0 0 0 0 0 0
          0 0 0 0 0 0
          0 0 0 0 0 0
          0 0 0 0 0 0
          0 0 0 0 0 0
          0 0 0 0 0 0
          0 0 0 0 0 0
          0 0 0 0 0 0
          0 0 0 0 0 0
          0 0 0 0 0 0
          0 0 0 0 0 0
          0 0 0 0 0 0
          0 0 0 0 0 0
          0 0 0 0 0 0
          0 0 0 0 0 0
          0 0 0 0 0 0
          0 0 0 0 0 0
          0 0 0 0 0 0
          0 0 0 0 0 0
          0 0 0 0 0 0
          0 0 0 0 0 0
          0 0 0 0 0 0
          0 0 0 0 0 0
          0 0 0 0 0 0
          0 0 0 0 0 0
          0 0 0 0 0 0
          0 0 0 0 0 0
          0 0 0 0 0 0
          0 0 0 0 0 0
          0 0 0 0 0 0
          0 0 0 0 0 0
          0 0 0 0 0 0
          0 0 0 0 0 0
          0 0 0 0 0 0
          0 0 0 0 0 0
          0 0 0 0 0 0
          0 0 0 0 0 0
          0 0 0 0 0 0
          0 0 0 0 0 0
          0 0 0 0 0 0
          0 0 0 0 0 0
          0 0 0 0 0 0
          0 0 0 0 0 0
        </DataArray>
        <DataArray type="Float64" Name="combo" format="ascii" RangeMin="0" RangeMax="1">
          0.5 0.375 0.5 0.75 0.25 0.25
          0.375 0.25 0.25 0 0.25 0
          0.25 0.5 0.5 1 0.75 0.5
          0.5 0 0.25 0 0.125 0
          0 0 0.5 0.5 0.5 0.5
          0 0 0 0 0.5 0
          0 0 0 0 0 0
          1 0 0 0.625 0.875 0
          0 0.625 0 1 0 0.125
          1 0 0.875 0.25 0 0.375
          0.125 0.5 0.25 0 0 0.5
          0.625 0 0 0.5 0 0
          1 0 0 0 0 0
          0 0 0 0 0 0
          0 0 0.5 0.5 0 0
          0.5 1 1 1 1 1
          1 0 0 0 0 0.5
          0.5 1 1 0.5 0.5 1
          0.5 1 0.5 0 0 0
          0.5 1 0.5 1 0.5 1
          0.5 0 0 0 0 0.5
          0.5 1 1 0.5 0.5 1
          0.5 1 0.5 1 1 1
          1 1 1 1 1 1
          1 1 1 1 1 1
          1 0 0 0 0.5 0.5
          1 0.5 0.5 0 0 0
          0.5 1 0.5 1 0.5 1
          0.5 0 0 0 0.5 0.5
          1 0.5 0.5 0 0 0
          0.5 1 0.5 1 0.5 0.5
          1 1 1 1 1 1
          1 1 1 0 0 0
          0.5 0.5 0.5 0.5 0 0
          0 0.5 0.5 0.5 0.5 0
          0 0 0.5 0.5 0.5 0.5
          0 0 0 0.5 0.5 0.5
          0.5 0 0 0 0 0.5
          0.5 1 1 0.5 0.5 1
          0.5 0.5 1 1 1 1
          1 1 1 0 0 0
          0.5 0.5 0.5 0.5 0 0
          0 0.5 0.5 0.5 0.5 1
          0.875 1 1 0.75 0.375 0.75
          0.6666666666666666 1 1 0.625 1 1
          1 1 1 1 1 1
          1 1 1 0.75 0.5 0.75
          0.625 0.625 0.875 0.75 1 0.75
          1 0.5 0.5 1 1 1
          0.5 0.5 0 0.75 0.625 0.25
          0 0.75 0.5 1 1 1
          1 1 0.25 0 0 0.375
          0.25 0 0.75 0.625 0.5 1
          0.875 1 1 1 1 1
          1 1 1 0.75 1 1
          1 1 1 1 1 1
          1 1 0.75 0.5 0.75 0.5
          0.5 0.5 1 1 0.75 1
          1 1 1 1 1 1
          1 1 1 1 1 1
          1 1 1 1 1 1
          1 1 1 1 1 1
          1 1 1 1 1 1
          1 1 1 1 1 1
          1 1 1 1 1 1
          1 1 1 1 1 1
          1 1 1 1 1 1
          1 1 1 1 1 1
          1 1 1 1 1 1
          1 1 1 1 1 1
          1 1 1 1 1 1
          1 1 1 1 1 1
        </DataArray>
        <DataArray type="Float64" Name="dHdT" format="ascii" RangeMin="25.826517344629686" RangeMax="37.129184245986025">
          26.0527976011635 27.30456646077122 25.963976623583314 30.34258568989308 26.318409512522322 26.446590263208922
          29.067253788934433 26.33330325082484 26.71286230744593 26.20519362217692 26.383145062581736 26.157732643712478
          26.90556243508897 26.46083651937525 26.008315264360498 27.68926898122701 26.326342993341015 25.984839925246682
          25.933637613796073 26.05829394253393 26.22968031389273 25.95969353935959 26.049060097491353 25.959153169819754
          26.032043404192688 25.943492126810195 25.88788120788132 25.903498558718642 25.86240804557592 25.88241310085067
          26.461438694389976 27.07774719252184 26.569452210380923 28.288064004928113 30.55932253896576 26.48584701320563
          26.808188182609037 26.48197014727066 27.143845568262766 27.405704662748782 26.822336817602817 27.512845636102007
          26.642906817486555 26.319822199374197 26.82941737233478 26.07857167036604 26.314185827931407 26.204093016994943
          26.402725497101788 26.120532218630675 27.75005961226193 26.82580080296262 26.809361418433227 29.274181475231295
          27.671317296583034 27.41373912231597 26.636281274843515 31.17684663664486 28.188883238932416 32.82203520822445
          28.855112728038183 33.4426411221123 29.13584610272037 26.352977184236174 26.593792228551116 26.132479396670963
          26.228948616099927 26.188882826683738 26.345485061319824 26.125557199937354 26.861975803383718 26.50246459044924
          25.943910600853215 27.07026118033099 26.61988718628714 27.153882845429987 26.665945961218455 26.13712111551162