<?xml version="1.0"?>
<VTKFile type="UnstructuredGrid" version="0.1" byte_order="LittleEndian" header_type="UInt32" compressor="vtkZLibDataCompressor">
  <UnstructuredGrid>
    <Piece NumberOfPoints="394" NumberOfCells="197">
      <PointData>
        <DataArray type="Int32" Name="libmesh_node_id" format="ascii" RangeMin="96" RangeMax="3693">
          96 97 98 99 113 114
          126 127 128 129 143 144
          156 157 158 159 173 174
          186 187 188 189 203 204
          210 211 212 213 214 215
          216 220 221 222 224 225
          226 228 257 258 259 260
          261 262 263 264 265 266
          267 268 269 270 285 286
          287 288 289 290 291 292
          293 294 295 296 297 298
          299 300 301 302 303 484
          485 486 487 488 489 490
          491 492 493 494 495 496
          497 498 499 500 501 502
          503 504 505 506 510 511
          513 514 516 721 722 723
          724 725 726 727 728 729
          730 731 732 733 734 735
          736 737 738 739 740 741
          742 743 744 747 751 752
          753 755 756 758 761 762
          763 766 768 801 802 803
          804 805 806 807 811 812
          813 825 826 827 828 831
          832 833 835 836 838 1480
          1481 1482 1483 1484 1485 1486
          1487 1488 1489 1490 1491 1492
          1493 1494 1495 1496 1497 1498
          1499 1500 1501 1502 1503 1504
          1505 1506 1507 1508 1509 1510
          1511 1512 1513 1514 1515 1516
          1517 1518 1519 1520 1521 1522
          1523 1524 1525 1526 1527 1528
          1529 1530 1531 1532 1533 1534
          1535 1536 1537 1538 1539 1540
          1541 1542 1543 1544 1545 1546
          1547 3330 3331 3333 3334 3335
          3339 3340 3341 3343 3344 3345
          3346 3347 3348 3349 3382 3383
          3384 3385 3386 3387 3388 3389
          3390 3391 3392 3393 3394 3395
          3396 3397 3398 3399 3400 3401
          3402 3403 3404 3405 3406 3407
          3408 3409 3410 3411 3412 3413
          3414 3415 3416 3417 3418 3419
          3420 3421 3422 3423 3424 3425
          3426 3427 3428 3429 3430 3431
          3432 3433 3434 3435 3436 3437
          3438 3439 3484 3485 3486 3487
          3488 3489 3643 3644 3645 3648
          3651 3653 3654 3655 3656 3657
          3658 3659 3660 3661 3664 3665
          3667 3670 3672 3673 3674 3675
          3676 3677 3680 3681 3684 3686
          3688 3689 3690 3691 3692 3693
          100 101 130 131 115 145
          161 175 217 219 223 305
          311 307 312 306 507 508
          509 512 314 515 315 376
          377 380 386 160 399 401
          406 191 409 205 745 746
          748 749 750 754 304 308
          757 759 313 760 764 317
          765 767 808 809 810 814
          829 830 834 837
        </DataArray>
        <DataArray type="Float64" Name="bounds" format="ascii" RangeMin="0" RangeMax="0">
          0 0 0 0 0 0
          0 0 0 0 0 0
          0 0 0 0 0 0
          0 0 0 0 0 0
          0 0 0 0 0 0
          0 0 0 0 0 0
          0 0 0 0 0 0
          0 0 0 0 0 0
          0 0 0 0 0 0
          0 0 0 0 0 0
          0 0 0 0 0 0
          0 0 0 0 0 0
          0 0 0 0 0 0
          0 0 0 0 0 0
          0 0 0 0 0 0
          0 0 0 0 0 0
          0 0 0 0 0 0
          0 0 0 0 0 0
          0 0 0 0 0 0
          0 0 0 0 0 0
          0 0 0 0 0 0
          0 0 0 0 0 0
          0 0 0 0 0 0
          0 0 0 0 0 0
          0 0 0 0 0 0
          0 0 0 0 0 0
          0 0 0 0 0 0
          0 0 0 0 0 0
          0 0 0 0 0 0
          0 0 0 0 0 0
          0 0 0 0 0 0
          0 0 0 0 0 0
          0 0 0 0 0 0
          0 0 0 0 0 0
          0 0 0 0 0 0
          0 0 0 0 0 0
          0 0 0 0 0 0
          0 0 0 0 0 0
          0 0 0 0 0 0
          0 0 0 0 0 0
          0 0 0 0 0 0
          0 0 0 0 0 0
          0 0 0 0 0 0
          0 0 0 0 0 0
          0 0 0 0 0 0
          0 0 0 0 0 0
          0 0 0 0 0 0
          0 0 0 0 0 0
          0 0 0 0 0 0
          0 0 0 0 0 0
          0 0 0 0 0 0
          0 0 0 0 0 0
          0 0 0 0 0 0
          0 0 0 0 0 0
          0 0 0 0 0 0
          0 0 0 0 0 0
          0 0 0 0 0 0
          0 0 0 0 0 0
          0 0 0 0 0 0
          0 0 0 0 0 0
          0 0 0 0 0 0
          0 0 0 0 0 0
          0 0 0 0 0 0
          0 0 0 0 0 0
          0 0 0 0 0 0
          0 0 0 0
        </DataArray>
        <DataArray type="Float64" Name="gradient_error" format="ascii" RangeMin="7.625307531211113e-10" RangeMax="0.0000018366855719471118">
          5.172457482849358e-9 3.695951737363332e-9 5.343009714360555e-9 3.389645695032875e-9 2.2194459918773066e-9 1.436281675705196e-9
          1.2823489061726013e-8 8.545370622111448e-9 1.7895048216463834e-8 7.474519983285292e-9 9.310075526427783e-9 7.408898714944021e-9
          1.305786844345075e-7 1.3742385447488344e-7 3.5506260459500827e-7 7.529505545754196e-8 9.235093095163427e-9 7.535956566295429e-9
          0.000001115909488093854 2.1599022364646558e-7 9.85164540713821e-7 7.456190021172192e-7 2.5202613287120158e-8 4.6862270720371875e-8
          3.674780181316857e-8 5.237248362504051e-8 2.405566666816372e-7 0.0000011456967303485546 1.7372160556355158e-7 3.505171968115108e-7
          7.956615251153064e-7 4.932367893016972e-8 6.173067577458275e-8 4.201403508343096e-7 2.204932027647121e-7 3.609898325049409e-7
          0.00000165892898472255 6.675089936134145e-8 3.880800176302038e-7 2.870096603010614e-7 1.8534112607758838e-7 8.06233178536245e-7
          0.0000010801538753038611 8.306947132861781e-7 5.051134201107943e-7 1.4129495944611762e-7 4.620649600466896e-7 1.932917762200171e-7
          0.0000014143292385144833 0.0000015331023918063594 9.690928779044633e-7 7.819062584173239e-7 5.652555750908205e-7 5.721329098870822e-7
          9.749941607385327e-7 0.0000013442954911459955 6.572181320362369e-7 8.729621072657074e-7 0.000001434858242653635 3.5471838020313347e-7
          3.4420407566551536e-7 4.873680555793126e-7 4.6834726057742e-7 7.200418398247507e-7 0.000001132808005293966 4.7351276267616165e-7
          1.8126716948243194e-7 7.387530421692697e-7 0.0000014787445679286631 3.632314101348457e-7 7.983494274059819e-7 3.1767122129742577e-7
          3.0640359847237875e-7 2.997382931815982e-7 2.558341366520705e-7 2.7391463599625244e-7 3.11192090083928e-7 2.898260239799765e-7
          3.3249950144205896e-7 2.9712584240908453e-7 3.3679805233238835e-7 2.8736877036108776e-7 3.2505631154637684e-7 3.1079827587041746e-7
          3.527299180026507e-7 1.9766633288192322e-7 2.692879828301646e-7 2.51669458234343e-7 2.9267346309374744e-7 3.361807154160534e-7
          3.709263439129159e-7 3.5673345532625626e-7 3.2760484996449086e-7 3.6961606641009785e-7 3.320915762195561e-7 3.8029567828480517e-7
          2.4626391661926796e-7 3.2375670036280933e-7 3.939920181773434e-7 1.1795733623585574e-8 7.739136138481851e-9 1.6854487096831506e-8
          8.404845900791269e-8 3.416902433602933e-8 2.3317309355548335e-8 5.3443772869060197e-8 3.682538653378128e-9 1.2465594375067336e-8
          2.2839086730207696e-8 6.054464652348031e-9 1.0731782658027256e-8 3.16906112121854e-8 7.503291226508184e-8 1.627422392708614e-9
          1.0699407624840379e-8 2.4735804180881018e-8 5.7326757772022766e-8 1.3933404187213642e-7 1.9771392856972146e-8 1.3684563975637228e-8
          1.1022044567757824e-8 1.6205689075515624e-8 9.756385801774018e-8 7.0348250399709e-8 8.359525159878421e-9 2.3898046599154183e-8
          4.3132642781677835e-8 8.208386860787135e-8 1.1441329398192976e-7 1.8601913912911744e-7 1.0387742376607316e-8 1.0653122791072158e-8
          3.196893487655724e-8 2.576249842763051e-7 1.0918503205536999e-8 1.6100122324726524e-7 1.5687284594881213e-7 1.6382418190324046e-7
          2.419592264735303e-7 2.469540638816917e-7 2.2743216207196913e-7 2.2395027160816457e-7 1.52744468650359e-7 2.0791026026224665e-7
          2.0594131674279886e-7 2.562884225847729e-7 2.493850486829333e-7 2.8631389653805515e-7 2.7643214167641413e-7 2.0138324999007087e-7
          2.2366371936220486e-7 2.238747096032189e-7 3.163393704913375e-7 3.0347923466989484e-7 2.4594418873433886e-7 5.362125396712715e-8
          4.4849541381926584e-8 6.924911295921441e-8 1.2748999745084472e-7 1.1514526943620785e-7 9.00902542703188e-8 1.0213699910698625e-7
          3.6077828796726005e-8 6.503523910442975e-8 7.67840007631278e-8 1.514758261069829e-7 1.7150183887613943e-7 2.2880825384696006e-7
          2.5107064061980575e-7 7.044531000305363e-8 1.0770027663922812e-7 1.6402607286455648e-7 3.061406815869372e-7 3.3063944236347204e-7
          1.449552432754026e-7 0.000001616984557024791 0.0000013578976621608572 9.287793099254247e-7 0.0000014666420599525776 0.0000016213288151362686
          0.000001544538492379143 0.0000014226519682260642 0.0000010988107672969231 0.0000014677481696220175 0.00000104612325438877 0.0000016256730732477461
          0.000001731179322597429 0.000001550860236453952 0.0000018366855719471118 1.8998656909019081e-7 1.7953220592316223e-7 1.9086990489998345e-7
          2.3557815002905573e-7 2.3758303628723037e-7 2.196216027651142e-7 2.1705980249677917e-7 1.6907784275613364e-7 2.0166016924299797e-7
          1.985414549645026e-7 2.9314073192929027e-7 2.8627235788101486e-7 2.5838014765461387e-7 2.4609737735812826e-7 2.4671555436170794e-7
          2.652001510069023e-7 2.5151223401603673e-7 2.7940398383273955e-7 2.8368474765209665e-7 2.569270906739452e-7 2.0029037679412556e-7
          2.441279441327897e-7 2.4464432037745953e-7 2.879655114714538e-7 2.383600920191698e-7 2.3111677472360655e-7 2.654959513511659e-7
          2.5951018332467673e-7 2.0488582424973993e-7 2.2934882378118155e-7 2.3426136165386586e-7 2.92631810683162e-7 2.879035919257469e-7
          2.5381182331262315e-7 4.731332526546109e-8 4.0763375973952016e-8 1.2313905187110291e-8 7.550123868650639e-8 5.4522836046125495e-8
          3.354443340574462e-8 1.0024828729806154e-7 2.0305547278569226e-7 2.1405455385732875e-7 2.9631066587609828e-8 1.8706781786199262e-8
          1.0123943769274752e-7 6.586560672818967e-8 7.782496984788697e-9 3.049177576363185e-8 7.498194183097251e-7 5.364448103160716e-7
          2.0371625446829878e-7 8.937919894507783e-7 8.825630706053848e-7 1.7013001957064442e-7 1.2518570585725834e-8 1.0768101525004327e-8
          7.787171920315937e-8 4.524805319945499e-8 2.7825783703164323e-9 2.2448629187216743e-8 1.434620742565243e-8 1.4322486782059287e-7
          7.972800487390565e-8 4.211468000411705e-8 1.4451148718433624e-7 1.1894089743327198e-7 1.0928087185392889e-7 2.2292581999928304e-7
          2.0352535573151108e-7 1.7111876609502014e-7 1.893899058775298e-7 1.2540844694693006e-7 1.9320079929483769e-7 1.6142948836342592e-7
          9.337030768220772e-8 1.3871217645852925e-7 1.558539917557765e-7 1.296581774320142e-7 8.341668460780675e-7 7.200679726329656e-7
          7.040756540015759e-7 5.111042181364816e-7 0.0000012050179125974107 0.0000013284807778196563 0.0000013033023738534394 0.0000011935514379779296
          8.440255947366004e-7 8.202826824005267e-7 0.0000012511670877618635 0.0000013897654371977162 0.0000012484505078538381 0.0000010134218848859038
          2.447890707105373e-7 2.618915174022006e-7 3.285971542693963e-7 3.446760784579364e-7 2.354734217017226e-7 3.195708882349139e-7
          1.6820368538735686e-7 2.4726708895281433e-7 2.308717554732677e-7 2.5809576630261905e-7 4.1240523782825524e-7 4.2746063951367226e-7
          4.0366835476810517e-7 3.2633049251827174e-7 8.972059939849234e-9 2.9139885183403162e-8 5.463971461181982e-9 1.9323330525831522e-8
          4.930771042695709e-8 3.318268959048106e-8 1.0568120065623333e-7 2.535709180373052e-7 2.1876049567792994e-7 1.8395007331855467e-7
          6.682263121473034e-7 1.1825852164534578e-7 1.0543715406338416e-7 2.3967694375231334e-7 2.053141369725537e-7 9.261578648142256e-8
          1.709513301927941e-7 7.781173536774313e-7 6.8679115263283e-7 5.259390982165015e-7 0.0000010004746444776316 0.000001013384623295939
          7.680948023894322e-7 0.0000010221564129968976 0.0000010962667046751546 0.000001097736952242309 7.948558871421964e-7 9.973940678547278e-7
          0.000001127082719100681 9.254465639117233e-7 2.874043551098444e-7 3.660603306913242e-7 2.2222565871803062e-7 4.4471630627280403e-7
          2.760224794866238e-7 3.5704767136412555e-7 1.6515756750020053e-7 2.2359076825332134e-7 4.3807286324162717e-7 2.8202396900644214e-7
          2.936441854409278e-9 1.8494863037651947e-9 3.4606525015983665e-9 3.3923979746373456e-9 7.625307531211113e-10 3.678652645009468e-9
          1.611879873837651e-8 3.409811520231754e-9 1.7311137962579742e-8 2.5340793005512474e-7 1.575324955872767e-8 3.1785783468021065e-7
          3.7732127545193984e-7 4.977154884178619e-7 4.251649596939037e-7 3.999861085129089e-7 3.819529460361104e-7 3.6486358075246544e-7
          4.0815171051229026e-7 4.0989188268201666e-7 2.7878154630376895e-7 3.6212286420394174e-7 4.289384546066907e-7 1.8704741857904476e-9
          5.866628545076353e-9 5.571955210990767e-9 5.277281876905179e-9 1.1064550598542495e-8 2.534847511422611e-9 3.8829811289804495e-9
          1.5376918606408089e-9 9.769260870720075e-9 5.231114746538287e-9 2.3620234155965065e-9 7.976688294541169e-8 5.183246477228294e-8
          9.172254065889087e-9 5.595866794895123e-8 3.449327957624304e-8 1.3027891203534855e-8 1.5002328066712228e-7 2.74325199793192e-7
          1.4592452371786672e-7 5.33807757447127e-8 3.613129226925461e-7 1.069043910403127e-7 8.510387184008047e-9 3.277163510601148e-7
          2.0976517882786209e-7 1.6042800633591268e-7 1.5079783235401525e-7 2.5161198062185707e-7 2.3026158380279869e-7 2.0891118698374028e-7
          2.61897924541304e-7 2.9575735596547927e-7 2.2317078683904026e-7 3.296167873896546e-7
        </DataArray>
        <DataArray type="Float64" Name="gradient_matprop_error" format="ascii" RangeMin="0" RangeMax="0">
          0 0 0 0 0 0
          0 0 0 0 0 0
          0 0 0 0 0 0
          0 0 0 0 0 0
          0 0 0 0 0 0
          0 0 0 0 0 0
          0 0 0 0 0 0
          0 0 0 0 0 0
          0 0 0 0 0 0
          0 0 0 0 0 0
          0 0 0 0 0 0
          0 0 0 0 0 0
          0 0 0 0 0 0
          0 0 0 0 0 0
          0 0 0 0 0 0
          0 0 0 0 0 0
          0 0 0 0 0 0
          0 0 0 0 0 0
          0 0 0 0 0 0
          0 0 0 0 0 0
          0 0 0 0 0 0
          0 0 0 0 0 0
          0 0 0 0 0 0
          0 0 0 0 0 0
          0 0 0 0 0 0
          0 0 0 0 0 0
          0 0 0 0 0 0
          0 0 0 0 0 0
          0 0 0 0 0 0
          0 0 0 0 0 0
          0 0 0 0 0 0
          0 0 0 0 0 0
          0 0 0 0 0 0
          0 0 0 0 0 0
          0 0 0 0 0 0
          0 0 0 0 0 0
          0 0 0 0 0 0
          0 0 0 0 0 0
          0 0 0 0 0 0
          0 0 0 0 0 0
          0 0 0 0 0 0
          0 0 0 0 0 0
          0 0 0 0 0 0
          0 0 0 0 0 0
          0 0 0 0 0 0
          0 0 0 0 0 0
          0 0 0 0 0 0
          0 0 0 0 0 0
          0 0 0 0 0 0
          0 0 0 0 0 0
          0 0 0 0 0 0
          0 0 0 0 0 0
          0 0 0 0 0 0
          0 0 0 0 0 0
          0 0 0 0 0 0
          0 0 0 0 0 0
          0 0 0 0 0 0
          0 0 0 0 0 0
          0 0 0 0 0 0
          0 0 0 0 0 0
          0 0 0 0 0 0
          0 0 0 0 0 0
          0 0 0 0 0 0
          0 0 0 0 0 0
          0 0 0 0 0 0
          0 0 0 0
        </DataArray>
        <DataArray type="Float64" Name="initial_marker" format="ascii" RangeMin="0" RangeMax="2">
          0 0 0 0 0 0
          0 0 0 0 0 0
          0 0 0 0 0 0
          0 0 0 0 0 0
          0 0 0 0 0 0
          0 0 0 0 2 0
          0 0 0 0 0 0
          0 0 0 0 0 0
          0 0 0 0 0 0
          0 0 0 0 0 0
          0.5 0 0 0 0 0
          0 0 0 0.5 0 0
          0 0 0 0.5 0.25 0
          0.25 1.5 1 0 0 0
          0.25 1 0.5 0 1.5 0
          1 0.5 2 1.5 0 0.5
          2 2 1 0 0 0
          0 0 0 0 0 0
          0 0 0 0 0 0
          0 0 0 0 0 0
          0 0 0 0 0 0
          0 0 0 0 0 0
          0 0 0 0 0 0
          0 0 0 0 0 0
          0 0 0 0 0 0
          0 0 0 0 0 0
          0 0 0 0 0 0
          0 0 0 0 0 0
          0 0 0 0 0 0
          0 0 0 0 0 0
          0 0 0 0 0 0
          0 0 0 0 0 0
          0 0 0 0 0 0
          0 0 0 0 0 0
          0 0 0 0 0 0
          0 0 0 0 0 0
          0 0 0 0 0 0
          0 0 0 0 0 0
          0 0 0 0 0 0
          0 0 0 0 0 0
          0 0 0 0 0 0
          0 0 0 0 0 0
          0 0 0 0 0 0
          0 0 0 0 0 0
          0 0 0 0 0 0
          0 0 0 0 0 0
          0 0 0 0 0 0
          0 0 0 0 0 0
          0 0 0 0 0 0
          0 0 0 0 0 0
          0 0 0 0 0 0
          0 0 0 0 0 0
          0 0 0 0 0 0
          0 0 0 0 0 0
          0 0 0 0 0 0
          0 0 0 0 0 0
          0 0 0 0 0 0
          0 0 0 0 0 0
          0 0 0 1 0.5 2
          1.5 0.5 2 2 1 0
          0 0 0 0 0 0
          0 0 0 0 0 0
          0 0 0 0 0 0
          0 0 0 0 0 0
          0 0 0 0 0 0
          0 0 0 0
        </DataArray>
        <DataArray type="Float64" Name="markers_norefine" format="ascii" RangeMin="0" RangeMax="0">
          0 0 0 0 0 0
          0 0 0 0 0 0
          0 0 0 0 0 0
          0 0 0 0 0 0
          0 0 0 0 0 0
          0 0 0 0 0 0
          0 0 0 0 0 0
          0 0 0 0 0 0
          0 0 0 0 0 0
          0 0 0 0 0 0
          0 0 0 0 0 0
          0 0 0 0 0 0
          0 0 0 0 0 0
          0 0 0 0 0 0
          0 0 0 0 0 0
          0 0 0 0 0 0
          0 0 0 0 0 0
          0 0 0 0 0 0
          0 0 0 0 0 0
          0 0 0 0 0 0
          0 0 0 0 0 0
          0 0 0 0 0 0
          0 0 0 0 0 0
          0 0 0 0 0 0
          0 0 0 0 0 0
          0 0 0 0 0 0
          0 0 0 0 0 0
          0 0 0 0 0 0
          0 0 0 0 0 0
          0 0 0 0 0 0
          0 0 0 0 0 0
          0 0 0 0 0 0
          0 0 0 0 0 0
          0 0 0 0 0 0
          0 0 0 0 0 0
          0 0 0 0 0 0
          0 0 0 0 0 0
          0 0 0 0 0 0
          0 0 0 0 0 0
          0 0 0 0 0 0
          0 0 0 0 0 0
          0 0 0 0 0 0
          0 0 0 0 0 0
          0 0 0 0 0 0
          0 0 0 0 0 0
          0 0 0 0 0 0
          0 0 0 0 0 0
          0 0 0 0 0 0
          0 0 0 0 0 0
          0 0 0 0 0 0
          0 0 0 0 0 0
          0 0 0 0 0 0
          0 0 0 0 0 0
          0 0 0 0 0 0
          0 0 0 0 0 0
          0 0 0 0 0 0
          0 0 0 0 0 0
          0 0 0 0 0 0
          0 0 0 0 0 0
          0 0 0 0 0 0
          0 0 0 0 0 0
          0 0 0 0 0 0
          0 0 0 0 0 0
          0 0 0 0 0 0
          0 0 0 0 0 0
          0 0 0 0
        </DataArray>
        <DataArray type="Float64" Name="markers_mustrefine" format="ascii" RangeMin="0" RangeMax="2">
          0 0 0 0 0 0
          0 0 0 0 0 0
          0 0 0 0 0 0
          0 0 0 0 0 0
          0 0 0 0 0 0
          0 0 0 0 2 0
          0 0 0 0 0 0
          0 0 0 0 0 0
          0 0 0 0 0 0
          0 0 0 0 0 0
          0.5 0 0 0 0 0
          0 0 0 0.5 0 0
          0 0 0 0.5 0.25 0
          0.25 1.5 1 0 0 0
          0.25 1 0.5 0 1.5 0
          1 0.5 2 1.5 0 0.5
          2 2 1 0 0 0
          0 0 0 0 0 0
          0 0 0 0 0 0
          0 0 0 0 0 0
          0 0 0 0 0 0
          0 0 0 0 0 0
          0 0 0 0 0 0
          0 0 0 0 0 0
          0 0 0 0 0 0
          0 0 0 0 0 0
          0 0 0 0 0 0
          0 0 0 0 0 0
          0 0 0 0 0 0
          0 0 0 0 0 0
          0 0 0 0 0 0
          0 0 0 0 0 0
          0 0 0 0 0 0
          0 0 0 0 0 0
          0 0 0 0 0 0
          0 0 0 0 0 0
          0 0 0 0 0 0
          0 0 0 0 0 0
          0 0 0 0 0 0
          0 0 0 0 0 0
          0 0 0 0 0 0
          0 0 0 0 0 0
          0 0 0 0 0 0
          0 0 0 0 0 0
          0 0 0 0 0 0
          0 0 0 0 0 0
          0 0 0 0 0 0
          0 0 0 0 0 0
          0 0 0 0 0 0
          0 0 0 0 0 0
          0 0 0 0 0 0
          0 0 0 0 0 0
          0 0 0 0 0 0
          0 0 0 0 0 0
          0 0 0 0 0 0
          0 0 0 0 0 0
          0 0 0 0 0 0
          0 0 0 0 0 0
          0 0 0 1 0.5 2
          1.5 0.5 2 2 1 0
          0 0 0 0 0 0
          0 0 0 0 0 0
          0 0 0 0 0 0
          0 0 0 0 0 0
          0 0 0 0 0 0
          0 0 0 0
        </DataArray>
        <DataArray type="Float64" Name="gradient_marker" format="ascii" RangeMin="1" RangeMax="1">
          1 1 1 1 1 1
          1 1 1 1 1 1
          1 1 1 1 1 1
          1 1 1 1 1 1
          1 1 1 1 1 1
          1 1 1 1 1 1
          1 1 1 1 1 1
          1 1 1 1 1 1
          1 1 1 1 1 1
          1 1 1 1 1 1
          1 1 1 1 1 1
          1 1 1 1 1 1
          1 1 1 1 1 1
          1 1 1 1 1 1
          1 1 1 1 1 1
          1 1 1 1 1 1
          1 1 1 1 1 1
          1 1 1 1 1 1
          1 1 1 1 1 1
          1 1 1 1 1 1
          1 1 1 1 1 1
          1 1 1 1 1 1
          1 1 1 1 1 1
          1 1 1 1 1 1
          1 1 1 1 1 1
          1 1 1 1 1 1
          1 1 1 1 1 1
          1 1 1 1 1 1
          1 1 1 1 1 1
          1 1 1 1 1 1
          1 1 1 1 1 1
          1 1 1 1 1 1
          1 1 1 1 1 1
          1 1 1 1 1 1
          1 1 1 1 1 1
          1 1 1 1 1 1
          1 1 1 1 1 1
          1 1 1 1 1 1
          1 1 1 1 1 1
          1 1 1 1 1 1
          1 1 1 1 1 1
          1 1 1 1 1 1
          1 1 1 1 1 1
          1 1 1 1 1 1
          1 1 1 1 1 1
          1 1 1 1 1 1
          1 1 1 1 1 1
          1 1 1 1 1 1
          1 1 1 1 1 1
          1 1 1 1 1 1
          1 1 1 1 1 1
          1 1 1 1 1 1
          1 1 1 1 1 1
          1 1 1 1 1 1
          1 1 1 1 1 1
          1 1 1 1 1 1
          1 1 1 1 1 1
          1 1 1 1 1 1
          1 1 1 1 1 1
          1 1 1 1 1 1
          1 1 1 1 1 1
          1 1 1 1 1 1
          1 1 1 1 1 1
          1 1 1 1 1 1
          1 1 1 1 1 1
          1 1 1 1
        </DataArray>
        <DataArray type="Float64" Name="gradient_matprop_marker" format="ascii" RangeMin="0" RangeMax="0">
          0 0 0 0 0 0
          0 0 0 0 0 0
          0 0 0 0 0 0
          0 0 0 0 0 0
          0 0 0 0 0 0
          0 0 0 0 0 0
          0 0 0 0 0 0
          0 0 0 0 0 0
          0 0 0 0 0 0
          0 0 0 0 0 0
          0 0 0 0 0 0
          0 0 0 0 0 0
          0 0 0 0 0 0
          0 0 0 0 0 0
          0 0 0 0 0 0
          0 0 0 0 0 0
          0 0 0 0 0 0
          0 0 0 0 0 0
          0 0 0 0 0 0
          0 0 0 0 0 0
          0 0 0 0 0 0
          0 0 0 0 0 0
          0 0 0 0 0 0
          0 0 0 0 0 0
          0 0 0 0 0 0
          0 0 0 0 0 0
          0 0 0 0 0 0
          0 0 0 0 0 0
          0 0 0 0 0 0
          0 0 0 0 0 0
          0 0 0 0 0 0
          0 0 0 0 0 0
          0 0 0 0 0 0
          0 0 0 0 0 0
          0 0 0 0 0 0
          0 0 0 0 0 0
          0 0 0 0 0 0
          0 0 0 0 0 0
          0 0 0 0 0 0
          0 0 0 0 0 0
          0 0 0 0 0 0
          0 0 0 0 0 0
          0 0 0 0 0 0
          0 0 0 0 0 0
          0 0 0 0 0 0
          0 0 0 0 0 0
          0 0 0 0 0 0
          0 0 0 0 0 0
          0 0 0 0 0 0
          0 0 0 0 0 0
          0 0 0 0 0 0
          0 0 0 0 0 0
          0 0 0 0 0 0
          0 0 0 0 0 0
          0 0 0 0 0 0
          0 0 0 0 0 0
          0 0 0 0 0 0
          0 0 0 0 0 0
          0 0 0 0 0 0
          0 0 0 0 0 0
          0 0 0 0 0 0
          0 0 0 0 0 0
          0 0 0 0 0 0
          0 0 0 0 0 0
          0 0 0 0 0 0
          0 0 0 0
        </DataArray>
        <DataArray type="Float64" Name="combo" format="ascii" RangeMin="1" RangeMax="1">
          1 1 1 1 1 1
          1 1 1 1 1 1
          1 1 1 1 1 1
          1 1 1 1 1 1
          1 1 1 1 1 1
          1 1 1 1 1 1
          1 1 1 1 1 1
          1 1 1 1 1 1
          1 1 1 1 1 1
          1 1 1 1 1 1
          1 1 1 1 1 1
          1 1 1 1 1 1
          1 1 1 1 1 1
          1 1 1 1 1 1
          1 1 1 1 1 1
          1 1 1 1 1 1
          1 1 1 1 1 1
          1 1 1 1 1 1
          1 1 1 1 1 1
          1 1 1 1 1 1
          1 1 1 1 1 1
          1 1 1 1 1 1
          1 1 1 1 1 1
          1 1 1 1 1 1
          1 1 1 1 1 1
          1 1 1 1 1 1
          1 1 1 1 1 1
          1 1 1 1 1 1
          1 1 1 1 1 1
          1 1 1 1 1 1
          1 1 1 1 1 1
          1 1 1 1 1 1
          1 1 1 1 1 1
          1 1 1 1 1 1
          1 1 1 1 1 1
          1 1 1 1 1 1
          1 1 1 1 1 1
          1 1 1 1 1 1
          1 1 1 1 1 1
          1 1 1 1 1 1
          1 1 1 1 1 1
          1 1 1 1 1 1
          1 1 1 1 1 1
          1 1 1 1 1 1
          1 1 1 1 1 1
          1 1 1 1 1 1
          1 1 1 1 1 1
          1 1 1 1 1 1
          1 1 1 1 1 1
          1 1 1 1 1 1
          1 1 1 1 1 1
          1 1 1 1 1 1
          1 1 1 1 1 1
          1 1 1 1 1 1
          1 1 1 1 1 1
          1 1 1 1 1 1
          1 1 1 1 1 1
          1 1 1 1 1 1
          1 1 1 1 1 1
          1 1 1 1 1 1
          1 1 1 1 1 1
          1 1 1 1 1 1
          1 1 1 1 1 1
          1 1 1 1 1 1
          1 1 1 1 1 1
          1 1 1 1
        </DataArray>
        <DataArray type="Float64" Name="dHdT" format="ascii" RangeMin="25.791348009374587" RangeMax="39.28802804419966">
          25.81138572808653 25.811402868246127 25.811314953878416 25.811373607447905 25.81142000840572 25.811432261017387
          25.813827544693815 25.81186918348353 25.814209104775603 25.811713360868914 25.811594172906453 25.81157798305084
          25.841607759192094 25.829600251578235 25.863971880054912 25.818980114578817 25.811598113073874 25.81172163547111
          32.806919453942704 25.939931247033247 36.448962084168784 25.943196425379476 25.813182844956497 25.817149737151176
          25.797035288673342 25.812632905426725 25.84475496676121 27.616572880435687 26.684925626493662 26.215876065186112
          26.365672347640448 25.816264949403017 25.81534817545424 25.878784013816748 38.62115141104927 27.411882133830467
          28.2493343822943 25.807994657477526 25.876250137094814 25.85236211714564 25.838840242181043 27.737019580439604
          27.643189522758117 26.445671354930898 26.550741316552784 25.827816033715763 25.892227466467478 25.863793393047143
          33.83910036885925 28.22091386114469 28.33195029318402 25.977829267551243 27.229254627244902 26.877971400867533
          27.51833682608621 31.883065428355412 32.65046434609175 29.925434291733644 29.9888949499646 26.525949380207294
          33.21492553469138 30.04200705129439 26.449074234433258 27.224333516299385 27.927765329050985 26.812165579784907
          39.28802804419966 33.70571025879723 32.56452052485679 34.453701477917626 27.9496736588372 33.135467991368174
          32.28240364816061 32.86264684365701 37.37508929151848 37.379899236850605 36.17037069077384 36.04767437810776
          32.355096314932574 37.26337296095468 36.19277932113892 30.99166366763302 33.038132823623556 33.506091250985406
          33.14470204778683 39.04076717053594 37.804010361283325 37.827466123122676 37.6494136609015 34.34089408206891
          33.23184479317874 32.36646093145522 37.069070016424334 36.118284632896106 31.017319859439343 33.17448819417835
          38.16633936724499 37.41403649359401 34.48744122953303 25.813126004255764 25.812581093576867 25.814964766144602
          25.799587538938276 25.80680953084255 25.808512815635144 25.804295500856583 25.81203618289797 25.81021610042774
          25.809003462774893 25.810818878061728 25.810167740220976 25.80763312319769 25.802341683467397 25.81157327747713
          25.812537908250405 25.814418956142745 25.804447368333655 25.794515626713817 25.813502539023688 25.794776631964133
          25.803077117493427 25.8024428573161 25.912878674817055 25.887318519527618 25.81137760302272 25.83803502139669
          25.86175836423819 25.89767737776589 25.93688940894449 26.027397128586788 25.81803882758502 25.81186306501888
          25.82309939561662 26.11790484822908 25.805687302452743 27.226457411459982 27.106227737993876 27.212148174605474
          28.930963990896604 28.859173166106885 28.508308414353053 28.593097911547133 26.98599806452777 28.157443662599228
          28.255231832197666 28.824144988290055 28.908599074017364 29.56249747252278 29.613869220407608 27.59848453772549
          27.94351780605673 28.06052002656471 30.3008499567555 30.31913936679785 28.288551074387964 25.81891051157848
          25.82090012277801 25.83799997302906 26.007398482522582 25.969215821966046 25.934229247809597 25.965169382611975
          25.82288973397754 25.899242673653156 25.92294028270137 25.99357410814146 26.028542625653635 26.111382873984418
          26.164808240642312 25.85141882314808 25.866491270010393 25.902090524306722 26.22919163982737 26.301073855630996
          25.88156371687271 29.102420249225034 28.250006455297676 27.601928272635913 31.439256864457136 31.678431371954193
          30.170663406843428 30.030530204158552 27.397592661370318 28.662895441732672 27.978731998202477 34.25444249468335
          32.09132035838919 31.816006957301944 29.928198222095027 27.479097550138675 27.336502686261476 27.410044990238198
          29.06795198263282 29.01550111485488 28.68228948115917 28.73111012751177 27.193907822384276 28.349077847463455
          28.39426827239072 35.09906015249584 33.91665686936771 33.69669026595499 36.667937967616496 37.00182452880546
          35.69235079641917 35.417220041231474 32.73425358623959 34.38287706403289 34.16650211484645 38.90458890511508
          37.46804472347063 37.13774981650795 36.03150054182619 28.96507648717015 28.982125920457854 29.645106612849155
          29.656697580225526 27.813840581347332 28.174789723148283 28.235640336888935 30.325136738528162 30.3312692399932
          28.535738864949234 25.79827426987084 25.80235096637501 25.814684256268606 25.7960560234586 25.801535283221998
          25.8070145429854 25.852680957547356 25.85200604057871 25.844804779649788 25.818978421422308 25.81598801757735
          25.79522528745744 25.801527850301998 25.812997613732392 25.807830413146554 27.746405985953714 26.627002346929565
          25.885807550364678 31.865076654885353 28.293166368044808 25.972646769881457 25.80974471025359 25.80987812026347
          25.800546359814085 25.803458001462133 25.81165123111804 25.8144189515368 25.812280455573465 25.791348009374587