<?xml version="1.0"?>
<VTKFile type="UnstructuredGrid" version="0.1" byte_order="LittleEndian" header_type="UInt32" compressor="vtkZLibDataCompressor">
  <UnstructuredGrid>
    <Piece NumberOfPoints="1566" NumberOfCells="1096">
      <PointData>
        <DataArray type="Int32" Name="libmesh_node_id" format="ascii" RangeMin="1037" RangeMax="9780">
          1159 1160 1648 1650 1651 1653
          1654 1656 2018 2031 2035 3354
          3355 3356 3357 3358 3360 3365
          3366 3369 3371 3372 3374 3385
          3387 3399 3401 3402 3403 3404
          3405 3406 3407 3408 3409 3410
          3418 3419 3420 3421 3422 3423
          3424 3427 3428 3433 3435 3436
          3437 3438 3439 3440 3441 3442
          3443 3444 3452 3453 3454 3455
          3456 3457 3458 3459 3460 3463
          3465 3466 3468 3479 3481 3483
          3485 3493 3494 3497 3499 3500
          3502 3513 3515 3517 3519 4633
          4652 4654 4667 4668 4670 4673
          4678 4679 4681 4683 4684 4685
          4686 4687 4688 4689 4690 4691
          4692 4693 4694 4695 4696 4697
          4698 4699 4700 4701 4702 4703
          4704 4705 4706 4707 4708 4709
          4710 4711 4712 4713 4714 4715
          4716 4717 4718 4719 4720 4721
          4722 4723 4724 4725 4726 4727
          4728 4729 4730 4743 4744 4746
          4749 4759 4761 4763 4777 4778
          4780 4783 4793 4795 4797 4799
          4800 4801 4802 4803 4804 4805
          4806 4807 4808 4809 4810 4811
          4812 4813 4814 4815 4816 4817
          4818 4819 4820 4821 4822 4823
          4824 4825 4826 4827 4828 4829
          4830 4831 4832 4833 4834 4835
          4836 4837 4838 4839 4840 4841
          4842 4843 4844 4845 4846 4847
          4848 4849 4850 4851 4852 4853
          4854 4855 4856 4857 4858 4859
          4860 4861 4862 4863 4864 4865
          4866 4867 4868 4869 4870 4871
          4872 4873 4884 4885 4886 4887
          4889 4890 4891 4892 4893 4894
          4895 4896 4897 4898 4899 4906
          4907 4909 4910 4911 4912 4913
          4914 4915 4916 4917 4919 4921
          4923 4984 4985 4986 4987 4988
          4989 4990 4991 4992 4993 4994
          4995 4998 5000 5001 5003 5004
          5005 5006 5007 5008 5009 5010
          5011 5013 5015 5017 5018 5019
          5020 5021 5022 5023 5024 5025
          5026 5027 5028 5029 5032 5034
          5035 5037 5038 5039 5040 5041
          5042 5043 5044 5045 5047 5049
          5051 8225 8226 8227 8228 8229
          8240 8241 8242 8243 8244 8245
          8246 8247 8248 8249 8253 8254
          8255 8256 8257 8258 8259 8260
          8261 8262 8263 8264 8265 8266
          8267 8268 8269 8270 8271 8272
          8273 8274 8275 8276 8277 8278
          8279 8280 8281 8282 8283 8284
          8285 8286 8287 8288 8289 8290
          8291 8292 8293 8294 8295 8296
          8297 8298 8299 8300 8301 8302
          8303 8304 8305 8306 8307 8308
          8309 8310 8311 8312 8313 8314
          8315 8316 8317 8318 8319 8320
          8321 8322 8323 8324 8325 8326
          8327 8328 8329 8330 8331 8332
          8333 8334 8335 8336 8337 8338
          8339 8340 8341 8342 8343 8344
          8345 8346 8347 8348 8349 8350
          8351 8352 8353 8354 8355 8356
          8357 8358 8359 8360 8439 8440
          8441 8442 8443 8444 8445 8446
          8447 8448 8456 8457 8458 8459
          8460 8461 8462 8473 8474 8475
          8476 8477 8478 8479 8480 8481
          8482 8490 8491 8492 8493 8494
          8495 8496 8520 8521 8522 8530
          8531 8532 8533 8534 8535 8536
          8615 8616 8617 8618 8619 8620
          8621 8622 8623 8624 8632 8633
          8634 8635 8636 8637 8638 8649
          8650 8651 8652 8653 8654 8655
          8656 8657 8658 8666 8667 8668
          8669 8670 8671 8672 8708 8709
          8710 8711 8712 8713 8714 8722
          8723 8724 8725 8726 8727 8728
          8729 8730 8731 8732 8733 8734
          8735 8736 8737 8738 8739 8740
          8741 8742 8743 8744 8745 8746
          8747 8748 8749 8750 8751 8752
          8753 8754 8755 8756 8757 8758
          8759 8760 8761 8762 8763 8764
          8765 8766 8767 8768 8769 8770
          8771 8772 8773 8774 8775 8776
          8777 8778 8779 8780 8781 8782
          8783 8784 8785 8786 8787 8788
          8789 8790 8791 8792 8793 8794
          8795 8796 8797 8798 8799 8800
          8801 8802 8803 8804 8805 8806
          8807 8808 8809 8810 8811 8812
          8813 8814 8815 8816 8817 8818
          8819 8820 8821 8822 8823 8824
          8825 8826 8827 8828 8829 8830
          8831 8832 8833 8834 8835 8836
          8837 8838 8839 8840 8841 8842
          8843 8844 8845 8846 8847 8848
          8849 8850 8851 8852 8853 8854
          8855 8856 8857 8858 8859 8860
          8861 8862 8863 8864 8865 8866
          8867 8868 8869 8870 8871 8872
          8873 8874 8875 8876 8877 8878
          8879 8880 8881 8882 8883 8884
          8885 8886 8887 8888 8889 8890
          8891 8892 8893 8894 8895 8896
          8897 8898 8899 8900 8901 8902
          8903 8904 8905 8906 8907 8908
          8909 8910 8911 8912 8913 8914
          8915 8916 8917 8918 8919 8920
          8921 8922 8923 8924 8925 8926
          8927 8928 8929 8930 8931 8932
          8933 8934 8935 8936 8937 8938
          8939 8940 8941 8942 8943 8944
          8945 8946 8947 8948 8949 8950
          8951 8952 8953 8954 8955 8956
          8957 8958 8959 8960 8961 8962
          8963 8964 8965 8966 8967 8968
          8969 8970 8971 8972 8973 8974
          8975 8976 8977 8978 8979 8980
          8981 8982 8983 8984 8985 8986
          8987 8988 8989 8990 8991 8992
          8993 8994 8995 8996 8997 8998
          8999 9000 9001 9002 9003 9004
          9005 9006 9007 9008 9009 9010
          9011 9012 9013 9014 9015 9016
          9017 9018 9019 9020 9021 9022
          9023 9024 9025 9026 9027 9028
          9029 9030 9031 9032 9033 9034
          9035 9036 9037 9038 9039 9040
          9041 9042 9043 9044 9045 9046
          9047 9048 9049 9050 9051 9052
          9053 9054 9055 9056 9057 9058
          9059 9060 9061 9062 9063 9064
          9065 9066 9067 9068 9069 9070
          9071 9072 9073 9074 9075 9076
          9077 9078 9079 9080 9081 9082
          9083 9084 9085 9086 9087 9088
          9089 9090 9091 9092 9093 9094
          9095 9096 9097 9098 9099 9100
          9101 9102 9103 9104 9105 9106
          9107 9108 9109 9111 9116 9117
          9118 9119 9120 9121 9122 9123
          9124 9125 9126 9127 9128 9129
          9130 9131 9132 9133 9134 9135
          9136 9137 9138 9139 9140 9141
          9142 9143 9144 9145 9146 9147
          9148 9149 9150 9151 9152 9153
          9154 9155 9156 9157 9158 9159
          9160 9161 9162 9163 9164 9165
          9166 9167 9168 9171 9173 9174
          9176 9187 9188 9189 9193 9194
          9195 9196 9197 9198 9199 9200
          9201 9202 9213 9214 9215 9216
          9217 9218 9219 9227 9228 9229
          9230 9231 9232 9233 9234 9235
          9238 9397 9398 9399 9400 9401
          9402 9403 9404 9405 9406 9407
          9408 9409 9410 9411 9412 9413
          9414 9415 9416 9417 9418 9419
          9420 9421 9422 9423 9424 9425
          9426 9427 9428 9429 9430 9431
          9432 9433 9434 9435 9436 9437
          9438 9439 9440 9441 9442 9443
          9444 9445 9446 9447 9448 9449
          9450 9451 9452 9453 9454 9455
          9456 9457 9458 9459 9460 9461
          9462 9463 9464 9465 9466 9467
          9468 9469 9470 9471 9472 9473
          9474 9485 9486 9487 9488 9489
          9490 9491 9499 9500 9501 9502
          9503 9504 9505 9506 9507 9508
          9519 9520 9521 9522 9523 9524
          9525 9533 9534 9535 9536 9537
          9538 9539 9540 9541 9542 9543
          9544 9545 9546 9547 9548 9549
          9550 9551 9552 9553 9554 9555
          9556 9557 9558 9559 9560 9561
          9562 9563 9564 9565 9566 9567
          9570 9574 9575 9576 9577 9578
          9579 9580 9581 9584 9588 9589
          9590 9591 9592 9593 9594 9595
          9596 9597 9598 9599 9600 9601
          9602 9603 9604 9605 9606 9607
          9608 9609 9610 9611 9612 9613
          9614 9615 9616 9617 9618 9619
          9620 9621 9622 9623 9624 9625
          9626 9627 9628 9629 9630 9631
          9632 9633 9634 9635 9636 9637
          9638 9639 9640 9641 9642 9643
          9644 9645 9646 9647 9648 9649
          9650 9651 9652 9653 9654 9655
          9656 9657 9658 9659 9660 9661
          9662 9663 9664 9665 9666 9673
          9674 9676 9677 9678 9679 9680
          9681 9682 9683 9688 9690 9691
          9692 9693 9694 9695 9696 9697
          9698 9699 9700 9701 9702 9705
          9707 9708 9710 9711 9712 9713
          9714 9715 9716 9717 9718 9720
          9722 9724 9725 9726 9727 9728
          9729 9730 9731 9732 9733 9734
          9735 9736 9737 9738 9739 9740
          9741 9742 9743 9744 9745 9746
          9747 9748 9749 9750 9751 9752
          9753 9754 9755 9756 9757 9758
          9759 9762 9764 9766 9767 9768
          9769 9770 9771 9772 9773 9774
          9776 9778 9780 1037 1304 1305
          1292 1630 1638 1639 1631 1642
          1633 1636 1645 1647 1154 1637
          2017 1652 2030 1657 2034 2027
          1662 2037 1667 2041 3322 3339
          3340 3359 3367 3368 3342 3370
          1153 3345 1644 3373 3392 3394
          3396 3395 3398 1649 3400 1634
          3343 3344 3335 3393 3346 1635
          3352 3412 3414 3416 3430 3446
          3448 1655 3450 3462 3464 3386
          3480 3482 1659 3484 3498 3514
          3516 1665 3518 4650 4651 4665
          4666 4653 4669 4672 4674 4680
          4745 4758 4682 4760 4762 4764
          4792 4794 4796 4798 4634 4635
          4874 4875 4637 4878 4880 4881
          4883 4901 4904 4888 4905 4918
          4920 3467 4922 5012 5014 5016
          5046 5048 5050 8223 8232 8233
          8235 4671 8238 8431 8432 8434
          4741 8437 4742 8251 8450 8452
          8454 8465 8466 8468 4747 8471
          4748 8484 8486 8488 4750 8518
          8524 8526 8528 8607 8608 8610
          4775 8613 4776 8626 8628 8630
          4779 8641 8642 8644 4781 8647
          4782 8660 8662 8664 4784 8702
          8704 8706 8716 8718 8720 9110
          9169 9170 9172 4900 9175 9183
          9184 9203 9204 9186 9207 9209
          9210 9212 9190 9220 9192 9222
          9224 9226 9475 9476 9479 9481
          9482 9484 9492 9494 9496 9498
          9509 9510 9513 9515 9516 9518
          9526 9528 9530 9532 9236 9568
          9237 9569 9571 9572 9573 9582
          9583 9585 9586 9587 9667 9668
          9671 9669 9670 5030 9675 9672
          5031 9684 9686 9685 9689 9687
          5033 9703 9704 9706 1664 9709
          5036 9719 9721 9723 3501 9760
          9761 9763 9765 9775 9777 9779
        </DataArray>
        <DataArray type="Float64" Name="bounds" format="ascii" RangeMin="0" RangeMax="0">
          0 0 0 0 0 0
          0 0 0 0 0 0
          0 0 0 0 0 0
          0 0 0 0 0 0
          0 0 0 0 0 0
          0 0 0 0 0 0
          0 0 0 0 0 0
          0 0 0 0 0 0
          0 0 0 0 0 0
          0 0 0 0 0 0
          0 0 0 0 0 0
          0 0 0 0 0 0
          0 0 0 0 0 0
          0 0 0 0 0 0
          0 0 0 0 0 0
          0 0 0 0 0 0
          0 0 0 0 0 0
          0 0 0 0 0 0
          0 0 0 0 0 0
          0 0 0 0 0 0
          0 0 0 0 0 0
          0 0 0 0 0 0
          0 0 0 0 0 0
          0 0 0 0 0 0
          0 0 0 0 0 0
          0 0 0 0 0 0
          0 0 0 0 0 0
          0 0 0 0 0 0
          0 0 0 0 0 0
          0 0 0 0 0 0
          0 0 0 0 0 0
          0 0 0 0 0 0
          0 0 0 0 0 0
          0 0 0 0 0 0
          0 0 0 0 0 0
          0 0 0 0 0 0
          0 0 0 0 0 0
          0 0 0 0 0 0
          0 0 0 0 0 0
          0 0 0 0 0 0
          0 0 0 0 0 0
          0 0 0 0 0 0
          0 0 0 0 0 0
          0 0 0 0 0 0
          0 0 0 0 0 0
          0 0 0 0 0 0
          0 0 0 0 0 0
          0 0 0 0 0 0
          0 0 0 0 0 0
          0 0 0 0 0 0
          0 0 0 0 0 0
          0 0 0 0 0 0
          0 0 0 0 0 0
          0 0 0 0 0 0
          0 0 0 0 0 0
          0 0 0 0 0 0
          0 0 0 0 0 0
          0 0 0 0 0 0
          0 0 0 0 0 0
          0 0 0 0 0 0
          0 0 0 0 0 0
          0 0 0 0 0 0
          0 0 0 0 0 0
          0 0 0 0 0 0
          0 0 0 0 0 0
          0 0 0 0 0 0
          0 0 0 0 0 0
          0 0 0 0 0 0
          0 0 0 0 0 0
          0 0 0 0 0 0
          0 0 0 0 0 0
          0 0 0 0 0 0
          0 0 0 0 0 0
          0 0 0 0 0 0
          0 0 0 0 0 0
          0 0 0 0 0 0
          0 0 0 0 0 0
          0 0 0 0 0 0
          0 0 0 0 0 0
          0 0 0 0 0 0
          0 0 0 0 0 0
          0 0 0 0 0 0
          0 0 0 0 0 0
          0 0 0 0 0 0
          0 0 0 0 0 0
          0 0 0 0 0 0
          0 0 0 0 0 0
          0 0 0 0 0 0
          0 0 0 0 0 0
          0 0 0 0 0 0
          0 0 0 0 0 0
          0 0 0 0 0 0
          0 0 0 0 0 0
          0 0 0 0 0 0
          0 0 0 0 0 0
          0 0 0 0 0 0
          0 0 0 0 0 0
          0 0 0 0 0 0
          0 0 0 0 0 0
          0 0 0 0 0 0
          0 0 0 0 0 0
          0 0 0 0 0 0
          0 0 0 0 0 0
          0 0 0 0 0 0
          0 0 0 0 0 0
          0 0 0 0 0 0
          0 0 0 0 0 0
          0 0 0 0 0 0
          0 0 0 0 0 0
          0 0 0 0 0 0
          0 0 0 0 0 0
          0 0 0 0 0 0
          0 0 0 0 0 0
          0 0 0 0 0 0
          0 0 0 0 0 0
          0 0 0 0 0 0
          0 0 0 0 0 0
          0 0 0 0 0 0
          0 0 0 0 0 0
          0 0 0 0 0 0
          0 0 0 0 0 0
          0 0 0 0 0 0
          0 0 0 0 0 0
          0 0 0 0 0 0
          0 0 0 0 0 0
          0 0 0 0 0 0
          0 0 0 0 0 0
          0 0 0 0 0 0
          0 0 0 0 0 0
          0 0 0 0 0 0
          0 0 0 0 0 0
          0 0 0 0 0 0
          0 0 0 0 0 0
          0 0 0 0 0 0
          0 0 0 0 0 0
          0 0 0 0 0 0
          0 0 0 0 0 0
          0 0 0 0 0 0
          0 0 0 0 0 0
          0 0 0 0 0 0
          0 0 0 0 0 0
          0 0 0 0 0 0
          0 0 0 0 0 0
          0 0 0 0 0 0
          0 0 0 0 0 0
          0 0 0 0 0 0
          0 0 0 0 0 0
          0 0 0 0 0 0
          0 0 0 0 0 0
          0 0 0 0 0 0
          0 0 0 0 0 0
          0 0 0 0 0 0
          0 0 0 0 0 0
          0 0 0 0 0 0
          0 0 0 0 0 0
          0 0 0 0 0 0
          0 0 0 0 0 0
          0 0 0 0 0 0
          0 0 0 0 0 0
          0 0 0 0 0 0
          0 0 0 0 0 0
          0 0 0 0 0 0
          0 0 0 0 0 0
          0 0 0 0 0 0
          0 0 0 0 0 0
          0 0 0 0 0 0
          0 0 0 0 0 0
          0 0 0 0 0 0
          0 0 0 0 0 0
          0 0 0 0 0 0
          0 0 0 0 0 0
          0 0 0 0 0 0
          0 0 0 0 0 0
          0 0 0 0 0 0
          0 0 0 0 0 0
          0 0 0 0 0 0
          0 0 0 0 0 0
          0 0 0 0 0 0
          0 0 0 0 0 0
          0 0 0 0 0 0
          0 0 0 0 0 0
          0 0 0 0 0 0
          0 0 0 0 0 0
          0 0 0 0 0 0
          0 0 0 0 0 0
          0 0 0 0 0 0
          0 0 0 0 0 0
          0 0 0 0 0 0
          0 0 0 0 0 0
          0 0 0 0 0 0
          0 0 0 0 0 0
          0 0 0 0 0 0
          0 0 0 0 0 0
          0 0 0 0 0 0
          0 0 0 0 0 0
          0 0 0 0 0 0
          0 0 0 0 0 0
          0 0 0 0 0 0
          0 0 0 0 0 0
          0 0 0 0 0 0
          0 0 0 0 0 0
          0 0 0 0 0 0
          0 0 0 0 0 0
          0 0 0 0 0 0
          0 0 0 0 0 0
          0 0 0 0 0 0
          0 0 0 0 0 0
          0 0 0 0 0 0
          0 0 0 0 0 0
          0 0 0 0 0 0
          0 0 0 0 0 0
          0 0 0 0 0 0
          0 0 0 0 0 0
          0 0 0 0 0 0
          0 0 0 0 0 0
          0 0 0 0 0 0
          0 0 0 0 0 0
          0 0 0 0 0 0
          0 0 0 0 0 0
          0 0 0 0 0 0
          0 0 0 0 0 0
          0 0 0 0 0 0
          0 0 0 0 0 0
          0 0 0 0 0 0
          0 0 0 0 0 0
          0 0 0 0 0 0
          0 0 0 0 0 0
          0 0 0 0 0 0
          0 0 0 0 0 0
          0 0 0 0 0 0
          0 0 0 0 0 0
          0 0 0 0 0 0
          0 0 0 0 0 0
          0 0 0 0 0 0
          0 0 0 0 0 0
          0 0 0 0 0 0
          0 0 0 0 0 0
          0 0 0 0 0 0
          0 0 0 0 0 0
          0 0 0 0 0 0
          0 0 0 0 0 0
          0 0 0 0 0 0
          0 0 0 0 0 0
          0 0 0 0 0 0
          0 0 0 0 0 0
          0 0 0 0 0 0
          0 0 0 0 0 0
          0 0 0 0 0 0
          0 0 0 0 0 0
          0 0 0 0 0 0
          0 0 0 0 0 0
          0 0 0 0 0 0
          0 0 0 0 0 0
          0 0 0 0 0 0
          0 0 0 0 0 0
          0 0 0 0 0 0
          0 0 0 0 0 0
          0 0 0 0 0 0
          0 0 0 0 0 0
          0 0 0 0 0 0
          0 0 0 0 0 0
        </DataArray>
        <DataArray type="Float64" Name="gradient_error" format="ascii" RangeMin="1.8166657217314793e-9" RangeMax="7.474857115355556e-7">
          3.008468256278147e-9 3.252043526078769e-7 7.049954953899138e-9 6.6973687934205885e-9 4.853056668014788e-7 2.3387227099384474e-7
          2.011731250742904e-9 6.399965166866715e-7 4.451748564358707e-8 1.1141545435519013e-7 1.4475971575712546e-7 2.7221190814409546e-7
          2.496899309717194e-7 1.594969574951906e-7 1.8335175215387318e-7 1.6128263538786867e-7 1.392135186218641e-7 3.286611554854792e-7
          2.885716836233199e-7 2.484822117611606e-7 4.795743352420476e-7 5.291066326782744e-7 4.986534847313641e-7 2.2346331101297047e-7
          1.1227799530989198e-7 1.8427963502401625e-7 4.5156928294810224e-7 4.459377651784389e-7 4.807723825793524e-7 4.7090296241520667e-7
          4.857722127911361e-7 4.875436518329601e-7 6.414991420146193e-9 6.205765333341508e-8 5.1351601659623404e-8 4.768749542708014e-7
          3.703996584821411e-7 3.4809589483014966e-7 2.027932448643315e-7 1.7312657660832602e-7 5.564694352779262e-7 5.379039363816214e-7
          3.02599945386598e-7 3.486407009474713e-9 9.7735221395135e-9 8.036814940103231e-9 4.21542842563966e-9 1.049472275868052e-8
          5.038480144750918e-9 1.183107206573684e-8 5.779707809269992e-7 5.994507291331821e-7 2.4593353639815436e-9 9.51022001916775e-9
          1.1544849212510012e-8 6.129084055679612e-7 6.959185866356107e-7 6.842118084505152e-7 3.9583626153654563e-7 3.468159632024867e-7
          7.474857115355556e-7 7.391176028263675e-7 4.325621645333677e-7 2.840732684960704e-7 3.969124630230615e-7 4.830621548602935e-7
          7.895903489155549e-9 5.685866929480506e-8 4.870572839568011e-7 3.1968517278257833e-7 1.4068457144269602e-7 5.090562593402519e-7
          2.132118479492799e-7 6.0145877542056804e-9 1.397670605136506e-8 6.146546675473867e-7 3.719683836796427e-9 1.4016253067711927e-8
          6.603442055230531e-7 6.595139075787666e-7 2.881707751434313e-7 7.168223310292156e-7 3.1900900196380287e-7 1.0718744636322204e-7
          1.1011832047181142e-7 1.1457020250279924e-7 6.064072215045881e-8 7.400716436257676e-8 1.0006002241922802e-7 2.2937491645250876e-8
          1.2185851327253035e-7 1.1836207700760694e-7 1.3283689251337274e-7 1.1295584404199315e-7 1.1493889688282673e-7 1.1997911064094691e-7
          1.190433413222052e-7 1.2245113576736852e-7 1.2514215214637883e-7 1.307221011675781e-7 1.2936606169530283e-7 1.1689129307200373e-7
          1.2140787922957106e-7 1.1261785322325736e-7 1.2579702835667853e-7 1.3027877804753005e-7 1.2069510184814053e-7 6.304606549866318e-8
          6.450451160604595e-8 6.538923772385633e-8 6.721538675919226e-8 9.680984613038026e-8 1.007674281176707e-7 6.606795998646133e-9
          1.025301525493448e-8 9.986136322838402e-9 7.502993770007411e-8 6.771340646448278e-8 6.998641088111121e-8 7.01045592878431e-8
          7.295162207006517e-8 1.0525825611723934e-7 1.1015022869671395e-7 6.427820386208014e-9 9.8317405941199e-9 9.823145843225335e-9
          4.899952041959983e-8 1.2433890959185768e-7 1.2936941708848104e-7 1.211942963812845e-7 1.2635223100267483e-7 1.3605711780753695e-7
          1.2604414327292752e-7 1.3701386828834924e-7 1.3455027479116476e-7 1.3998252284230749e-7 1.3090043882444582e-7 1.354165348549656e-7
          1.1588808191140582e-7 1.2115150819443217e-7 1.4946562301397163e-7 4.016537393579353e-9 5.5435950446559614e-9 4.21065085121422e-8
          5.054714319846391e-9 1.0771193852941164e-7 1.4129598285504703e-7 8.13514929886335e-8 2.537129221297576e-9 4.724074559467346e-9
          8.35264563790104e-9 4.550371953755277e-9 8.175440199249282e-8 1.473686168096285e-7 8.18420068291161e-8 4.534599699177095e-9
          5.925784691928244e-9 5.054531884551344e-9 6.4520045690740416e-9 4.3339730154891776e-8 2.8881616394238714e-8 3.842611415148775e-9
          5.594385045552188e-9 6.17586630281171e-9 1.0067271912993772e-8 5.589734357664083e-9 7.097302106056563e-9 6.157113877226195e-9
          7.842559698541642e-9 1.3801410815185202e-8 1.425225664809677e-8 4.611845657099492e-9 6.810535639961162e-9 7.508004870124389e-9
          1.107654594751782e-8 1.1238241238897604e-7 1.016755455245388e-7 1.4783814739187342e-7 1.5476324512176978e-7 8.510000950400191e-8
          8.925200150260008e-8 1.525662140406166e-7 9.08320215275962e-8 9.535210725311937e-8 1.619813866846946e-7 1.6982151700344567e-7
          9.383555234658547e-8 9.893734562847408e-8 1.6814853029141586e-7 2.7891413137907136e-9 5.216066903159781e-9 3.0610633326100517e-9
          5.7547746703253896e-9 8.857731297651339e-9 9.549348435990212e-9 2.2250996710625826e-9 5.032333007160209e-9 5.556909073684357e-9
          8.677529780187084e-9 3.3568956837309812e-9 6.346067207470922e-9 3.681864933292824e-9 7.0012228880048265e-9 1.0438806093816874e-8
          1.1492950953182504e-8 2.7184166905166237e-9 6.130019796214528e-9 6.766491701936781e-9 1.0487461976150965e-8 8.556983859330129e-8
          8.985053641320406e-8 1.5438966974957483e-7 1.6240351525037803e-7 8.563073621174974e-8 8.993012762787664e-8 1.5506620916427652e-7
          9.461907158109626e-8 9.993446528594333e-8 1.715027844767631e-7 1.8154578934389586e-7 9.480069374447098e-8 1.0029983580901152e-7
          1.728458115128914e-7 1.1748049472407026e-7 1.1382457708153735e-7 1.1016865943900446e-7 1.33422836757429e-7 1.3707165423842142e-7
          1.1529453936456316e-7 1.4125812454330653e-7 1.3489860287488893e-7 1.3970145114844997e-7 1.280014283825786e-7 1.446643428696318e-7
          1.3407786531520555e-7 7.270076871277575e-8 7.62284314509004e-8 4.385774087319741e-8 6.39953845094143e-8 1.1557256615054927e-7
          1.215158630921778e-7 7.228187876439784e-9 1.0028157175398541e-8 1.0493523575420948e-8 5.3959893460227004e-8 8.75630361111612e-9
          1.1197681087714817e-8 6.012630036389812e-8 1.4572731967535494e-7 1.5184783712289044e-7 1.399662529020255e-7 1.444032109279375e-7
          1.2680001172798388e-7 1.3288984179143294e-7 1.6235352873274084e-7 1.5833264327527871e-7 1.485446691643237e-7 1.3940517939018023e-7
          1.7626602103823117e-7 6.766996744741332e-9 8.683473469551124e-9 7.435885657670191e-9 9.633320147242441e-9 1.4878485433977628e-8
          1.570054142513382e-8 5.502888806860534e-9 8.288016094897212e-9 9.170593169849944e-9 1.279443221223329e-8 8.180172435700551e-9
          1.0717015706384176e-8 1.6783441802349227e-8 6.587116529020694e-9 1.018346204340126e-8 1.541230005064433e-8 1.0027856153202803e-7
          1.0568323923304707e-7 1.783674952382236e-7 1.8762166825829825e-7 1.0449515923896166e-7 1.1063285931836506e-7 1.8737153770925105e-7
          1.114856128408919e-7 1.9754834450287753e-7 1.1732411653009812e-7 2.1053047277028516e-7 4.043186256632636e-9 7.737457245080629e-9
          4.451329833157554e-9 8.578414128767453e-9 1.2687991024303463e-8 1.402798780195834e-8 3.3380899687642766e-9 7.486783391923531e-9
          8.316248788784215e-9 1.2699607950248448e-8 4.921460982834866e-9 9.556399515786402e-9 1.556171796739113e-8 4.1696395020110245e-9
          9.287810842576979e-9 1.5545734971796603e-8 1.0578966921504472e-7 1.1236911655078177e-7 1.9242276055614034e-7 2.043257628618861e-7
          1.0634908763760455e-7 1.1308152263171068e-7 1.9406145612621643e-7 1.1965853051644228e-7 2.173896194981438e-7 1.2052176931226434e-7
          2.1929441339845178e-7 1.2878721594102126e-8 1.2843365480445264e-8 1.3040043013661474e-8 1.28080093667884e-8 1.4396916285041555e-8
          1.1332486041308326e-8 1.1756412855261633e-8 1.117993369312405e-8 1.1695976721075414e-8 1.2180339669214938e-8 1.2867444808403328e-8
          7.363983907168702e-9 8.3003279632342e-9 8.035217150873504e-9 9.94204610310853e-9 1.4358857916240178e-8 1.4539420905323929e-8
          1.241587994059984e-8 1.3069296145942645e-8 1.3478965610473483e-8 1.312674911094535e-8 1.3166717171380637e-8 1.3234066211386997e-8
          1.3850791462509489e-8 1.3117731491667516e-8 1.3271181736267752e-8 1.3293520379139672e-8 1.426590868308973e-8 1.4656021717016989e-8
          1.507939819204432e-8 1.481714574083092e-8 1.5398357511289275e-8 1.5716522642261535e-8 1.568952963726708e-8 1.098788968318287e-8
          1.1577524425435005e-8 1.0778080925666188e-8 1.1423372035259796e-8 1.316249018377954e-8 1.314692252537747e-8 6.793511448469377e-9
          7.79081959681508e-9 7.576988532487161e-9 1.0511919546152257e-8 1.0572710920663533e-8 1.1262879614959834e-8 1.0380347572049596e-8
          1.110675564655516e-8 1.3173296915640682e-8 1.3190220958080662e-8 6.483839353675334e-9 7.411999992650456e-9 7.303513448533261e-9
          1.010396590281557e-8 1.4521833372277436e-8 1.4820919714932523e-8 1.488584554468293e-8 1.5416657523963505e-8 1.33885360906706e-8
          1.3459178758482143e-8 1.4541360834197473e-8 1.5079650799185182e-8 1.5328016046336287e-8 1.5765756076345133e-8 1.610875389757197e-8
          1.3553764448948258e-8 1.3626133153274071e-8 1.5239757723890955e-8 1.3049153579439522e-8 1.3311518592393599e-8 1.3305371829298812e-8
          1.464162918891708e-8 1.2828635812998864e-8 1.3250252870320871e-8 1.313102002068729e-8 1.501540011236271e-8 1.6054076890370515e-8
          1.6412953581243747e-8 1.639877900825454e-8 1.6793211276178015e-8 1.7184527635908433e-8 1.7227492255273486e-8 1.0204222824120534e-8
          1.0961229652715364e-8 1.0039363262699203e-8 1.0823913796771088e-8 1.3202795791575775e-8 1.3212934511136503e-8 6.394481497290588e-9
          7.2460898409214385e-9 7.241218069457415e-9 9.89420500641173e-9 9.886401144809056e-9 1.069380600571783e-8 9.758048632396505e-9
          1.0574992238094345e-8 1.3224285428800212e-8 1.3238388979436724e-8 6.526652205648674e-9 7.29467661000348e-9 7.41064198059063e-9
          9.805269090347726e-9 1.558367552550248e-8 1.584618686032677e-8 1.647999594916361e-8 1.6874969029223507e-8 1.3694227034609314e-8
          1.3769131268192012e-8 1.6513327654688658e-8 1.6115489411577686e-8 1.639253510106223e-8 1.728361883218155e-8 1.7700228087043203e-8
          1.3855871275776393e-8 1.3963598669829335e-8 1.715946567955657e-8 1.7973289095919567e-8 1.8297222381836662e-8 1.8878917896637744e-8
          1.8449946281502274e-8 1.9398556731591252e-8 1.9929865527719764e-8 1.9646527194944033e-8 4.362489877749424e-9 5.050139868388138e-9
          4.415335849434657e-9 5.047166253068937e-9 7.513929663438636e-9 7.381779453786998e-9 3.769879870826809e-9 4.121148490587709e-9
          4.352744963878676e-9 5.422942127119282e-9 1.1097868487339116e-8 1.1064536577559518e-8 1.2905667506827813e-8 1.304451090424826e-8
          8.600154743979478e-9 8.572383524602094e-9 1.223133592939766e-8 3.634445740234982e-9 3.992100199621407e-9 3.847318235942136e-9
          4.226962304610528e-9 4.9018330139281345e-9 5.160166629957665e-9 3.312131533908692e-9 3.755775036015871e-9 3.954309976747462e-9
          4.796146130123581e-9 6.908292337508184e-9 7.028510839018041e-9 1.123343929217962e-8 1.1281896025099652e-8 6.242427172178799e-9
          6.4862499796606805e-9 9.677885862909646e-9 1.5624027630604194e-8 1.5920422976693216e-8 1.6207732161153404e-8 1.5243018396971297e-8
          1.5494895045577563e-8 1.638183151575129e-8 1.6769292832355494e-8 1.4347445446328948e-8 1.454035340560315e-8 1.643109978907209e-8
          2.87568741122712e-9 3.4179179251053686e-9 3.018943680700006e-9 3.590494303996159e-9 4.6577456262727e-9 4.897553543128216e-9
          2.4173839045365887e-9 3.0669141643146676e-9 3.2207879711020096e-9 4.49431994412901e-9 6.043939165965431e-9 6.334261625903922e-9
          8.71395278534264e-9 8.870261049485367e-9 5.9682108852548565e-9 6.271476293059883e-9 8.158678183893123e-9 2.053674114633002e-9
          2.7946871614318196e-9 2.1584486367600016e-9 2.9374489920451402e-9 4.371049475475989e-9 4.596748621632695e-9 1.9120863433219975e-9
          2.6908192308665727e-9 2.8299340107275805e-9 4.32556498664512e-9 5.927808307625124e-9 6.2437314951377455e-9 7.876516125779957e-9
          8.103483778585934e-9 5.918351053449612e-9 6.238317035398578e-9 7.793869120493476e-9 1.342535343700627e-8 1.3610455032859583e-8
          1.615533682169634e-8 1.6515849059592155e-8 1.2732919301681997e-8 1.292311413153385e-8 1.5812708541922194e-8 1.2343303408652173e-8
          1.2533926541677996e-8 1.5582792438273337e-8 1.5871300620524505e-8 1.2238593358633401e-8 1.243119518926307e-8 1.5544572728299982e-8
          4.530993123710784e-9 5.108126622198854e-9 4.702500369431416e-9 5.221369748763599e-9 7.253445697962979e-9 7.18629862067099e-9
          4.273933702115757e-9 4.604338674142875e-9 4.871249555486928e-9 5.714293201513413e-9 4.917590472555285e-9 5.38427443202713e-9
          5.165338482465706e-9 5.595420871629758e-9 7.2007178208181115e-9 7.276908950251912e-9 4.794519360341975e-9 5.148744720484903e-9
          5.43246223180062e-9 6.1724801228466365e-9 1.1015212253863273e-8 1.0992477203618344e-8 1.3208793232487517e-8 1.3352596293990489e-8
          8.589112965212615e-9 8.644460023729779e-9 1.2280032600911477e-8 1.0991612917339743e-8 1.0986149294227923e-8 1.3432748584542236e-8
          1.49086659743264e-8 8.734412137954376e-9 8.867261224440262e-9 1.2368532712345055e-8 4.0605501482817974e-9 4.462933334587678e-9
          4.275441572583237e-9 4.7007715828729245e-9 5.43383188488199e-9 5.720746693884358e-9 3.662920858181234e-9 4.156538981679075e-9