<?xml version="1.0"?>
<VTKFile type="UnstructuredGrid" version="0.1" byte_order="LittleEndian" header_type="UInt32" compressor="vtkZLibDataCompressor">
  <UnstructuredGrid>
    <Piece NumberOfPoints="742" NumberOfCells="456">
      <PointData>
        <DataArray type="Int32" Name="libmesh_node_id" format="ascii" RangeMin="290" RangeMax="6705">
          290 424 432 894 895 896
          904 905 906 907 908 909
          910 914 998 1006 1067 1471
          1472 1473 1476 1479 1493 1494
          1497 1499 1513 1514 1516 1519
          1535 1536 1537 1538 1539 1540
          1541 1542 1543 1544 1545 1546
          1547 1548 1549 1550 1551 1552
          1553 1554 1555 1556 1557 1559
          1560 1561 1562 1563 1564 1565
          1566 1567 1568 1569 1570 1571
          1573 1575 1583 1585 1586 1587
          1589 1864 1865 1870 1920 1921
          1922 1923 1926 1927 1928 1930
          1931 1932 1933 1936 1937 1954
          1955 1956 1957 2293 2294 2295
          2296 2297 2298 2299 2487 2488
          2489 2490 2491 2492 2493 2494
          2495 2496 2497 2498 2499 2500
          2501 2502 2503 2610 2611 2612
          2613 2614 2615 2616 2617 2618
          2619 2778 2779 2780 2781 2782
          2784 2785 2786 2787 2788 2789
          2801 2802 2803 2805 2806 2807
          2808 2809 2892 2893 2894 2895
          2896 2897 2898 2899 2900 2901
          2909 2910 2911 2912 2913 2914
          2915 2926 2927 2928 2929 2930
          2931 2932 2933 2934 2935 2943
          2944 2945 2946 2947 2948 3003
          3004 3007 3008 3009 3038 3039
          3059 3060 3061 3062 3063 3064
          3065 3066 3067 3068 3069 3070
          3071 3072 3073 3074 3075 3076
          3077 3078 3079 3080 3081 3082
          3083 3084 3085 3086 3087 3088
          3089 3090 3091 3092 3093 3094
          3095 3096 3097 3098 3099 3100
          3101 3102 3103 3104 3105 3106
          3107 3108 3109 3110 3111 3112
          3113 3114 3115 3116 3117 3118
          3119 3120 3121 3122 3123 3124
          3125 3126 3127 3128 3129 3130
          3131 3132 3133 3134 3135 3136
          3137 3138 3139 3140 3141 3142
          3143 3144 3145 3146 3147 3148
          3149 3151 3152 3153 3154 3155
          3156 3158 3159 3160 3161 3162
          3163 3164 3165 3166 3167 3168
          3169 3170 3171 3172 3173 3174
          3175 3176 3177 3178 3179 3180
          3181 3182 3183 3184 3185 3186
          3187 3188 3189 3190 3191 3192
          3193 3194 3195 3196 3197 3198
          3199 3200 3201 3202 3203 3204
          3206 3207 3208 3209 3210 3211
          3212 3213 3214 3216 3217 3218
          3219 3220 3221 3222 3223 3224
          3226 3227 3228 3229 3230 3231
          3232 3233 3234 3236 3237 3243
          3244 3270 3271 3272 3273 3274
          3275 3276 4012 4013 4014 4015
          4016 4017 4018 4019 4020 4021
          4029 4030 4033 4034 4048 4049
          4051 4054 4064 4229 4230 4232
          4381 4382 4383 4384 4385 4386
          4387 4388 4389 4390 4391 4392
          4393 4394 4395 4396 4397 4398
          4399 4400 4401 4402 4405 4406
          4408 4409 4412 4413 4415 4416
          4417 4418 4419 4420 4421 4422
          4423 4424 4425 4426 4427 4428
          4429 4430 4431 4432 4433 4434
          4435 4436 4442 4443 4449 4450
          4451 4452 4453 4454 4455 4456
          4457 4458 4459 4460 4461 4462
          4463 4464 4465 4466 4467 4468
          4469 4470 4473 4474 4476 4477
          4480 4481 4483 4484 4485 4486
          4487 4488 4489 4490 4491 4492
          4493 4494 4495 4496 4497 4498
          4499 4500 4502 4503 4504 4507
          4508 4510 4511 4514 4631 4632
          4633 4634 4635 4636 4637 4638
          4639 4640 4641 4642 4643 4644
          4645 4646 4647 4648 4649 4650
          4699 4700 4703 4705 4706 4708
          6672 6673 6674 6675 6676 6677
          6678 6679 6680 6681 6682 6683
          6684 6685 6686 6687 6688 6689
          6690 6691 6696 6697 6698 6699
          428 911 913 912 456 1071
          1068 1069 1072 1073 1070 1278
          1285 1286 1279 1288 1289 427
          1291 1282 425 1292 1359 1360
          1361 1362 1366 1367 1364 1365
          916 1074 434 1577 899 1529
          1574 1578 1531 1576 1579 1584
          1588 1572 1591 1590 1592 2300
          2301 1935 2302 2303 2305 2304
          2306 902 2949 3043 3042 3150
          1558 3157 915 3205 3215 3225
          3235 3238 3041 3239 3240 3241
          3242 1533 1580 3245 3246 3247
          3248 3249 1581 3277 3278 3279
          4032 4031 1867 4035 4403 4404
          4407 1924 4410 4411 4414 1925
          4437 4066 4438 4439 4068 4440
          4441 999 1929 4444 4445 4446
          4447 4448 1007 4471 4472 4475
          1934 4478 4479 4482 1008 4501
          1938 4505 4506 4509 1939 4512
          4513 4515 4516 1009 4651 4245
          4652 4656 4655 4658 4659 4662
          4663 4665 4667 4668 4666 4670
          4669 4675 4676 4677 4678 4679
          4680 4686 4685 4692 4693 4701
          4702 4704 1964 4707 1965 4709
          4710 4711 4712 4713 4714 4719
          4720 4721 4661 4722 4723 4724
          4726 4727 4728 4729 4733 4734
          4735 4736 4737 4738 4753 4754
          6692 6693 6694 6695 6700 6701
          6702 6703 6704 6705
        </DataArray>
        <DataArray type="Float64" Name="bounds" format="ascii" RangeMin="0" RangeMax="0">
          0 0 0 0 0 0
          0 0 0 0 0 0
          0 0 0 0 0 0
          0 0 0 0 0 0
          0 0 0 0 0 0
          0 0 0 0 0 0
          0 0 0 0 0 0
          0 0 0 0 0 0
          0 0 0 0 0 0
          0 0 0 0 0 0
          0 0 0 0 0 0
          0 0 0 0 0 0
          0 0 0 0 0 0
          0 0 0 0 0 0
          0 0 0 0 0 0
          0 0 0 0 0 0
          0 0 0 0 0 0
          0 0 0 0 0 0
          0 0 0 0 0 0
          0 0 0 0 0 0
          0 0 0 0 0 0
          0 0 0 0 0 0
          0 0 0 0 0 0
          0 0 0 0 0 0
          0 0 0 0 0 0
          0 0 0 0 0 0
          0 0 0 0 0 0
          0 0 0 0 0 0
          0 0 0 0 0 0
          0 0 0 0 0 0
          0 0 0 0 0 0
          0 0 0 0 0 0
          0 0 0 0 0 0
          0 0 0 0 0 0
          0 0 0 0 0 0
          0 0 0 0 0 0
          0 0 0 0 0 0
          0 0 0 0 0 0
          0 0 0 0 0 0
          0 0 0 0 0 0
          0 0 0 0 0 0
          0 0 0 0 0 0
          0 0 0 0 0 0
          0 0 0 0 0 0
          0 0 0 0 0 0
          0 0 0 0 0 0
          0 0 0 0 0 0
          0 0 0 0 0 0
          0 0 0 0 0 0
          0 0 0 0 0 0
          0 0 0 0 0 0
          0 0 0 0 0 0
          0 0 0 0 0 0
          0 0 0 0 0 0
          0 0 0 0 0 0
          0 0 0 0 0 0
          0 0 0 0 0 0
          0 0 0 0 0 0
          0 0 0 0 0 0
          0 0 0 0 0 0
          0 0 0 0 0 0
          0 0 0 0 0 0
          0 0 0 0 0 0
          0 0 0 0 0 0
          0 0 0 0 0 0
          0 0 0 0 0 0
          0 0 0 0 0 0
          0 0 0 0 0 0
          0 0 0 0 0 0
          0 0 0 0 0 0
          0 0 0 0 0 0
          0 0 0 0 0 0
          0 0 0 0 0 0
          0 0 0 0 0 0
          0 0 0 0 0 0
          0 0 0 0 0 0
          0 0 0 0 0 0
          0 0 0 0 0 0
          0 0 0 0 0 0
          0 0 0 0 0 0
          0 0 0 0 0 0
          0 0 0 0 0 0
          0 0 0 0 0 0
          0 0 0 0 0 0
          0 0 0 0 0 0
          0 0 0 0 0 0
          0 0 0 0 0 0
          0 0 0 0 0 0
          0 0 0 0 0 0
          0 0 0 0 0 0
          0 0 0 0 0 0
          0 0 0 0 0 0
          0 0 0 0 0 0
          0 0 0 0 0 0
          0 0 0 0 0 0
          0 0 0 0 0 0
          0 0 0 0 0 0
          0 0 0 0 0 0
          0 0 0 0 0 0
          0 0 0 0 0 0
          0 0 0 0 0 0
          0 0 0 0 0 0
          0 0 0 0 0 0
          0 0 0 0 0 0
          0 0 0 0 0 0
          0 0 0 0 0 0
          0 0 0 0 0 0
          0 0 0 0 0 0
          0 0 0 0 0 0
          0 0 0 0 0 0
          0 0 0 0 0 0
          0 0 0 0 0 0
          0 0 0 0 0 0
          0 0 0 0 0 0
          0 0 0 0 0 0
          0 0 0 0 0 0
          0 0 0 0 0 0
          0 0 0 0 0 0
          0 0 0 0 0 0
          0 0 0 0 0 0
          0 0 0 0 0 0
          0 0 0 0 0 0
          0 0 0 0 0 0
          0 0 0 0
        </DataArray>
        <DataArray type="Float64" Name="gradient_error" format="ascii" RangeMin="4.910555757630681e-12" RangeMax="7.887009278588289e-9">
          1.5525798326998828e-11 2.9189368451080134e-10 5.341432814265248e-10 2.890847777800227e-10 5.694988150478972e-11 7.361184437579782e-11
          8.096436585227884e-11 9.261222656544767e-11 3.213151539266403e-11 4.764200880590674e-11 5.5107803570726876e-11 2.0598040687814126e-11
          3.847272140701403e-11 9.833079170936419e-11 3.712482351286562e-9 7.094860041311952e-10 2.3331858156375265e-11 9.648524156583773e-11
          6.256557809009513e-11 5.879699900987898e-11 8.99463467231926e-11 5.120198951793388e-11 8.931478486644151e-11 1.218223627680915e-10
          1.191153858176034e-10 1.1236988701058382e-10 1.7718044605759215e-10 1.5520360495822097e-10 1.0940915035897263e-10 4.5612556589482294e-10
          4.604267507412168e-11 4.4877737587804137e-11 4.3914883512950926e-11 4.184832526359307e-11 2.195261410504237e-11 3.640506874160714e-11
          3.4201177873736415e-11 4.2563793049220457e-11 5.0299701243672305e-11 3.421007370543897e-11 3.9604387467138105e-11 3.61391147312344e-11
          3.697071889845109e-11 4.06415165145525e-11 8.104588585449325e-11 7.091463248574309e-11 3.2717145790263145e-11 3.533031025595986e-11
          4.975790651677316e-11 3.198870151821318e-11 2.468616212176467e-10 2.100521888887133e-10 8.411519031962953e-11 2.0533003641932804e-11
          2.7053690592644035e-11 1.8000368663495287e-11 2.3835743925013755e-11 1.749881078967349e-11 1.8436487085567884e-11 1.682038850900755e-11
          3.343826088576149e-11 2.9923064792587095e-11 2.0981714005795843e-11 3.41692595751205e-11 2.958699133124651e-11 1.9306294664758163e-11
          7.213873553136006e-11 4.457966228644945e-11 2.897357150728231e-11 1.921856201367253e-11 2.8355837266775445e-11 2.4545824269439914e-11
          2.421365194733843e-11 1.498542963207048e-9 1.2597777365015776e-9 3.1262301875703146e-9 7.035199788987193e-10 5.861122978576128e-10
          2.7698956663377365e-10 2.313641397832203e-10 1.7993420847582827e-9 1.485461283980822e-9 5.827159609501596e-10 9.310899558032231e-11
          7.891938013931169e-11 2.750272776473806e-11 2.865650152701256e-11 2.3270607899336928e-10 1.930205387812072e-10 3.980387190092761e-9
          3.304905725596038e-9 1.6026393931933954e-9 1.306923376240213e-9 1.4263171535254567e-11 1.9452867195397753e-11 1.9443718316115498e-11
          2.3594589693908803e-11 1.3263657182363129e-11 2.8987992128033502e-11 2.6578807711564357e-11 1.1560559539868157e-11 1.1498339508090974e-11
          1.68259208426398e-11 1.5895158638857315e-11 8.83845955161389e-12 1.0409362535126047e-11 1.0849803601924928e-11 1.1436119476313789e-11
          1.4964396435074834e-11 1.1290244668723813e-11 3.963533955374978e-11 5.5036296081429416e-11 2.8661097014263723e-11 3.774710055097874e-11
          3.785589311054523e-11 4.939792356081379e-11 3.6858553997371926e-11 7.959007885299131e-12 8.156585927357883e-12 1.2724499694514384e-11
          1.2098874417173971e-11 5.966494256002351e-12 7.367224103780147e-12 7.916360694639226e-12 8.354163969416634e-12 1.1473249139833558e-11
          8.465497285498305e-12 4.626241263659563e-11 4.5229309198529535e-11 2.23071737778419e-11 3.1834499200419284e-11 3.112015520956681e-11
          4.2407092531468513e-11 2.912967784521883e-11 8.192521475101851e-11 7.98276225843526e-11 5.5440416623822795e-11 7.396321060445767e-11
          3.812637501605825e-11 2.024527292814131e-11 2.6341134340151555e-11 3.5634770729642924e-11 2.4828724208579795e-11 6.499868089900434e-11
          4.484890432245098e-11 6.132733787178269e-11 1.4370249509382346e-10 1.395407926948988e-10 1.0081748661112378e-10 9.779304849627883e-11
          1.2808508483437933e-10 8.946460484424315e-11 2.507663767581729e-10 2.4269630403172913e-10 1.7128228450264705e-10 2.206369624457631e-10
          1.1216702974240949e-10 7.785450180457302e-11 9.459439714504703e-11 6.515661949291205e-11 1.9013912830772017e-10 1.3307351773996832e-10
          1.573810825029153e-10 4.3451451362155297e-10 4.1922722392335583e-10 3.0940453349988596e-10 2.981373445318112e-10 3.7735798617856843e-10
          2.674252084904526e-10 7.438434106038338e-10 7.158641483394341e-10 5.132751401992928e-10 6.387047940174159e-10 3.198939414588207e-10
          2.2556044661538777e-10 2.5955541158628727e-10 1.8188442390791258e-10 5.328580111529747e-10 3.7845775848100906e-10 3.9964979795977455e-11
          5.249430428933387e-11 4.54870213580157e-11 1.2678616203323155e-10 8.710466402666154e-11 2.0486889649254697e-10 1.4265902699637177e-10
          1.583578212034931e-11 1.5535353058136597e-11 2.150519140963876e-11 2.103596094781308e-11 1.3224370479536406e-11 1.7292094157043564e-11
          1.6939699312983022e-11 1.4687489396212377e-11 1.9714781929179155e-11 1.5861632715261204e-11 3.885515337157928e-11 3.782791835748775e-11
          2.8684605833152052e-11 3.492777806507245e-11 1.4000255477167265e-11 1.7877464176452265e-11 1.1983864224421204e-11 1.474502948766951e-11
          1.3860456157833657e-11 1.6892094980533623e-11 1.4354098013739093e-11 3.0543909314188535e-11 2.3331858704705067e-11 2.8564638542179557e-11
          6.933648279247223e-11 6.723337166860826e-11 4.610827656801571e-11 4.4729511195888705e-11 6.142128857218163e-11 4.088074927940125e-11
          1.217004981929036e-10 1.1759000325034757e-10 7.832359917680375e-11 1.0640146315563246e-10 2.1101581453924536e-11 2.062552774041159e-11
          2.945359415047605e-11 2.8556832228995666e-11 1.3051815219268352e-11 1.8450486879605673e-11 1.7728988807782604e-11 1.9151541379500543e-11
          2.60971159083445e-11 1.7653599443927276e-11 5.225800837482117e-11 5.056759320275988e-11 3.142661712914181e-11 4.592974301020633e-11
          5.325007276124498e-11 3.5472601849750795e-11 4.4291358555505185e-11 2.957351571084241e-11 9.103387727281479e-11 6.071717494751177e-11
          7.460925398401891e-11 1.6968627577861942e-11 2.2763700913565618e-11 1.3625994009562594e-11 1.766782264203834e-11 1.448422055657533e-11
          1.916365127546061e-11 1.4979290078206357e-11 3.946366390222392e-11 2.830912671973159e-11 3.246238285018881e-11 2.1339507281180672e-10
          2.0549058968557497e-10 1.4227298320810048e-10 1.3701716179574353e-10 1.8402393250474532e-10 1.2275774046124388e-10 3.6999703757725066e-10
          3.552157292130963e-10 2.3693498420100433e-10 3.1499003789943567e-10 9.163808373935797e-11 8.839497710557744e-11 5.711393604739767e-11
          5.5127908555536776e-11 7.950781154657424e-11 4.9686654236055503e-11 1.586517621697743e-10 1.5231322558022319e-10 9.447783867990578e-11
          1.3521516539867895e-10 1.548799828648683e-10 1.03388550261177e-10 1.2453626957454363e-10 8.315321181926743e-11 2.6071659284168176e-10
          1.739335979614244e-10 6.72265815689193e-11 4.2156644273561225e-11 5.42080732150691e-11 3.413369094184403e-11 1.1229673116086071e-10
          7.022668896799397e-11 8.255066243892377e-12 8.391952137364141e-12 1.1308926980927446e-11 1.098241943598309e-11 6.791311305595884e-12
          8.54666115957203e-12 8.60376500403669e-12 8.528838030835907e-12 1.0655911891038733e-11 8.660868848501352e-12 2.0005905768689626e-11
          1.9121144241662114e-11 1.3116417795169214e-11 1.9022293862223103e-11 3.4626708179345966e-11 3.3354068008102224e-11 2.0229750661498697e-11
          1.950591731406371e-11 2.996322624374571e-11 1.7595238415820072e-11 5.887432317633675e-11 5.664842433514865e-11 3.2936938347569695e-11
          5.063501680699173e-11 8.376101710553031e-12 8.087809845791343e-12 1.1336425729791218e-11 1.0969201593560819e-11 5.988325085733305e-12
          8.118993009874837e-12 7.882320775294622e-12 7.33001978246594e-12 9.96594664501641e-12 7.1844004089682455e-12 1.932048491269636e-11
          1.8685995789354855e-11 1.1750140301247367e-11 1.692064914581304e-11 1.890184557408525e-11 2.5444594355000115e-11 1.1211374550491978e-11
          1.4892862088709124e-11 1.549851966025113e-11 2.0674081125112627e-11 1.348840752542242e-11 4.2605045484857317e-11 2.4929521622897962e-11
          6.443667490883845e-12 8.541331382219535e-12 4.910555757630681e-12 6.404344022431699e-12 6.026813397865465e-12 7.752746931736666e-12
          6.085535767641313e-12 1.4333719821517106e-11 1.0590518342785921e-11 2.7344896289464946e-11 3.55236702056186e-11 1.8627909034916136e-11
          2.39619105856522e-11 2.506176863564801e-11 3.1252452223097845e-11 2.1311240714080376e-11 5.884577601904696e-11 3.927367522403264e-11
          1.2315764392969004e-11 1.5685251524597335e-11 1.0228583579551017e-11 1.2635638296207017e-11 1.1446734096408794e-11 1.4036440816230978e-11
          1.1702524860215237e-11 2.570855109331694e-11 1.864953288773035e-11 9.718674232834306e-11 6.479937438560937e-11 4.2272280219479507e-11
          2.6550046812867637e-11 1.2491157495280992e-11 1.6212904739261848e-11 9.788461262110297e-12 1.248526913805405e-11 1.1194850660830105e-11
          1.4121811287665733e-11 1.1259978324654503e-11 1.249893767184081e-9 1.200986656850265e-9 9.057097533915277e-10 8.686443464136242e-10
          1.0641905526725134e-9 7.6604421856328e-10 2.046650312382693e-9 1.9660036075237076e-9 1.4360266241011002e-9 1.7349881690530982e-9
          8.750409654469844e-10 6.260060815734687e-10 1.409694589891197e-9 1.0161239760340647e-9 2.40323615661309e-9 2.304188104910389e-9
          2.0169248753917085e-9 3.5668564758052247e-9 1.6106211393102305e-9 5.49648975334822e-9 5.300604164397444e-9 4.669144541615064e-9
          6.305682711240406e-10 6.039796043903805e-10 4.2131323534456204e-10 4.0328233117085075e-10 5.31093499537152e-10 3.5426784736869985e-10
          1.0500399349265942e-9 1.0043820167875962e-9 6.721507702741401e-10 8.775527410777731e-10 2.7023049269503774e-10 2.5867477554794343e-10
          1.666413933338385e-10 1.5963269974853803e-10 2.2746417014066423e-10 1.407844083391703e-10 4.5093021526652777e-10 4.3065398257357344e-10
          2.6464560784974524e-10 3.755986740581022e-10 4.326958266154616e-10 2.886432685948133e-10 7.050093526900942e-10 4.705493007528438e-10
          1.8588332860230098e-10 1.1571373385424499e-10 3.0230851579629546e-10 1.8725571049762002e-10 1.698439348896002e-9 1.6241826425998564e-9
          1.1433130056840245e-9 1.0912871375931376e-9 1.4136228299257846e-9 9.465426557139688e-10 2.653543097456114e-9 2.5401675274921037e-9
          1.7176118057902912e-9 2.2088662371126957e-9 7.33587192699521e-10 6.995044232850974e-10 4.495432609223432e-10 4.2862410960675696e-10
          6.061005740200515e-10 3.719247952379982e-10 1.1583145386625233e-9 1.1036953775786723e-9 6.755312911088176e-10 9.519394383589505e-10
          1.1226679405264621e-9 7.50296690835013e-10 4.812343114984652e-10 2.9679160676537045e-10 9.905329183321691e-11 9.502248886531585e-11
          5.694933009540694e-11 5.4749883109414206e-11 8.418881801359162e-11 4.8809693609322547e-11 1.6352202986267785e-10 1.5643014970479407e-10
          8.926508585193318e-11 1.373769188263339e-10 3.183054732234362e-11 3.068839371677853e-11 1.719062737059456e-11 1.643349485487044e-11
          2.7560454800847344e-11 1.6561956144860874e-11 5.1275500724244134e-11 4.935572295174572e-11 2.63074836884882e-11 4.408837919423367e-11
          6.980163089724941e-11 4.084015996234615e-11 1.120968391371144e-10 6.507000028695485e-11 2.3254591331815804e-11 1.6757546491572462e-11
          3.6822792580139405e-11 2.2934852086899373e-11 2.6391976913924057e-10 2.51856162119232e-10 1.4904279284547856e-10 1.424908325511416e-10
          2.1938294846523868e-10 1.2488893988373597e-10 4.149163322428043e-10 3.9519045488294155e-10 2.2194006777719763e-10 3.4186553520461366e-10
          8.13328751711479e-11 7.800628631151242e-11 4.314286964142401e-11 4.144089343157888e-11 6.899995798251284e-11 3.6852903855078535e-11
          1.2584078103836017e-10 1.202692513779445e-10 1.0534657990657855e-10 1.764865204828283e-10 1.0154702539900003e-10 2.714797755025697e-10
          1.5490269384350758e-10 5.6837477413138134e-11 3.0676123500708247e-11 8.561236766758343e-11 3.985208881676261e-9 3.8241854412369565e-9
          2.7302604885913697e-9 2.6094157552637603e-9 3.333009987420943e-9 2.2561342709605527e-9 5.7334729420087224e-9 5.522804448928876e-9
          3.813178279621324e-9 4.8397160638973145e-9 1.7681276284948489e-9 1.685053118804246e-9 1.0849564614588448e-9 1.0323490153138256e-9
          1.4498070490159401e-9 8.867966571039796e-10 2.600566827790987e-9 2.4811121718998067e-9 1.5250526276131951e-9 2.134242797102526e-9
          6.332495479720891e-10 6.023535064966016e-10 5.182366180695854e-10 9.355297475242533e-10 8.892559389676021e-10 7.620297533845845e-10
          6.750835164450461e-12 6.699185247523263e-12 8.9810243832169e-12 8.686631354956554e-12 4.969839272079996e-12 6.183267755527991e-12
          6.343889476782097e-12 6.647535330596065e-12 8.392238326696207e-12 6.504511198036204e-12 1.449289335478907e-11 1.3844739206856692e-11
          9.78586730728948e-12 1.3419113080023088e-11 2.240899121655237e-11 2.1525792839010662e-11 1.520597496372079e-11 1.4686084087852582e-11
          1.9183401896942635e-11 1.3257085652673503e-11 1.2610603285035805e-11 1.610524440520396e-11 9.190224171093097e-12 1.1269897298165846e-11
          2.348260627535291e-10 1.5118923273249608e-10 9.002665033135642e-11 1.2873442351007108e-10 2.788072710680294e-11 2.633476504017588e-11
          3.04199438615743e-11 2.872666446364561e-11 2.1845148281835603e-11 1.9685782464049225e-11 2.760495676639893e-11 3.5192898667483273e-10
          1.1133567265674152e-10 1.1211219911595923e-10 3.671140410418347e-10 5.2155976487216717e-11 6.441327842782919e-11 4.931076288700714e-11
          1.1288872557517692e-10 3.822990954088366e-10 1.1749774913425288e-9 7.667058036844165e-11 1.992789798462003e-11 2.3561593221782996e-11
          1.551199508916919e-11 2.6517119542005812e-11 2.7195288458945964e-11 3.730258801489441e-11 1.4021261206796531e-11 1.9762339400304442e-11
          3.0568185383040455e-11 5.063854118515608e-11 1.0534298044484464e-10 9.266558967722436e-11 3.341906558425218e-10 8.503941419486135e-11
          5.7784836980637705e-11 1.0528424704347708e-10 1.249928019468032e-10 3.761651112216623e-11 6.318391638789145e-11 3.3778579730712715e-11
          3.743450685687214e-11 2.4451396636378672e-11 3.37327819715495e-11 3.4234958201007306e-11 5.0625011784685766e-11 2.4153189621339016e-11
          2.306152004153833e-11 2.4560906649400897e-11 2.0745187590176387e-11 2.462981688673871e-11 1.9408788205442747e-11 2.1631619609002544e-11
          1.9875165708665174e-11 2.989053012090108e-10 4.2348216019275436e-10 2.2889336529191335e-10 3.2649534772970047e-10 2.0538578774658539e-10
          1.371278999290285e-10 8.884075245838871e-11 5.5910475334094695e-11 3.4271948237451606e-11 1.283456160587276e-11 5.0366766301968884e-11
          2.1966543984027906e-11 7.397548809498744e-11 1.0951103090022484e-10 4.919349143547524e-11 1.5681868636765928e-10 1.0476092865972881e-10
          1.172212851609811e-10 1.7172544524778398e-10 7.829565243796486e-11 3.204016465825663e-11 2.2428368642907014e-11 6.816484848950487e-11
          4.2938809866417485e-11 5.1225156233648314e-11 3.8950199629358234e-11 2.646770064934927e-11 1.8166420802981277e-11 2.197695655757913e-11
          4.842569707411838e-10 6.814606725134602e-10 7.709120229802638e-10 1.0775824897195858e-9 3.3380927592147526e-10 2.2289988032601334e-10
          5.331314624173014e-10 3.5609781249576025e-10 1.441614995690281e-10 9.040364104340413e-11 2.298043163993578e-10 1.4345556534856702e-10
          8.336336804621063e-10 1.2010676007836011e-9 5.5719562710481e-10 1.7395752444172125e-9 2.4807980990175338e-9 1.1655434300827775e-9
          1.2715381415705634e-9 1.8238907770874854e-9 8.511007540843641e-10 3.5888651562277154e-10 2.2308768656172563e-10 7.471391318124983e-10
          4.592361087831025e-10 5.47518498653217e-10 3.3913544301416254e-10 5.513719242464451e-11 3.2558359208492416e-11 8.672030909443552e-11
          5.0921956697344956e-11 1.865430031981481e-11 1.3564733088507327e-11 2.916715268085801e-11 6.602767674256184e-11 6.327493949347178e-11
          5.590176524638867e-11 1.3410413817803093e-10 7.816279948595898e-11 2.027519008975616e-10 1.1732069191158398e-10 4.4336068847868416e-11
          2.4238215301653362e-11 4.606984361417375e-11 6.582647083135975e-11 3.598383047461326e-11 2.612151965827146e-9 3.6968671389363106e-9
          1.7574665553934164e-9 2.563834998520955e-9 3.7881920827988046e-9 1.1275058210943384e-9 6.915451638351422e-10 1.6489020981362742e-9
          1.0105934355501682e-9 7.887009278588289e-9 5.563078196261647e-9 5.3476676196208425e-9 7.636053605669695e-9 4.657692153014896e-9
          6.747540559530726e-9 3.6765166455342907e-9 3.514588970949613e-9 2.281152050338124e-9 2.1724311738718788e-9 3.028986914599641e-9
          1.8605626542626247e-9 3.609227762927451e-9 5.292619690108705e-9 2.3308951622742237e-9 1.4296988801271895e-9 3.532814722272687e-10
          3.363304721638706e-10 2.9065183125509687e-10 5.20105726142413e-10 4.945183682484805e-10 4.25182997047702e-10 1.8946717661341123e-10
          1.8071458418473776e-10 9.831529098429627e-11 9.402085813823489e-11 1.5725384958213683e-10 8.253286012690294e-11 4.0687112273838875e-10
          2.3053282352471187e-10 2.990067603333142e-10 5.025492713189738e-10 1.7190451306164846e-10 5.925029635057994e-10 3.337606130309511e-10
          1.2635651018905966e-10 6.732379299404398e-11 9.57808314707641e-11 5.1956514404248657e-11 1.3346606262882943e-9 1.2684785949645427e-9
          7.408025103735599e-10 7.037885323731281e-10 1.0842361199600741e-9 6.02748598892672e-10 8.363839729066775e-10 4.689498087187631e-10
          3.3905300980389775e-11 3.2592548670475056e-11 1.8567796678603766e-11 2.905557034477311e-11 1.0124256130230195e-11 1.288699057727257e-11
          9.06993968517034e-12 2.4321051868235065e-11 1.409572213153461e-11 1.9311772473774534e-11
        </DataArray>
        <DataArray type="Float64" Name="gradient_matprop_error" format="ascii" RangeMin="0" RangeMax="0">
          0 0 0 0 0 0
          0 0 0 0 0 0
          0 0 0 0 0 0
          0 0 0 0 0 0
          0 0 0 0 0 0
          0 0 0 0 0 0
          0 0 0 0 0 0
          0 0 0 0 0 0
          0 0 0 0 0 0
          0 0 0 0 0 0
          0 0 0 0 0 0
          0 0 0 0 0 0
          0 0 0 0 0 0
          0 0 0 0 0 0
          0 0 0 0 0 0
          0 0 0 0 0 0
          0 0 0 0 0 0
          0 0 0 0 0 0
          0 0 0 0 0 0
          0 0 0 0 0 0
          0 0 0 0 0 0
          0 0 0 0 0 0
          0 0 0 0 0 0
          0 0 0 0 0 0
          0 0 0 0 0 0
          0 0 0 0 0 0
          0 0 0 0 0 0
          0 0 0 0 0 0
          0 0 0 0 0 0
          0 0 0 0 0 0
          0 0 0 0 0 0
          0 0 0 0 0 0
          0 0 0 0 0 0
          0 0 0 0 0 0
          0 0 0 0 0 0
          0 0 0 0 0 0
          0 0 0 0 0 0
          0 0 0 0 0 0
          0 0 0 0 0 0
          0 0 0 0 0 0
          0 0 0 0 0 0
          0 0 0 0 0 0
          0 0 0 0 0 0
          0 0 0 0 0 0
          0 0 0 0 0 0
          0 0 0 0 0 0
          0 0 0 0 0 0
          0 0 0 0 0 0
          0 0 0 0 0 0
          0 0 0 0 0 0
          0 0 0 0 0 0
          0 0 0 0 0 0
          0 0 0 0 0 0
          0 0 0 0 0 0
          0 0 0 0 0 0
          0 0 0 0 0 0
          0 0 0 0 0 0
          0 0 0 0 0 0
          0 0 0 0 0 0
          0 0 0 0 0 0
          0 0 0 0 0 0
          0 0 0 0 0 0
          0 0 0 0 0 0
          0 0 0 0 0 0
          0 0 0 0 0 0
          0 0 0 0 0 0
          0 0 0 0 0 0
          0 0 0 0 0 0
          0 0 0 0 0 0
          0 0 0 0 0 0
          0 0 0 0 0 0
          0 0 0 0 0 0
          0 0 0 0 0 0
          0 0 0 0 0 0
          0 0 0 0 0 0
          0 0 0 0 0 0
          0 0 0 0 0 0
          0 0 0 0 0 0
          0 0 0 0 0 0
          0 0 0 0 0 0
          0 0 0 0 0 0
          0 0 0 0 0 0
          0 0 0 0 0 0
          0 0 0 0 0 0
          0 0 0 0 0 0
          0 0 0 0 0 0
          0 0 0 0 0 0
          0 0 0 0 0 0
          0 0 0 0 0 0
          0 0 0 0 0 0
          0 0 0 0 0 0
          0 0 0 0 0 0
          0 0 0 0 0 0
          0 0 0 0 0 0
          0 0 0 0 0 0
          0 0 0 0 0 0
          0 0 0 0 0 0
          0 0 0 0 0 0
          0 0 0 0 0 0
          0 0 0 0 0 0
          0 0 0 0 0 0
          0 0 0 0 0 0
          0 0 0 0 0 0
          0 0 0 0 0 0
          0 0 0 0 0 0
          0 0 0 0 0 0
          0 0 0 0 0 0
          0 0 0 0 0 0
          0 0 0 0 0 0
          0 0 0 0 0 0
          0 0 0 0 0 0
          0 0 0 0 0 0
          0 0 0 0 0 0
          0 0 0 0 0 0
          0 0 0 0 0 0
          0 0 0 0 0 0
          0 0 0 0 0 0
          0 0 0 0 0 0
          0 0 0 0 0 0
          0 0 0 0 0 0
          0 0 0 0 0 0
          0 0 0 0 0 0
          0 0 0 0 0 0
          0 0 0 0
        </DataArray>
        <DataArray type="Float64" Name="initial_marker" format="ascii" RangeMin="0" RangeMax="2">
          0.5 0 2 0 2 1.25
          0 0 0 0 0 0
          0 2 2 2 0 0
          0 0 0 2 0 0
          0 0 2 2 2 2
          0 0 0 0 0 0
          0 0 0 0 1 1
          0 0.25 2 2 2 1.75
          2 1 2 2 2 0
          0 0.5 0.5 0 0 0
          0 0 0 2 2 0.5
          0 0 0 0 0 0
          0 2 2 2 2 2
          2 2 2 2 2 2
          2 2 1.75 2 2 2
          2 2 2 0 0 0
          0 0 0 0 0 0
          0 0 0 0 0 0
          0 0 0 0 0 0
          0 0 0 0 0 0
          0 0 0 0 0 0
          0 1 1 0 1 1
          1 1 2 2 2 2
          1 0 0.75 1 0.5 2
          1.75 2 2 2 2 2
          2 2 2 2 2 2
          2 2 2 2 2 2
          2 2 2 2 2 2
          2 2 2 2 2 2
          2 2 2 2 2 1
          1.5 1 2 2 2 2
          0 0 0.5 0.5 0 0
          0 0 0.5 0 1.5 1.5
          1.3333333333333333 1.5 0 0.25 0 0
          0 0 0 1.25 1 1
          2 2 2 2 2 2
          2 2 2 2 1 1
          1.5 1.5 0 1 1 1
          1.5 1 2 2 2 2
          2 1.75 1.75 1.25 2 2
          2 0.5 1.25 0 1 0