<?xml version="1.0"?>
<VTKFile type="UnstructuredGrid" version="0.1" byte_order="LittleEndian" header_type="UInt32" compressor="vtkZLibDataCompressor">
  <UnstructuredGrid>
    <Piece NumberOfPoints="1475" NumberOfCells="921">
      <PointData>
        <DataArray type="Int32" Name="libmesh_node_id" format="ascii" RangeMin="452" RangeMax="14196">
          454 455 456 457 458 459
          460 461 594 595 596 597
          598 599 600 601 647 648
          649 650 682 734 735 736
          737 738 739 740 741 787
          788 789 790 822 823 824
          825 874 875 876 877 878
          879 880 881 927 928 929
          930 962 963 964 965 980
          981 984 985 987 988 989
          990 991 993 994 995 997
          998 999 1000 1001 1002 1003
          1004 1005 1006 1007 1008 1009
          1010 1011 1012 1013 1014 1015
          1016 1017 1018 1019 1020 1021
          1022 1023 1024 1025 1026 1027
          1028 1029 1030 1031 1032 1033
          1034 1035 1036 1037 1038 1039
          1040 1041 1042 1043 1044 1048
          1049 1051 1052 1054 1111 1112
          1113 1114 1115 1116 1117 1118
          1119 1120 1121 1122 1123 1124
          1125 1126 1127 1128 1129 1130
          1131 1132 1133 1134 1135 1136
          1137 1138 1143 1185 1186 1187
          1188 1189 1190 1191 1192 1193
          1194 1195 1196 1197 1198 1199
          1200 1201 1202 1203 1204 1205
          1206 1207 1208 1209 1210 1211
          1212 1213 1214 1215 1216 1217
          1218 1219 1220 1221 1222 1223
          1224 1225 1226 1227 1228 1229
          1230 1231 1232 1233 1234 1235
          1236 1237 1238 1239 1240 1241
          1242 1243 1244 1245 1246 1247
          1248 1249 1250 1251 1252 1253
          1254 1255 1256 1257 1258 1259
          1260 1261 1262 1263 1264 1265
          1266 1267 1268 1269 1270 1271
          1272 1273 1274 1275 1276 1277
          1278 1279 1280 1281 1282 1283
          1284 1285 1286 1287 1288 1289
          1290 1291 1292 1293 1294 1295
          1296 1297 1298 1299 1300 1301
          1302 1303 1304 1305 1306 1307
          1308 1309 1310 1311 1312 1313
          1314 1315 1316 1317 1318 1319
          1320 1321 1322 1323 1324 1325
          1326 1327 1328 1329 1330 1331
          1332 1333 1334 1335 1336 1337
          1338 1339 1340 1341 1342 1343
          1344 1345 1346 1347 1348 1349
          1354 1356 1357 1359 1360 1361
          1362 1363 1364 1365 1366 1367
          1368 1369 1370 1371 1374 1376
          1377 1548 1549 1550 1551 1552
          1553 1554 1555 1556 1557 1586
          1587 1588 1589 1590 1591 1592
          1593 1594 1595 1596 1597 1598
          1599 1600 1601 1602 1603 1604
          1605 1606 1607 1608 1609 1610
          1611 1617 1660 1661 1664 1665
          1667 1668 1670 1671 1673 1674
          1675 1676 1677 1678 1679 1680
          1681 1682 1683 1684 1685 1686
          1687 1688 1689 1690 1691 1692
          1693 1694 1695 1696 1697 1698
          1699 1700 1701 1702 1703 1704
          1705 1706 1707 1708 1709 1710
          1711 1712 1713 1714 1715 1716
          1717 1718 1719 1720 1721 1722
          1723 1724 1725 1726 1727 1728
          1729 1730 1731 1732 1733 1734
          1735 1736 1737 1738 1739 1740
          1741 1742 1743 1744 1745 1746
          1747 1748 1749 1750 1761 1762
          1763 1764 1765 1766 1767 1910
          1911 1914 1920 1992 1993 1994
          1995 1996 1997 1998 1999 2000
          2001 2002 2003 2004 2005 2006
          2007 2008 2009 2010 2011 2012
          2013 2014 2015 2016 2017 2018
          2019 2020 2021 2022 2023 2024
          2025 2026 2027 2028 2029 2030
          2031 2032 2033 2034 2035 2036
          2037 2038 2039 2040 2041 2042
          2043 2044 2045 2046 2047 2048
          2049 2050 2051 2052 2053 2054
          2055 2056 2057 2058 2059 2060
          2061 2062 2063 2064 2065 2066
          2067 2068 2069 2070 2071 2072
          2073 2074 2075 2076 2077 2078
          2079 2080 2081 2082 2083 2084
          2085 2086 2087 2088 2089 2090
          2091 2092 2093 2094 2095 2096
          2097 2098 2099 2100 2101 2102
          2103 2104 2105 2106 2107 2108
          2109 2110 2111 2112 2113 2114
          2115 2116 2117 2118 2119 2120
          2121 2122 2123 2124 2125 2126
          2127 2128 2129 2130 2131 2132
          2133 2134 2135 2136 2137 2138
          2139 2140 2141 2142 2143 2144
          2145 2146 2147 2148 2149 2150
          2151 2152 2153 2154 2155 2156
          2157 2158 2159 2160 2161 2162
          2163 2164 2165 2166 2167 2168
          2169 2170 2171 2172 2173 2174
          2175 2176 2177 2178 2179 2180
          2181 2182 2183 2184 2185 2186
          2187 2188 2189 2190 2191 2192
          2193 2194 2195 2196 2197 2198
          2199 2200 2201 2202 2203 2204
          2205 2206 2207 2208 2209 2210
          2211 2212 2213 2214 2215 2216
          2217 2218 2219 2220 2221 2222
          2223 2224 2225 2226 2227 2228
          2229 2230 2231 2232 2233 2234
          2235 2236 2237 2238 2239 2240
          2241 2242 2243 2244 2245 2246
          2247 2248 2249 2250 2251 2252
          2253 2254 2255 2256 2257 2258
          2259 2260 2261 2262 2263 2264
          2265 2266 2267 2268 2269 2270
          2271 2272 2273 2274 2275 2276
          2277 2278 2279 2280 2281 2282
          2283 2284 2285 2286 2287 2288
          2289 2290 2291 2292 2293 2294
          2295 2296 2297 2298 2299 2300
          2301 2302 2303 2304 2305 2306
          2307 2308 2309 2310 2311 2312
          2313 2314 2315 2316 2317 2318
          2319 2320 2321 2322 2323 2324
          2325 2326 2327 2328 2329 2330
          2331 2332 2333 2334 2335 2336
          2337 2338 2339 2340 2341 2342
          2343 2344 2345 2346 2347 2348
          2349 2350 2351 2352 2353 2354
          2355 2356 2357 2358 2359 2360
          2361 2362 2363 2364 2365 2366
          2367 2368 2369 2370 2371 2372
          2373 2374 2375 2376 2377 2378
          2379 2380 2381 2382 2383 2384
          2385 2386 2387 2388 2389 2390
          2391 2392 2393 2394 2395 2396
          2397 2398 2399 2400 2401 2402
          2403 2404 2405 2406 2407 2408
          2409 2410 2411 2412 2413 2414
          2415 2416 2417 2418 2419 2420
          2421 2422 2423 2424 2425 2426
          2427 2428 2429 2430 2431 2432
          2433 2434 2435 2436 2437 2438
          2439 2440 2441 2442 2443 2444
          2445 2446 2447 2448 2449 2450
          2451 2452 2453 2454 2455 2456
          2457 2458 2459 2460 2461 2462
          2463 2464 2465 2466 2467 2468
          2469 2470 2471 2472 2473 2474
          2475 2476 2477 2478 2479 2480
          2481 2482 2483 2484 2485 2486
          2487 2488 2489 2490 2491 2492
          2493 2494 2495 2496 2497 2498
          2499 2500 2501 2502 2503 2504
          2505 2506 2507 2508 2509 2512
          2515 2516 2517 2518 2519 2520
          2521 2522 2523 2524 2525 2526
          2527 2538 2539 2540 2544 2545
          2546 2547 2548 2549 2550 2551
          2552 2553 2554 2555 2556 2557
          2558 2559 2560 2561 2562 2563
          2564 2565 2566 2567 2568 2569
          2570 2571 2572 2573 2574 2575
          2576 2577 2578 2579 2580 2581
          2582 2583 2584 2585 2586 2587
          2588 2589 2590 2591 2592 2593
          2594 2595 2596 2597 2598 2599
          2600 2601 2602 2603 2604 2605
          2606 2607 2608 2609 2610 2611
          2612 2613 2614 2615 2616 2617
          2618 2619 2620 2621 2622 2623
          2634 2635 2636 2637 2638 2639
          2640 2648 2649 2650 2651 2652
          2653 2654 2655 2656 2657 2668
          2669 2670 2672 2673 2674 3421
          3422 3425 3426 3428 3429 3431
          3432 3433 3434 3435 3436 3437
          3438 3439 3440 3441 3442 3443
          3444 3445 3446 3447 3448 3449
          3450 3451 3452 3453 3454 3455
          3456 3457 3458 3459 3460 3461
          3462 3463 3464 3465 3466 3467
          3468 3469 3470 3471 3472 3473
          3474 3475 3476 3477 3478 3479
          3480 3481 3482 3483 3484 3485
          3486 3487 3488 3489 3490 3491
          3502 3503 3504 3505 3506 3507
          3508 3509 3510 3511 3512 3513
          3514 3515 3516 3517 3518 3519
          3520 3521 3522 3523 3524 3525
          3526 3527 3528 3529 3530 3531
          3532 3533 3534 3535 3536 3537
          3538 3539 3540 3541 3542 3543
          3544 3545 3546 3547 3548 3549
          3550 3551 3552 3553 3554 3555
          3556 3557 3558 3559 3560 3561
          3562 3563 3564 3565 3566 3567
          3568 3569 3570 3571 3572 3573
          3574 3575 3576 3577 3578 3579
          3580 3581 3582 3583 3584 3585
          3586 3587 3588 3589 3590 3591
          3592 3593 3594 3595 3596 3597
          3598 3599 3600 3601 3602 3603
          3604 3605 3606 3607 3608 3609
          3610 3611 3612 3613 3614 3615
          3616 3617 3618 3619 3620 3621
          3622 3623 3624 3625 3626 5596
          5598 5600 5601 5603 5605 5606
          5607 5608 5609 5610 5611 5612
          5613 5614 5615 5616 5617 5618
          5619 5620 5621 5622 5623 5624
          5625 5626 5627 5628 5629 5630
          5631 5632 5633 5634 5635 5636
          5637 5638 5639 5640 5641 5642
          5643 5644 5645 5646 5647 5648
          5649 5664 5665 5666 5667 5668
          5669 5670 5671 5672 5673 5674
          5675 5676 5677 5678 5679 5680
          5681 5682 5683 5684 5685 5686
          5687 5688 5689 5690 5691 5692
          5693 5694 5695 5696 5697 5698
          5699 5700 5701 5702 5703 5704
          5705 5706 5707 5708 5709 5710
          5711 5712 5713 5714 5715 5716
          5717 5718 5719 5720 5721 5722
          5723 5724 5725 5726 5727 5728
          5729 5730 5731 5732 5733 5734
          5735 5736 5737 5738 5739 5740
          5741 14177 14178 14181 14182 14184
          14185 14187 14189 14191 14192 14194
          14196 452 453 592 593 646
          733 786 681 821 926 961
          982 986 992 983 1662 1663
          1666 1669 872 1672 996 3423
          3424 3427 3430 732 5597 5599
          5602 873 5604 14179 14180 14183
          14186 14188 14190 14193 14195
        </DataArray>
        <DataArray type="Float64" Name="bounds" format="ascii" RangeMin="0" RangeMax="0">
          0 0 0 0 0 0
          0 0 0 0 0 0
          0 0 0 0 0 0
          0 0 0 0 0 0
          0 0 0 0 0 0
          0 0 0 0 0 0
          0 0 0 0 0 0
          0 0 0 0 0 0
          0 0 0 0 0 0
          0 0 0 0 0 0
          0 0 0 0 0 0
          0 0 0 0 0 0
          0 0 0 0 0 0
          0 0 0 0 0 0
          0 0 0 0 0 0
          0 0 0 0 0 0
          0 0 0 0 0 0
          0 0 0 0 0 0
          0 0 0 0 0 0
          0 0 0 0 0 0
          0 0 0 0 0 0
          0 0 0 0 0 0
          0 0 0 0 0 0
          0 0 0 0 0 0
          0 0 0 0 0 0
          0 0 0 0 0 0
          0 0 0 0 0 0
          0 0 0 0 0 0
          0 0 0 0 0 0
          0 0 0 0 0 0
          0 0 0 0 0 0
          0 0 0 0 0 0
          0 0 0 0 0 0
          0 0 0 0 0 0
          0 0 0 0 0 0
          0 0 0 0 0 0
          0 0 0 0 0 0
          0 0 0 0 0 0
          0 0 0 0 0 0
          0 0 0 0 0 0
          0 0 0 0 0 0
          0 0 0 0 0 0
          0 0 0 0 0 0
          0 0 0 0 0 0
          0 0 0 0 0 0
          0 0 0 0 0 0
          0 0 0 0 0 0
          0 0 0 0 0 0
          0 0 0 0 0 0
          0 0 0 0 0 0
          0 0 0 0 0 0
          0 0 0 0 0 0
          0 0 0 0 0 0
          0 0 0 0 0 0
          0 0 0 0 0 0
          0 0 0 0 0 0
          0 0 0 0 0 0
          0 0 0 0 0 0
          0 0 0 0 0 0
          0 0 0 0 0 0
          0 0 0 0 0 0
          0 0 0 0 0 0
          0 0 0 0 0 0
          0 0 0 0 0 0
          0 0 0 0 0 0
          0 0 0 0 0 0
          0 0 0 0 0 0
          0 0 0 0 0 0
          0 0 0 0 0 0
          0 0 0 0 0 0
          0 0 0 0 0 0
          0 0 0 0 0 0
          0 0 0 0 0 0
          0 0 0 0 0 0
          0 0 0 0 0 0
          0 0 0 0 0 0
          0 0 0 0 0 0
          0 0 0 0 0 0
          0 0 0 0 0 0
          0 0 0 0 0 0
          0 0 0 0 0 0
          0 0 0 0 0 0
          0 0 0 0 0 0
          0 0 0 0 0 0
          0 0 0 0 0 0
          0 0 0 0 0 0
          0 0 0 0 0 0
          0 0 0 0 0 0
          0 0 0 0 0 0
          0 0 0 0 0 0
          0 0 0 0 0 0
          0 0 0 0 0 0
          0 0 0 0 0 0
          0 0 0 0 0 0
          0 0 0 0 0 0
          0 0 0 0 0 0
          0 0 0 0 0 0
          0 0 0 0 0 0
          0 0 0 0 0 0
          0 0 0 0 0 0
          0 0 0 0 0 0
          0 0 0 0 0 0
          0 0 0 0 0 0
          0 0 0 0 0 0
          0 0 0 0 0 0
          0 0 0 0 0 0
          0 0 0 0 0 0
          0 0 0 0 0 0
          0 0 0 0 0 0
          0 0 0 0 0 0
          0 0 0 0 0 0
          0 0 0 0 0 0
          0 0 0 0 0 0
          0 0 0 0 0 0
          0 0 0 0 0 0
          0 0 0 0 0 0
          0 0 0 0 0 0
          0 0 0 0 0 0
          0 0 0 0 0 0
          0 0 0 0 0 0
          0 0 0 0 0 0
          0 0 0 0 0 0
          0 0 0 0 0 0
          0 0 0 0 0 0
          0 0 0 0 0 0
          0 0 0 0 0 0
          0 0 0 0 0 0
          0 0 0 0 0 0
          0 0 0 0 0 0
          0 0 0 0 0 0
          0 0 0 0 0 0
          0 0 0 0 0 0
          0 0 0 0 0 0
          0 0 0 0 0 0
          0 0 0 0 0 0
          0 0 0 0 0 0
          0 0 0 0 0 0
          0 0 0 0 0 0
          0 0 0 0 0 0
          0 0 0 0 0 0
          0 0 0 0 0 0
          0 0 0 0 0 0
          0 0 0 0 0 0
          0 0 0 0 0 0
          0 0 0 0 0 0
          0 0 0 0 0 0
          0 0 0 0 0 0
          0 0 0 0 0 0
          0 0 0 0 0 0
          0 0 0 0 0 0
          0 0 0 0 0 0
          0 0 0 0 0 0
          0 0 0 0 0 0
          0 0 0 0 0 0
          0 0 0 0 0 0
          0 0 0 0 0 0
          0 0 0 0 0 0
          0 0 0 0 0 0
          0 0 0 0 0 0
          0 0 0 0 0 0
          0 0 0 0 0 0
          0 0 0 0 0 0
          0 0 0 0 0 0
          0 0 0 0 0 0
          0 0 0 0 0 0
          0 0 0 0 0 0
          0 0 0 0 0 0
          0 0 0 0 0 0
          0 0 0 0 0 0
          0 0 0 0 0 0
          0 0 0 0 0 0
          0 0 0 0 0 0
          0 0 0 0 0 0
          0 0 0 0 0 0
          0 0 0 0 0 0
          0 0 0 0 0 0
          0 0 0 0 0 0
          0 0 0 0 0 0
          0 0 0 0 0 0
          0 0 0 0 0 0
          0 0 0 0 0 0
          0 0 0 0 0 0
          0 0 0 0 0 0
          0 0 0 0 0 0
          0 0 0 0 0 0
          0 0 0 0 0 0
          0 0 0 0 0 0
          0 0 0 0 0 0
          0 0 0 0 0 0
          0 0 0 0 0 0
          0 0 0 0 0 0
          0 0 0 0 0 0
          0 0 0 0 0 0
          0 0 0 0 0 0
          0 0 0 0 0 0
          0 0 0 0 0 0
          0 0 0 0 0 0
          0 0 0 0 0 0
          0 0 0 0 0 0
          0 0 0 0 0 0
          0 0 0 0 0 0
          0 0 0 0 0 0
          0 0 0 0 0 0
          0 0 0 0 0 0
          0 0 0 0 0 0
          0 0 0 0 0 0
          0 0 0 0 0 0
          0 0 0 0 0 0
          0 0 0 0 0 0
          0 0 0 0 0 0
          0 0 0 0 0 0
          0 0 0 0 0 0
          0 0 0 0 0 0
          0 0 0 0 0 0
          0 0 0 0 0 0
          0 0 0 0 0 0
          0 0 0 0 0 0
          0 0 0 0 0 0
          0 0 0 0 0 0
          0 0 0 0 0 0
          0 0 0 0 0 0
          0 0 0 0 0 0
          0 0 0 0 0 0
          0 0 0 0 0 0
          0 0 0 0 0 0
          0 0 0 0 0 0
          0 0 0 0 0 0
          0 0 0 0 0 0
          0 0 0 0 0 0
          0 0 0 0 0 0
          0 0 0 0 0 0
          0 0 0 0 0 0
          0 0 0 0 0 0
          0 0 0 0 0 0
          0 0 0 0 0 0
          0 0 0 0 0 0
          0 0 0 0 0 0
          0 0 0 0 0 0
          0 0 0 0 0 0
          0 0 0 0 0 0
          0 0 0 0 0 0
          0 0 0 0 0 0
          0 0 0 0 0 0
          0 0 0 0 0 0
          0 0 0 0 0 0
          0 0 0 0 0
        </DataArray>
        <DataArray type="Float64" Name="gradient_error" format="ascii" RangeMin="8.911828912962115e-10" RangeMax="0.000001546964025906373">
          1.4021514146329055e-8 8.99393299641339e-9 8.625477837146433e-9 5.3321519409808054e-9 4.481149621896157e-9 2.912221347109343e-9
          1.6196858926691873e-9 1.2145186519718588e-9 4.3542356007624926e-8 1.364729265061056e-8 3.2838804772554535e-8 1.0614388347030808e-8
          9.333117363788194e-9 6.452112770766582e-9 2.2804308690838136e-9 2.5805613728588443e-9 7.501082827926433e-9 4.273602176753438e-9
          3.640417052130576e-9 1.90164620344657e-9 2.5654169194213354e-9 4.182717284129246e-7 7.771821256988776e-7 3.349492917899296e-7
          3.856257647649255e-7 2.012882094488624e-7 4.585920010882048e-8 1.4932033022566066e-7 1.5270908322366683e-8 1.2186844984011655e-8
          9.742583903984194e-9 1.1379765147227683e-8 6.178091042966342e-9 7.47895242643672e-9 9.230858838475156e-9 1.0476742984193056e-8
          7.0388505983818574e-9 8.88634077497377e-7 9.015328102715841e-7 7.419523514366546e-8 7.171609059913027e-7 9.464103648659762e-8
          5.132843472318835e-7 1.3643545962492568e-7 3.14437076984613e-7 4.8153489719259776e-8 4.797667423030104e-8 3.7419493963241686e-8
          1.842456518658613e-8 1.1379372416907597e-8 1.655248251246802e-8 1.949564614035787e-8 1.32272196606103e-8 4.556798755726423e-7
          9.59817986082316e-7 0.0000011860445910204735 0.000001546964025906373 9.048839344548927e-7 6.475206899239962e-7 0.0000013871800001996134
          0.0000011061167430175865 0.0000012705846080442533 0.0000011772737484284197 8.05784970675375e-7 0.0000013454038287236302 7.937909617502643e-7
          9.829169074389324e-7 3.807446226296732e-7 8.503391808249234e-7 6.806891662982604e-7 0.0000012055850063033705 5.169274670546044e-7
          4.502953824183388e-7 9.532558512807819e-7 9.569217290493958e-7 0.0000010725550725545865 7.0664483619993e-7 9.75722972210656e-7
          8.413953240119606e-7 8.914759867750437e-7 8.12637460060647e-7 2.637532702365237e-7 1.5369030976186305e-7 2.081363605969594e-7
          7.404826449401694e-7 1.076079195672727e-7 2.2452951447933054e-7 7.43764293290347e-7 7.775350917047195e-8 3.436414592465478e-7
          2.7435407630331406e-7 8.181694531710334e-8 9.392718853613443e-7 9.907674741576306e-7 6.184404380689163e-7 1.7530495150879882e-7
          8.475465317780665e-8 2.4273990114581124e-7 7.289617621970071e-7 6.361039255295673e-8 2.6299437082871297e-7 4.501435818324965e-7
          3.5114821851223034e-8 2.034916547862526e-7 1.4186643256688825e-7 1.1190181082085859e-7 2.989352029594292e-7 3.2670445679071457e-7
          4.148963242842232e-7 1.2597668177724534e-7 4.60029821110012e-8 2.855704637610075e-7 4.223184516917089e-7 9.08776468710972e-9
          8.895835954272211e-8 1.746761951549517e-7 3.54038867330661e-7 2.197825587887867e-7 3.01602810727658e-8 2.0191094119820105e-8
          3.305570879462942e-8 1.461010934491562e-7 6.695469678846348e-8 4.573680644758461e-8 8.987475033529174e-8 8.728244606386272e-9
          7.171599761514345e-9 1.2206880063461663e-8 1.0221907166874408e-8 2.5498899727248453e-8 3.364840722142727e-8 1.6486628092996278e-8
          3.858021034038478e-9 3.497787257276596e-9 3.772295315786731e-9 5.579424493190964e-9 1.558442651851774e-9 2.3462035528162778e-9
          2.3773134346594154e-9 3.1375534805147148e-9 7.691075502614286e-9 2.7978419370571713e-9 1.10990002137876e-9 8.911828912962115e-10
          1.274875492657408e-9 1.915462913387011e-9 2.649479780530489e-9 9.215126478794867e-7 0.00000103996683091206 0.0000011572298625817418
          0.0000010563991917462575 8.001441271065987e-7 9.603088823651986e-7 0.0000012235366072481855 7.511143344469967e-7 5.325671356009377e-7
          5.196048320548951e-7 0.0000011196088314889682 0.0000011599378933837305 0.000001279836817747623 8.682684244199693e-7 8.463320916100481e-7
          8.206725484863317e-7 0.00000109029657079025 5.368624930381132e-7 0.0000010746090877098599 6.638828133153636e-7 6.015757514020301e-7
          5.574398049194641e-7 3.775385560338515e-7 6.155432981369207e-7 5.849327239677234e-7 3.963268023523132e-7 7.153385776774051e-7
          7.238589379459802e-7 7.420902150153844e-7 9.305505215192407e-7 5.623142631548365e-7 5.907352951949538e-7 8.170398069581467e-7
          6.97760607271608e-7 6.2971587056838e-7 3.8375266032117736e-7 3.039830959550862e-7 5.111968141165976e-7 1.723443881322585e-7
          2.1264397903612075e-7 7.442554543802916e-7 7.605744177846797e-7 7.809277092508791e-7 5.529809501565221e-7 3.921839599734112e-7
          1.857837177577153e-7 8.663820821294697e-7 4.2670229249930605e-7 3.8199571080006e-7 4.012395938138114e-7 5.520730739690556e-7
          2.8140080618813473e-7 4.6917253206545827e-7 6.05683399692934e-7 2.4724485212397053e-7 2.7626538430234297e-7 4.6391523096114093e-7
          2.770754194477978e-7 5.176663483263277e-7 5.671460431112921e-7 5.102895890863342e-7 2.000962650304925e-7 3.9291047788285e-7
          4.0350789101351745e-7 7.196870728471093e-7 2.12144652708208e-7 1.8011546534440618e-7 2.676104384243429e-7 4.5621603107330387e-7
          1.6925467729949733e-7 2.5833485743089736e-7 4.476893934386997e-7 1.4652399472382467e-7 4.991877242247104e-7 4.870927849421215e-7
          2.1611766809226022e-7 4.1157800606163287e-7 4.1839874541008824e-7 7.447255488158056e-7 1.8278633143772766e-7 2.245619827799105e-7
          1.9322071833729804e-7 2.3699867425943245e-7 8.028483090437241e-7 8.231535314436328e-7 7.662983705733476e-8 1.9803895897900616e-7
          2.110342220188947e-7 9.145793264669797e-7 2.0483044571060354e-7 2.507014567638068e-7 2.178207868015245e-7 2.657932121896578e-7
          8.407057462868627e-7 8.565148553156613e-7 8.7774403851973e-8 2.2547913383413593e-7 2.415149132462087e-7 9.653333391596498e-7
          1.887004566923033e-7 1.570118238313374e-7 2.48927699426205e-7 4.3830650192977433e-7 1.441412449200703e-7 2.3859962501282206e-7
          4.2739935352941397e-7 1.218974375564472e-7 4.737581065573212e-7 4.5896517704816665e-7 2.3340284327563252e-7 4.246277542853096e-7
          4.302540247348744e-7 7.385584132510388e-7 1.618622109814095e-7 1.3113174264578676e-7 2.2721375576423198e-7 4.148575682982967e-7
          1.1863584634727931e-7 2.147557463083864e-7 4.0054573476618885e-7 9.596040580628744e-8 4.419961106257616e-7 4.22701288073897e-7
          2.525910119642407e-7 4.3518626521307206e-7 4.3930518110948364e-7 5.892231894885725e-7 2.3240780796454224e-7 2.82440406274459e-7
          2.488457012298263e-7 3.0089317589424886e-7 6.80121468976921e-7 5.010956883348787e-7 1.025494620238901e-7 2.595694768588596e-7
          2.8121085051293703e-7 6.444948380259892e-7 2.6744625566343225e-7 3.2136880135144886e-7 2.886004313694197e-7 3.447998078001804e-7
          3.84083714169606e-7 2.733904116601279e-7 1.2300118713259908e-7 3.0577133282779697e-7 3.342450884146743e-7 3.132885730002955e-7
          1.3770154532811443e-7 1.0689768209191976e-7 2.0124673765548598e-7 3.8430384776261325e-7 9.533374105614826e-8 1.8674007334426353e-7
          3.660529207692498e-7 7.128639183486123e-8 4.0135382153991094e-7 3.7790286364018276e-7 2.7397851798471407e-7 4.423582222764215e-7
          4.44150822190213e-7 4.3768881659814337e-7 1.1362559827851787e-7 8.345279513154571e-8 1.7133604058485294e-7 3.4573557250939773e-7
          3.5221650643035933e-7 2.978293003919133e-7 4.444629333537122e-7 4.0360115003506095e-7 3.1274610812034724e-7 3.7089292754765893e-7
          3.404344252397136e-7 4.00186947786568e-7 2.8118735379145e-7 2.8727530052018513e-7 1.530980309943714e-7 3.6756432144327145e-7
          4.0678561291459523e-7 3.405727656984558e-7 3.721977397119036e-7 4.3290491371232183e-7 2.9126812983622214e-7 2.0430916956739387e-7
          4.531905523384302e-7 6.171807800134844e-8 3.6967798500616866e-8 3.557913241935468e-8 2.1368393112773006e-7 1.8610764637790783e-7
          1.0673987556404379e-7 1.152930361429284e-7 1.2217518999885281e-8 2.7372104750179777e-8 1.6902141158126744e-8 7.286789795931799e-8
          7.746722041287146e-8 1.8834471017164063e-7 2.3264728726777815e-7 6.006250247509743e-8 1.4155484154659778e-7 1.4280530349936071e-8
          4.1421798046821374e-8 4.458265975379678e-8 3.477191020162323e-8 3.038215223839632e-7 3.8782735412268487e-7 2.2304718061809817e-7
          6.856306574370668e-8 3.748315152561434e-8 9.20395798029798e-8 1.945054718701924e-8 4.923638655465142e-8 9.663060346337015e-9
          2.4837025792488142e-8 1.4503360252378018e-8 1.4659600808034528e-7 7.902222592228358e-8 4.001099123863927e-8 7.151192555476197e-9
          1.9045778263271647e-8 3.0940363971067096e-8 0.0000011490816497937871 0.0000011231165763144854 0.0000010133790505557188 0.0000011754033419873104
          0.0000010659921240885188 0.0000012393575050430662 7.692770545184788e-7 0.000001043352324762983 0.000001298164490873379 4.629805741091635e-7
          4.4558791387749184e-7 4.5674211591834623e-7 7.929859726147418e-7 8.001754598778634e-7 7.299330900715138e-7 7.254880483146427e-7
          4.3257648667675056e-7 8.07251618515992e-7 7.341967665624466e-7 4.281952536458201e-7 6.596907202651641e-7 6.579901240145436e-7
          6.611419146089014e-7 4.3785474237162466e-7 4.1785935066860216e-7 8.135496745948472e-7 7.377274266577106e-7 3.978639589655797e-7
          6.619051787205738e-7 6.257156452971478e-7 7.00343468235667e-7 9.987440871089164e-7 9.947955446295934e-7 6.195959111738087e-7
          9.991878305144181e-7 3.9455644021815493e-7 6.239245829962212e-7 6.509277935781287e-7 5.942195081189219e-7 0.0000011473296997861375
          0.0000011392199070748868 0.0000011538398716828695 7.203124589877519e-7 6.064641221475606e-7 9.962806201621328e-7 5.90875787735229e-7
          9.899706746002238e-7 3.249519844960883e-7 5.644593124515741e-7 5.32542223293501e-7 0.0000011579370257272092 0.0000011580083945604801
          6.691787098928501e-7 5.713379110676321e-7 7.884770880783868e-7 5.477688876887464e-7 5.781814478138242e-7 2.74593844450755e-7
          5.005526162650448e-7 4.6898736657232703e-7 7.790761704178619e-7 3.829802485862142e-7 6.047184843643719e-7 3.915569670004179e-7
          4.282293942807188e-7 2.348954078839444e-7 2.727240279242006e-7 2.2259668282983718e-7 4.3491770701635814e-7 3.98418299694672e-7
          3.629309162756637e-7 3.394921519787977e-7 5.401043233110661e-7 3.7779062510630084e-8 4.600317967440923e-8 1.4201443807550117e-7
          1.5919300765052648e-7 3.0244725953619536e-8 1.2466899690258695e-7 1.3886587228126642e-8 4.679219533790053e-8 5.751721140066559e-8
          3.691968587081858e-8 2.1194371091509648e-7 1.8686554764626006e-7 1.7431924294610345e-7 2.486143798622794e-7 2.2176227871428462e-7
          3.562773347913192e-7 3.081227107392125e-7 3.1207913838499566e-7 2.810690506887693e-7 4.4361398713810586e-7 1.346421517522181e-9
          6.323433293115289e-9 4.2919633444171185e-9 2.2604933957189476e-9 1.7126734964774665e-7 1.7901614703566797e-7 1.7508759866360922e-7
          1.715926918333563e-7 1.7414530726262953e-7 1.7021177911897616e-7 1.7838584664849135e-7 1.7984188885757623e-7 1.844459200621338e-7
          1.8661386082254861e-7 1.8600127358633363e-7 1.822482316312801e-7 1.7950443737779312e-7 1.8337435898413985e-7 1.824564270128378e-7
          1.781967694469548e-7 1.8939615127318253e-7 1.8736218465192578e-7 1.8659398707861298e-7 1.862931517286773e-7 1.8923710208059245e-7
          1.832342387730119e-7 1.9285852251416772e-7 1.801348571457311e-7 1.7891158043934198e-7 1.837918228840435e-7 1.8815947520494204e-7
          1.9412339808097284e-7 1.9289602077929705e-7 1.9158985648256747e-7 1.9070623395127595e-7 1.964452157182358e-7 1.9600480089710356e-7
          1.9496279379399962e-7 1.9203964025946102e-7 1.9681021673519423e-7 2.0083366832953528e-7 1.8905631488416205e-7 1.8851644712325483e-7
          1.9348037186976343e-7 1.9812945131054966e-7 1.846239101013142e-7 1.899970452134879e-7 1.8913149945281755e-7 1.9543735041209008e-7
          2.0126814085555244e-7 1.9964793331438606e-7 2.0161482579755457e-7 1.999696441284832e-7 2.00574918120077e-7 1.9941084736224752e-7
          2.0395520849132603e-7 2.0379051979912392e-7 2.0329045475903188e-7 1.983820290420171e-7 2.0496033456410282e-7 2.084456641529967e-7
          1.9953501044259944e-7 1.988520505960118e-7 1.8243940197404766e-7 2.087221151570237e-7 2.1229569509761127e-7 2.0871726420969614e-7
          2.056161274768634e-7 2.0659969006950506e-7 1.951846172127794e-7 2.0795128773880206e-7 2.1014880785508413e-7 2.0582166489989162e-7
          2.1121962999657673e-7 2.1451382506646198e-7 1.6803988235382047e-7 1.7811259954258562e-7 1.8649170837798763e-7 2.0440113460288765e-7
          1.1939760813202629e-7 1.319658497620964e-7 2.0774370601723381e-7 1.9013529778043778e-7 1.2186489565552526e-7 2.1239834673577353e-7
          1.1384064042566963e-7 1.3447521094409245e-7 1.0940643457324573e-7 1.3934218513564212e-7 1.8589034251122322e-7 1.95658308249917e-7
          9.053807599981381e-8 1.1720733873232765e-7 1.1370856239025178e-7 1.7959601090993306e-7 1.4248693696460515e-7 1.4125105425362544e-7
          1.450110037165115e-7 1.577116264874415e-7 1.5824882080897095e-7 1.5370215593946594e-7 1.5299242084219947e-7 1.366264655112709e-7
          1.5936277232378233e-7 1.5489726392685216e-7 1.4001517154264574e-7 1.4915549106996095e-7 1.4827321519695745e-7 1.50431755529922e-7
          1.9492947494622787e-7 1.9035712253515127e-7 1.9575881894527352e-7 1.9434568166221726e-7 1.3498536253832097e-7 1.3593800685571282e-7
          1.607007075745666e-7 1.5609079767268683e-7 1.3642280240949331e-7 1.622790883902548e-7 1.575539322651353e-7 1.3689065117310467e-7
          1.5148088777080704e-7 1.5282877614001574e-7 2.0421236495570367e-7 1.997579093956065e-7 2.0338570277220465e-7 2.0219180937135437e-7
          1.3582021148246073e-7 1.371260469616272e-7 1.6396820751380236e-7 1.5909998977328835e-7 1.378425707547743e-7 1.6568915697595327e-7
          1.6064774224084396e-7 1.3843188244079364e-7 1.5423177203277435e-7 1.556063275057346e-7 2.1208352098816668e-7 2.0707873525224423e-7
          2.1086231546411712e-7 2.0907378055974884e-7 1.369889166437518e-7 1.384106303946158e-7 1.6736162192536707e-7 1.6212376814374248e-7
          1.3886423592534707e-7 1.6899374221211423e-7 1.6354285078547465e-7 1.398323441454798e-7 1.5688591436211789e-7 1.5809195935883505e-7