<?xml version="1.0"?>
<VTKFile type="UnstructuredGrid" version="0.1" byte_order="LittleEndian" header_type="UInt32" compressor="vtkZLibDataCompressor">
  <UnstructuredGrid>
    <Piece NumberOfPoints="1326" NumberOfCells="921">
      <PointData>
        <DataArray type="Int32" Name="libmesh_node_id" format="ascii" RangeMin="1095" RangeMax="11744">
          3277 3278 3280 3292 3294 3305
          3306 3309 3311 3312 3314 3318
          3322 3324 3326 3328 4942 4943
          4944 4945 4946 4947 4948 4949
          4950 4951 4952 4953 4956 4958
          4959 4961 4962 4963 4964 4965
          4966 4967 4968 4973 4975 4979
          4980 4981 4983 4984 4985 5000
          5001 5002 5003 5004 5005 5006
          5011 5013 5015 5017 5019 5020
          5021 5022 5023 5029 5031 5033
          5102 5103 5104 5105 5106 5107
          5108 5109 5110 5111 5112 5113
          5116 5118 5119 5121 5122 5123
          5124 5125 5126 5127 5128 5129
          5131 5133 5135 5136 5137 5138
          5139 5140 5141 5142 5143 5144
          5145 5146 5147 5150 5152 5153
          5155 5156 5157 5158 5159 5160
          5161 5162 5163 5165 5167 5169
          5170 5171 5172 5173 5174 5175
          5176 5177 5178 5179 5180 5181
          5182 5183 5184 5185 5186 5187
          5188 5189 5191 5193 5195 5196
          5197 5198 5199 5200 5201 5202
          5203 5205 5207 5209 5210 5211
          5212 5213 5214 5215 5216 5217
          5219 5221 5223 5224 5225 5226
          5227 5228 5229 5230 5231 5233
          5235 5237 10172 10173 10174 10175
          10176 10177 10178 10185 10186 10187
          10188 10189 10190 10191 10196 10197
          10198 10199 10200 10201 10202 10203
          10204 10205 10206 10207 10208 10209
          10210 10211 10212 10213 10214 10215
          10216 10217 10218 10219 10220 10221
          10222 10223 10224 10225 10226 10227
          10228 10229 10230 10237 10238 10239
          10240 10247 10248 10250 10255 10256
          10257 10262 10264 10265 10266 10267
          10268 10269 10270 10271 10272 10273
          10274 10275 10276 10279 10281 10282
          10284 10285 10286 10287 10288 10289
          10290 10291 10292 10294 10296 10298
          10299 10300 10301 10306 10307 10308
          10309 10310 10311 10316 10317 10318
          10319 10320 10321 10322 10323 10324
          10325 10326 10327 10328 10329 10330
          10331 10332 10333 10334 10335 10336
          10337 10338 10343 10344 10345 10350
          10357 10359 10367 10368 10369 10370
          10371 10372 10373 10374 10378 10381
          10382 10383 10384 10385 10386 10387
          10494 10495 10496 10501 10502 10503
          10504 10505 10506 10511 10512 10513
          10514 10515 10516 10517 10518 10519
          10520 10521 10522 10523 10524 10525
          10526 10527 10528 10529 10530 10531
          10532 10533 10538 10540 10552 10554
          10562 10563 10564 10565 10566 10567
          10568 10576 10577 10578 10579 10580
          10581 10582 10590 10591 10592 10593
          10594 10595 10596 10597 10598 10599
          10600 10601 10602 10603 10604 10605
          10606 10607 10608 10609 10610 10611
          10612 10613 10990 10991 10992 10993
          10994 10995 10998 11000 11001 11002
          11003 11004 11005 11006 11007 11008
          11009 11010 11011 11012 11013 11014
          11015 11016 11017 11018 11019 11020
          11021 11022 11023 11026 11027 11029
          11032 11034 11035 11036 11037 11038
          11039 11040 11041 11042 11043 11045
          11047 11049 11051 11052 11053 11054
          11055 11056 11057 11058 11059 11060
          11061 11062 11063 11064 11065 11066
          11067 11078 11079 11080 11081 11082
          11083 11084 11092 11093 11094 11095
          11096 11097 11098 11099 11100 11101
          11112 11113 11114 11115 11116 11117
          11118 11126 11127 11128 11129 11130
          11131 11132 11133 11134 11135 11136
          11137 11138 11139 11140 11141 11142
          11143 11144 11145 11146 11147 11148
          11149 11150 11151 11152 11153 11154
          11155 11156 11157 11158 11159 11160
          11161 11162 11163 11164 11165 11166
          11167 11168 11169 11170 11171 11172
          11180 11181 11182 11183 11184 11185
          11186 11194 11195 11196 11197 11198
          11199 11200 11208 11209 11210 11211
          11212 11213 11214 11224 11225 11227
          11230 11232 11233 11234 11235 11236
          11237 11238 11239 11240 11241 11243
          11245 11247 11249 11250 11251 11252
          11253 11254 11255 11258 11259 11261
          11264 11266 11267 11268 11269 11270
          11271 11272 11273 11274 11275 11277
          11279 11281 11283 11284 11285 11286
          11287 11288 11289 11290 11291 11292
          11293 11294 11295 11296 11297 11298
          11299 11310 11311 11312 11313 11314
          11315 11316 11324 11325 11326 11327
          11328 11329 11330 11331 11332 11333
          11344 11345 11346 11347 11348 11349
          11350 11358 11359 11360 11361 11362
          11363 11364 11365 11366 11367 11368
          11369 11370 11371 11372 11373 11374
          11375 11376 11377 11378 11379 11380
          11381 11382 11383 11384 11385 11386
          11387 11388 11389 11390 11391 11392
          11393 11394 11395 11396 11397 11398
          11399 11400 11401 11402 11403 11404
          11412 11413 11414 11415 11416 11417
          11418 11426 11427 11428 11429 11430
          11431 11432 11440 11441 11442 11443
          11444 11445 11446 11454 11455 11456
          11457 11458 11459 11460 11461 11462
          11463 11464 11465 11466 11467 11468
          11469 11470 11471 11472 11473 11474
          11475 11476 11477 11478 11479 11480
          11481 11482 11483 11484 11485 11486
          11487 11488 11489 11490 11491 11492
          11493 11494 11495 11496 11497 11498
          11499 11500 11508 11509 11510 11511
          11512 11513 11514 11522 11523 11524
          11525 11526 11527 11528 11536 11537
          11538 11539 11540 11541 11542 11550
          11551 11552 11553 11554 11555 11556
          11557 11558 11559 11560 11561 11562
          11563 11564 11565 11566 11567 11568
          11569 11570 11571 11572 11573 11574
          11575 11576 11577 11578 11579 11580
          11581 11582 11583 11584 11585 11586
          11587 11588 11589 11590 11591 11592
          11593 11594 11595 11596 11597 11598
          11599 11600 11601 11602 11603 11604
          11605 11606 11607 11608 11609 11610
          11611 11612 11613 11614 11615 11616
          11617 11618 11619 11620 11621 11622
          11623 11624 11625 11626 11627 11628
          11629 11630 11631 11632 11633 11634
          11635 11636 11637 11638 11639 11640
          11641 11642 11643 11644 11645 11646
          11647 11655 11656 11657 11658 11659
          11660 11661 11669 11670 11671 11672
          11673 11674 11675 11683 11684 11685
          11686 11687 11688 11689 11697 11698
          11699 11700 11701 11702 11703 11704
          11705 11706 11707 11708 11709 11710
          11711 11712 11713 11714 11715 11716
          11717 11718 11719 11720 11721 11722
          11723 11724 11725 11726 11727 11728
          11729 11730 11731 11732 11733 11734
          11735 11736 11737 11738 11739 11740
          11741 11742 11743 11744 3281 3282
          3284 3283 3285 3286 1518 3287
          3315 3316 3317 3319 3320 1523
          3321 3290 3713 3709 3719 3711
          3291 3715 1519 3720 3725 3722
          3325 3726 3729 3724 1095 3730
          3263 4914 4915 4864 4886 4887
          4917 3264 4889 4892 3269 4932
          4872 4902 4934 3266 4904 4906
          1515 4990 4978 4992 5014 4982
          3288 5016 5018 4999 5024 5009
          5025 5028 5026 5027 5030 5010
          3293 5032 5049 5062 5064 3298
          5066 3300 5083 5096 5098 3303
          5100 1521 5204 5206 5208 5232
          5234 5236 9994 9995 9987 10179
          10180 9997 10183 10181 10182 10184
          10005 10000 10192 10007 10194 10193
          10195 9912 9932 9933 9935 1514
          9938 10231 10232 10233 10234 10235
          10236 10241 10242 10243 10244 4954
          10249 10245 10246 4955 10251 10252
          10253 10254 10258 10259 10263 10260
          10261 4957 10277 10278 10280 1516
          10283 4960 10293 10295 10297 3279
          10103 10098 10302 10105 10304 10303
          10305 10113 10108 10312 10115 10314
          10313 10315 10339 10340 10341 10342
          4969 10346 10347 10351 10348 10352
          10349 4970 10353 10354 10358 10355
          10356 4971 10375 10376 10377 10379
          10380 4974 10364 10388 10366 10390
          10392 10394 10422 10417 10497 10424
          10499 10498 10500 10432 10427 10507
          10434 10509 10508 10510 10534 10535
          10539 10536 10537 5007 10548 10549
          10553 10550 10551 10545 10569 10547
          10571 10573 10575 10559 10583 10561
          10585 10587 10589 10694 10695 10697
          5046 10996 10997 10700 10999 5047
          9952 10710 10712 10714 11024 11025
          11028 11030 11031 11033 10731 11044
          10744 11046 10746 11048 11050 11068
          11069 11070 11071 11072 11073 11074
          11075 11077 11085 11086 11087 11088
          11089 11091 11102 11103 11106 11108
          11109 11111 11119 11121 11123 11125
          11173 11174 11175 11176 11177 11179
          11187 11189 11191 11193 11201 11203
          11205 11207 11215 11217 11219 11221
          11222 11223 11226 11228 11229 11231
          11242 11244 11246 11248 11256 11257
          11260 11262 11263 11265 11276 11278
          11280 11282 11300 11301 11304 11306
          11307 11309 11317 11319 11321 11323
          11334 11335 11338 11340 11341 11343
          11351 11353 11355 11357 11405 11407
          11409 11411 11419 11421 11423 11425
          11433 11435 11437 11439 11447 11449
          11451 11453 11501 11503 11505 11507
          11515 11517 11519 11521 11529 11531
          11533 11535 11543 11545 11547 11549
          11518 5192 11546 3323 11648 11650
          11652 11654 11662 11664 11666 11668
          11676 11678 11680 11682 11690 11692
          11694 11696 11665 5220 11693 3327
        </DataArray>
        <DataArray type="Float64" Name="bounds" format="ascii" RangeMin="0" RangeMax="0">
          0 0 0 0 0 0
          0 0 0 0 0 0
          0 0 0 0 0 0
          0 0 0 0 0 0
          0 0 0 0 0 0
          0 0 0 0 0 0
          0 0 0 0 0 0
          0 0 0 0 0 0
          0 0 0 0 0 0
          0 0 0 0 0 0
          0 0 0 0 0 0
          0 0 0 0 0 0
          0 0 0 0 0 0
          0 0 0 0 0 0
          0 0 0 0 0 0
          0 0 0 0 0 0
          0 0 0 0 0 0
          0 0 0 0 0 0
          0 0 0 0 0 0
          0 0 0 0 0 0
          0 0 0 0 0 0
          0 0 0 0 0 0
          0 0 0 0 0 0
          0 0 0 0 0 0
          0 0 0 0 0 0
          0 0 0 0 0 0
          0 0 0 0 0 0
          0 0 0 0 0 0
          0 0 0 0 0 0
          0 0 0 0 0 0
          0 0 0 0 0 0
          0 0 0 0 0 0
          0 0 0 0 0 0
          0 0 0 0 0 0
          0 0 0 0 0 0
          0 0 0 0 0 0
          0 0 0 0 0 0
          0 0 0 0 0 0
          0 0 0 0 0 0
          0 0 0 0 0 0
          0 0 0 0 0 0
          0 0 0 0 0 0
          0 0 0 0 0 0
          0 0 0 0 0 0
          0 0 0 0 0 0
          0 0 0 0 0 0
          0 0 0 0 0 0
          0 0 0 0 0 0
          0 0 0 0 0 0
          0 0 0 0 0 0
          0 0 0 0 0 0
          0 0 0 0 0 0
          0 0 0 0 0 0
          0 0 0 0 0 0
          0 0 0 0 0 0
          0 0 0 0 0 0
          0 0 0 0 0 0
          0 0 0 0 0 0
          0 0 0 0 0 0
          0 0 0 0 0 0
          0 0 0 0 0 0
          0 0 0 0 0 0
          0 0 0 0 0 0
          0 0 0 0 0 0
          0 0 0 0 0 0
          0 0 0 0 0 0
          0 0 0 0 0 0
          0 0 0 0 0 0
          0 0 0 0 0 0
          0 0 0 0 0 0
          0 0 0 0 0 0
          0 0 0 0 0 0
          0 0 0 0 0 0
          0 0 0 0 0 0
          0 0 0 0 0 0
          0 0 0 0 0 0
          0 0 0 0 0 0
          0 0 0 0 0 0
          0 0 0 0 0 0
          0 0 0 0 0 0
          0 0 0 0 0 0
          0 0 0 0 0 0
          0 0 0 0 0 0
          0 0 0 0 0 0
          0 0 0 0 0 0
          0 0 0 0 0 0
          0 0 0 0 0 0
          0 0 0 0 0 0
          0 0 0 0 0 0
          0 0 0 0 0 0
          0 0 0 0 0 0
          0 0 0 0 0 0
          0 0 0 0 0 0
          0 0 0 0 0 0
          0 0 0 0 0 0
          0 0 0 0 0 0
          0 0 0 0 0 0
          0 0 0 0 0 0
          0 0 0 0 0 0
          0 0 0 0 0 0
          0 0 0 0 0 0
          0 0 0 0 0 0
          0 0 0 0 0 0
          0 0 0 0 0 0
          0 0 0 0 0 0
          0 0 0 0 0 0
          0 0 0 0 0 0
          0 0 0 0 0 0
          0 0 0 0 0 0
          0 0 0 0 0 0
          0 0 0 0 0 0
          0 0 0 0 0 0
          0 0 0 0 0 0
          0 0 0 0 0 0
          0 0 0 0 0 0
          0 0 0 0 0 0
          0 0 0 0 0 0
          0 0 0 0 0 0
          0 0 0 0 0 0
          0 0 0 0 0 0
          0 0 0 0 0 0
          0 0 0 0 0 0
          0 0 0 0 0 0
          0 0 0 0 0 0
          0 0 0 0 0 0
          0 0 0 0 0 0
          0 0 0 0 0 0
          0 0 0 0 0 0
          0 0 0 0 0 0
          0 0 0 0 0 0
          0 0 0 0 0 0
          0 0 0 0 0 0
          0 0 0 0 0 0
          0 0 0 0 0 0
          0 0 0 0 0 0
          0 0 0 0 0 0
          0 0 0 0 0 0
          0 0 0 0 0 0
          0 0 0 0 0 0
          0 0 0 0 0 0
          0 0 0 0 0 0
          0 0 0 0 0 0
          0 0 0 0 0 0
          0 0 0 0 0 0
          0 0 0 0 0 0
          0 0 0 0 0 0
          0 0 0 0 0 0
          0 0 0 0 0 0
          0 0 0 0 0 0
          0 0 0 0 0 0
          0 0 0 0 0 0
          0 0 0 0 0 0
          0 0 0 0 0 0
          0 0 0 0 0 0
          0 0 0 0 0 0
          0 0 0 0 0 0
          0 0 0 0 0 0
          0 0 0 0 0 0
          0 0 0 0 0 0
          0 0 0 0 0 0
          0 0 0 0 0 0
          0 0 0 0 0 0
          0 0 0 0 0 0
          0 0 0 0 0 0
          0 0 0 0 0 0
          0 0 0 0 0 0
          0 0 0 0 0 0
          0 0 0 0 0 0
          0 0 0 0 0 0
          0 0 0 0 0 0
          0 0 0 0 0 0
          0 0 0 0 0 0
          0 0 0 0 0 0
          0 0 0 0 0 0
          0 0 0 0 0 0
          0 0 0 0 0 0
          0 0 0 0 0 0
          0 0 0 0 0 0
          0 0 0 0 0 0
          0 0 0 0 0 0
          0 0 0 0 0 0
          0 0 0 0 0 0
          0 0 0 0 0 0
          0 0 0 0 0 0
          0 0 0 0 0 0
          0 0 0 0 0 0
          0 0 0 0 0 0
          0 0 0 0 0 0
          0 0 0 0 0 0
          0 0 0 0 0 0
          0 0 0 0 0 0
          0 0 0 0 0 0
          0 0 0 0 0 0
          0 0 0 0 0 0
          0 0 0 0 0 0
          0 0 0 0 0 0
          0 0 0 0 0 0
          0 0 0 0 0 0
          0 0 0 0 0 0
          0 0 0 0 0 0
          0 0 0 0 0 0
          0 0 0 0 0 0
          0 0 0 0 0 0
          0 0 0 0 0 0
          0 0 0 0 0 0
          0 0 0 0 0 0
          0 0 0 0 0 0
          0 0 0 0 0 0
          0 0 0 0 0 0
          0 0 0 0 0 0
          0 0 0 0 0 0
          0 0 0 0 0 0
          0 0 0 0 0 0
          0 0 0 0 0 0
          0 0 0 0 0 0
          0 0 0 0 0 0
          0 0 0 0 0 0
          0 0 0 0 0 0
          0 0 0 0 0 0
          0 0 0 0 0 0
          0 0 0 0 0 0
        </DataArray>
        <DataArray type="Float64" Name="gradient_error" format="ascii" RangeMin="2.9664059369172025e-12" RangeMax="3.2033174243987933e-7">
          2.9066967986832447e-8 1.9404841145331746e-8 1.3058440304791103e-9 7.971695189525632e-11 1.9245422769327833e-10 4.103580223056336e-8
          3.747298533684874e-8 2.6593688012774503e-9 4.934538967966332e-8 4.678533024788672e-8 3.409281337836945e-9 6.0462472263488e-9
          1.5324199571709856e-10 2.7515934204383463e-10 1.9135603214253724e-10 3.1397874949423375e-10 6.835706068837046e-8 1.0015903804970871e-7
          2.0393611545118696e-8 2.1634471969133238e-8 9.360347201768214e-8 1.2177925664653028e-8 3.026066340293233e-8 7.239764400710228e-8
          3.3897064328588124e-8 9.696428503010385e-8 1.352827384471406e-8 1.329766688689315e-8 6.490286551240631e-9 2.0590763436605313e-8
          2.099127812510277e-8 1.0876435153835292e-8 3.885081962008525e-8 3.505125767243935e-9 1.2102703154277728e-8 7.796008472564345e-10
          6.110945290021144e-8 5.851790067308859e-9 1.810420426835974e-8 2.717241339715462e-9 5.194846113556325e-10 6.5839261957654474e-9
          2.784403261986666e-9 1.1009190134365361e-8 6.551405506187214e-10 4.887895587969176e-10 8.180087779687636e-10 3.52069502002604e-9
          1.773441438743688e-10 1.498745371301009e-9 9.67001278416188e-11 5.888052522420375e-9 2.9455361562688974e-10 2.4820290643569418e-9
          9.933106548625772e-11 2.348614967751436e-11 4.122894089350412e-10 1.0034204639427859e-10 3.026279453365047e-10 7.661330283073028e-11
          4.679434396910484e-10 5.794102258248622e-11 3.5864873765323594e-10 2.5110035848688593e-11 2.2246469171029248e-11 3.090110502133372e-11
          4.1222340232696004e-8 5.559325073962436e-8 3.2638629699875064e-8 4.510316332179565e-8 9.473216070467874e-8 2.8301011669722578e-8
          4.938784058139235e-8 6.909814531942298e-8 5.433747682060675e-8 1.2469784618471927e-7 2.8556314605206684e-8 3.0222208408825856e-8
          1.6024846251414295e-8 3.250488399475024e-8 3.830250779876141e-8 2.110026057598437e-8 8.849330810786834e-8 8.774817886839364e-9
          2.5535770452292916e-8 1.9703764457611573e-9 1.1673013406880732e-7 1.1770330849208133e-8 3.2842965540815625e-8 4.149545994541154e-9
          7.9092783547211e-10 5.622492778573221e-9 1.073868079028909e-9 4.512630151340218e-8 7.874910118035591e-8 4.792255605289281e-8
          6.133925896156288e-8 1.4486869015209145e-7 4.4260359985938945e-8 3.829412298007509e-8 7.735278310623482e-8 6.335785934380871e-8
          1.5160325651937314e-7 3.396593255438927e-8 4.293464901309921e-8 2.4926685181941282e-8 3.493293661503481e-8 4.4555879277277615e-8
          2.64307444920244e-8 1.378059644345186e-7 1.4035919253761735e-8 3.8741526622500836e-8 3.2025680463032614e-9 1.4522763998414497e-7
          1.4880977843612938e-8 4.1085566851606424e-8 6.748034819657661e-9 1.2934236598206387e-9 7.1705415031371565e-9 1.3766206206155874e-9
          1.60809299388601e-8 6.931626663600213e-9 2.07072584705359e-8 1.0976492959650086e-9 7.644488909861263e-10 1.361558310275378e-9
          2.428803970661605e-8 1.0515935484750827e-8 2.585909999292227e-8 1.5229670474477028e-9 1.0486601786298133e-9 1.580440842587203e-9
          8.606159932270067e-9 4.36520349848245e-10 3.6495590564571378e-9 1.1718137325068948e-10 1.1099748935537786e-8 5.802092365950597e-10
          4.724631521141433e-9 1.483659463097748e-10 3.029877551138903e-11 1.9848592991799532e-10 3.985595005632595e-11 6.274047621640017e-10
          7.5362474296411e-11 4.667427905884746e-10 1.1381623690201846e-10 7.789049118735889e-10 9.286353412020678e-11 5.748112097818386e-10
          2.4602628389420395e-11 4.037099905425045e-11 3.0542699586787457e-11 4.967014794312715e-11 1.302816940523931e-8 6.918194076880259e-10
          5.538197103326105e-9 1.8011727224325766e-10 1.387693127465013e-8 7.367144551940422e-10 5.887731196605987e-9 2.3715358391363154e-10
          4.70918952654462e-11 2.5188138371019674e-10 4.986417892948293e-11 8.72111719866281e-10 1.0414108293408836e-10 6.35554399761603e-10
          1.5284033181060213e-10 9.057204599141997e-10 1.0787614165404913e-10 6.539321422284113e-10 3.488567469049284e-11 5.646055193135524e-11
          3.65520121007132e-11 5.905201680991286e-11 2.282570479382306e-8 2.2324740288020454e-8 2.183580434331358e-8 2.943474254553531e-8
          3.168902931750325e-8 2.8131865606202892e-8 3.3943316089471187e-8 2.430450676068552e-8 2.5281698376182275e-8 2.1467190798357776e-8
          2.5751691226510902e-8 1.9859257165792954e-8 1.3800765504455521e-8 2.523742069063841e-8 2.2622064187421766e-8 1.797911519158195e-8
          1.5808091505656853e-8 2.9286612149481e-8 3.299566707996858e-8 2.8478451257391386e-8 3.1615500662548016e-8 3.6704722010456166e-8
          3.460567044839435e-8 3.182500776795228e-8 3.71474668849486e-8 3.5247931166952973e-8 4.526403969331882e-8 2.778158724577718e-8
          3.0289557437607465e-8 2.537945570728007e-8 2.700232218573975e-8 3.2282246849018e-8 2.75064999563772e-8 2.9677532960008666e-8
          3.401081379744741e-8 3.192722338731488e-8 3.8699008795910086e-8 3.1382137764832195e-8 2.2219695997209952e-8 4.7683710629257665e-8
          4.0203261660912624e-8 4.451515418244871e-8 2.840133418080772e-8 2.2881373695596534e-8 1.989045422879202e-8 1.558654204154445e-8
          3.464941202191232e-8 2.8534900086925577e-8 2.4208646478431206e-8 1.6809029596865338e-8 1.7519653681934545e-8 1.3870253812134327e-8
          1.7348902217334778e-8 1.0301807911123315e-8 1.0352723338422532e-8 9.55879216891635e-9 1.4036209578427698e-8 1.0386202452488782e-8
          9.105633680475708e-9 7.209255943377811e-9 4.367487880669607e-9 2.1125606370750758e-8 2.2100218740082553e-8 1.673692046971293e-8
          1.732305461815917e-8 2.2013138914687647e-8 1.6920715563951398e-8 2.5880946656072726e-8 2.7317897255874655e-8 2.136591543340854e-8
          2.744445446136131e-8 1.2926765266888799e-8 1.3122507013431331e-8 1.2349291901665911e-8 1.569967391342829e-8 1.6080358573282077e-8
          1.5400002699703937e-8 1.7981131931164464e-8 1.3465097151969587e-8 1.1841115133373036e-8 8.54464229825824e-9 2.2463734185263046e-8
          1.6886622584605894e-8 1.4907175619022288e-8 9.469790904241568e-9 5.8044172744545146e-9 1.2009834397096895e-8 7.459179157747545e-9
          8.352956249194777e-9 4.862516500584654e-9 1.096823678048425e-8 9.497317583241664e-9 6.9162623210244775e-9 5.2772864832752784e-9
          2.3314422323337865e-9 1.3058355241950192e-9 3.011411520541181e-9 2.5235558525050803e-9 1.6782236238268754e-9 1.3177294997075757e-9
          1.3874279843478677e-8 8.198781248205387e-9 1.7119019044747555e-8 1.2113256672169836e-8 8.978909205125611e-9 6.8135975895032035e-9
          4.59235252226018e-9 1.5022267346516136e-8 1.1289311394300308e-8 8.571056909136815e-9 3.925617588796309e-9 2.1853571664442053e-9
          4.987593613869645e-9 3.2946219781804252e-9 2.2029558924546834e-9 1.7178142947729138e-9 1.0204434384894692e-9 4.194885981336812e-9
          2.820575080892746e-9 2.187765203543522e-9 4.933901341894921e-9 3.387948146137829e-9 2.380838779065391e-9 2.2186065418804516e-9
          1.0882283313366373e-9 4.897981072986444e-10 6.492849225780331e-9 4.501179241251396e-9 3.1501135714451002e-9 2.102722522206396e-9
          8.277501513483305e-9 5.791360105417455e-9 4.045769313896567e-9 2.966122435893009e-9 3.840422099945643e-9 1.4385969614113849e-9
          9.286931473713688e-10 6.443102686904136e-10 4.039813943757309e-10 1.8514159183297774e-9 1.1989935729725827e-9 8.268211046005114e-10
          5.936648096955745e-10 3.40567542571447e-10 7.616637899778767e-10 6.13706154705943e-10 3.704563032775471e-10 3.417593336274331e-10
          1.5772714277407515e-10 1.2289215155973852e-10 2.3641996329254727e-10 1.7783669634134728e-10 9.045803861787684e-11 1.161722921381762e-10
          9.878952899774843e-10 6.02423768178085e-10 1.2472866647126702e-9 7.968279677731172e-10 4.825752996891555e-10 4.490257896689781e-10
          2.3174825638531208e-10 1.0090250447546693e-9 6.147031335165952e-10 5.71300347282804e-10 3.2536753752927777e-10 1.9289945515873873e-10
          4.203207899887565e-10 2.418528732875401e-10 1.1977493452730883e-10 1.3897383838133155e-10 6.272723630216297e-11 3.1137670452823234e-10
          1.5283395275845264e-10 1.7867803907120291e-10 2.2122888776293663e-10 1.0185083392633974e-10 4.7998479024488465e-11 2.6451492761322975e-11
          2.893224269044829e-10 1.7636681382146712e-10 1.3292377662284738e-10 7.80379692897289e-11 3.694723111545321e-10 2.2556172201897557e-10
          1.6904690225789158e-10 6.320081918433843e-11 3.538387445923859e-11 3.073524595656739e-11 1.9269679088307993e-11 8.030079830581409e-11
          4.4970345188100225e-11 3.936142320999369e-11 8.605749507590351e-11 9.993414489919763e-11 8.023785885975994e-11 1.2693134533615567e-10
          6.537779852165974e-11 7.348778288243256e-11 3.078685916681109e-11 3.3418615248966754e-11 5.1708405737878645e-11 5.6065359366984e-11
          2.2577046766405516e-11 9.142876943508963e-11 4.061249379630246e-11 6.797482510141427e-11 1.3315342573813102e-11 1.5066409209387238e-11
          9.755068781419984e-12 1.0337008786508466e-11 1.0003742254447451e-11 1.0492835171892767e-11 7.724436685182562e-12 1.888557179684167e-11
          1.0623512028850847e-11 1.221080364609708e-11 3.799221473580331e-8 4.3278543669071255e-8 3.4843904870948526e-8 4.021713156631706e-8
          5.180097944734254e-8 4.8680892280117445e-8 4.6639658496716376e-8 3.1863771558960685e-8 3.736621437729227e-8 3.075623143537401e-8
          3.52342834306563e-8 4.484030257876183e-8 3.9869727786733414e-8 3.659260103666593e-8 4.202186694961647e-8 3.806826025673764e-8
          5.07122115579354e-8 5.1981292180699743e-8 4.7105821645722184e-8 4.8925498069053596e-8 3.6214596336353164e-8 5.997867971772496e-8
          5.478439068612751e-8 5.799619378422174e-8 4.143281282393393e-8 3.4709527670087555e-8 2.9027542698977428e-8 2.3672215473741247e-8
          4.845888735854329e-8 4.0948379165449426e-8 3.460714353330784e-8 4.628665683355467e-8 5.312880286582184e-8 6.233646782788028e-8
          5.8557558929473796e-8 4.2540748577521095e-8 4.78442930627608e-8 3.6314080738868933e-8 4.1736636519545494e-8 5.6430488182529386e-8
          4.984324243141729e-8 4.750503611647428e-8 5.3611090504931274e-8 4.617911890629938e-8 6.213102531206377e-8 6.152694372725511e-8
          5.006938607537227e-8 6.752333764037894e-8 5.4871067131297406e-8 4.677134137961725e-8 4.0461996823158186e-8 3.301533489955411e-8
          6.042784326263234e-8 5.190596954672492e-8 4.5825455171611e-8 2.9520419564849076e-8 3.1981529722727805e-8 2.486662424659972e-8
          2.5908322969580257e-8 3.318815847170746e-8 2.552427353339088e-8 3.143471906846275e-8 3.520876122457075e-8 3.0166981132402663e-8
          3.8432295401883326e-8 2.742534583402395e-8 2.0588027571325285e-8 1.8251564433739903e-8 1.3403526115230264e-8 3.260334425873378e-8
          2.4491074279013494e-8 2.1793967967314236e-8 3.2755722534077953e-8 3.7532246925723235e-8 3.111174641544642e-8 3.353895049683865e-8
          4.284661012060659e-8 3.4589485429612204e-8 3.455105658292232e-8 3.983841898211338e-8 3.588358693508466e-8 4.6597870416633136e-8
          3.759916284942318e-8 2.8383922742576387e-8 2.5376951360458977e-8 1.863837303873836e-8 4.2068466079803354e-8 3.1986775689804526e-8
          2.877095748234065e-8 2.0825894215274003e-8 1.2573676253547613e-8 2.492433267809321e-8 1.8288982081205085e-8 1.3824589206705398e-8
          1.0553814495728645e-8 7.261986444749732e-9 2.188348603973341e-8 1.655137079126122e-8 1.2679416502439216e-8 6.172143965969745e-9
          3.4328285834629973e-9 7.398591768040507e-9 5.2031873865155114e-9 3.517373245053538e-9 2.7102926423358906e-9 1.6266203569776827e-9
          6.2649305119786e-9 4.268974010511927e-9 3.2590338798406515e-9 2.9391228174839576e-8 1.7696621515121695e-8 3.369633319523525e-8
          2.5728021410456374e-8 1.935851194252734e-8 1.4885760029544185e-8 1.0311707162959025e-8 2.942415328058894e-8 2.204314308822789e-8
          1.7005242439206045e-8 8.62365091470903e-9 4.800668561475183e-9 9.795265304229176e-9 7.337329023518832e-9 5.039320849746575e-9
          3.8133225181886695e-9 2.3210380655625755e-9 8.365784091905268e-9 5.780395129443848e-9 4.3451854272881885e-9 1.0240997109829804e-8
          7.222445652157485e-9 5.049715217858312e-9 3.4081670771980635e-9 1.2309389781133676e-8 8.734928613308384e-9 6.128356365586061e-9
          2.3182825132112613e-9 1.5047787584337617e-9 1.0330929173284568e-9 6.500305637633992e-10 2.822563120063271e-9 1.8351963974320953e-9
          1.2557485039530007e-9 1.4387833242521126e-8 1.0246219603155735e-8 7.224945923385881e-9 4.903690031180598e-9 1.6354010095733598e-8
          1.1662559395638474e-8 8.26543506500848e-9 3.338931923862747e-9 2.173338265198328e-9 1.4840054569478276e-9 9.352030383495986e-10
          3.834634120776723e-9 2.4974656920278693e-9 1.703908162070746e-9 4.906609298831255e-8 6.142665778277327e-8 7.497476034501319e-8
          6.119694676417647e-8 5.066972029566787e-8 5.815489733378515e-8 4.521596342753832e-8 5.03955958470214e-8 6.722255522652954e-8
          5.8357045402610114e-8 5.211060120866539e-8 6.093928746349897e-8 5.348219979922464e-8 7.083840439819073e-8 7.255521171519944e-8
          6.019522606010397e-8 7.593393894941558e-8 6.505277057738506e-8 5.612818486440955e-8 5.024822190136181e-8 4.131635686422806e-8
          6.838416647683201e-8 5.9148252047337716e-8 5.348493718382093e-8 4.047044995683588e-8 5.809097739661186e-8 7.864974002234198e-8
          5.572035194526312e-8 5.101194046943558e-8 6.106830297727931e-8 4.9098018539487036e-8 5.502970454661346e-8 7.227390744603628e-8
          6.292576257785068e-8 4.9569496949539403e-8 6.025651623683904e-8 5.54045516788775e-8 7.237135344504186e-8 7.739405893250132e-8
          6.472712098172776e-8 7.764196075271388e-8 7.021147227643081e-8 6.089973577925405e-8 5.544127327073419e-8 4.613461958709558e-8
          7.074575221420925e-8 6.146940974563431e-8 5.6102686367872784e-8 3.700317478700413e-8 4.2295301608384104e-8 3.320525273214807e-8
          3.731573511336651e-8 4.966628459723069e-8 4.108782055646669e-8 3.9415395159014305e-8 4.4470330137938415e-8 3.829185973188857e-8
          5.187939758157063e-8 4.573740149700507e-8 3.5026978248757264e-8 3.172376543716207e-8 2.323596908858568e-8 4.842761184523336e-8
          3.734218680491152e-8 3.406066546683156e-8 4.083674230859092e-8 4.5714836735742774e-8 3.468223491299462e-8 3.901353096808256e-8
          5.313585086277379e-8 4.41127404826988e-8 4.1244897998348746e-8 4.604648882698262e-8 3.928086989934767e-8 5.35158424503232e-8
          5.012603612703368e-8 3.886452414072029e-8 3.560180255154893e-8 2.604108129290536e-8 5.072795633324844e-8 3.941365623365411e-8