<?xml version="1.0"?>
<VTKFile type="UnstructuredGrid" version="0.1" byte_order="LittleEndian" header_type="UInt32" compressor="vtkZLibDataCompressor">
  <UnstructuredGrid>
    <Piece NumberOfPoints="632" NumberOfCells="349">
      <PointData>
        <DataArray type="Int32" Name="libmesh_node_id" format="ascii" RangeMin="122" RangeMax="6324">
          126 127 153 178 179 180
          181 206 207 232 233 234
          235 260 261 284 286 287
          288 289 314 315 338 339
          340 341 342 343 367 368
          369 378 379 380 381 382
          383 384 385 386 387 388
          389 390 391 392 393 394
          395 396 397 398 399 400
          404 405 407 408 410 453
          454 455 456 457 458 459
          460 461 462 463 464 465
          466 467 468 469 470 471
          472 473 474 475 476 477
          478 479 480 481 482 483
          484 485 486 487 488 489
          490 491 492 493 494 495
          496 497 498 499 500 501
          502 503 504 505 506 507
          508 509 510 511 512 513
          598 599 600 601 602 603
          604 605 606 607 608 609
          610 611 614 615 620 700
          701 702 703 704 705 706
          707 708 709 710 711 712
          713 714 715 716 717 718
          719 720 721 722 723 842
          843 844 845 846 847 848
          849 850 851 852 853 854
          855 856 857 858 859 860
          861 862 863 864 865 866
          867 868 869 870 871 872
          873 874 875 876 877 878
          879 880 881 882 883 884
          885 886 887 888 889 890
          891 892 893 894 895 896
          897 898 899 900 901 902
          903 904 905 906 907 908
          909 910 911 912 913 914
          915 916 917 918 919 920
          921 922 923 924 925 926
          927 928 929 930 931 932
          933 934 935 936 937 938
          939 940 941 942 943 944
          945 946 947 948 949 950
          951 952 953 954 955 956
          957 958 959 960 961 962
          963 964 965 966 967 968
          969 970 971 972 973 974
          975 976 977 978 979 980
          981 982 986 987 989 990
          992 1007 1008 1011 1013 1014
          1016 1341 1342 1343 1344 1345
          1346 1347 1348 1349 1350 1351
          1352 1353 1354 1355 1356 1357
          1358 1359 1360 1361 1362 1363
          1364 1365 1366 1367 1368 1369
          1370 1371 1372 1373 1374 1375
          1376 1377 1378 1379 1380 1381
          1382 1383 1384 1385 1386 1387
          1388 1389 1390 1391 1392 1393
          1394 1411 1412 1413 1414 1415
          1416 1417 1418 1419 1420 1421
          1422 1423 1424 1425 1426 1427
          1428 1429 1430 1431 1432 1433
          1434 1435 1436 1437 1438 1439
          1440 1441 1442 1443 1444 1445
          1446 1447 1448 1449 1450 1451
          1452 1453 1454 1455 1456 1457
          1458 1459 1460 1461 1462 1463
          1464 1465 1466 1467 1468 1469
          1470 1471 1472 1473 1474 1475
          1476 1477 1478 1479 1480 1481
          1482 1483 1484 1485 1486 1492
          1505 1509 2505 2506 2507 2508
          2509 2510 2511 2512 2513 2514
          2525 2526 2527 2528 2529 2530
          2531 2532 2533 2534 2535 2536
          2537 2538 2539 2540 2541 2542
          2543 2544 2545 2546 2547 2548
          2549 2550 2551 2552 2553 2554
          2555 2556 2557 2558 5729 5730
          5731 5732 5733 5734 5735 5736
          5737 5738 5830 5834 5837 5838
          5839 5840 5841 5842 5843 5844
          5845 5846 5847 5848 5849 5850
          5851 5852 5853 5854 5855 5856
          5857 5858 5859 5860 5861 5862
          5863 5864 5865 5866 5867 5868
          5869 5870 5871 5872 5873 5874
          5875 5876 5877 5878 5879 5880
          5881 5882 5883 5884 5885 5886
          5887 5888 6284 6285 6286 6287
          6288 6289 6290 6291 6292 6295
          6296 6301 6303 6304 6305 6306
          6307 6308 6319 6320 6321 6322
          6323 6324 122 124 125 123
          176 177 152 151 205 230
          231 259 285 313 5829 5832
          5831 5833 5923 5924 5925 5926
          5927 5928 5828 5963 5964 5965
          5966 5836 5967 5968 6272 6275
          6276 6273 6280 6282 6281 6274
          6279 6293 6294 6283 6298 6297
          6299 6300 5835 6302 6311 6312
          6315 6317
        </DataArray>
        <DataArray type="Float64" Name="bounds" format="ascii" RangeMin="0" RangeMax="0">
          0 0 0 0 0 0
          0 0 0 0 0 0
          0 0 0 0 0 0
          0 0 0 0 0 0
          0 0 0 0 0 0
          0 0 0 0 0 0
          0 0 0 0 0 0
          0 0 0 0 0 0
          0 0 0 0 0 0
          0 0 0 0 0 0
          0 0 0 0 0 0
          0 0 0 0 0 0
          0 0 0 0 0 0
          0 0 0 0 0 0
          0 0 0 0 0 0
          0 0 0 0 0 0
          0 0 0 0 0 0
          0 0 0 0 0 0
          0 0 0 0 0 0
          0 0 0 0 0 0
          0 0 0 0 0 0
          0 0 0 0 0 0
          0 0 0 0 0 0
          0 0 0 0 0 0
          0 0 0 0 0 0
          0 0 0 0 0 0
          0 0 0 0 0 0
          0 0 0 0 0 0
          0 0 0 0 0 0
          0 0 0 0 0 0
          0 0 0 0 0 0
          0 0 0 0 0 0
          0 0 0 0 0 0
          0 0 0 0 0 0
          0 0 0 0 0 0
          0 0 0 0 0 0
          0 0 0 0 0 0
          0 0 0 0 0 0
          0 0 0 0 0 0
          0 0 0 0 0 0
          0 0 0 0 0 0
          0 0 0 0 0 0
          0 0 0 0 0 0
          0 0 0 0 0 0
          0 0 0 0 0 0
          0 0 0 0 0 0
          0 0 0 0 0 0
          0 0 0 0 0 0
          0 0 0 0 0 0
          0 0 0 0 0 0
          0 0 0 0 0 0
          0 0 0 0 0 0
          0 0 0 0 0 0
          0 0 0 0 0 0
          0 0 0 0 0 0
          0 0 0 0 0 0
          0 0 0 0 0 0
          0 0 0 0 0 0
          0 0 0 0 0 0
          0 0 0 0 0 0
          0 0 0 0 0 0
          0 0 0 0 0 0
          0 0 0 0 0 0
          0 0 0 0 0 0
          0 0 0 0 0 0
          0 0 0 0 0 0
          0 0 0 0 0 0
          0 0 0 0 0 0
          0 0 0 0 0 0
          0 0 0 0 0 0
          0 0 0 0 0 0
          0 0 0 0 0 0
          0 0 0 0 0 0
          0 0 0 0 0 0
          0 0 0 0 0 0
          0 0 0 0 0 0
          0 0 0 0 0 0
          0 0 0 0 0 0
          0 0 0 0 0 0
          0 0 0 0 0 0
          0 0 0 0 0 0
          0 0 0 0 0 0
          0 0 0 0 0 0
          0 0 0 0 0 0
          0 0 0 0 0 0
          0 0 0 0 0 0
          0 0 0 0 0 0
          0 0 0 0 0 0
          0 0 0 0 0 0
          0 0 0 0 0 0
          0 0 0 0 0 0
          0 0 0 0 0 0
          0 0 0 0 0 0
          0 0 0 0 0 0
          0 0 0 0 0 0
          0 0 0 0 0 0
          0 0 0 0 0 0
          0 0 0 0 0 0
          0 0 0 0 0 0
          0 0 0 0 0 0
          0 0 0 0 0 0
          0 0 0 0 0 0
          0 0 0 0 0 0
          0 0 0 0 0 0
          0 0 0 0 0 0
          0 0
        </DataArray>
        <DataArray type="Float64" Name="gradient_error" format="ascii" RangeMin="3.8615933542111576e-10" RangeMax="0.000002145042630420687">
          1.7066406522470093e-9 1.0463999938340626e-9 3.8615933542111576e-10 1.2373042786890446e-8 7.440043413432389e-9 6.940245150182306e-9
          4.338237255337543e-9 2.507044039974331e-9 1.7362293604927798e-9 4.447659969729795e-8 1.5979307805183566e-8 8.636680148369064e-9
          8.826715440690888e-9 1.6052521824070305e-8 9.651079649004268e-9 3.298248111433637e-7 0.0000010474662569293147 1.8501085762182552e-7
          2.758285330384748e-8 7.112080287814047e-8 2.123316303117418e-8 1.1336620730196763e-8 0.0000013244316214419312 3.103866157394897e-7
          9.71422165016685e-7 9.498336174393602e-7 2.045286090626578e-7 2.4907862445973563e-8 3.725470803742557e-8 7.783621672418379e-8
          5.514568636688389e-9 1.2932916029231745e-7 1.630935047481935e-7 6.638634758079305e-7 0.0000015601635806761099 5.192796348781083e-7
          6.617204589856022e-7 0.00000136579497231752 7.630010657092201e-8 5.022319876266146e-7 2.457641966668503e-7 1.55537508807213e-7
          1.598973504977466e-7 6.197059150350249e-7 7.635091433770613e-8 1.6201609801084133e-7 4.657996406919123e-7 0.000001951368995349162
          4.344822822378875e-7 1.1232206602182728e-7 1.899352917393012e-8 4.072305483696735e-8 4.527705186760895e-7 1.750546923033588e-7
          4.8866989415516184e-8 4.245990362726195e-8 2.764450472675435e-7 3.6529754664797085e-7 2.223276576616505e-8 0.0000010899714520925294
          7.209801150073243e-7 3.533288716082985e-7 0.0000011915577677032812 0.000001927151471547858 0.0000013929604215080823 7.714550883089191e-7
          2.963346673844844e-7 6.785750116691173e-7 3.514510970600181e-7 0.0000015282982336767028 0.0000018541063150894445 0.0000011937497313877139
          9.94841154641561e-7 4.839694257525031e-7 7.187166990795471e-7 0.0000010859818477449633 0.0000011107985547412481 2.8946538570721835e-7
          8.437071865682264e-7 0.0000014898717639982496 7.336562580390094e-7 3.15042263772641e-7 6.190735953943107e-7 7.607729118100407e-7
          9.296147283271496e-7 0.0000013983241416270871 6.931882735437095e-7 1.5044585778931142e-7 7.843672844131623e-7 0.0000016032477008361727
          3.3114789563149354e-7 9.292396891071755e-7 5.164539254379109e-7 5.59966339960085e-7 3.4388713040384764e-7 4.836512562547003e-7
          3.754154187385819e-7 3.7819286893192534e-7 3.573043698825165e-7 5.129487346786683e-7 5.164599020249309e-7 3.257909142870902e-7
          1.8093748122639957e-7 3.624669163685241e-7 3.9887645094854113e-7 4.573980017757815e-7 4.808981292078786e-7 3.526025829901664e-7
          4.1877086365063194e-7 3.8443751220481955e-7 3.2395653780665487e-7 4.6719954901095347e-7 4.1302639473862176e-7 2.2931626423499118e-7
          2.9773724154214e-7 2.639596863589422e-7 2.3530780210392861e-7 4.419915091174939e-7 4.930416383850067e-7 4.0349190969112696e-7
          3.3738307209134317e-8 2.115940399281204e-8 4.054443321590076e-8 2.116824636998584e-7 1.017696567951462e-7 6.48062255023081e-8
          1.2618900833580692e-7 5.49155734669528e-9 2.255766794217933e-8 1.92970696498189e-8 8.58050077648976e-9 2.784279420946999e-8
          4.0695552971755424e-8 1.6036471357458462e-8 9.883133013682417e-9 9.394010070235358e-9 8.904887126788295e-9 3.759347619078155e-8
          3.9860314520332156e-8 7.842639416641874e-8 4.2869396383897437e-7 3.9430007554289797e-7 3.058553146100434e-7 3.347617296614398e-7
          2.249528932179536e-8 3.6315394697865005e-7 2.798110914715031e-7 4.2127152849882776e-8 2.1741055367718874e-7 2.408294954839053e-7
          1.9646823596435613e-7 1.242435642246345e-8 1.6421365905450784e-8 3.343905443487941e-7 2.5407980956547047e-7 1.8676618692963252e-8
          3.0577913457415537e-7 2.2742991111900587e-7 2.041837538843812e-8 1.7376907478214673e-7 1.4908068766385634e-7 0.0000021090283733770507
          0.0000018141565101919507 0.000001316027511211101 0.0000017593104260749973 0.0000018856005821842248 0.000001858882110448997 0.0000017551787422138736
          0.0000015192846470068503 0.0000018321636387137689 0.0000013148244971194189 0.0000016621727909913988 0.0000019036077107060431 0.000001778950620288164
          0.000002145042630420687 2.769722970393121e-7 2.757827684929938e-7 2.6450738487833263e-7 2.236834231908138e-7 2.1510494381103047e-7
          2.4359955330396614e-7 2.3636348770740415e-7 2.947091610665035e-7 2.093650487515968e-7 2.570440368924339e-7 2.745932399466755e-7
          2.7209416279690184e-7 2.4904355222399456e-7 3.023265240115176e-7 1.788312390940282e-7 2.2516670521236753e-7 2.2958610682010068e-7
          2.2376242870082117e-7 2.715021713307068e-7 3.021856810813648e-7 3.0901407422753824e-7 2.173802047098178e-7 2.6841427790741285e-7
          3.2281585976895e-7 2.279486549855498e-7 2.8034904898078494e-7 3.0702660644021513e-7 3.1426575935540517e-7 3.3028099546869676e-7
          1.5365656375461883e-7 2.298075371444812e-7 2.3830284340886492e-7 3.1736498058636337e-7 2.882084412183156e-7 2.703427774893953e-7
          2.666106965093441e-7 3.228470506704501e-7 3.331205616116486e-7 3.1742633911308394e-7 3.080526299872333e-7 2.739437045731635e-7
          3.43896245956517e-7 3.2684941410826445e-7 2.1614501245670558e-7 2.629431394836098e-7 2.6908081806293775e-7 2.6930007316872056e-7
          3.6033156219172225e-7 3.668947504226621e-7 3.5180600858402323e-7 3.835123155618393e-7 3.417681234541937e-7 3.288540175727261e-7
          3.3723585884077753e-7 2.3940320876458644e-7 2.944436509019477e-7 2.5245940833700105e-7 3.091696240412656e-7 3.3700189688703223e-7
          3.454532222242396e-7 3.607426901601469e-7 1.7095589000785767e-7 2.502506253822865e-7 2.642217943796073e-7 3.4630988656580847e-7
          2.673071817491926e-7 3.2469742842763843e-7 2.8372709664771324e-7 3.4249285136734804e-7 3.7685669047556e-7 3.9429449411604295e-7
          1.9198392111992243e-7 2.8011525674672534e-7 2.977161952543827e-7 3.799184005532466e-7 3.000659542379693e-7 2.7788718523404734e-7
          3.5519454052590973e-7 3.3641644574416954e-7 2.8170750913281266e-7 3.6688535565857046e-7 3.4619224214014524e-7 2.1347162428683493e-7
          2.742010355388173e-7 2.7873208615652005e-7 3.9759270353488274e-7 4.0188040623297396e-7 4.21736187327089e-7 3.708700147132874e-7
          3.1040117934207687e-7 2.850264816069444e-7 3.789425105341829e-7 3.5609277675778036e-7 2.8771374811979155e-7 3.9131215942424045e-7
          3.6606677062416066e-7 2.1293516669348383e-7 2.828996064356809e-7 2.866445057114342e-7 4.4190296212628033e-7 4.4321631545530625e-7
          4.664720559921812e-7 3.984746126257663e-7 3.0187875145041636e-7 3.630147600066053e-7 3.222591721143421e-7 3.859571557604856e-7
          4.131640671469978e-7 4.334346369844678e-7 2.188952226449173e-7 3.1721441380155436e-7 3.3911891201427124e-7 4.1951855165822054e-7
          3.4529259800462686e-7 4.1156962495027497e-7 3.7151625028781834e-7 4.4026836183807906e-7 4.5526296431279145e-7 4.787676442538216e-7
          2.5426311348298207e-7 3.6386569089855364e-7 3.920124048203254e-7 4.6644074955192826e-7 3.185212839805925e-7 2.896334109726655e-7
          4.0393313618972234e-7 3.760393015997386e-7 2.0973946874523669e-7 2.8985932933676344e-7 4.948842593457333e-7 4.916478469566153e-7
          4.280495168711633e-7 4.0162838063939217e-7 4.725686291421449e-7 5.040403550555805e-7 3.0283323098616995e-7 4.242867565978706e-7
          5.219608662971248e-7 3.1181712676706396e-8 4.546963805668922e-8 6.431452202231686e-8 1.2702717155851553e-7 1.8418593582567546e-8
          1.9863154483795335e-8 1.0328437414029195e-8 2.251833756290384e-8 4.615954334811837e-8 5.863252347698025e-9 9.744733136792734e-8
          2.0858470506034186e-7 2.1307715385023127e-8 3.470823771177848e-8 1.0532449946251378e-8 1.0829514062569598e-8 3.6756671216341635e-9
          3.5804057327202218e-9 1.1126578178887818e-8 3.485144343806281e-9 2.255899930404907e-7 1.7804982037586112e-7 2.5001877319659604e-7
          4.813219157230408e-7 4.643989487190891e-7 3.656542739732257e-7 3.807275738795749e-7 1.3050964771123158e-7 2.6690959922736246e-7
          2.8013323203610894e-7 1.850136197741594e-7 2.0922241493589924e-7 2.574050690921068e-7 2.864370457407077e-7 1.6546819713999912e-7
          2.3252680681880418e-7 3.7549703267582827e-8 2.8400171674264667e-8 6.217662260364996e-8 2.0105733074696543e-8 3.297965184100543e-7
          3.6365167654551616e-7 2.9958541649760924e-7 1.9250640080946514e-8 1.4399979984393194e-7 2.068026424042984e-7 1.1949231149941305e-7
          1.7684916728353893e-7 2.217922585837414e-8 2.0832087496012563e-8 2.2625401331110693e-8 2.696054849646649e-7 2.3420602306766486e-7
          1.9484949133650982e-8 2.650574972879679e-7 2.5428494720985694e-7 2.5475043710705075e-7 2.8768873940393665e-7 2.941625068928404e-7
          2.826460384972945e-7 2.769215570780055e-7 2.5763149077239184e-7 3.0311598593338417e-7 2.904339778787934e-7 2.435123971317459e-7
          2.7112957010174856e-7 2.6615437475207444e-7 2.777519698242027e-7 2.7572377726902584e-7 2.620618346471868e-7 3.1279064244658143e-7
          2.9894843795356646e-7 2.4839989202534784e-7 2.851062334605515e-7 2.8294794749943174e-7 2.760402366529397e-7 2.998454741536218e-7
          2.921350777685871e-7 2.675615177343164e-7 3.081771498083595e-7 2.461256045554247e-7 2.582685968980734e-7 2.564576075758008e-7
          2.6074875904195545e-7 3.167430008078118e-7 3.082299188842346e-7 3.25940666008317e-7 2.704115892407221e-7 2.6119277103076875e-7
          3.167349325456795e-7 2.662054627922742e-7 3.250029293395327e-7 2.1230723380675208e-7 2.6184415924632345e-7 2.6267547653396207e-7
          3.3516255566552125e-7 3.446788573450603e-7 2.787349025980776e-7 1.2819482265969007e-7 1.3198348904216053e-7 1.7871923269316422e-7
          1.8055791670654441e-7 1.2393261046857113e-7 1.7628315344367106e-7 9.017109580422453e-8 1.2488229549634458e-7 1.2915078972176876e-7
          1.2009867728855463e-7 2.763239565893466e-7 2.7343739958889445e-7 2.7857733299287583e-7 2.0022835671149296e-7 2.700179899415006e-7
          3.330315777131247e-7 3.4094892612766757e-7 2.0446405938749163e-7 2.638857896950481e-7 2.6468371769302875e-7 3.5441868769647297e-7
          3.6415539744847454e-7 2.853338770346964e-7 3.486012185311491e-7 3.5585650505246007e-7 2.645231603326384e-7 2.6319819498561674e-7
          3.7379816661024334e-7 3.831920405379394e-7 2.881831024307554e-7 1.1907952731922746e-7 1.7312706264899505e-7 2.800562622746296e-7
          3.6254515423155903e-7 3.921523818926216e-7 2.3665067107856817e-7 2.499888365502135e-7 3.1794080022090925e-7 3.336795442496076e-7
          1.178715715407317e-7 1.557291153633728e-7 2.2321963142268008e-7 3.992309293632504e-7 4.173702519490017e-7 1.9358665918601384e-7
          2.744580856857555e-7 2.614101088213712e-7 2.661949049449858e-7 2.915230955168139e-7 2.8851201561817347e-7 2.75471622205897e-7
          2.760344030534717e-7 2.483621319569869e-7 2.6243122879362054e-7 2.6054571059012954e-7 2.6650485930397006e-7 2.6045248183549914e-7
          2.8428764806157263e-7 2.801233615631348e-7 2.436148340347183e-7 2.594921285173428e-7 2.6271320115825886e-7 3.020704368191752e-7
          2.997942412907704e-7 2.7536942299996726e-7 1.474713562776004e-7 1.5302885328644474e-7 1.8577479445665002e-7 1.8744306963629502e-7
          1.395833608171788e-7 1.833336425338611e-7 1.1512980140226454e-7 1.473954265605997e-7 1.5416010369180974e-7 1.378697209902929e-7
          1.355220847799127e-7 1.8195679846656878e-7 9.980933721628099e-8 1.331498768179322e-7 6.544617988688622e-8 3.8347609934542354e-8
          2.0750779716621353e-8 1.4940977677321905e-7 2.2230472685869094e-7 1.33512247486495e-7 9.488180585284415e-8 1.1249039982198484e-8
          4.471976811429906e-8 4.035383493246923e-8 0.0000011194140190788672 0.0000011531736598998438 5.041385102551493e-8 4.613232004765561e-8
          1.3648707285852183e-7 9.813576842848468e-8 1.408036012803615e-8 4.4789948624904317e-8 2.357214445459922e-8 2.2256029469152877e-7
          1.5013921680931373e-7 7.549953712177247e-8 4.267925783191229e-7 3.354373473209075e-7 3.159322383167003e-7 5.219411584065869e-7
          5.131306031951689e-7 4.226342328045181e-7 4.34753897131457e-7 3.470160572304614e-7 5.084958558845437e-7 4.161424312922993e-7
          2.440821163226921e-7 3.3213786241386727e-7 3.475666358563271e-7 3.2378900670005495e-7 0.0000012298073333760715 0.000001074271329056479
          0.0000010509309257668933 7.40831106931057e-7 0.0000015292239593869885 0.0000016398893179830741 0.0000016490855349987934 0.0000015481569008427573
          0.0000010645141443029473 0.0000010442648794082191 0.0000014196325972852203 0.0000016594595301727573 0.0000015480275060979419 0.0000012278784324618308
          3.0704916764744227e-7 3.2460046994468255e-7 3.8971399491441224e-7 4.0570662945215434e-7 2.9763523988162445e-7 3.8117201956899055e-7
          2.29075663975487e-7 3.0868145323744203e-7 2.8997334238639636e-7 3.1996466448522313e-7 4.7237882218138227e-7 4.868127889596262e-7
          4.647087992563567e-7 3.8828724249939707e-7 3.7195402618665603e-7 3.03089368139424e-7 5.29611163123603e-7 4.450982947729803e-7
          2.342247100921919e-7 3.605854264223577e-7 0.0000011549648223151268 0.0000010275736339112464 7.533218406280607e-7 0.0000013384205281352814
          0.0000013757792687610606 0.0000013556719356712486 0.0000014291669516619294 0.0000014576186411873552 0.000001023392201276335 0.0000012356725587541554
          0.0000014471972359587546 0.0000011602747129868403 3.3970554440189474e-7 4.195028500051889e-7 2.1981045793433907e-7 2.782916281704892e-7
          4.99300155608483e-7 3.3677279840663934e-7 2.943589169727126e-9 3.06274953374855e-9 1.8027625387911889e-9 1.8517169975133935e-9
          1.1546022024088856e-8 7.543630653693696e-9 5.427755438338282e-10 7.598448252996609e-10 3.541239283298536e-9 2.617659063783981e-8
          1.5560297535452533e-8 1.814623471481172e-8 2.560509554733036e-7 2.017539927553423e-8 3.4836904914832466e-7 3.625951324640813e-7
          8.029693877245052e-7 3.4842411834872606e-7 1.682012246329099e-8 1.0739945218051378e-8 8.079553728859079e-8 5.7482470525926154e-8
          4.659767972811768e-9 3.416940376326153e-8 2.504839480687981e-7 3.9921350244227024e-8 6.231492727720565e-8 6.3799935123360384e-9
          1.343698224629581e-8 2.3602376559292223e-7 8.470850431018428e-8 2.049397098025558e-8 5.400364581013325e-7 5.356787929053606e-7
          4.535822744660934e-7 4.6029821356041684e-7 0.000001084742523426276 0.0000010038807008697827 9.79891549197591e-7 2.9528974904349396e-7
          3.714857560268261e-7 0.0000012557732462108266 0.0000013012940981962236 7.511515752675974e-7 0.000001001689666733641 9.792923612825361e-7
          0.000001076426558310797 0.0000012722365046755386 0.0000011270568624446635 0.0000010941062099711017 3.5260310631523433e-7 4.310685549057186e-7
          2.71895785730995e-7 5.095340034962029e-7
        </DataArray>
        <DataArray type="Float64" Name="gradient_matprop_error" format="ascii" RangeMin="0" RangeMax="0">
          0 0 0 0 0 0
          0 0 0 0 0 0
          0 0 0 0 0 0
          0 0 0 0 0 0
          0 0 0 0 0 0
          0 0 0 0 0 0
          0 0 0 0 0 0
          0 0 0 0 0 0
          0 0 0 0 0 0
          0 0 0 0 0 0
          0 0 0 0 0 0
          0 0 0 0 0 0
          0 0 0 0 0 0
          0 0 0 0 0 0
          0 0 0 0 0 0
          0 0 0 0 0 0
          0 0 0 0 0 0
          0 0 0 0 0 0
          0 0 0 0 0 0
          0 0 0 0 0 0
          0 0 0 0 0 0
          0 0 0 0 0 0
          0 0 0 0 0 0
          0 0 0 0 0 0
          0 0 0 0 0 0
          0 0 0 0 0 0
          0 0 0 0 0 0
          0 0 0 0 0 0
          0 0 0 0 0 0
          0 0 0 0 0 0
          0 0 0 0 0 0
          0 0 0 0 0 0
          0 0 0 0 0 0
          0 0 0 0 0 0
          0 0 0 0 0 0
          0 0 0 0 0 0
          0 0 0 0 0 0
          0 0 0 0 0 0
          0 0 0 0 0 0
          0 0 0 0 0 0
          0 0 0 0 0 0
          0 0 0 0 0 0
          0 0 0 0 0 0
          0 0 0 0 0 0
          0 0 0 0 0 0
          0 0 0 0 0 0
          0 0 0 0 0 0
          0 0 0 0 0 0
          0 0 0 0 0 0
          0 0 0 0 0 0
          0 0 0 0 0 0
          0 0 0 0 0 0
          0 0 0 0 0 0
          0 0 0 0 0 0
          0 0 0 0 0 0
          0 0 0 0 0 0
          0 0 0 0 0 0
          0 0 0 0 0 0
          0 0 0 0 0 0
          0 0 0 0 0 0
          0 0 0 0 0 0
          0 0 0 0 0 0
          0 0 0 0 0 0
          0 0 0 0 0 0
          0 0 0 0 0 0
          0 0 0 0 0 0
          0 0 0 0 0 0
          0 0 0 0 0 0
          0 0 0 0 0 0
          0 0 0 0 0 0
          0 0 0 0 0 0
          0 0 0 0 0 0
          0 0 0 0 0 0
          0 0 0 0 0 0
          0 0 0 0 0 0
          0 0 0 0 0 0
          0 0 0 0 0 0
          0 0 0 0 0 0
          0 0 0 0 0 0
          0 0 0 0 0 0
          0 0 0 0 0 0
          0 0 0 0 0 0
          0 0 0 0 0 0
          0 0 0 0 0 0
          0 0 0 0 0 0
          0 0 0 0 0 0
          0 0 0 0 0 0
          0 0 0 0 0 0
          0 0 0 0 0 0
          0 0 0 0 0 0
          0 0 0 0 0 0
          0 0 0 0 0 0
          0 0 0 0 0 0
          0 0 0 0 0 0
          0 0 0 0 0 0
          0 0 0 0 0 0
          0 0 0 0 0 0
          0 0 0 0 0 0
          0 0 0 0 0 0
          0 0 0 0 0 0
          0 0 0 0 0 0
          0 0 0 0 0 0
          0 0 0 0 0 0
          0 0 0 0 0 0
          0 0 0 0 0 0
          0 0
        </DataArray>
        <DataArray type="Float64" Name="initial_marker" format="ascii" RangeMin="0" RangeMax="2">
          0 0 0 0 0 0
          0 0 0 0 0 0
          0 0 0 0 0 0
          0 0 0 0 0 0
          0 0 2 0 0 0
          0 0 0 0 0 0
          0 0 0 0 0 0
          0 0 0 2 0 0
          0 0 0 0 0 0
          0 0 2 0 0 0
          0 0 0 0 0 0
          0 0 0 0 0 0
          0 0 0 0 0 0.5
          0 0 0 1 0 0
          0 0 0 2 0 0
          0.5 0 0 0 1.5 0.25
          0 2 0.5 0 0 0
          2 1 1 0 0 0
          2 0.75 0 2 1 0
          0 0 2 1 1 0
          0 0 0 0 0 0
          0 0 0 0 0 0
          0 0 0 0 0 0
          0 0 0 0 0 0
          0 0 0 0 0 0
          0 0 0 0 0 0
          0 0 0 0 0 0
          0 0 0 0 0 0
          0 0 0 0 0 0
          0 0 0 0 0 0.5
          0.25 0 0.25 1.5 0.75 0
          0 0 0 1 0.5 0
          1 0 1 0.5 2 1
          0.5 2 1.25 0 0 0.25
          2 1 1.5 0 0 0
          0 0.5 1 0.5 0.25 0
          1 0.5 0 0 0 0
          2 1.5 1 1.5 0.5 1
          0.5 2 1.5 2 1.75 0
          0.5 0.75 2 2 2 1
          2 2 2 2 1 1
          2 2 2 1 0 0
          1 0.5 0 1 0.75 0
          0 0.25 2 1.5 1.75 0.5
          0 0 1 1 0 1
          1 0 0.5 0.5 2 2
          2 1 2 2 2 2
          1 1 2 2 2 1
          2 2 2 2 1 1
          2 2 2 1 0 0
          1 1 0 0.5 2 2
          1 2 2 1 2 2
          1 0 0 0 0 0
          0 0 0 0 0 0
          0 0 0 0 0 0
          0 0 0 0 0 0
          0 0 0 0 0 0
          0 0 0 0 0 0
          0 0 0 0 0 0
          0 0 0 0 0 0
          0 0 0 0 0 0
          0 0 0 0 0 0
          0 0 0 0 0 0
          0 0 0 0 0 0
          0 0 0 0 0 0
          0 0 0 0 0 0
          0 0 0 0 0 0
          0 0 0 0 0 0
          0 0 0 0 0 0
          0 0 0 0 0 0
          0 0 0 0 0 0
          0 0 0 0 0 0
          0 0 0 0 0 0
          0 0 0 0 0 0
          0 0 0 0 0 0
          0 0 0 0 0 0
          0 0 0 0 0 0
          0 0 0 0 0 0
          0 0 0 0 0 0
          0 0 0 0 0 0
          0 0 0 0 0 0
          0 0 0 0 0 0
          0 0 0 0 0 0
          0 0 0 0 0 0
          0 0 0 0 0 0
          0 0 0 0 0 0
          0 0 0 0 0 0
          0 0 0 0 0 0
          0 0 0 0 0 0
          0 0 0 0 0 0
          0 0 0 0 0 0
          0 0 0 0 0 0
          0 0 0 0 0 0
          0 0 0 0 0 0
          0 0 0 0 0 0
          0 0 0 0 0 0
          0 0 0 0 0 0
          0 0 0 0 0 0
          0 0 0 0 0 0
          0 0 0 0 0 0
          0 0 0 0 0 0
          0 0 0 0 0 0
          0 0 0 0 0 0
          0 0 0 0 0 0
          0 0 0 0 0 0
          0 0
        </DataArray>
        <DataArray type="Float64" Name="markers_norefine" format="ascii" RangeMin="0" RangeMax="0">
          0 0 0 0 0 0
          0 0 0 0 0 0
          0 0 0 0 0 0
          0 0 0 0 0 0
          0 0 0 0 0 0
          0 0 0 0 0 0
          0 0 0 0 0 0
          0 0 0 0 0 0
          0 0 0 0 0 0
          0 0 0 0 0 0
          0 0 0 0 0 0
          0 0 0 0 0 0
          0 0 0 0 0 0
          0 0 0 0 0 0
          0 0 0 0 0 0
          0 0 0 0 0 0
          0 0 0 0 0 0
          0 0 0 0 0 0
          0 0 0 0 0 0
          0 0 0 0 0 0
          0 0 0 0 0 0
          0 0 0 0 0 0
          0 0 0 0 0 0
          0 0 0 0 0 0
          0 0 0 0 0 0
          0 0 0 0 0 0
          0 0 0 0 0 0
          0 0 0 0 0 0
          0 0 0 0 0 0
          0 0 0 0 0 0
          0 0 0 0 0 0
          0 0 0 0 0 0
          0 0 0 0 0 0
          0 0 0 0 0 0
          0 0 0 0 0 0
          0 0 0 0 0 0
          0 0 0 0 0 0
          0 0 0 0 0 0
          0 0 0 0 0 0
          0 0 0 0 0 0
          0 0 0 0 0 0
          0 0 0 0 0 0
          0 0 0 0 0 0
          0 0 0 0 0 0
          0 0 0 0 0 0
          0 0 0 0 0 0
          0 0 0 0 0 0
          0 0 0 0 0 0
          0 0 0 0 0 0
          0 0 0 0 0 0
          0 0 0 0 0 0
          0 0 0 0 0 0
          0 0 0 0 0 0
          0 0 0 0 0 0
          0 0 0 0 0 0
          0 0 0 0 0 0
          0 0 0 0 0 0
          0 0 0 0 0 0
          0 0 0 0 0 0
          0 0 0 0 0 0
          0 0 0 0 0 0
          0 0 0 0 0 0
          0 0 0 0 0 0
          0 0 0 0 0 0
          0 0 0 0 0 0
          0 0 0 0 0 0
          0 0 0 0 0 0
          0 0 0 0 0 0
          0 0 0 0 0 0
          0 0 0 0 0 0
          0 0 0 0 0 0
          0 0 0 0 0 0
          0 0 0 0 0 0
          0 0 0 0 0 0
          0 0 0 0 0 0
          0 0 0 0 0 0
          0 0 0 0 0 0
          0 0 0 0 0 0
          0 0 0 0 0 0
          0 0 0 0 0 0
          0 0 0 0 0 0
          0 0 0 0 0 0
          0 0 0 0 0 0
          0 0 0 0 0 0
          0 0 0 0 0 0
          0 0 0 0 0 0
          0 0 0 0 0 0
          0 0 0 0 0 0
          0 0 0 0 0 0
          0 0 0 0 0 0
          0 0 0 0 0 0
          0 0 0 0 0 0
          0 0 0 0 0 0
          0 0 0 0 0 0
          0 0 0 0 0 0
          0 0 0 0 0 0
          0 0 0 0 0 0
          0 0 0 0 0 0
          0 0 0 0 0 0
          0 0 0 0 0 0
          0 0 0 0 0 0
          0 0 0 0 0 0
          0 0 0 0 0 0
          0 0 0 0 0 0
          0 0 0 0 0 0
          0 0
        </DataArray>
        <DataArray type="Float64" Name="markers_mustrefine" format="ascii" RangeMin="0" RangeMax="2">
          0 0 0 0 0 0
          0 0 0 0 0 0
          0 0 0 0 0 0
          0 0 0 0 0 0
          0 0 2 0 0 0
          0 0 0 0 0 0
          0 0 0 0 0 0
          0 0 0 2 0 0
          0 0 0 0 0 0
          0 0 2 0 0 0
          0 0 0 0 0 0
          0 0 0 0 0 0
          0 0 0 0 0 0.5
          0 0 0 1 0 0
          0 0 0 2 0 0
          0.5 0 0 0 1.5 0.25
          0 2 0.5 0 0 0
          2 1 1 0 0 0
          2 0.75 0 2 1 0
          0 0 2 1 1 0
          0 0 0 0 0 0
          0 0 0 0 0 0
          0 0 0 0 0 0
          0 0 0 0 0 0
          0 0 0 0 0 0
          0 0 0 0 0 0
          0 0 0 0 0 0
          0 0 0 0 0 0
          0 0 0 0 0 0
          0 0 0 0 0 0.5
          0.25 0 0.25 1.5 0.75 0
          0 0 0 1 0.5 0
          1 0 1 0.5 2 1
          0.5 2 1.25 0 0 0.25