<?xml version="1.0"?>
<VTKFile type="UnstructuredGrid" version="0.1" byte_order="LittleEndian" header_type="UInt32" compressor="vtkZLibDataCompressor">
  <UnstructuredGrid>
    <Piece NumberOfPoints="581" NumberOfCells="352">
      <PointData>
        <DataArray type="Int32" Name="libmesh_node_id" format="ascii" RangeMin="594" RangeMax="5673">
          594 1291 1293 1294 1296 1311
          1312 1313 1314 1315 1317 1318
          1319 1320 2298 2299 2300 2301
          2302 2303 2304 2305 2306 2307
          2308 2309 2310 2317 2318 2320
          2321 2322 2323 2324 2325 2326
          2327 2335 2364 2365 2367 2370
          2372 2373 2374 2375 2376 2377
          2378 2379 2380 2381 2383 2385
          2387 2389 2390 2391 2393 2394
          2395 2398 2399 2401 2404 2406
          2407 2408 2409 2410 2411 2412
          2413 2414 2415 2417 2419 2421
          2423 2424 2425 2427 2428 2429
          2488 2490 2491 2496 2499 2503
          2624 2630 2633 2637 2650 2651
          2652 2653 4602 4603 4605 4608
          4610 4611 4612 4613 4614 4615
          4616 4617 4618 4619 4621 4623
          4625 4627 4628 4629 4630 4631
          4632 4633 4636 4637 4639 4642
          4644 4645 4646 4647 4648 4649
          4650 4651 4652 4653 4655 4657
          4659 4661 4662 4663 4664 4665
          4666 4667 4668 4669 4672 4674
          4675 4677 4688 4690 4692 4694
          4705 4706 4709 4711 4712 4713
          4714 4725 4727 4729 4730 4731
          4740 4742 4744 4747 4749 4751
          4752 4753 4754 4755 4757 4759
          4761 4763 4764 4765 4766 4767
          4768 4769 4772 4773 4776 4778
          4780 4781 4782 4783 4784 4785
          4786 4787 4788 4789 4791 4795
          4797 4799 4810 4812 4814 4815
          4816 4911 4912 4914 4919 4920
          4921 4922 4923 4924 4925 4926
          4927 4928 4930 4936 4937 4938
          4939 4940 4941 4942 4953 4954
          4955 4956 4957 4958 4959 4960
          4961 4962 4970 4971 4972 4973
          4974 4975 4976 4977 4978 4979
          4980 4981 4982 4983 4984 4985
          4986 4987 4988 4991 4993 4994
          4995 4996 4997 4998 4999 5000
          5001 5002 5003 5004 5006 5008
          5009 5010 5011 5012 5013 5014
          5015 5016 5017 5018 5019 5020
          5021 5022 5023 5024 5025 5026
          5027 5028 5029 5030 5031 5032
          5033 5034 5035 5036 5037 5038
          5039 5040 5041 5042 5043 5044
          5053 5055 5057 5067 5071 5081
          5083 5085 5095 5097 5099 5101
          5102 5103 5104 5105 5106 5107
          5108 5110 5112 5113 5114 5115
          5116 5119 5120 5121 5123 5129
          5130 5132 5133 5134 5135 5136
          5137 5138 5139 5140 5141 5142
          5143 5144 5145 5146 5147 5148
          5149 5150 5151 5152 5153 5154
          5157 5158 5170 5171 5172 5173
          5174 5175 5176 5177 5178 5179
          5187 5188 5189 5190 5191 5192
          5193 5204 5205 5206 5207 5208
          5209 5210 5211 5212 5213 5221
          5222 5223 5224 5225 5226 5227
          5228 5229 5230 5231 5232 5233
          5234 5235 5236 5237 5238 5239
          5240 5241 5242 5243 5244 5245
          5246 5247 5248 5249 5250 5251
          5252 5253 5254 5255 5256 5257
          5258 5259 5260 5261 5262 5263
          5264 5265 5266 5267 5268 5269
          5270 5271 5272 5273 5274 5275
          5276 5277 5278 5279 5280 5281
          5282 5283 5284 5285 5286 5287
          5288 5289 5290 5291 5292 5293
          5294 5295 5304 5306 5308 5318
          5320 5322 5332 5334 5336 5346
          5348 5350 5352 5353 5354 5355
          5356 5357 5358 5359 5360 5361
          5362 5363 5364 5365 5366 5367
          5368 5369 5370 5371 5372 5373
          5374 5377 5378 5380 5381 5382
          5383 5384 5385 5386 5387 5388
          5389 5390 5391 5392 5393 5394
          5395 5396 5397 5398 5399 5400
          5401 5402 5405 5406 5414 5415
          5417 5432 5434 5442 5443 5446
          5448 5449 5451 5462 5464 5466
          5468 5514 5516 5527 5529 5531
          5533 5541 5542 5545 5547 5548
          5550 5561 5563 5565 5567 5575
          5576 5579 5581 5582 5584 5595
          5597 5599 5601 5643 5645 5647
          5649 5667 5669 5671 5673
        </DataArray>
        <DataArray type="Float64" Name="bounds" format="ascii" RangeMin="0" RangeMax="0">
          0 0 0 0 0 0
          0 0 0 0 0 0
          0 0 0 0 0 0
          0 0 0 0 0 0
          0 0 0 0 0 0
          0 0 0 0 0 0
          0 0 0 0 0 0
          0 0 0 0 0 0
          0 0 0 0 0 0
          0 0 0 0 0 0
          0 0 0 0 0 0
          0 0 0 0 0 0
          0 0 0 0 0 0
          0 0 0 0 0 0
          0 0 0 0 0 0
          0 0 0 0 0 0
          0 0 0 0 0 0
          0 0 0 0 0 0
          0 0 0 0 0 0
          0 0 0 0 0 0
          0 0 0 0 0 0
          0 0 0 0 0 0
          0 0 0 0 0 0
          0 0 0 0 0 0
          0 0 0 0 0 0
          0 0 0 0 0 0
          0 0 0 0 0 0
          0 0 0 0 0 0
          0 0 0 0 0 0
          0 0 0 0 0 0
          0 0 0 0 0 0
          0 0 0 0 0 0
          0 0 0 0 0 0
          0 0 0 0 0 0
          0 0 0 0 0 0
          0 0 0 0 0 0
          0 0 0 0 0 0
          0 0 0 0 0 0
          0 0 0 0 0 0
          0 0 0 0 0 0
          0 0 0 0 0 0
          0 0 0 0 0 0
          0 0 0 0 0 0
          0 0 0 0 0 0
          0 0 0 0 0 0
          0 0 0 0 0 0
          0 0 0 0 0 0
          0 0 0 0 0 0
          0 0 0 0 0 0
          0 0 0 0 0 0
          0 0 0 0 0 0
          0 0 0 0 0 0
          0 0 0 0 0 0
          0 0 0 0 0 0
          0 0 0 0 0 0
          0 0 0 0 0 0
          0 0 0 0 0 0
          0 0 0 0 0 0
          0 0 0 0 0 0
          0 0 0 0 0 0
          0 0 0 0 0 0
          0 0 0 0 0 0
          0 0 0 0 0 0
          0 0 0 0 0 0
          0 0 0 0 0 0
          0 0 0 0 0 0
          0 0 0 0 0 0
          0 0 0 0 0 0
          0 0 0 0 0 0
          0 0 0 0 0 0
          0 0 0 0 0 0
          0 0 0 0 0 0
          0 0 0 0 0 0
          0 0 0 0 0 0
          0 0 0 0 0 0
          0 0 0 0 0 0
          0 0 0 0 0 0
          0 0 0 0 0 0
          0 0 0 0 0 0
          0 0 0 0 0 0
          0 0 0 0 0 0
          0 0 0 0 0 0
          0 0 0 0 0 0
          0 0 0 0 0 0
          0 0 0 0 0 0
          0 0 0 0 0 0
          0 0 0 0 0 0
          0 0 0 0 0 0
          0 0 0 0 0 0
          0 0 0 0 0 0
          0 0 0 0 0 0
          0 0 0 0 0 0
          0 0 0 0 0 0
          0 0 0 0 0 0
          0 0 0 0 0 0
          0 0 0 0 0 0
          0 0 0 0 0
        </DataArray>
        <DataArray type="Float64" Name="gradient_error" format="ascii" RangeMin="9.14700594478873e-12" RangeMax="3.380655630814705e-8">
          2.797443214132339e-9 4.5392431522830026e-11 2.332829836225269e-9 4.5122987680356306e-10 3.938408239746913e-11 1.4647651144590143e-8
          3.1275333319675864e-9 1.4770206824787533e-9 2.7065714098062717e-10 9.715557980340025e-11 2.3170056306641286e-8 5.946248569657745e-9
          5.172359511163432e-10 1.2071211427432756e-10 6.058892032447202e-11 3.2259673003571196e-11 7.116058014503405e-11 1.2943667307237765e-9
          8.850986069496022e-10 5.108933584072521e-10 3.4507203382775117e-10 2.869067567000001e-10 1.1012022430777381e-10 5.657357702098917e-9
          3.93365445574384e-9 1.5740798791345493e-9 1.1659787114163547e-9 7.593674712946757e-10 5.057284234436529e-10 1.4696087764094326e-10
          8.915190890633672e-11 3.4593021736308256e-11 7.724513419194077e-11 3.0445187526079e-11 2.1187249839122902e-10 8.055227081022097e-11
          1.0305856819337229e-10 2.974527613669085e-11 7.197286739539538e-9 5.0657480024101086e-9 1.3912677870682676e-9 1.119751127162729e-8
          2.4547663130154655e-9 1.6605687716405342e-9 6.449729571387353e-10 4.305020123964246e-10 4.50191708137706e-10 1.216532317674148e-10
          5.447145457733298e-9 3.837323502845674e-9 1.0022613187133269e-9 1.0148349575352862e-9 2.1581247089990917e-10 7.795194622356681e-11
          4.428269415961505e-10 7.194889130212088e-11 2.8323082267301703e-11 2.9152033611765696e-11 1.4669829934624511e-10 4.666044960092678e-11
          4.842154108851974e-11 2.084422582891979e-8 1.740556909115252e-8 5.068417508539414e-9 2.0017225033094135e-8 8.486145264618758e-9
          6.2574591620886e-9 2.39180714630289e-9 1.6591657189839541e-9 1.6575403825239056e-9 4.396859856196409e-10 9.74873090868432e-9
          7.3377556668660604e-9 1.960497460837359e-9 1.9524231991050344e-9 6.853888214826973e-10 1.0718974872993096e-10 7.935778953950318e-10
          2.2621223576683902e-10 6.484437963595996e-11 6.634445401845872e-11 2.615561590018429e-10 7.477934778902434e-11 7.398884614422368e-11
          1.03151975696184e-10 3.96215695312381e-11 6.725850665527418e-11 6.69580237502638e-11 5.600780748143676e-11 6.190452625054708e-11
          2.665625832020125e-11 3.9933492355520435e-11 5.202413485737883e-11 5.717647524824325e-11 3.4134531012655225e-11 5.4774351051742816e-11
          1.5083179370326005e-11 2.1596621384203597e-11 5.39731855096387e-10 4.925697712365466e-10 3.7286761447496086e-10 1.1800471266584866e-9
          3.4541867095704094e-10 3.14722361223549e-10 2.11021034388284e-10 1.9210911620705262e-10 2.372651073867621e-10 1.445951571126174e-10
          8.339413672468023e-10 7.585476631733126e-10 4.639719088616781e-10 5.658741683804876e-10 2.3623795115308013e-10 1.3006367400195174e-10
          5.450701663991566e-10 1.494576195029342e-10 9.090230809595058e-11 8.156340568340036e-11 4.9447716535340585e-11 3.4628026595514815e-10
          2.1074839537720155e-10 1.810783040987855e-10 2.8469505753854047e-9 2.6017171657979014e-9 1.948975068791539e-9 5.205080639308604e-9
          1.8531338123200055e-9 1.6877909071861604e-9 1.1420777214346486e-9 1.0374659069201714e-9 1.2545458889651748e-9 7.671489916460893e-10
          3.743847805275612e-9 3.4265341962310957e-9 2.1260767951321153e-9 2.55901939204337e-9 1.1788655419694224e-9 5.979997087600469e-10
          2.3631796063419424e-9 7.523815894531156e-10 4.583274535583657e-10 3.786997880114909e-10 2.303771260449906e-10 1.518158234179753e-9
          9.272505842508216e-10 7.412532471737955e-10 1.2298229513764948e-10 1.1200182029499487e-10 8.442696622546023e-11 2.97559599192746e-10
          2.699938514159384e-10 2.006563212116404e-10 5.3205331190944966e-11 2.90120083256043e-11 1.2281288770373573e-10 6.446366988245537e-11
          6.665150193040999e-10 6.043977268287084e-10 4.4578014281355124e-10 1.369919383709463e-9 1.2445625838466076e-9 6.884632919220716e-10
          9.163693789574861e-10 2.6653136533751667e-10 1.3456136805815655e-10 5.388065037204667e-10 2.9828201059342536e-10 2.6303707568818175e-10
          6.48996356695391e-11 4.182028406811946e-11 1.3684777358935804e-10 4.022054843309856e-11 2.4306501939272307e-11 2.572536122179778e-11
          1.5529070800351054e-11 8.567992889535692e-11 5.209666159388362e-11 4.515361816428787e-11 2.730329981745972e-10 1.1757291451471634e-10
          5.107044879901562e-10 1.716259540466523e-10 1.0440807618670765e-10 7.332518255706944e-11 4.453696645611649e-11 3.2201559101363177e-10
          1.9591740803293273e-10 1.3260851200196684e-10 3.4851526435915895e-11 4.898313856131473e-11 2.915172948846258e-11 8.491153497508816e-11
          2.1492895421437713e-11 3.0325232043334714e-11 1.3132058750111671e-11 1.8439893544646114e-11 1.3863744034584821e-11 1.7971834071050148e-11
          1.1078770690740023e-11 5.277699879762334e-11 3.207267308489763e-11 2.9359932730330166e-11 1.429647360634382e-11 9.14700594478873e-12
          3.067458394474339e-11 1.6240158692990505e-11 6.142173590318078e-11 2.6163344708950112e-11 1.1505320007124273e-10 6.508579516377946e-11
          4.740815341929507e-11 1.004729229948902e-8 9.35191672151166e-9 7.206951120744703e-9 6.806002949553865e-9 6.285579353669848e-9
          4.316521496319443e-9 3.960210607861671e-9 4.760481092292578e-9 2.9582218665559285e-9 1.1073308337205575e-8 1.0365276428342317e-8
          6.670479710427801e-9 8.034314163805627e-9 4.353235576158907e-9 2.8232407277611153e-9 1.733189006884999e-9 1.3497457804205033e-9
          8.229667816807763e-10 4.811425810533641e-9 2.9776498487116467e-9 2.2751134081066635e-9 1.6096055223999135e-8 1.5347358533050926e-8
          1.080763454325764e-8 1.0153542939405408e-8 1.2286385773397397e-8 7.891428222828478e-9 2.1167934974357315e-8 2.0597591603984244e-8
          1.3996773570536263e-8 1.709159135719465e-8 7.495850910881303e-9 4.687573646093066e-9 3.537138382873452e-9 2.1726655578892938e-9
          1.0679541591223132e-8 6.758957616581907e-9 5.0644085298696816e-9 2.5644933575428432e-9 2.3405814641660402e-9 1.430547745734117e-9
          1.3007844448588722e-9 1.7313426767202414e-9 9.566157229660301e-10 4.352073128290648e-9 4.0016936008622175e-9 2.2437625361964824e-9
          2.992400644906992e-9 7.516124584612067e-10 6.818610851265977e-10 5.004316841657298e-10 1.2970405202335893e-9 1.1807246966520314e-9
          5.857472379858947e-10 8.689280919761108e-10 1.0084653219049973e-9 5.572334648289514e-10 4.79229083219568e-10 2.668613751173979e-10
          1.7391798272651983e-9 9.61196513616629e-10 8.102657329228382e-10 2.931155540355145e-10 1.423317826468108e-10 5.041972542726742e-10
          2.518633059024014e-10 2.390825470894819e-10 6.686396719331403e-9 6.210171647069749e-9 3.831135910183044e-9 3.5272727926461183e-9
          4.7204962864943074e-9 2.6388095531591907e-9 9.332079346781452e-9 8.7703025830366e-9 5.05882263903669e-9 6.800026212484796e-9
          2.04310264287945e-9 1.869343632560178e-9 1.0201590748024474e-9 9.296274063420264e-10 1.3846568993937524e-9 6.854155754813092e-10
          2.939250015001584e-9 2.7061156571753555e-9 1.3518289296009344e-9 2.022929108009496e-9 2.755057419171347e-9 1.5261029964306514e-9
          1.2670809348494881e-9 7.032406506656396e-10 4.003509366619696e-9 2.2263773656522092e-9 1.8285542708339915e-9 7.997517770289705e-10
          3.980893567918864e-10 3.7232725329760835e-10 1.8857218600210663e-10 1.1674260870198514e-9 5.799255682390156e-10 5.362597921467106e-10
          3.4421675585850656e-10 1.3621632047385392e-10 5.644042701428916e-10 5.225053829368986e-11 8.025791459969139e-11 8.611288338774313e-10
          3.1996275858085946e-10 1.219436646534591e-9 1.1629425105085772e-10 6.133171899862791e-11 1.5813204461770701e-10 2.0158961211797574e-10
          1.1367866494267805e-10 8.01826140923222e-11 4.555377467297875e-11 3.2990323349593016e-10 1.854403053660147e-10 1.2674444906896256e-10
          6.176744019490736e-11 2.4923503454153876e-11 1.0048752601416839e-10 5.234814327671124e-11 3.9444360797927885e-11 3.085218184845215e-11
          1.7682075629078022e-11 4.7225991504636235e-11 2.706318161062227e-11 2.5110524167731448e-11 9.81169165166804e-12 1.495943802360717e-11
          1.0479330057533808e-11 5.02897494439767e-10 2.820342586014306e-10 1.8765683567396445e-10 1.0630109821214193e-10 7.118011895536021e-10
          3.984262002380752e-10 2.5941081461846454e-10 1.5230168679124242e-10 7.903538430608702e-11 5.810546565532994e-11 3.7053745760503206e-11
          2.1439049484387912e-10 1.1086569848319772e-10 8.005142709645714e-11 6.822341725484732e-11 3.890368758212155e-11 3.5835122504497776e-11
          2.0788956263655075e-11 9.258368972036212e-11 5.2623579493307123e-11 4.83317152045692e-11 2.1458994152315794e-11 1.5042762983081015e-11
          2.9015766850060208e-11 1.7565245671182154e-11 2.595951492070248e-8 2.564212896106327e-8 1.81251772425658e-8 1.763304130076918e-8
          2.18615843813638e-8 1.4540645467031829e-8 2.9961386912509716e-8 2.9967205939990666e-8 2.0583563873983352e-8 2.6012682086789822e-8
          1.3955214639086286e-8 8.940062101809846e-9 6.679889107021601e-9 4.147244535109467e-9 1.6813008825779262e-8 1.0877926449465597e-8
          8.125851753977678e-9 3.2441794466905406e-8 3.282984232905121e-8 2.2574928095448317e-8 2.2506969802128406e-8 2.887845639407205e-8
          1.9335883723853675e-8 3.324817145957373e-8 3.380655630814705e-8 2.3176369462376982e-8 2.989489329074732e-8 1.877050402450245e-8
          1.2215063928229705e-8 9.130878297875972e-9 5.713838296321311e-9 1.9468813102985737e-8 1.2691928842294047e-8 9.491117351179299e-9
          1.1899465648117317e-8 1.1327986429742716e-8 7.085871600694633e-9 6.64111633343619e-9 8.971497789497215e-9 5.113094115375171e-9
          1.3975558049681998e-8 1.3469240944831016e-8 8.019092838655054e-9 1.0881660170386589e-8 3.872273605184616e-9 3.5887885265399703e-9
          1.9604146836174143e-9 1.802739953109308e-9 2.710363295435279e-9 1.3455564206456987e-9 4.6915432611825835e-9 4.373958548061885e-9
          2.208853677275341e-9 3.3343870139300023e-9 5.338871934480855e-9 2.9831148270288424e-9 2.432314032420626e-9 1.35089194583475e-9
          6.5442760476392415e-9 3.6727147535375894e-9 2.981179145442509e-9 1.5666792478040265e-9 7.775900968905053e-10 7.131219168841002e-10
          3.5905341031298985e-10 1.9323914736133333e-9 9.589876289312725e-10 8.746223687333071e-10 1.5289635756917452e-8 1.486731217750417e-8
          9.421306536376161e-9 8.95419523702779e-9 1.2185612896584141e-8 7.052871499901675e-9 1.5735232278637913e-8 1.5349805027532478e-8
          9.28464291799269e-9 1.2647488054096632e-8 5.25144318188931e-9 4.916295724205042e-9 2.6906076310767704e-9 2.4922433904266487e-9
          3.7724991935857554e-9 1.8805162609127242e-9 5.4500930684189075e-9 5.1098781651963674e-9 2.5939928963207475e-9 3.930312366725785e-9
          7.387579156601102e-9 4.1583700482255326e-9 3.3674079418068036e-9 1.8741128072741993e-9 7.690886348361708e-9 4.333601910627308e-9
          3.506747840050739e-9 2.191115907070474e-9 1.0875563787084089e-9 9.887594087338014e-10 4.966358234053584e-10 2.284723235169007e-9
          1.134124964167674e-9 1.0300534482791248e-9 1.6001422584174374e-9 5.710577950414538e-10 1.9437105812351554e-9 2.0108296684209293e-10
          8.337523477078189e-11 2.3873074587525415e-10 2.1845146391649863e-9 7.649869957852659e-10 2.2712402967960373e-9 2.6449934042043597e-10
          1.0845412508911551e-10 2.73615165198233e-10 9.339018791818797e-10 5.220234608843409e-10 3.3425490456136736e-10 1.8878046206402715e-10
          1.134615644655599e-9 6.337104187534763e-10 4.009297758280382e-10 2.8000349784352437e-10 1.4436092823953788e-10 1.029260192404519e-10
          5.40086552352193e-11 3.393012543394356e-10 1.745734857679049e-10 1.2320286182640057e-10 1.1753208870241926e-10 6.6603844916358e-11
          6.09855631400047e-11 3.431228528893271e-11 1.3938278209863478e-10 7.878085222695685e-11 7.193460545271362e-11 3.675292614595321e-11
          1.969870657408375e-11 4.3366975608955154e-11 2.3259533408569282e-11 1.2755470382982439e-9 7.121553729202147e-10 4.473041549241786e-10
          2.5222589021116536e-10 1.3263682104516323e-9 7.404391421510545e-10 4.639499817692771e-10 3.8103508456312206e-10 1.9583974114874175e-10
          1.3727638029487106e-10 7.216594362934444e-11 3.9606823902176946e-10 2.03484742743102e-10 1.4230269773364785e-10 1.5435518733203293e-10
          8.716290116643321e-11 7.93013759233993e-11 4.4040187529702846e-11 1.5965259239215657e-10 9.015610552747444e-11 8.182032700473854e-11
          4.791298728167894e-11 2.5628650691128294e-11 4.9572253761807015e-11 2.652876127438783e-11 3.0331513713926617e-10 2.7524579404767874e-10
          2.0282286101588396e-10 1.202438340758345e-10 5.946713003271525e-11 4.798217288254722e-10 4.3630798585899815e-10 3.216956131665742e-10
          6.962578324977294e-10 6.349525170288159e-10 4.694606776346687e-10 1.8899628326164268e-10 9.16401297376575e-11 2.7420573441453196e-10
          1.3089298711856124e-10 2.6078339824800384e-11 1.5240816660162685e-11 3.925288606764105e-11 2.262109574262806e-11 5.5025036683924634e-11
          2.498829372620684e-11 9.273364575571144e-10 8.48464589596062e-10 6.298498402706853e-10 1.1355166034022182e-9 1.042085785797011e-9
          7.767335850809746e-10 3.6668818953024196e-10 1.7300642288848842e-10 4.515064233994919e-10 2.1133892015623272e-10 1.2808474050554948e-9
          1.1779721990711267e-9 8.806443633819007e-10 1.3330403586059506e-9 1.2269194408713476e-9 9.182415798766327e-10 5.11616288892845e-10
          2.3838080552332215e-10 5.333898532648723e-10 2.4815400026009624e-10 7.168697953578911e-11 2.738223460333499e-11 8.661044251514505e-11
          3.299061550183071e-11 9.702145937901992e-11 3.666335725347221e-11 1.0075824438758481e-10 3.7971709732994826e-11
        </DataArray>
        <DataArray type="Float64" Name="gradient_matprop_error" format="ascii" RangeMin="0" RangeMax="0">
          0 0 0 0 0 0
          0 0 0 0 0 0
          0 0 0 0 0 0
          0 0 0 0 0 0
          0 0 0 0 0 0
          0 0 0 0 0 0
          0 0 0 0 0 0
          0 0 0 0 0 0
          0 0 0 0 0 0
          0 0 0 0 0 0
          0 0 0 0 0 0
          0 0 0 0 0 0
          0 0 0 0 0 0
          0 0 0 0 0 0
          0 0 0 0 0 0
          0 0 0 0 0 0
          0 0 0 0 0 0
          0 0 0 0 0 0
          0 0 0 0 0 0
          0 0 0 0 0 0
          0 0 0 0 0 0
          0 0 0 0 0 0
          0 0 0 0 0 0
          0 0 0 0 0 0
          0 0 0 0 0 0
          0 0 0 0 0 0
          0 0 0 0 0 0
          0 0 0 0 0 0
          0 0 0 0 0 0
          0 0 0 0 0 0
          0 0 0 0 0 0
          0 0 0 0 0 0
          0 0 0 0 0 0
          0 0 0 0 0 0
          0 0 0 0 0 0
          0 0 0 0 0 0
          0 0 0 0 0 0
          0 0 0 0 0 0
          0 0 0 0 0 0
          0 0 0 0 0 0
          0 0 0 0 0 0
          0 0 0 0 0 0
          0 0 0 0 0 0
          0 0 0 0 0 0
          0 0 0 0 0 0
          0 0 0 0 0 0
          0 0 0 0 0 0
          0 0 0 0 0 0
          0 0 0 0 0 0
          0 0 0 0 0 0
          0 0 0 0 0 0
          0 0 0 0 0 0
          0 0 0 0 0 0
          0 0 0 0 0 0
          0 0 0 0 0 0
          0 0 0 0 0 0
          0 0 0 0 0 0
          0 0 0 0 0 0
          0 0 0 0 0 0
          0 0 0 0 0 0
          0 0 0 0 0 0
          0 0 0 0 0 0
          0 0 0 0 0 0
          0 0 0 0 0 0
          0 0 0 0 0 0
          0 0 0 0 0 0
          0 0 0 0 0 0
          0 0 0 0 0 0
          0 0 0 0 0 0
          0 0 0 0 0 0
          0 0 0 0 0 0
          0 0 0 0 0 0
          0 0 0 0 0 0
          0 0 0 0 0 0
          0 0 0 0 0 0
          0 0 0 0 0 0
          0 0 0 0 0 0
          0 0 0 0 0 0
          0 0 0 0 0 0
          0 0 0 0 0 0
          0 0 0 0 0 0
          0 0 0 0 0 0
          0 0 0 0 0 0
          0 0 0 0 0 0
          0 0 0 0 0 0
          0 0 0 0 0 0
          0 0 0 0 0 0
          0 0 0 0 0 0
          0 0 0 0 0 0
          0 0 0 0 0 0
          0 0 0 0 0 0
          0 0 0 0 0 0
          0 0 0 0 0 0
          0 0 0 0 0 0
          0 0 0 0 0 0
          0 0 0 0 0 0
          0 0 0 0 0
        </DataArray>
        <DataArray type="Float64" Name="initial_marker" format="ascii" RangeMin="0" RangeMax="2">
          2 0 2 2 0 2
          2 2 2 1 2 2
          2 1 0.25 0 0 2
          2 2 2 2 2 2
          2 2 2 2 2 2
          1.5 0.75 0 0 2 2
          0.25 1.25 2 2 2 2
          2 2 2 2 2 2
          2 2 2 2 2 0.75
          2 2 1.25 0 2 1.75
          0.5 2 2 2 2 2
          2 2 2 2 2 2
          2 2 2 2 1 2
          2 2 1 2 2 1
          0 0 0 0 0 0
          0 0 0 0 0 0
          0 0 2 2 2 2
          2 2 2 2 2 2
          2 2 2 2 2 2
          2 2 2 2 2 2
          2 2 2 2 2 2
          2 2 2 2 2 2
          2 2 2 2 2 2
          2 2 2 2 2 2
          2 2 2 2 2 2
          2 2 2 1.75 2 2
          2 2 2 2 2 2
          2 2 2 2 2 2
          1.75 1.5 2 1.5 1.25 1
          0.5 2 1.75 1.6666666666666667 2 2
          2 2 2 1.75 1.5 2
          2 2 1 1 0 1.25
          0.5 0.75 0 0.5 0 0
          0 1 1 0 0.75 0
          1.5 0.6666666666666666 2 1.25 2 2
          1.75 2 2 2 2 2
          2 2 2 2 2 2
          2 2 2 2 2 2
          2 2 2 2 2 2
          2 2 2 2 2 2
          2 2 2 2 2 2
          2 2 2 2 2 2
          2 2 2 2 2 2
          2 2 2 2 2 2
          2 2 2 2 2 2
          2 2 2 2 2 2
          2 2 2 2 2 2
          2 2 2 2 2 2
          2 2 2 2 2 2
          2 2 2 2 2 2
          2 2 2 2 2 2
          2 2 2 2 2 2
          2 2 2 1.25 1.75 2
          2 2 2 2 2 2
          2 2 1.75 2 2 2
          2 1.25 2 2 1.75 1
          0.75 1.25 1 0.5 0.25 0.75
          0.5 2 2 2 2 2
          2 2 2 2 2 2
          2 2 2 1.75 1.25 1.5
          0.5 2 1.5 2 1 1
          1 1 2 2 2 2
          2 2 2 2 2 2
          2 2 2 2 2 2
          2 2 2 2 2 2
          2 2 2 2 2 2
          2 2 2 2 2 2
          2 2 2 2 2 2
          2 2 2 2 2 2
          2 2 2 2 2 2
          2 2 2 2 2 2
          2 2 2 2 2 2
          2 2 2 2 2 2
          2 2 2 2 2 2
          2 2 2 2 2 2
          2 2 2 2 2 2
          2 2 2 2 2 2
          2 2 2 2 2 2
          2 2 2 2 2 2
          1.3333333333333333 2 2 2 2 2
          1.3333333333333333 2 2 2 2 2
          2 2 2 2 2 2
          2 2 2 2 2 1.75
          2 1.5 2 2 2 1.25
          1 1.5 1 2 2 2
          2 2 2 2 2 2
          2 2 2 2 2 2
          2 2 2 2 2 2
          1.5 1 1.5 1 2 2
          2 2 2 2 2 2
          2 2 2 2 2 2
          2 1.75 1.5 2 2 2
          1.6666666666666667 2 2 2 2 2
          2 2 2 2 2 2
          2 2 2 2 2 2
          2 2 2 2 1.5 2
          1.5 2 1.5 2 1.5
        </DataArray>
        <DataArray type="Float64" Name="markers_norefine" format="ascii" RangeMin="0" RangeMax="0">
          0 0 0 0 0 0
          0 0 0 0 0 0
          0 0 0 0 0 0
          0 0 0 0 0 0
          0 0 0 0 0 0
          0 0 0 0 0 0
          0 0 0 0 0 0
          0 0 0 0 0 0
          0 0 0 0 0 0
          0 0 0 0 0 0
          0 0 0 0 0 0
          0 0 0 0 0 0
          0 0 0 0 0 0
          0 0 0 0 0 0
          0 0 0 0 0 0
          0 0 0 0 0 0
          0 0 0 0 0 0
          0 0 0 0 0 0
          0 0 0 0 0 0
          0 0 0 0 0 0
          0 0 0 0 0 0
          0 0 0 0 0 0
          0 0 0 0 0 0
          0 0 0 0 0 0
          0 0 0 0 0 0
          0 0 0 0 0 0
          0 0 0 0 0 0
          0 0 0 0 0 0
          0 0 0 0 0 0
          0 0 0 0 0 0
          0 0 0 0 0 0
          0 0 0 0 0 0
          0 0 0 0 0 0
          0 0 0 0 0 0
          0 0 0 0 0 0
          0 0 0 0 0 0
          0 0 0 0 0 0
          0 0 0 0 0 0
          0 0 0 0 0 0
          0 0 0 0 0 0
          0 0 0 0 0 0
          0 0 0 0 0 0
          0 0 0 0 0 0
          0 0 0 0 0 0
          0 0 0 0 0 0
          0 0 0 0 0 0
          0 0 0 0 0 0
          0 0 0 0 0 0
          0 0 0 0 0 0
          0 0 0 0 0 0
          0 0 0 0 0 0
          0 0 0 0 0 0
          0 0 0 0 0 0
          0 0 0 0 0 0
          0 0 0 0 0 0
          0 0 0 0 0 0
          0 0 0 0 0 0
          0 0 0 0 0 0
          0 0 0 0 0 0
          0 0 0 0 0 0
          0 0 0 0 0 0
          0 0 0 0 0 0
          0 0 0 0 0 0
          0 0 0 0 0 0
          0 0 0 0 0 0
          0 0 0 0 0 0
          0 0 0 0 0 0
          0 0 0 0 0 0
          0 0 0 0 0 0
          0 0 0 0 0 0
          0 0 0 0 0 0
          0 0 0 0 0 0
          0 0 0 0 0 0
          0 0 0 0 0 0
          0 0 0 0 0 0
          0 0 0 0 0 0
          0 0 0 0 0 0
          0 0 0 0 0 0
          0 0 0 0 0 0
          0 0 0 0 0 0
          0 0 0 0 0 0
          0 0 0 0 0 0
          0 0 0 0 0 0
          0 0 0 0 0 0
          0 0 0 0 0 0
          0 0 0 0 0 0
          0 0 0 0 0 0
          0 0 0 0 0 0
          0 0 0 0 0 0
          0 0 0 0 0 0
          0 0 0 0 0 0
          0 0 0 0 0 0
          0 0 0 0 0 0
          0 0 0 0 0 0
          0 0 0 0 0 0
          0 0 0 0 0 0
          0 0 0 0 0
        </DataArray>
        <DataArray type="Float64" Name="markers_mustrefine" format="ascii" RangeMin="0" RangeMax="2">
          2 0 2 2 0 2
          2 2 2 1 2 2
          2 1 0.25 0 0 2
          2 2 2 2 2 2
          2 2 2 2 2 2
          1.5 0.75 0 0 2 2
          0.25 1.25 2 2 2 2
          2 2 2 2 2 2
          2 2 2 2 2 0.75
          2 2 1.25 0 2 1.75
          0.5 2 2 2 2 2
          2 2 2 2 2 2
          2 2 2 2 1 2
          2 2 1 2 2 1
          0 0 0 0 0 0
          0 0 0 0 0 0
          0 0 2 2 2 2
          2 2 2 2 2 2
          2 2 2 2 2 2
          2 2 2 2 2 2
          2 2 2 2 2 2
          2 2 2 2 2 2
          2 2 2 2 2 2
          2 2 2 2 2 2
          2 2 2 2 2 2
          2 2 2 1.75 2 2
          2 2 2 2 2 2
          2 2 2 2 2 2
          1.75 1.5 2 1.5 1.25 1
          0.5 2 1.75 1.6666666666666667 2 2
          2 2 2 1.75 1.5 2
          2 2 1 1 0 1.25
          0.5 0.75 0 0.5 0 0
          0 1 1 0 0.75 0
          1.5 0.6666666666666666 2 1.25 2 2
          1.75 2 2 2 2 2
          2 2 2 2 2 2
          2 2 2 2 2 2
          2 2 2 2 2 2
          2 2 2 2 2 2
          2 2 2 2 2 2
          2 2 2 2 2 2
          2 2 2 2 2 2
          2 2 2 2 2 2
          2 2 2 2 2 2
          2 2 2 2 2 2
          2 2 2 2 2 2
          2 2 2 2 2 2
          2 2 2 2 2 2
          2 2 2 2 2 2
          2 2 2 2 2 2
          2 2 2 2 2 2
          2 2 2 1.25 1.75 2
          2 2 2 2 2 2
          2 2 1.75 2 2 2
          2 1.25 2 2 1.75 1
          0.75 1.25 1 0.5 0.25 0.75
          0.5 2 2 2 2 2
          2 2 2 2 2 2
          2 2 2 1.75 1.25 1.5
          0.5 2 1.5 2 1 1
          1 1 2 2 2 2
          2 2 2 2 2 2
          2 2 2 2 2 2
          2 2 2 2 2 2
          2 2 2 2 2 2
          2 2 2 2 2 2
          2 2 2 2 2 2
          2 2 2 2 2 2
          2 2 2 2 2 2
          2 2 2 2 2 2
          2 2 2 2 2 2
          2 2 2 2 2 2
          2 2 2 2 2 2
          2 2 2 2 2 2
          2 2 2 2 2 2
          2 2 2 2 2 2
          2 2 2 2 2 2
          2 2 2 2 2 2
          1.3333333333333333 2 2 2 2 2
          1.3333333333333333 2 2 2 2 2
          2 2 2 2 2 2
          2 2 2 2 2 1.75
          2 1.5 2 2 2 1.25
          1 1.5 1 2 2 2
          2 2 2 2 2 2
          2 2 2 2 2 2
          2 2 2 2 2 2
          1.5 1 1.5 1 2 2
          2 2 2 2 2 2
          2 2 2 2 2 2
          2 1.75 1.5 2 2 2
          1.6666666666666667 2 2 2 2 2
          2 2 2 2 2 2
          2 2 2 2 2 2
          2 2 2 2 1.5 2
          1.5 2 1.5 2 1.5
        </DataArray>
        <DataArray type="Float64" Name="gradient_marker" format="ascii" RangeMin="1" RangeMax="1">
          1 1 1 1 1 1
          1 1 1 1 1 1