<?xml version="1.0"?>
<VTKFile type="UnstructuredGrid" version="0.1" byte_order="LittleEndian" header_type="UInt32" compressor="vtkZLibDataCompressor">
  <UnstructuredGrid>
    <Piece NumberOfPoints="734" NumberOfCells="464">
      <PointData>
        <DataArray type="Int32" Name="libmesh_node_id" format="ascii" RangeMin="900" RangeMax="6270">
          1042 1049 1160 1163 1446 1450
          1455 1456 1460 1465 1481 1692
          1693 1694 1695 1696 1697 1698
          2348 2370 2372 2373 2374 2375
          2376 2377 2378 2379 2380 2381
          2382 2403 2404 2405 2406 2407
          2408 2409 2410 2411 2412 2413
          2414 2415 2416 2441 2442 2443
          2444 2445 2446 2447 2448 2449
          2452 2453 2478 2480 2482 2484
          2560 2561 2562 2563 2564 2566
          2567 2570 2571 2574 2575 2580
          2582 2584 2600 2604 2931 2934
          2935 3012 3013 3014 3015 3016
          3017 3018 3019 3020 3023 3024
          4491 4493 4511 4513 4745 4747
          4748 4749 4751 4759 4760 4761
          4762 4763 4764 4765 4771 4773
          4775 4776 4777 4778 4779 4785
          4787 4788 4789 4790 4791 4792
          4793 4796 4797 4800 4803 4804
          4807 4808 4809 4810 4811 4812
          4813 4814 4815 4816 4817 4818
          4819 4820 4821 4822 4823 4824
          4827 4828 4829 4830 4831 4834
          4835 4838 4839 4840 4841 4842
          4843 4844 4845 4846 4847 4848
          4849 4850 4851 4852 4990 4992
          4994 4996 4997 4998 4999 5000
          5001 5002 5004 5006 5008 5010
          5011 5012 5013 5014 5015 5016
          5018 5020 5022 5024 5025 5026
          5027 5028 5029 5030 5032 5034
          5036 5038 5039 5040 5041 5042
          5043 5044 5045 5046 5047 5048
          5049 5050 5051 5054 5055 5058
          5059 5060 5061 5062 5063 5064
          5065 5066 5067 5068 5069 5070
          5071 5072 5073 5074 5075 5076
          5077 5078 5079 5082 5083 5086
          5087 5088 5089 5090 5091 5092
          5093 5094 5095 5096 5097 5098
          5099 5100 5253 5254 5257 5262
          5263 5264 5267 5268 5269 5270
          5271 5272 5273 5274 5275 5276
          5277 5278 5279 5280 5281 5282
          5283 5284 5285 5286 5287 5290
          5291 5294 5297 5298 5301 5302
          5303 5304 5305 5306 5307 5308
          5309 5310 5311 5312 5313 5314
          5315 5320 5321 5322 5325 5336
          5337 5338 5339 5340 5341 5342
          5343 5344 5345 5358 5362 5370
          5372 5374 5376 5522 5523 5526
          5529 5530 5533 5534 5535 5536
          5537 5538 5539 5540 5541 5543
          5545 5547 5550 5551 5554 5557
          5561 5562 5563 5564 5565 5566
          5567 5568 5569 5571 5573 5575
          5578 5644 5645 5650 5680 5684
          5700 5701 5702 5703 5707 5708
          5710 5711 5712 5713 5717 5718
          5740 5741 5744 5745 5747 5748
          5751 5752 5846 5850 5874 5878
          5894 5895 5898 5899 5901 5902
          5905 5906 5922 5923 5926 5927
          5929 5930 5933 5934 6065 6066
          6067 6068 6069 6070 6071 6072
          6073 6074 6075 6076 6077 6078
          6079 6080 6081 6082 6083 6084
          6085 6086 6087 6088 6089 6090
          6091 6092 6093 6095 6096 6097
          6098 6099 6100 6101 6102 6103
          6105 6106 6107 6108 6109 6110
          6111 6112 6113 6114 6115 6116
          6117 6118 6127 6133 6134 6135
          6136 6137 6138 6139 6140 6141
          6142 6153 6157 6217 6218 6219
          6220 6221 6222 6223 6224 6226
          6228 6230 6245 6246 6247 6248
          6249 6250 6251 6252 6254 6256
          6258 1157 1162 1039 900 1045
          1444 1687 1432 1445 1688 1691
          1473 1485 1046 2318 2340 2344
          2321 2323 2346 1041 2342 2345
          2347 2524 2508 2565 2581 2525
          2583 2585 2528 2586 2311 2320
          3006 3001 1436 2324 2502 2494
          3008 2504 2343 3007 3011 4492
          2313 4746 4750 4512 4774 4521
          4523 4794 4522 2322 4795 4798
          4799 4531 4533 4801 4532 4802
          4805 4806 4541 4542 4543 4825
          4826 4666 4726 1452 4730 4727
          2368 4832 4833 4733 4737 4836
          4837 4883 4943 4944 2388 4947
          2397 4950 5052 5053 4954 5056
          5057 4917 4977 4978 1458 4981
          2402 4984 5080 5081 4988 5084
          5085 4599 4601 5251 4600 5252
          5255 5256 5258 5259 5260 5261
          5265 5266 5288 5289 5292 5293
          5295 5296 5299 5300 5316 5317
          5323 5356 5360 5520 5521 5524
          5525 5527 5528 5531 5548 5549
          5552 5553 5555 5559 5576 5642
          5643 5646 5648 5647 5649 2495
          5651 5679 5682 5681 5683 2500
          5685 5704 5705 5706 5709 2503
          5714 5715 5716 5719 2505 5742
          5743 5746 2509 5749 5750 5753
          2510 5677 5845 5839 5848 5847
          5849 5843 2533 5851 5873 5867
          5876 5875 5877 5871 2537 5879
          5896 5897 5900 2539 5903 5904
          5907 2540 5924 5925 5928 2543
          5931 5932 5935 2544 5732 5733
          5736 5738 6094 6104 6119 5762
          6120 6121 5764 6122 6123 5766
          6124 6126 6128 6130 6231 5916
          6232 6235 5920 6236 6238 6242
          6259 5944 6260 6263 5948 6264
          6266 6270
        </DataArray>
        <DataArray type="Float64" Name="bounds" format="ascii" RangeMin="0" RangeMax="0">
          0 0 0 0 0 0
          0 0 0 0 0 0
          0 0 0 0 0 0
          0 0 0 0 0 0
          0 0 0 0 0 0
          0 0 0 0 0 0
          0 0 0 0 0 0
          0 0 0 0 0 0
          0 0 0 0 0 0
          0 0 0 0 0 0
          0 0 0 0 0 0
          0 0 0 0 0 0
          0 0 0 0 0 0
          0 0 0 0 0 0
          0 0 0 0 0 0
          0 0 0 0 0 0
          0 0 0 0 0 0
          0 0 0 0 0 0
          0 0 0 0 0 0
          0 0 0 0 0 0
          0 0 0 0 0 0
          0 0 0 0 0 0
          0 0 0 0 0 0
          0 0 0 0 0 0
          0 0 0 0 0 0
          0 0 0 0 0 0
          0 0 0 0 0 0
          0 0 0 0 0 0
          0 0 0 0 0 0
          0 0 0 0 0 0
          0 0 0 0 0 0
          0 0 0 0 0 0
          0 0 0 0 0 0
          0 0 0 0 0 0
          0 0 0 0 0 0
          0 0 0 0 0 0
          0 0 0 0 0 0
          0 0 0 0 0 0
          0 0 0 0 0 0
          0 0 0 0 0 0
          0 0 0 0 0 0
          0 0 0 0 0 0
          0 0 0 0 0 0
          0 0 0 0 0 0
          0 0 0 0 0 0
          0 0 0 0 0 0
          0 0 0 0 0 0
          0 0 0 0 0 0
          0 0 0 0 0 0
          0 0 0 0 0 0
          0 0 0 0 0 0
          0 0 0 0 0 0
          0 0 0 0 0 0
          0 0 0 0 0 0
          0 0 0 0 0 0
          0 0 0 0 0 0
          0 0 0 0 0 0
          0 0 0 0 0 0
          0 0 0 0 0 0
          0 0 0 0 0 0
          0 0 0 0 0 0
          0 0 0 0 0 0
          0 0 0 0 0 0
          0 0 0 0 0 0
          0 0 0 0 0 0
          0 0 0 0 0 0
          0 0 0 0 0 0
          0 0 0 0 0 0
          0 0 0 0 0 0
          0 0 0 0 0 0
          0 0 0 0 0 0
          0 0 0 0 0 0
          0 0 0 0 0 0
          0 0 0 0 0 0
          0 0 0 0 0 0
          0 0 0 0 0 0
          0 0 0 0 0 0
          0 0 0 0 0 0
          0 0 0 0 0 0
          0 0 0 0 0 0
          0 0 0 0 0 0
          0 0 0 0 0 0
          0 0 0 0 0 0
          0 0 0 0 0 0
          0 0 0 0 0 0
          0 0 0 0 0 0
          0 0 0 0 0 0
          0 0 0 0 0 0
          0 0 0 0 0 0
          0 0 0 0 0 0
          0 0 0 0 0 0
          0 0 0 0 0 0
          0 0 0 0 0 0
          0 0 0 0 0 0
          0 0 0 0 0 0
          0 0 0 0 0 0
          0 0 0 0 0 0
          0 0 0 0 0 0
          0 0 0 0 0 0
          0 0 0 0 0 0
          0 0 0 0 0 0
          0 0 0 0 0 0
          0 0 0 0 0 0
          0 0 0 0 0 0
          0 0 0 0 0 0
          0 0 0 0 0 0
          0 0 0 0 0 0
          0 0 0 0 0 0
          0 0 0 0 0 0
          0 0 0 0 0 0
          0 0 0 0 0 0
          0 0 0 0 0 0
          0 0 0 0 0 0
          0 0 0 0 0 0
          0 0 0 0 0 0
          0 0 0 0 0 0
          0 0 0 0 0 0
          0 0 0 0 0 0
          0 0 0 0 0 0
          0 0 0 0 0 0
          0 0 0 0 0 0
          0 0 0 0 0 0
          0 0
        </DataArray>
        <DataArray type="Float64" Name="gradient_error" format="ascii" RangeMin="5.431493936594783e-12" RangeMax="6.377650782754423e-9">
          6.699600238135565e-11 1.1883756516125363e-9 7.37577321632588e-11 6.00271534787356e-11 1.5262861447995612e-11 3.45551051425931e-11
          1.0714652926739378e-9 4.0906818358257597e-10 2.6854060323732246e-9 1.1479200618211802e-10 5.3907663601604116e-11 4.7605642604628976e-11
          5.708389180960869e-11 1.7029608236545736e-11 2.0365502836641922e-11 4.077232814813069e-11 7.982216331148544e-11 2.4982867574247898e-11
          6.874778665988034e-11 6.202546725639511e-10 4.0448910185119194e-10 2.4377491933146328e-9 1.74683164864938e-9 1.5460276989167238e-9
          3.834127428649492e-10 2.2077980075794366e-10 2.45903930234401e-10 1.3985820199377953e-10 1.1581117504182759e-9 7.059989130360735e-10
          6.884923474641305e-10 4.7236010130275785e-9 3.5667205418177106e-9 2.9317056492448377e-9 2.154145167516005e-9 5.540502679320036e-9
          4.1936355985846334e-9 3.5777104363490253e-9 2.5267130971268303e-9 1.64212427985144e-9 1.4635514630136145e-9 9.117431317266997e-10
          3.0455168162583556e-9 2.0428555898754937e-9 1.866952422011361e-9 1.1857186378251522e-10 5.952618320932563e-11 7.45418455726749e-11
          3.723794522233501e-11 3.9529383906207617e-10 2.0398349251879442e-10 2.2493571922784904e-10 2.32851870653133e-11 2.801127369545377e-11
          1.6672223694083558e-11 1.747595969056809e-11 9.689281374822643e-10 5.197028859705266e-10 1.2409445258059916e-9 6.896100418258435e-10
          4.498634761320944e-11 4.2067873408919544e-11 2.8214239501132452e-11 2.574207182483265e-11 4.946571979018665e-11 2.422560464022748e-11
          1.135032051366017e-10 1.8873508606625062e-11 1.7288105743074213e-11 2.264585003119355e-11 2.0026501715737215e-11 6.357884957920229e-11
          3.0777459934455245e-11 4.467443102069456e-11 2.379205304831371e-10 3.1209795748078546e-10 2.4152137852367527e-11 9.701671900258056e-12
          1.8163941524343747e-11 2.8675870752004944e-11 5.056242681356775e-11 1.5620988744326046e-11 2.6072989342981488e-11 2.5997263058957864e-11
          4.030619696303738e-11 2.099039471938437e-11 7.646638496615076e-12 1.2284255485799606e-11 6.767057184665603e-12 9.647461853548155e-12
          2.8556866517047435e-10 2.462660574849542e-10 2.0524232161074433e-10 1.8766836256320612e-10 5.153933322431793e-10 4.410220292195723e-10
          3.5073795590063783e-10 9.065769743959722e-10 7.681357105803177e-10 3.679128589907965e-10 2.915692727105943e-10 2.985690588769715e-10
          2.3562958584247286e-10 6.322303779461647e-10 5.080273677414888e-10 5.060276673635565e-10 2.917333907834896e-9 1.5428632918700008e-9
          1.2935455090464692e-9 1.0638021024703443e-9 2.5089164460378472e-9 2.1188295646291657e-9 2.0826566126816967e-9 1.9722108127162347e-9
          1.0512441130496454e-9 8.589011882342464e-10 8.290126140215466e-10 6.726748296576394e-10 1.6716973626615282e-9 1.391102077498475e-9
          1.2988452135668085e-9 2.753360426435037e-10 2.1245821574536412e-10 4.920463259192917e-10 1.6039601790883353e-10 1.191132807696886e-10
          2.9352789705363345e-10 2.2806272149522037e-10 1.7525751359475824e-10 1.8327010514971936e-10 1.4018638914244762e-10 4.0126692450372576e-10
          3.114889648480303e-10 3.180379445897769e-10 9.336576241980838e-11 1.3180103957923802e-10 6.832082579338165e-11 9.758953046124957e-11
          7.479308651334844e-11 1.0518598379114331e-10 7.777543106865958e-11 2.3767227146096567e-10 1.7825554437292014e-10 1.8699190846374765e-10
          8.584767215130035e-10 6.795160668889466e-10 1.7549702021952663e-9 1.4241383164841275e-9 1.4369082730151748e-9 5.274596048317609e-10
          4.015290039477806e-10 9.139474392660592e-10 6.889330201428225e-10 5.423356276114119e-10 5.361740170944403e-10 4.1972438665132316e-10
          1.135398487523637e-9 9.083014209878323e-10 8.672788751201062e-10 4.189583169503669e-10 3.176401055833285e-10 3.226748777985865e-10
          2.4365221145056037e-10 7.119157441348458e-10 5.466343599641955e-10 5.359291810313378e-10 4.336043601536565e-9 3.5885494628129928e-9
          5.709355069924688e-9 3.778756234272095e-9 3.2445332876205386e-9 3.116626355392124e-9 2.661142252650648e-9 4.999211133056667e-9
          4.316540172628988e-9 4.1319569696896834e-9 2.8783286289745502e-9 2.2328772219201388e-9 3.783283536274448e-9 2.4818230989423145e-9
          2.1013653132108634e-9 1.906889591189231e-9 1.598643647088395e-9 3.3002665795779678e-9 2.8320155302895877e-9 2.5359731233035647e-9
          6.340947215208245e-9 5.38624861123605e-9 6.377650782754423e-9 5.579644293415774e-9 4.8156600054804205e-9 4.713109181485532e-9
          4.080208181296162e-9 5.6345625714634964e-9 4.862087820773517e-9 4.845353129106901e-9 4.366522207078611e-9 3.4176169593292663e-9
          4.537750770494886e-9 3.827157871639056e-9 3.309454292594194e-9 2.979062302555991e-9 2.5516728199762122e-9 3.9802036663138325e-9
          3.449801020649247e-9 3.1263116991216585e-9 2.738333882705785e-9 2.265908180613526e-9 2.2295873637334964e-9 1.8301000542421506e-9
          3.6825234375424566e-9 3.0949153922065947e-9 3.0308512133056416e-9 1.4697560073015663e-9 1.1537616122568786e-9 2.0609941489983405e-9
          1.7448639888155463e-9 1.4191953836134933e-9 1.3142334080454731e-9 1.0585662970650536e-9 2.3851384221320252e-9 1.9677761304226094e-9
          1.7942216203989432e-9 1.1296340041014752e-9 8.79483629551186e-10 8.349412233135455e-10 6.447734451902589e-10 1.5879655953690021e-9
          1.252233919076544e-9 1.1680811634202625e-9 4.1169317724450375e-9 3.4917979409097384e-9 3.4942854179035556e-9 2.944590325472516e-9
          4.153712125010403e-9 3.533104502905152e-9 3.5993474090278335e-9 2.4293782155745127e-9 1.957402487315885e-9 2.5240861750083443e-9
          2.81316488660006e-9 2.343508800289175e-9 2.1435483895491007e-9 1.763410097430197e-9 2.9420892322729937e-9 2.4596317231570687e-9
          2.2625966616872247e-9 1.9095021854293375e-9 1.5198318680074472e-9 1.4189571857858224e-9 1.1160249047467134e-9 2.0113181077713993e-9
          1.6065217945857213e-9 1.5067209490341507e-9 8.734831796803276e-11 6.30537763104572e-11 1.6319313664871348e-10 3.048797273125734e-11
          4.4595800930683324e-11 3.108300559966426e-11 8.471630520224948e-11 4.9638438658510866e-11 7.134509128100398e-11 3.568066174429691e-11
          5.1429913664082696e-11 3.974387413847987e-11 5.678922582009154e-11 4.092463398646121e-11 1.3146486333185775e-10 9.535340842095414e-11
          1.0292633826730107e-10 2.506904862430049e-11 3.641755661882676e-11 1.74593772831792e-11 2.544439496466202e-11 2.0231854680171788e-11
          2.9024589378410114e-11 2.0318523953284466e-11 6.804139529570743e-11 4.776806794473409e-11 5.311866809133031e-11 2.998360101255762e-10
          2.1971291893623603e-10 5.338493895596202e-10 1.5806004815540927e-10 1.1168248352575291e-10 2.8678343439033414e-10 2.364085007941351e-10
          1.727824084893705e-10 1.807502243892899e-10 1.3177224872076608e-10 4.112496509827729e-10 3.0326324989672236e-10 3.062394693414823e-10
          1.2404758441715517e-10 8.751654297101345e-11 9.442108473548475e-11 6.650729808952456e-11 2.1930891033997764e-10 1.5560888718578965e-10
          1.621655778661953e-10 1.446015328624152e-11 2.1403376767900832e-11 1.456307879706857e-11 4.115898728227106e-11 1.2024319846451691e-11
          1.7542441895403767e-11 8.247631579537016e-12 1.1958933634237133e-11 9.777797983791731e-12 1.3993928491070452e-11 9.538061661772972e-12
          3.3015259636979235e-11 2.2469384352450364e-11 2.570366546536517e-11 7.753853111980425e-11 1.423296304061262e-10 6.069576903454564e-11
          4.6062988898342663e-11 1.0838089360892404e-10 7.980984523349052e-11 8.849523094167901e-10 6.633186772273522e-10 1.276927412378418e-9
          4.861379201451811e-10 3.4861502645645573e-10 7.177116768730594e-10 6.697060359499886e-10 4.989262876562071e-10 4.875558609421195e-10
          3.611292603611531e-10 9.645959635573212e-10 7.25901729478545e-10 6.959711011656775e-10 3.638498422973236e-10 2.6214246660897176e-10
          5.339437345370531e-10 3.7982607877595677e-10 1.538436667653937e-9 1.1789875214267666e-9 1.6126195458309847e-9 8.811763591566094e-10
          9.310294511132228e-10 1.1808817091020892e-9 8.956452178781627e-10 8.57795185884906e-10 6.44457637834943e-10 1.2524232798520189e-9
          9.528502180389057e-10 9.157633023854125e-10 6.63375053755174e-10 4.734916098935537e-10 7.077229452071823e-10 5.077069970857041e-10
          2.447942551180503e-10 1.3515267479646166e-10 1.8495875873479288e-10 3.1355355855298e-10 5.120024227381763e-10 7.999535238762818e-10
          1.0397765903858331e-10 1.4320660810341019e-10 7.896078674579212e-11 1.0926010427429264e-10 2.4538026508814227e-10 1.8895550547417759e-10
          5.867543803437999e-11 8.192646469355746e-11 4.314711881121742e-11 6.060464214463247e-11 1.4321317305606155e-10 1.0683039162553893e-10
          4.0553969363962953e-10 3.157089573264025e-10 6.421018342002772e-10 5.058821556515708e-10 2.415607275751683e-10 1.8168407559123602e-10
          3.911685297658295e-10 2.9688791527057875e-10 1.1742793903335252e-9 1.5721369710970572e-9 1.871550088780448e-9 1.979140539324785e-9
          9.553525990813448e-10 7.620262561339379e-10 1.2939155821303859e-9 1.043300527621073e-9 5.957674764569402e-10 4.5654699552242483e-10
          8.237539630010004e-10 6.368147740194681e-10 1.552146655445626e-9 1.2606788411512636e-9 1.6457180906638275e-9 1.340111153532358e-9
          1.0021592963502808e-9 7.795059203979799e-10 1.0678811604717304e-9 8.324699866701574e-10 3.142364676834053e-11 4.4255374707104505e-11
          2.2694698304666115e-11 3.190365526643325e-11 2.4378825400842643e-11 3.3688171838622956e-11 2.4214239320345096e-11 7.845590600866652e-11
          5.673579968460227e-11 5.82804887610267e-11 1.6133840889849315e-11 2.2630116600989098e-11 1.1380881216916598e-11 1.5733768479021576e-11
          1.2564559741897617e-11 1.7121130678169836e-11 1.3030453212335294e-11 4.045381325483734e-11 2.8263439409618475e-11 2.993017273626079e-11
          1.8617282567505115e-11 2.4848021301710705e-11 1.3134675516589765e-11 1.7696404008334193e-11 1.6203018409728313e-11 2.0866652550001938e-11
          1.4757505995985454e-11 4.208790246310003e-11 3.0323438153573945e-11 9.659836082556268e-12 1.2606173331355654e-11 8.496707744721978e-12
          1.0597554169490856e-11 8.489121963839914e-12 1.0675341535120174e-11 9.253352321634143e-12 2.146220261030172e-11 1.691323117229984e-11
          1.3435385719067346e-10 9.772267246427962e-11 9.733814942420167e-11 7.063279190974483e-11 2.2122745884305047e-10 1.618932053743486e-10
          1.5564328693810278e-10 6.997634305298719e-11 4.926330149032082e-11 5.054519998510489e-11 3.5509734766067634e-11 1.1636824913050026e-10
          8.217809165701255e-11 8.135262148272133e-11 2.4890957877262515e-11 7.886091793063913e-12 1.0772360103636739e-11 5.431493936594783e-12
          7.347844018946813e-12 7.077711625803497e-12 9.241263753862243e-12 6.3208870243283774e-12 1.936283369233929e-11 1.3120479365211643e-11
          1.59795287166774e-11 3.4032710092020494e-11 5.703549489823937e-11 3.4299378518372904e-10 2.5271344584451965e-10 2.3442323185138186e-10
          1.719017375413568e-10 4.820782957164973e-10 3.5748806585208204e-10 3.2278507807003257e-10 1.8267683476734521e-10 1.2379468932256924e-10
          2.598026731460662e-10 1.720699697462018e-10 5.933155915170256e-10 4.420545760884771e-10 3.941067015581536e-10 2.9155367517324845e-10
          6.348902492922958e-10 4.738598592006872e-10 4.2131597640555327e-10 3.2254618476570983e-10 2.1150931279947192e-10 3.462756464214057e-10
          2.2667057789836625e-10 2.9744603916571833e-10 1.9688027673999454e-10 3.5717015162828634e-10 9.329777653874989e-11 2.461924895685043e-10
          6.420558736124154e-11 1.3654411954340445e-10 1.303216622131845e-10 4.150136805004497e-11 1.8347684398411613e-10 2.384357758091927e-10
          1.7468001206068594e-10 9.213219019275983e-11 2.294726913828441e-10 1.0622498495677795e-10 6.912813381366539e-11 7.171923951275907e-11
          1.3155575164010608e-10 1.1168859300804013e-10 7.084730323052832e-11 1.2829098570464251e-10 4.797863358053649e-11 3.685011590340754e-11
          4.76158426735828e-11 1.232309843155728e-10 7.3901719912726e-11 3.8568040220037463e-11 5.806943392004628e-11 1.1193847498064264e-10
          2.8083919348687643e-11 6.727958875036754e-11 1.1107117957378594e-10 3.245746441526528e-11 2.466837565897157e-10 1.7448233541440649e-10
          1.6581135115944033e-10 2.8922448137857147e-10 2.385471398094368e-10 1.706326219348882e-10 1.506549068852578e-10 2.6148009752744764e-10
          9.302080913237974e-11 8.407846760810135e-11 3.453952414446001e-11 5.148058027029428e-11 7.581791746761441e-11 2.244241414311772e-10
          1.9306838143738297e-10 4.110457270082887e-10 7.352477807035661e-10 1.605621215844739e-10 1.2763094176317608e-9 1.7365956736167763e-10
          1.4892899856452226e-10 3.2283886993228206e-10 1.3169664679204954e-10 1.434949047499654e-10 2.493056599830645e-10 5.856462326923662e-10
          4.5802293569178586e-10 9.826313447383437e-11 9.458985607772914e-11 1.8894887792582562e-10 7.253650156753979e-11 1.408874262462003e-10
          3.5173407710100406e-10 2.6527761449758907e-10 1.2336042140215785e-10 1.0694411130074343e-10 1.1270917665649087e-10 1.0357460548335344e-9
          8.240507737234194e-10 1.4820481660110513e-9 1.2085543546925097e-9 2.4808333007997917e-9 2.0668208820629726e-9 9.65949738476314e-10
          1.6870291216911244e-9 6.425818856239269e-10 4.910836799361936e-10 7.563419771689092e-10 1.3476816040237874e-9 1.1311791951018512e-9
          8.78904778769283e-10 3.8132367312726145e-9 3.232814217309964e-9 2.692492238154897e-9 5.041730445306077e-9 4.295845473403549e-9
          3.622618899175118e-9 2.195723918750954e-9 1.8347379816922894e-9 1.451670059005494e-9 3.007854667474371e-9 2.5494837565034236e-9
          2.0515481129468645e-9 5.446844143879966e-9 4.636805585162002e-9 3.9242000007312245e-9 5.353829947259897e-9 4.557983648084211e-9
          3.857143626587784e-9 3.3015216913956893e-9 2.9149327063923025e-9 2.377957256782247e-9 3.263036198563995e-9 2.966233188849394e-9
          2.4345732988901796e-9 5.2803449030393564e-11 5.059091074307469e-11 1.0377044273799237e-10 4.383264471910541e-11 7.51252363993711e-11
          1.965036511832795e-10 1.4301649423255583e-10 3.626704047460016e-11 5.317706142617883e-11 2.5003343715243658e-11 3.7045320030859863e-11
          1.0231168881797469e-10 7.194451580256656e-11 3.678953145917984e-10 2.7027501074859496e-10 6.679194428355372e-10 4.96596747542578e-10
          1.9481351779418823e-10 1.3785017246914005e-10 3.6144202344396317e-10 2.577174628410315e-10 1.7053636973458787e-11 2.545069135281815e-11
          4.976239381991974e-11 9.580124853346155e-11 1.8014639502954075e-10 1.1214031575420968e-9 8.457021777847102e-10 1.6101954690761228e-9
          1.2320362672832464e-9 6.229375183322301e-10 4.485178607314777e-10 9.192196222473571e-10 1.891030633140352e-9 1.464952523613027e-9
          1.9473234199313554e-9 1.5169479508747797e-9 1.1055748520329831e-9 1.1507921896779705e-9 3.159252977707138e-10 1.7340705302643276e-10
          2.354742474157977e-10 1.350101892515876e-10 1.421767143396894e-10 1.815645765905258e-10 3.9435490994513274e-10 2.3687117152811255e-10
          2.995102830759365e-10 6.354471865073926e-10 3.796531909101721e-10 4.744706106154599e-10 9.785220394444895e-10 5.807270629002044e-10
          7.167500730062339e-10 8.037892461011346e-11 1.0952404007135713e-10 8.319824779268931e-11 1.8450513445916864e-10 1.415137992836003e-10
          4.531546047174496e-11 6.241072695160199e-11 4.62407739971265e-11 1.0690790611043888e-10 7.952907618991513e-11 2.9886457938096075e-10
          2.3141181929763993e-10 4.6235722007877036e-10 3.6164141385954334e-10 1.7624275028956197e-10 1.320422736490441e-10 2.7788042461255414e-10
          2.0978620010370685e-10 1.175910575930829e-9 1.4158832496540806e-9 1.6760536188589079e-9 8.358722030299818e-10 1.018955678459739e-9
          1.8728948556660954e-9 2.1900273105852207e-9 1.1056996672863052e-9 1.3337680120141406e-9 2.2123584306689975e-9 2.567126881789069e-9
          1.3135530775638358e-9 1.573558489421018e-9 2.3333755653546682e-9 2.700574413281004e-9 1.3907188684353764e-9 1.662031784729276e-9
          6.731153253604105e-10 5.319296798421924e-10 8.99203612614122e-10 7.170269876452019e-10 4.124681753425524e-10 3.1386349209924173e-10
          5.605072040766973e-10 4.2954588205144124e-10 1.0752735416797197e-9 8.62663444461986e-10 1.1410441140706606e-9 9.173893861612622e-10
          6.780913949453052e-10 5.222179085352363e-10 7.225195649869175e-10 5.574106826494333e-10 2.6270820662272437e-11 3.450741814586394e-11
          2.9307972591914335e-11 5.7601963270770745e-11 3.320885527367615e-11 1.690062953235653e-11 6.895776044693221e-11 9.383194499795364e-11
          4.9928902380965264e-11 4.760931688902668e-11 6.498533253996947e-11 3.440099367055739e-11 1.0702001676163939e-10 1.448563823110042e-10
          7.777848974916224e-11 3.559931138096473e-11 2.4402104012877154e-11 5.559942342218543e-11 1.5653032936298777e-10 2.1068178369446413e-10
          1.1429510240007149e-10 2.1053059786756432e-10 2.819610423893263e-10 1.5437260086230684e-10 8.203059080714237e-11 1.1117910680731796e-10
          2.538533783099335e-10 3.388317561422518e-10 1.8667885523503971e-10 2.7048466209101576e-10 3.605962093565921e-10 1.9911479500214548e-10
          1.3477592420148993e-10 1.4388269767973892e-10
        </DataArray>
        <DataArray type="Float64" Name="gradient_matprop_error" format="ascii" RangeMin="0" RangeMax="0">
          0 0 0 0 0 0
          0 0 0 0 0 0
          0 0 0 0 0 0
          0 0 0 0 0 0
          0 0 0 0 0 0
          0 0 0 0 0 0
          0 0 0 0 0 0
          0 0 0 0 0 0
          0 0 0 0 0 0
          0 0 0 0 0 0
          0 0 0 0 0 0
          0 0 0 0 0 0
          0 0 0 0 0 0
          0 0 0 0 0 0
          0 0 0 0 0 0
          0 0 0 0 0 0
          0 0 0 0 0 0
          0 0 0 0 0 0
          0 0 0 0 0 0
          0 0 0 0 0 0
          0 0 0 0 0 0
          0 0 0 0 0 0
          0 0 0 0 0 0
          0 0 0 0 0 0
          0 0 0 0 0 0
          0 0 0 0 0 0
          0 0 0 0 0 0
          0 0 0 0 0 0
          0 0 0 0 0 0
          0 0 0 0 0 0
          0 0 0 0 0 0
          0 0 0 0 0 0
          0 0 0 0 0 0
          0 0 0 0 0 0
          0 0 0 0 0 0
          0 0 0 0 0 0
          0 0 0 0 0 0
          0 0 0 0 0 0
          0 0 0 0 0 0
          0 0 0 0 0 0
          0 0 0 0 0 0
          0 0 0 0 0 0
          0 0 0 0 0 0
          0 0 0 0 0 0
          0 0 0 0 0 0
          0 0 0 0 0 0
          0 0 0 0 0 0
          0 0 0 0 0 0
          0 0 0 0 0 0
          0 0 0 0 0 0
          0 0 0 0 0 0
          0 0 0 0 0 0
          0 0 0 0 0 0
          0 0 0 0 0 0
          0 0 0 0 0 0
          0 0 0 0 0 0
          0 0 0 0 0 0
          0 0 0 0 0 0
          0 0 0 0 0 0
          0 0 0 0 0 0
          0 0 0 0 0 0
          0 0 0 0 0 0
          0 0 0 0 0 0
          0 0 0 0 0 0
          0 0 0 0 0 0
          0 0 0 0 0 0
          0 0 0 0 0 0
          0 0 0 0 0 0
          0 0 0 0 0 0
          0 0 0 0 0 0
          0 0 0 0 0 0
          0 0 0 0 0 0
          0 0 0 0 0 0
          0 0 0 0 0 0
          0 0 0 0 0 0
          0 0 0 0 0 0
          0 0 0 0 0 0
          0 0 0 0 0 0
          0 0 0 0 0 0
          0 0 0 0 0 0
          0 0 0 0 0 0
          0 0 0 0 0 0
          0 0 0 0 0 0
          0 0 0 0 0 0
          0 0 0 0 0 0
          0 0 0 0 0 0
          0 0 0 0 0 0
          0 0 0 0 0 0
          0 0 0 0 0 0
          0 0 0 0 0 0
          0 0 0 0 0 0
          0 0 0 0 0 0
          0 0 0 0 0 0
          0 0 0 0 0 0
          0 0 0 0 0 0
          0 0 0 0 0 0
          0 0 0 0 0 0
          0 0 0 0 0 0
          0 0 0 0 0 0
          0 0 0 0 0 0
          0 0 0 0 0 0
          0 0 0 0 0 0
          0 0 0 0 0 0
          0 0 0 0 0 0
          0 0 0 0 0 0
          0 0 0 0 0 0
          0 0 0 0 0 0
          0 0 0 0 0 0
          0 0 0 0 0 0
          0 0 0 0 0 0
          0 0 0 0 0 0
          0 0 0 0 0 0
          0 0 0 0 0 0
          0 0 0 0 0 0
          0 0 0 0 0 0
          0 0 0 0 0 0
          0 0 0 0 0 0
          0 0 0 0 0 0
          0 0 0 0 0 0
          0 0 0 0 0 0
          0 0 0 0 0 0
          0 0 0 0 0 0
          0 0
        </DataArray>
        <DataArray type="Float64" Name="initial_marker" format="ascii" RangeMin="0" RangeMax="2">
          0 2 0 0 0 0.25
          2 2 2 2 0 0
          0 0 0 0 0 0
          0.5 2 2 2 2 2
          2 2 2 2 2 2
          2 2 2 2 2 2
          2 2 2 2 2 2
          2 2 2 2 2 2
          2 2 2 2 0.5 2
          0 2 2 2 2 2
          0 2 0 1.5 0 0.5
          2 0 1 0 0 0
          0 0 2 2 0 0
          0 0 0 0 0 0
          0 0 0 0 0 0
          2 2 1.5 1.3333333333333333 2 2
          2 2 2 2 2 2
          2 2 2 2 2 2
          2 2 2 2 2 2
          2 2 2 2 2 2
          2 2 2 2 2 2
          2 2 2 2 2 2
          2 2 2 2 2 2
          2 2 2 2 2 2
          2 2 2 2 2 2
          2 2 2 2 2 2
          2 2 2 2 2 2
          2 2 2 2 2 2
          2 2 2 2 2 2
          2 2 2 2 2 2
          2 2 2 2 2 2
          2 2 2 2 2 2
          2 2 2 2 2 2
          2 2 2 2 2 2
          2 2 2 2 2 2
          2 2 2 2 2 2
          2 2 2 2 2 2
          2 2 2 2 2 2
          2 2 2 2 2 2
          2 2 2 2 2 2
          2 2 2 2 2 2
          2 2 2 2 2 2
          2 2 2 2 2 2
          2 2 2 2 2 2
          2 1.5 1.75 1.5 2 2
          2 2 2 1.5 1.75 1
          1.5 1.25 2 2 2 2
          2 2 2 2 2 2
          2 2 2 2 2 2
          2 2 2 2 2 2
          2 1.5 1.75 1.5 2 0.5
          1.25 0 1 0 1 1
          2 2 2 2 2 2
          2 2 2 2 2 2
          2 2 2 2 2 2
          2 2 2 2 2 2
          2 2 2 2 2 2
          2 2 2 2 2 2
          2 2 2 2 2 2