<?xml version="1.0"?>
<VTKFile type="UnstructuredGrid" version="0.1" byte_order="LittleEndian" header_type="UInt32" compressor="vtkZLibDataCompressor">
  <UnstructuredGrid>
    <Piece NumberOfPoints="768" NumberOfCells="409">
      <PointData>
        <DataArray type="Int32" Name="libmesh_node_id" format="ascii" RangeMin="0" RangeMax="7335">
          0 1 2 3 4 5
          6 7 8 9 10 11
          12 13 14 15 16 17
          18 19 20 21 22 23
          24 25 26 27 28 29
          30 31 32 33 34 35
          36 37 38 39 40 41
          42 43 108 109 110 111
          112 113 114 115 116 117
          118 119 120 121 122 123
          124 125 126 127 128 129
          162 163 164 165 166 167
          168 169 170 171 172 173
          174 175 176 177 178 179
          180 181 182 183 216 217
          218 219 220 221 222 223
          224 225 226 243 244 245
          246 247 248 249 250 251
          252 253 254 255 256 257
          258 259 260 261 262 263
          264 297 298 299 300 301
          302 303 304 305 306 307
          324 325 326 327 328 329
          330 331 332 333 334 335
          336 337 338 339 340 341
          378 379 380 381 382 383
          384 385 386 405 406 407
          408 409 410 411 412 413
          414 415 416 417 418 419
          420 421 422 459 460 461
          462 463 464 465 466 467
          486 487 488 489 490 491
          492 493 494 495 496 497
          498 499 500 501 502 503
          540 541 542 543 544 545
          546 547 548 567 568 569
          570 571 572 573 574 575
          576 577 578 579 580 581
          582 583 584 621 622 623
          624 625 626 627 628 629
          6474 6475 6476 6477 6478 6479
          6480 6481 6482 6483 6484 6485
          6486 6487 6488 6489 6490 6491
          6492 6493 6494 6495 6496 6497
          6498 6499 6500 6501 6502 6503
          6504 6505 6506 6507 6508 6509
          6510 6511 6512 6513 6514 6515
          6516 6517 6518 6519 6520 6521
          6522 6523 6524 6525 6526 6527
          6528 6529 6530 6531 6532 6533
          6534 6535 6536 6537 6538 6539
          6540 6541 6542 6543 6544 6545
          6546 6547 6548 6549 6550 6551
          6552 6553 6554 6555 6556 6557
          6558 6559 6560 6561 6562 6563
          6564 6565 6566 6567 6568 6569
          6570 6571 6572 6573 6574 6575
          6576 6577 6578 6579 6580 6581
          6582 6583 6584 6585 6586 6587
          6588 6589 6590 6638 6639 6640
          6641 6642 6643 6644 6645 6646
          6647 6648 6649 6650 6651 6652
          6653 6654 6655 6656 6657 6658
          6659 6660 6661 6662 6663 6664
          6665 6666 6667 6668 6669 6670
          6671 6730 6731 6732 6733 6736
          6740 6741 6742 6760 6761 6762
          6763 6764 6765 6766 6767 6768
          6769 6770 6771 6772 6773 6774
          6775 6776 6777 6778 6779 6780
          6781 6782 6783 6784 6788 6789
          6793 6820 6821 6822 6823 6824
          6825 6826 6827 6828 6829 6830
          6831 6832 6833 6834 6835 6836
          6837 6838 6839 6840 6841 6842
          6843 6844 6845 6846 6847 6848
          6849 6850 6851 6852 6853 6854
          6855 6856 6857 6858 6859 6860
          6861 6862 6863 6864 6865 6866
          6867 6868 6869 6870 6871 6872
          6873 6874 6875 6876 6877 6878
          6879 6880 6881 6882 6883 6884
          6885 6886 6887 6888 6889 6890
          6891 6892 6893 6894 6895 6896
          6897 6898 6899 6900 6901 6902
          6903 6904 6905 6906 6907 6908
          6909 6910 6911 6912 6913 6914
          6915 6916 6917 6918 6919 6920
          6921 6922 6923 6924 6925 6926
          6927 6928 6929 6930 6931 6932
          6933 6934 6935 6936 6937 6938
          6939 6940 6941 6942 6943 6944
          6945 6946 6947 6948 6949 6950
          6951 6952 6953 6954 6955 6956
          6957 6958 6959 6960 6961 6962
          6963 6964 6965 6966 6967 6968
          6969 6970 6971 6972 6973 6974
          6975 6976 6977 6978 6979 6980
          6981 6982 6983 6984 6985 6986
          6987 6988 6989 6990 6991 6992
          6993 6994 6995 6996 6997 6998
          6999 7000 7001 7002 7003 7004
          7005 7006 7007 7008 7009 7010
          7011 7012 7013 7014 7015 7016
          7017 7018 7019 7023 7024 7025
          7027 7028 7030 7045 7046 7049
          7051 7052 7054 7065 7066 7069
          7070 7072 7074 7276 7277 7278
          7279 7280 7281 7282 7283 7284
          7285 7286 7287 7288 7289 7290
          7291 7292 7293 7294 7295 7296
          7297 7298 7299 7300 7301 7302
          7303 7304 7305 7306 7307 7308
          7309 7310 7311 7312 7313 7314
          7315 7316 7317 7318 7319 7320
          7321 7322 7323 7324 7325 7326
          7327 7328 7329 7330 7331 7332
          7333 7334 7335 44 45 46
          47 130 131 184 185 227
          265 266 308 342 343 344
          345 346 347 387 388 389
          423 424 468 505 549 6592
          6598 6594 6599 6734 6735 6737
          6738 6739 6743 6591 6595 6785
          6786 6600 6787 6790 6604 6791
          6792 630 7020 7021 7022 7026
          6593 7029 7047 7048 7050 6601
          7053 6602 7067 7068 7071 7073
        </DataArray>
        <DataArray type="Float64" Name="bounds" format="ascii" RangeMin="0" RangeMax="0">
          0 0 0 0 0 0
          0 0 0 0 0 0
          0 0 0 0 0 0
          0 0 0 0 0 0
          0 0 0 0 0 0
          0 0 0 0 0 0
          0 0 0 0 0 0
          0 0 0 0 0 0
          0 0 0 0 0 0
          0 0 0 0 0 0
          0 0 0 0 0 0
          0 0 0 0 0 0
          0 0 0 0 0 0
          0 0 0 0 0 0
          0 0 0 0 0 0
          0 0 0 0 0 0
          0 0 0 0 0 0
          0 0 0 0 0 0
          0 0 0 0 0 0
          0 0 0 0 0 0
          0 0 0 0 0 0
          0 0 0 0 0 0
          0 0 0 0 0 0
          0 0 0 0 0 0
          0 0 0 0 0 0
          0 0 0 0 0 0
          0 0 0 0 0 0
          0 0 0 0 0 0
          0 0 0 0 0 0
          0 0 0 0 0 0
          0 0 0 0 0 0
          0 0 0 0 0 0
          0 0 0 0 0 0
          0 0 0 0 0 0
          0 0 0 0 0 0
          0 0 0 0 0 0
          0 0 0 0 0 0
          0 0 0 0 0 0
          0 0 0 0 0 0
          0 0 0 0 0 0
          0 0 0 0 0 0
          0 0 0 0 0 0
          0 0 0 0 0 0
          0 0 0 0 0 0
          0 0 0 0 0 0
          0 0 0 0 0 0
          0 0 0 0 0 0
          0 0 0 0 0 0
          0 0 0 0 0 0
          0 0 0 0 0 0
          0 0 0 0 0 0
          0 0 0 0 0 0
          0 0 0 0 0 0
          0 0 0 0 0 0
          0 0 0 0 0 0
          0 0 0 0 0 0
          0 0 0 0 0 0
          0 0 0 0 0 0
          0 0 0 0 0 0
          0 0 0 0 0 0
          0 0 0 0 0 0
          0 0 0 0 0 0
          0 0 0 0 0 0
          0 0 0 0 0 0
          0 0 0 0 0 0
          0 0 0 0 0 0
          0 0 0 0 0 0
          0 0 0 0 0 0
          0 0 0 0 0 0
          0 0 0 0 0 0
          0 0 0 0 0 0
          0 0 0 0 0 0
          0 0 0 0 0 0
          0 0 0 0 0 0
          0 0 0 0 0 0
          0 0 0 0 0 0
          0 0 0 0 0 0
          0 0 0 0 0 0
          0 0 0 0 0 0
          0 0 0 0 0 0
          0 0 0 0 0 0
          0 0 0 0 0 0
          0 0 0 0 0 0
          0 0 0 0 0 0
          0 0 0 0 0 0
          0 0 0 0 0 0
          0 0 0 0 0 0
          0 0 0 0 0 0
          0 0 0 0 0 0
          0 0 0 0 0 0
          0 0 0 0 0 0
          0 0 0 0 0 0
          0 0 0 0 0 0
          0 0 0 0 0 0
          0 0 0 0 0 0
          0 0 0 0 0 0
          0 0 0 0 0 0
          0 0 0 0 0 0
          0 0 0 0 0 0
          0 0 0 0 0 0
          0 0 0 0 0 0
          0 0 0 0 0 0
          0 0 0 0 0 0
          0 0 0 0 0 0
          0 0 0 0 0 0
          0 0 0 0 0 0
          0 0 0 0 0 0
          0 0 0 0 0 0
          0 0 0 0 0 0
          0 0 0 0 0 0
          0 0 0 0 0 0
          0 0 0 0 0 0
          0 0 0 0 0 0
          0 0 0 0 0 0
          0 0 0 0 0 0
          0 0 0 0 0 0
          0 0 0 0 0 0
          0 0 0 0 0 0
          0 0 0 0 0 0
          0 0 0 0 0 0
          0 0 0 0 0 0
          0 0 0 0 0 0
          0 0 0 0 0 0
          0 0 0 0 0 0
          0 0 0 0 0 0
          0 0 0 0 0 0
          0 0 0 0 0 0
          0 0 0 0 0 0
        </DataArray>
        <DataArray type="Float64" Name="gradient_error" format="ascii" RangeMin="2.1129863730512406e-12" RangeMax="0.000002831266574697769">
          4.6134323828781403e-10 4.364571870401056e-10 2.6207232016377297e-10 2.7760300668133424e-10 1.3311500708074635e-9 1.2510627492226933e-9
          7.408790888183764e-10 7.896710400901274e-10 3.813905437390192e-10 2.2609008433112532e-10 1.070496808557407e-9 6.272926789227029e-10
          3.2170413837824496e-10 1.83957097280677e-10 8.70452447385986e-10 4.94783030238134e-10 2.439009022323722e-10 1.3483420258064292e-10
          6.301656244198131e-10 3.48073071769665e-10 1.3574332899666917e-10 7.724766188739075e-11 3.3337303232533065e-10 1.901633702787908e-10
          1.0191731515392225e-10 5.833955419772482e-11 2.6850699898163635e-10 1.5248940861118776e-10 2.181749748058429e-10 1.1333705808857899e-10
          5.930256152412794e-10 3.0724381226649125e-10 2.8383312962166064e-10 1.439807148424911e-10 7.524660505973447e-10 3.81817936405161e-10
          1.6153200747671873e-10 8.182249692488499e-11 4.240954756932635e-10 2.1536523297865707e-10 5.1375500184511936e-11 2.7518063914520347e-11
          1.3145890437822753e-10 7.128863406907591e-11 8.768745328744025e-11 9.38627750748544e-11 2.306954284140597e-10 2.4819200937279134e-10
          7.078962492323144e-11 1.8408854928799853e-10 4.6210056183109025e-11 1.1911361309028183e-10 2.5767502928913602e-11 6.598051911951701e-11
          1.875199477811233e-11 4.695370823225088e-11 1.4761793241527398e-11 3.647181824073926e-11 8.499141371315084e-12 2.1462009291703077e-11
          4.128300063321503e-12 1.1169822212977403e-11 2.1129863730512406e-12 6.6349902640506384e-12 3.66062764452876e-12 1.1118363759924279e-11
          5.711290478051236e-9 5.3246874206463596e-9 3.1573437979195243e-9 3.3914650708220995e-9 4.444477462372396e-9 2.6116151101259544e-9
          3.4679567708042693e-9 1.983225910462329e-9 2.369535292471243e-9 1.3217189203636774e-9 1.2061780424304639e-9 6.978965098739404e-10
          1.1460817993904791e-9 6.457370113824815e-10 2.5192333782923993e-9 1.3040290576464202e-9 3.0688241048410582e-9 1.560461884286631e-9
          1.7083329979627647e-9 8.730328652761134e-10 5.099492296962833e-10 2.8376275308292593e-10 9.900001751926884e-10 1.071639663592962e-9
          7.787527578795133e-10 4.984950501203884e-10 2.7390254825611177e-10 1.8961497731741684e-10 1.453922233744841e-10 8.882473700044138e-11
          5.209966373220372e-11 3.7732732589461767e-11 5.757627646956856e-11 2.3615547823064594e-8 2.183588932950856e-8 1.3034070621674263e-8
          1.4111256111957305e-8 1.7764293243047902e-8 1.0524869350647734e-8 1.327121095008871e-8 7.67694393517936e-9 8.484439546173261e-9
          4.811098648061973e-9 4.246847332495529e-9 2.508617418651743e-9 4.9487244881374955e-9 2.7680126955902545e-9 1.0529707477689718e-8
          5.453457152557868e-9 1.2280116959229903e-8 6.265661027730123e-9 6.74088720503142e-9 3.47557326268512e-9 1.9296945194603644e-9
          1.1111530883049993e-9 4.2322519138399645e-9 4.6069644008500155e-9 3.2854454582475605e-9 2.0826769202700075e-9 1.1377577499506844e-9
          7.703875048079571e-10 5.873009030430138e-10 3.772068274260173e-10 2.5120509623034464e-10 2.1025932033881988e-10 2.9261165714963424e-10
          9.66662139926035e-8 8.864389333824783e-8 5.332622908607343e-8 5.8182614380442315e-8 7.02462679525467e-8 4.203246466998574e-8
          5.008965291284206e-8 2.9389636455365078e-8 2.9672105537604863e-8 1.720472990111184e-8 1.520660432176966e-8 9.184609057690073e-9
          2.180504650765668e-8 1.2111077039626368e-8 4.382681860286413e-8 2.2736420495036072e-8 4.898868518561701e-8 2.510721570734963e-8
          1.800856483389902e-8 1.9699014768281122e-8 1.381866138742481e-8 8.6896199978881e-9 4.737354264618819e-9 3.162613793610486e-9
          2.417107571596056e-9 1.6460223872080094e-9 1.225746229082261e-9 3.5888395570625596e-7 3.235613745348596e-7 1.9527379171106326e-7
          2.1658206526928085e-7 2.42497820016902e-7 1.4585142543619942e-7 1.5478636786507457e-7 9.151443359444156e-8 8.02675548760697e-8
          4.6417029388613e-8 6.712396045080116e-8 3.684572842356035e-8 1.2984321246332814e-7 6.722640780122214e-8 2.1428576076815445e-7
          1.0872382587609249e-7 1.5759744204391934e-7 7.606413484217007e-8 6.698620888726696e-8 7.428017483230577e-8 4.920503085549683e-8
          2.824249932380855e-8 1.256650390115632e-8 6.5674963963195455e-9 4.609603139116121e-9 3.1618909840305434e-9 2.869835403870243e-9
          0.0000013206183741890684 0.0000013072414359115921 5.778254313698734e-7 6.003090413085025e-7 0.0000012706664911252203 5.279510555733287e-7
          0.0000011928062495183369 7.308143849024055e-7 0.00000113898029955443 6.851388454140186e-7 0.00000115100105155004 3.9700533014665225e-7
          0.0000012131822086703676 3.980272346858559e-7 0.0000012729131897051164 4.033601164447919e-7 7.229194296422612e-7 3.407641856231311e-7
          1.0677005000700462e-7 1.092574974367312e-7 1.0075082130099868e-7 6.369109256174002e-7 6.084566022745947e-7 9.561743402739161e-9
          8.816679081784736e-9 8.062505540946083e-9 7.3257440624738746e-9 0.0000022829912063572803 0.000002412619634907252 0.0000015787633836268733
          0.0000015594463264089964 0.000002660375386453345 0.0000016102795264791199 2.462708072454411e-7 0.000002087781665104683 2.639935766092341e-7
          0.0000021354245709271994 3.0159441928972935e-7 4.673051065931549e-7 3.438372492306855e-7 4.469433220308899e-7 3.9331621317915446e-7
          4.079259237784208e-7 4.5482503460648866e-7 3.6237378381595625e-7 2.586115599887436e-7 2.348608641622246e-7 3.1468854939036953e-7
          0.0000013452460454048346 0.0000012690163712008275 2.8749738031802605e-8 3.6038551168032406e-8 4.4794207474960345e-8 4.809331370845287e-8
          0.0000020876197902268085 0.0000017259396231072116 0.0000017210462067677033 0.000002180891499857379 0.0000022038236751250792 0.000002056090865238978
          0.0000020381294757947976 0.000001738037172530756 0.0000022610897361040413 0.0000021008902561173876 8.581581850783206e-7 0.0000012116347831170378
          0.0000012102620930462773 0.0000012147729908058287 0.000002320027560023349 0.0000023862421073707447 0.0000023552127448218926 0.0000024637433397040195
          0.0000015651113811557551 0.000002138358040075031 0.0000017539252732914633 0.000002334376445462276 0.0000021580116619592053 0.0000017703458257289933
          0.000002414403014970174 0.000002220182769728955 8.415665914023921e-7 0.0000012181634298893696 0.0000012208443561693962 0.00000253039485084952
          0.000002562098050626947 0.0000026700197137289164 0.0000015947602683763476 0.000002174931673591561 0.0000017729160941871313 0.0000018628909825089777
          0.0000019573512132688877 0.0000017590515191707883 0.000001288496265548071 0.0000016775860912990446 8.190036570766316e-7 0.0000012176456726084135
          0.0000015021826674664122 0.0000015284811643989846 0.0000021483833644737606 0.0000015982004023900618 0.0000016162876881401953 0.0000021499145995592036
          0.0000017507330038844508 0.0000013011625945356962 0.0000016913456325243648 0.000001750020014146335 0.0000013209803703534021 0.000001707667163333516
          0.000001351551408209698 0.0000020914089914537336 0.0000015200291979765235 2.5052659154426057e-7 0.000001634688387020852 0.0000016693536599679738
          0.000002831266574697769 0.0000021780655899395492 0.0000017414601102886368 0.0000013418135473911426 0.0000013966963893807786 0.0000017254913839935063
          0.0000013632109974317008 0.000001087760682641668 7.636488863978375e-7 9.101106211794153e-7 5.841886945347455e-7 2.7862017617241143e-7
          0.000001080368170872063 4.905720555822037e-7 0.0000010807216739038484 0.0000022000016293940435 0.000001711772091011932 0.000001383690675822115
          0.0000010917140829592086 0.0000016994386600246847 0.0000014026625428244455 0.000001095712143330356 7.061963990982132e-7 5.681414514797707e-7
          5.467856136956582e-7 3.2185961222483385e-7 5.160908134726308e-7 5.430183995748485e-7 4.631238536060634e-7 0.000002198699708381529
          0.00000168261980104902 0.0000014205807774737007 0.0000010980331641356821 0.00000165990237857937 0.0000014369919236097032 0.0000010980764517059994
          6.547644587913366e-7 5.232820612627102e-7 4.977943334750008e-7 3.676363242467812e-7 5.719076569131255e-7 6.02915617166392e-7
          4.282893036418741e-7 0.0000021682532531151615 0.000001630170915988014 0.0000014514822769992762 0.0000010953936739407209 7.590772307113221e-7
          0.0000010188266523749114 8.564979972213725e-7 5.94693122092123e-7 4.703044083384964e-7 4.387537894488775e-7 4.2083742265867343e-7
          6.361674013761743e-7 6.716730082492909e-7 3.859465271594859e-7 2.2789411297898326e-7 2.3036730160820832e-7 3.43730172859427e-7
          3.4676345922753244e-7 2.2188864661766296e-7 3.362621439942574e-7 1.0373131178894025e-7 1.725488348376557e-7 1.6837018409472644e-7
          1.8366908250759085e-7 4.595662327398707e-7 4.631596168468565e-7 4.5063564137085186e-7 2.413663578863712e-7 2.1482146680552178e-7
          3.271613436761265e-7 2.0798774726991274e-7 3.1788976397098673e-7 1.1600225731415514e-7 1.9964270602964848e-7 2.2005334009091698e-7
          4.395012205467313e-7 4.277917806720608e-7 2.8328315474514186e-7 2.020598176762762e-7 3.1013397544485133e-7 1.9943070553820272e-7
          3.0698370880278883e-7 1.3701283598199062e-7 2.4432305789822204e-7 2.572141682393103e-7 4.1820813321342635e-7 4.1453671206737495e-7
          3.516332798144535e-7 4.042977679523051e-8 2.6448268538793455e-8 3.5009845018360035e-8 6.158635338748821e-8 5.246185820789188e-8
          1.24667602823564e-8 4.2502211731561204e-8 4.333736302829555e-8 7.78715213824963e-8 8.917099278991567e-8 1.77809831512656e-7
          1.9204650141735194e-7 6.62439145195159e-8 1.624751498401242e-7 1.2754018898830971e-8 2.6958314246838123e-8 2.4172459496992367e-8
          2.86381461525721e-8 2.7774814164281573e-7 2.949220100447882e-7 2.587063851607325e-7 4.116260959484527e-8 5.44090409304934e-8
          1.4625144058759942e-7 4.4584324064545513e-8 1.3032448782304113e-7 1.1520416537607476e-8 2.9301727766260493e-8 2.9520100637232866e-8
          2.3809384024470543e-7 2.1606465158153672e-7 4.708303899491351e-8 3.733821470160475e-8 1.1082545817994555e-8 2.9432969889385312e-8
          4.778339396077607e-8 3.923435448444401e-7 3.8103454338151447e-7 3.5849413912695463e-7 3.511950284926425e-7 3.409088145397969e-7
          3.591269996297627e-7 3.5390660773636666e-7 4.1357771161242926e-7 3.3403498916216835e-7 3.70735490135446e-7 3.6972554191858885e-7
          3.7734518471972853e-7 3.5661818698009077e-7 4.0743599110872363e-7 2.894740842351536e-7 3.3721945587801093e-7 3.493190763457787e-7
          3.2789326865846277e-7 3.8496482752086826e-7 4.3920045435233693e-7 4.2996441461466014e-7 3.420256903875185e-7 3.8252055410659217e-7
          4.4253026857148847e-7 3.5146859052822476e-7 3.93424332007793e-7 4.2072837487698346e-7 4.2301541782566594e-7 4.3538007348736124e-7
          2.448509264227e-7 3.350766935985242e-7 3.443183954440976e-7 4.253024607743484e-7 4.6535319033650136e-7 4.549807695604058e-7
          3.612949985717832e-7 4.045751604319505e-7 4.6795469242914615e-7 3.7121542786905966e-7 4.163634405228719e-7 4.446083487843102e-7
          4.478553222921178e-7 4.615114531766842e-7 2.57236806807065e-7 3.541695513034952e-7 3.6477218861659763e-7 4.511022957999254e-7
          4.918273679405572e-7 4.818458560600054e-7 3.8106121917559403e-7 4.291732675980818e-7 4.952483514410758e-7 3.9209084050757374e-7
          4.4021763608994374e-7 4.718643441794537e-7 4.772853160205696e-7 4.5955192510940474e-7 2.702950704106308e-7 3.7650067913615826e-7
          3.8518692073881164e-7 4.827062878616857e-7 5.198427736772409e-7 5.081471280983358e-7 4.050698081415406e-7 4.4877629128113364e-7
          5.225590377691938e-7 4.1823068231344935e-7 4.5942630585737434e-7 4.323162915338889e-7 4.5514711060430104e-7 4.703010184360166e-7
          2.9029684260584035e-7 3.894054544639315e-7 3.9629357394555495e-7 4.779779296747132e-7 5.507199539468036e-7 5.377892947983299e-7
          4.311413617357091e-7 4.7270326849947546e-7 5.530575973244376e-7 4.446196672375101e-7 4.866219152296042e-7 4.6161753760551033e-7
          4.824452302691649e-7 4.938734441895579e-7 3.115627695246145e-7 4.0761724220062107e-7 4.201862331347707e-7 5.032729229328195e-7
          5.848070267377879e-7 5.688688257926127e-7 4.587131839442042e-7 5.011356403615775e-7 5.853272196452397e-7 4.734573157552439e-7
          5.162713059917913e-7 4.817184837202877e-7 5.05520211781797e-7 5.175020131054379e-7 3.326193411506205e-7 4.3340245493054215e-7
          4.4721539233834293e-7 5.293219398433062e-7 6.222772351577096e-7 6.025426394099e-7 4.88892198318115e-7 5.320827278485592e-7
          6.205618731831479e-7 5.05049085406327e-7 5.486045609739723e-7 5.025571753083251e-7 5.298821729997183e-7 5.426770920677347e-7
          3.5550716147852063e-7 4.616228162872183e-7 4.766472487647967e-7 5.572071706911113e-7 6.636853325482385e-7 6.394335687678015e-7
          5.219633056141968e-7 5.658751932532885e-7 6.592556982153979e-7 5.396901948866902e-7 5.839518418791199e-7 5.246664691246744e-7
          5.559024904765689e-7 5.695830709995105e-7 3.802412786801552e-7 4.923168177387754e-7 5.086479855428418e-7 5.871385118284631e-7
          3.511383762271795e-7 3.487484042108231e-7 4.037658635413564e-7 3.9947472063951177e-7 3.533608850698894e-7 4.0795163281909255e-7
          2.681256191923747e-7 3.0551382702195525e-7 3.0575529368517165e-7 3.04950612510714e-7 4.5639335085553314e-7 4.502010370682004e-7
          4.6254238056829586e-7 3.429020348515358e-7 7.097205814040941e-7 6.801351976503235e-7 5.58283708229115e-7 6.028932128180215e-7
          7.021292985992973e-7 5.777743617710323e-7 6.227393797160742e-7 5.482339002908691e-7 5.837432731470776e-7 5.98391916634801e-7
          4.068468350541359e-7 5.256512279857196e-7 5.43349460832851e-7 6.19252646003286e-7 7.610921481230475e-7 7.253053340446393e-7
          5.981884652442812e-7 6.435337020566335e-7 6.028044570612558e-7 6.135979032676288e-7 6.611502941967454e-7 5.733994540072515e-7
          6.135386136750676e-7 6.281484020846522e-7 4.3528478236551457e-7 5.617620700686278e-7 5.831178735524089e-7 6.536777733428837e-7
          3.5539700675018575e-7 4.120126671205179e-7 3.5720615757344685e-7 4.159185079291721e-7 2.6487602681518616e-7 3.040415053538087e-7
          3.0275758024985836e-7 4.6862832749085004e-7 4.7463085828489725e-7 3.4320698389243124e-7 3.5874094206077046e-7 4.1963496944328265e-7
          3.6003433845041124e-7 4.231788897695917e-7 2.6020149607326924e-7 3.0107165040541616e-7 2.987636604957414e-7 4.805289968257947e-7
          4.863234410887721e-7 3.4194180473756303e-7 2.060046179555524e-7 1.8841896402192808e-7 2.1441800041696677e-7 3.0832437746509837e-7
          3.066897158812441e-7 2.726851911546047e-7 2.72232970959285e-7 1.708333100883038e-7 2.386806664279653e-7 2.361415644534716e-7
          5.858147281977117e-7 5.492573227645127e-7 4.985410777243936e-7 6.228213892587812e-7 6.749885321647358e-7 6.42350758790386e-7
          4.813881359290748e-7 6.084138370877275e-7 6.901539123779951e-7 3.611628912602722e-7 4.265841486995242e-7 2.521023840099912e-7
          2.956224548889667e-7 4.920054061387762e-7 3.391425257679422e-7 1.3417909176556112e-7 1.521428866978369e-7 2.3134384625049203e-7
          2.497321458014447e-7 1.1058855199664436e-7 2.112569776769886e-7 4.5915041373171774e-8 8.621655228955202e-8 1.4904978370005588e-7
          1.991337957759767e-8 3.2850860073542293e-7 3.473214049050524e-7 3.119254033573329e-7 1.2651806320593228e-7 9.984411687182993e-8
          2.0420788799935873e-7 1.0837988177054427e-8 1.9462306632141758e-8 3.0857165912688755e-7 2.8086625087229086e-8 3.222103729302499e-7
          3.156298092017452e-7 3.678788442926059e-7 3.648053959108441e-7 3.3096737025194153e-7 3.728988168925892e-7 2.7623964531215274e-7
          3.1794624179733655e-7 3.2764387983810154e-7 3.0581752631444456e-7 4.135473156549619e-7 4.1398098261994296e-7 4.148302635332368e-7
          3.596528382825204e-7 3.3475568997606e-7 3.7711616570460186e-7 3.378464959851958e-7 3.816381947291316e-7 2.7113494039095567e-7
          3.036070461341159e-7 3.041536643008457e-7 4.194766414331437e-7 4.2542989347306737e-7 3.3607915187727607e-7 3.407457904670377e-7
          3.861494532846085e-7 3.4353297384415287e-7 3.906475966330596e-7 2.7098523834093765e-7 3.048165797845737e-7 3.053764632835821e-7
          4.315531161021792e-7 4.377622194219663e-7 3.3864792122820985e-7 3.462063388840223e-7 3.9509531717128244e-7 2.7010637081348503e-7
          3.0569954572213173e-7 4.439842954585425e-7 3.412927206307784e-7 3.042715488080928e-11 1.8587625475789315e-11 7.435926108139462e-11
          4.6622705052474335e-11 6.748096070769352e-12 1.8886149023554044e-11 2.809295774369247e-10 1.841380662440761e-10 8.734655505122756e-11
          1.062148118175419e-9 7.317787960710338e-10 4.0140947396664834e-10 2.64721857216392e-8 1.3797056452658317e-8 7.243798738711143e-9
          4.346669730828185e-9 4.143229317063152e-9 2.9872549055832957e-9 1.1219271836774344e-9 1.4495407229452269e-9 1.8312804941034391e-9
          3.280060664827857e-8 1.3623376975975538e-8 2.7703027939048517e-9 2.5763163617821877e-7 6.919619286732588e-9 3.133094440229682e-7
          3.6671251619359653e-7 6.269552529505564e-7 4.030767495975119e-7 5.366716520204227e-8 4.808468846680174e-8 1.5084453721093515e-8
          4.536276851127712e-8 4.429679052437612e-8 4.3230812537475126e-8 1.1319443472853187e-7 2.9610165950400196e-7 1.1504201485431415e-7
          2.898024500519238e-8 3.6891209348393063e-7 9.864089284978217e-8 2.8069178853366724e-8 3.373728500980579e-7 1.9274581500702353e-7
          1.6830154069437195e-7 4.595208052337687e-8 1.5463693666782684e-7 3.0349507760967406e-7 2.720091761816072e-7 2.405232747535402e-7
          6.078170587710886e-7 5.706234742312056e-7 6.377545197197988e-7 6.930608491698055e-7 6.579052373305889e-7 5.07380761268559e-7
          6.342561655725875e-7 7.095314656772875e-7 3.6197705377076257e-7 4.297307332905822e-7 2.9201817053979887e-7 4.974844128104018e-7
        </DataArray>
        <DataArray type="Float64" Name="gradient_matprop_error" format="ascii" RangeMin="0" RangeMax="0">
          0 0 0 0 0 0
          0 0 0 0 0 0
          0 0 0 0 0 0
          0 0 0 0 0 0
          0 0 0 0 0 0
          0 0 0 0 0 0
          0 0 0 0 0 0
          0 0 0 0 0 0
          0 0 0 0 0 0
          0 0 0 0 0 0
          0 0 0 0 0 0
          0 0 0 0 0 0
          0 0 0 0 0 0
          0 0 0 0 0 0
          0 0 0 0 0 0
          0 0 0 0 0 0
          0 0 0 0 0 0
          0 0 0 0 0 0
          0 0 0 0 0 0
          0 0 0 0 0 0
          0 0 0 0 0 0
          0 0 0 0 0 0
          0 0 0 0 0 0
          0 0 0 0 0 0
          0 0 0 0 0 0
          0 0 0 0 0 0
          0 0 0 0 0 0
          0 0 0 0 0 0
          0 0 0 0 0 0
          0 0 0 0 0 0
          0 0 0 0 0 0
          0 0 0 0 0 0
          0 0 0 0 0 0
          0 0 0 0 0 0
          0 0 0 0 0 0
          0 0 0 0 0 0
          0 0 0 0 0 0
          0 0 0 0 0 0
          0 0 0 0 0 0
          0 0 0 0 0 0
          0 0 0 0 0 0
          0 0 0 0 0 0
          0 0 0 0 0 0
          0 0 0 0 0 0
          0 0 0 0 0 0
          0 0 0 0 0 0
          0 0 0 0 0 0
          0 0 0 0 0 0
          0 0 0 0 0 0
          0 0 0 0 0 0
          0 0 0 0 0 0
          0 0 0 0 0 0
          0 0 0 0 0 0
          0 0 0 0 0 0
          0 0 0 0 0 0
          0 0 0 0 0 0
          0 0 0 0 0 0
          0 0 0 0 0 0
          0 0 0 0 0 0
          0 0 0 0 0 0
          0 0 0 0 0 0
          0 0 0 0 0 0
          0 0 0 0 0 0
          0 0 0 0 0 0
          0 0 0 0 0 0
          0 0 0 0 0 0
          0 0 0 0 0 0
          0 0 0 0 0 0
          0 0 0 0 0 0
          0 0 0 0 0 0
          0 0 0 0 0 0
          0 0 0 0 0 0
          0 0 0 0 0 0
          0 0 0 0 0 0
          0 0 0 0 0 0
          0 0 0 0 0 0
          0 0 0 0 0 0
          0 0 0 0 0 0
          0 0 0 0 0 0
          0 0 0 0 0 0
          0 0 0 0 0 0
          0 0 0 0 0 0
          0 0 0 0 0 0
          0 0 0 0 0 0
          0 0 0 0 0 0
          0 0 0 0 0 0
          0 0 0 0 0 0
          0 0 0 0 0 0
          0 0 0 0 0 0
          0 0 0 0 0 0
          0 0 0 0 0 0
          0 0 0 0 0 0
          0 0 0 0 0 0
          0 0 0 0 0 0
          0 0 0 0 0 0
          0 0 0 0 0 0
          0 0 0 0 0 0
          0 0 0 0 0 0
          0 0 0 0 0 0
          0 0 0 0 0 0
          0 0 0 0 0 0
          0 0 0 0 0 0
          0 0 0 0 0 0
          0 0 0 0 0 0
          0 0 0 0 0 0
          0 0 0 0 0 0
          0 0 0 0 0 0
          0 0 0 0 0 0
          0 0 0 0 0 0
          0 0 0 0 0 0
          0 0 0 0 0 0
          0 0 0 0 0 0
          0 0 0 0 0 0
          0 0 0 0 0 0
          0 0 0 0 0 0
          0 0 0 0 0 0
          0 0 0 0 0 0
          0 0 0 0 0 0
          0 0 0 0 0 0
          0 0 0 0 0 0
          0 0 0 0 0 0
          0 0 0 0 0 0
          0 0 0 0 0 0
          0 0 0 0 0 0
          0 0 0 0 0 0
          0 0 0 0 0 0
          0 0 0 0 0 0
          0 0 0 0 0 0
        </DataArray>
        <DataArray type="Float64" Name="initial_marker" format="ascii" RangeMin="0" RangeMax="0">
          0 0 0 0 0 0
          0 0 0 0 0 0
          0 0 0 0 0 0
          0 0 0 0 0 0
          0 0 0 0 0 0
          0 0 0 0 0 0
          0 0 0 0 0 0
          0 0 0 0 0 0
          0 0 0 0 0 0
          0 0 0 0 0 0
          0 0 0 0 0 0
          0 0 0 0 0 0
          0 0 0 0 0 0
          0 0 0 0 0 0
          0 0 0 0 0 0
          0 0 0 0 0 0
          0 0 0 0 0 0
          0 0 0 0 0 0
          0 0 0 0 0 0
          0 0 0 0 0 0
          0 0 0 0 0 0
          0 0 0 0 0 0
          0 0 0 0 0 0
          0 0 0 0 0 0
          0 0 0 0 0 0
          0 0 0 0 0 0
          0 0 0 0 0 0
          0 0 0 0 0 0