<?xml version="1.0"?>
<VTKFile type="UnstructuredGrid" version="0.1" byte_order="LittleEndian" header_type="UInt32" compressor="vtkZLibDataCompressor">
  <UnstructuredGrid>
    <Piece NumberOfPoints="616" NumberOfCells="400">
      <PointData>
        <DataArray type="Int32" Name="libmesh_node_id" format="ascii" RangeMin="725" RangeMax="6358">
          915 1719 1721 1729 1743 1744
          1745 1746 1749 1750 2774 2775
          2776 2777 2778 2779 2780 2784
          2785 2786 2788 2789 2790 2791
          2792 2793 2794 2798 2799 2800
          2890 2891 2892 2893 2894 2895
          2896 2897 2898 2899 2900 2901
          2902 2903 2904 2905 2906 2907
          2908 2909 2924 2925 2926 2927
          2928 2929 2930 2931 2932 2933
          2934 2935 2938 2940 2941 2943
          3019 3020 3023 3024 3029 3030
          4897 4898 4899 4902 4905 4907
          4908 4909 4910 4911 4912 4913
          4914 4915 4916 4917 4918 4919
          4920 4923 4924 4929 4931 4932
          4933 4934 4938 4939 4941 4942
          4943 4944 4945 4946 4947 4948
          4949 4950 4951 4952 4953 4954
          4955 4956 4957 4958 4959 4960
          4961 4962 4963 4964 4965 4966
          4967 4968 4969 4970 4971 4972
          4976 4977 4979 4980 4981 4982
          4983 4984 4985 4986 4987 4988
          5381 5382 5384 5387 5389 5390
          5391 5392 5393 5394 5395 5396
          5397 5398 5400 5402 5404 5406
          5407 5408 5409 5410 5411 5412
          5415 5416 5418 5421 5423 5424
          5425 5426 5427 5428 5429 5430
          5431 5432 5434 5436 5438 5440
          5441 5442 5443 5444 5445 5446
          5447 5448 5449 5450 5451 5452
          5453 5454 5455 5456 5457 5458
          5459 5460 5461 5462 5463 5464
          5465 5466 5467 5468 5469 5470
          5471 5472 5473 5474 5475 5476
          5477 5478 5479 5480 5481 5482
          5483 5484 5485 5486 5487 5488
          5489 5490 5491 5492 5493 5494
          5495 5496 5497 5498 5499 5500
          5501 5502 5503 5504 5505 5506
          5507 5508 5509 5510 5511 5512
          5513 5514 5644 5645 5647 5650
          5652 5653 5654 5655 5656 5657
          5658 5659 5660 5661 5663 5665
          5667 5669 5670 5671 5672 5673
          5674 5675 5678 5679 5681 5684
          5686 5687 5688 5689 5690 5691
          5692 5693 5694 5695 5697 5699
          5701 5703 5704 5705 5706 5707
          5708 5709 5710 5711 5712 5713
          5714 5715 5716 5717 5718 5719
          5720 5721 5722 5723 5724 5725
          5726 5727 5729 5730 5731 5732
          5733 5734 5735 5736 5737 5738
          5739 5740 5741 5743 5744 5745
          5746 5747 5748 5749 5750 5751
          5752 5753 5754 5755 5758 5760
          5761 5763 5764 5765 5766 5767
          5768 5769 5770 5771 5773 5775
          5777 5999 6000 6001 6002 6003
          6004 6005 6006 6007 6008 6009
          6010 6011 6012 6013 6014 6015
          6016 6017 6018 6019 6020 6021
          6022 6023 6024 6025 6026 6027
          6028 6029 6030 6031 6032 6047
          6048 6049 6051 6052 6053 6064
          6065 6066 6067 6068 6069 6070
          6071 6072 6073 6084 6085 6086
          6088 6089 6090 6217 6218 6219
          6220 6221 6222 6237 6238 6239
          725 1723 1720 1724 1725 1722
          2781 2783 2782 2795 2796 2797
          3009 3010 3011 3012 3016 3017
          3014 3015 1783 3021 3018 1784
          3022 3235 2815 1731 3047 2820
          4935 4936 4927 4937 4940 2787
          1730 4973 4974 4975 4978 2801
          5006 4997 5522 5516 5007 5523
          5526 5520 5527 5556 5550 5557
          5560 5554 5561 5016 5577 5017
          5578 5581 5582 5584 5585 5586
          5587 5591 5592 5614 5615 5618
          5619 5621 5622 5625 5626 2936
          5728 2937 5742 2939 5756 5757
          5759 733 5762 2942 5772 5774
          5776 1751 5785 5779 5786 5789
          5783 5790 5813 5807 5814 5817
          5811 5818 5834 5835 5838 5839
          5841 5842 5845 5846 5862 5863
          5866 5867 5869 5870 5873 5874
          6033 6034 6035 6036 6040 6041
          6043 6044 6046 6050 3027 6054
          6055 6058 6059 6061 6063 6074
          6075 6078 6080 6081 6083 6087
          3032 6091 6093 6095 6097 6163
          6164 6165 6166 6170 6171 6183
          6184 6187 6188 6223 6224 3067
          6225 6226 3068 6227 6228 6231
          6233 6234 6236 6240 6241 6242
          6243 3071 6244 6246 6248 6250
          6353 6354 6357 6358
        </DataArray>
        <DataArray type="Float64" Name="bounds" format="ascii" RangeMin="0" RangeMax="0">
          0 0 0 0 0 0
          0 0 0 0 0 0
          0 0 0 0 0 0
          0 0 0 0 0 0
          0 0 0 0 0 0
          0 0 0 0 0 0
          0 0 0 0 0 0
          0 0 0 0 0 0
          0 0 0 0 0 0
          0 0 0 0 0 0
          0 0 0 0 0 0
          0 0 0 0 0 0
          0 0 0 0 0 0
          0 0 0 0 0 0
          0 0 0 0 0 0
          0 0 0 0 0 0
          0 0 0 0 0 0
          0 0 0 0 0 0
          0 0 0 0 0 0
          0 0 0 0 0 0
          0 0 0 0 0 0
          0 0 0 0 0 0
          0 0 0 0 0 0
          0 0 0 0 0 0
          0 0 0 0 0 0
          0 0 0 0 0 0
          0 0 0 0 0 0
          0 0 0 0 0 0
          0 0 0 0 0 0
          0 0 0 0 0 0
          0 0 0 0 0 0
          0 0 0 0 0 0
          0 0 0 0 0 0
          0 0 0 0 0 0
          0 0 0 0 0 0
          0 0 0 0 0 0
          0 0 0 0 0 0
          0 0 0 0 0 0
          0 0 0 0 0 0
          0 0 0 0 0 0
          0 0 0 0 0 0
          0 0 0 0 0 0
          0 0 0 0 0 0
          0 0 0 0 0 0
          0 0 0 0 0 0
          0 0 0 0 0 0
          0 0 0 0 0 0
          0 0 0 0 0 0
          0 0 0 0 0 0
          0 0 0 0 0 0
          0 0 0 0 0 0
          0 0 0 0 0 0
          0 0 0 0 0 0
          0 0 0 0 0 0
          0 0 0 0 0 0
          0 0 0 0 0 0
          0 0 0 0 0 0
          0 0 0 0 0 0
          0 0 0 0 0 0
          0 0 0 0 0 0
          0 0 0 0 0 0
          0 0 0 0 0 0
          0 0 0 0 0 0
          0 0 0 0 0 0
          0 0 0 0 0 0
          0 0 0 0 0 0
          0 0 0 0 0 0
          0 0 0 0 0 0
          0 0 0 0 0 0
          0 0 0 0 0 0
          0 0 0 0 0 0
          0 0 0 0 0 0
          0 0 0 0 0 0
          0 0 0 0 0 0
          0 0 0 0 0 0
          0 0 0 0 0 0
          0 0 0 0 0 0
          0 0 0 0 0 0
          0 0 0 0 0 0
          0 0 0 0 0 0
          0 0 0 0 0 0
          0 0 0 0 0 0
          0 0 0 0 0 0
          0 0 0 0 0 0
          0 0 0 0 0 0
          0 0 0 0 0 0
          0 0 0 0 0 0
          0 0 0 0 0 0
          0 0 0 0 0 0
          0 0 0 0 0 0
          0 0 0 0 0 0
          0 0 0 0 0 0
          0 0 0 0 0 0
          0 0 0 0 0 0
          0 0 0 0 0 0
          0 0 0 0 0 0
          0 0 0 0 0 0
          0 0 0 0 0 0
          0 0 0 0 0 0
          0 0 0 0 0 0
          0 0 0 0 0 0
          0 0 0 0 0 0
          0 0 0 0
        </DataArray>
        <DataArray type="Float64" Name="gradient_error" format="ascii" RangeMin="5.666033304206974e-13" RangeMax="4.31343447833659e-8">
          3.609114423478266e-11 4.0059567694292235e-11 4.133605275706694e-11 3.4565977772239533e-10 1.4350975197725825e-8 5.336623213022534e-9
          1.9769851491426367e-9 5.995850203868937e-10 2.4610801407266015e-8 1.6486538215275388e-8 1.157734766653178e-10 1.0060690902369306e-10
          9.686231104000638e-11 8.131864230981502e-11 3.6395809856654896e-11 3.6786131694740633e-11 3.043940409796082e-11 8.121628618205608e-10
          6.248997264383214e-10 2.629572581410116e-10 1.4683872093562264e-11 1.2593431051827253e-11 1.268542086822504e-11 1.0516689007236885e-11
          3.768211047476704e-12 3.884939837708433e-12 3.197954449095113e-12 1.2305762893874268e-10 9.302386750651204e-11 2.7231847828448273e-11
          7.356975058767873e-9 5.729474272610692e-9 3.4890461544377964e-9 2.6485327843224606e-9 2.5120164871193643e-9 1.0970071558746469e-9
          2.6910612900340507e-8 2.2630843452996508e-8 1.177471353870661e-8 1.1090803470136115e-8 1.3080194789526053e-9 9.78717932777699e-10
          3.891698859878091e-10 2.8908524999296423e-10 3.9306965496451114e-10 1.1492438327522125e-10 6.1811595090680324e-9 4.8588590931339075e-9
          1.5099264761663667e-9 2.018120206702885e-9 3.682657868130981e-8 4.019355536461449e-8 2.5006236397938218e-8 2.3784225136024093e-8
          2.471976693023819e-8 1.2649464446098907e-8 3.28010815742021e-8 4.31343447833659e-8 2.8193817242708674e-8 3.162669562031819e-8
          1.2073542322765844e-8 1.0823106985042632e-8 5.141943434684764e-9 1.3344604507356669e-8 1.3286789917349052e-8 6.900008986483258e-9
          1.0145766404025735e-11 7.796435249363642e-12 9.248002153782004e-11 6.858572206504286e-11 4.805711089387164e-10 3.6167683104132343e-10
          7.363260595742801e-11 2.0809169925978494e-10 1.9564761607808963e-10 1.6266827521828695e-10 7.608506456568498e-10 4.997315707990376e-11
          4.720239251483931e-11 1.354867783075867e-10 1.2727079991666948e-10 2.9191409948821455e-11 8.524226464762062e-11 7.997569971908618e-11
          3.967132591083907e-11 1.0545692088696074e-10 6.603940877702079e-11 5.412547946977454e-10 5.061887452949384e-10 3.228836036410239e-10
          4.1365779411848117e-10 4.695341000927025e-11 1.2002667106891107e-10 4.497036225728492e-10 2.98489063584607e-11 7.724962134372953e-11
          1.8497021088865984e-11 4.8096902334558416e-11 2.953110078811862e-10 1.866415863293832e-10 1.8544848303801152e-11 1.7446471030191136e-11
          5.1520127179557746e-11 4.828516779503168e-11 1.002550584146341e-11 2.98335319636492e-11 2.7935791545485815e-11 1.464401354726805e-11
          3.978963958528915e-11 2.3013883833926773e-11 2.1113617441299924e-10 1.9706016016902415e-10 1.147733836688038e-10 1.6004524667298625e-10
          5.981127839946934e-12 5.6048677511795854e-12 1.6531407251208915e-11 1.5473292311241456e-11 3.118182747372383e-12 8.740532596804462e-12
          8.182913905416084e-12 4.725962731745013e-12 1.2745998046942756e-11 6.741125486273953e-12 6.831765000936605e-11 6.369543449386371e-11
          3.3644762903655433e-11 5.157568384548323e-11 1.1321969617085238e-11 2.8860149860813434e-11 6.9179097513897254e-12 1.664090251671949e-11
          1.1309728258365839e-10 6.545744657812617e-11 4.130923180809517e-12 9.239613810201958e-12 2.319775928396872e-12 4.920657897183699e-12
          4.038528560541247e-12 7.4024088977924e-12 3.984360035847198e-12 3.610869150757211e-11 1.9023767393176816e-11 2.7148147818483908e-11
          2.7183503303824646e-9 2.544287726157767e-9 2.0797954796664716e-9 6.92502841979806e-9 1.8561176918105505e-9 1.7339968552349718e-9
          1.207851655129048e-9 1.1265206826293297e-9 1.4094078492721614e-9 9.11141763572967e-10 5.221803050293686e-9 4.895848193839262e-9
          3.261712546302915e-9 4.006477668771444e-9 1.47715078656417e-9 9.115502598099335e-10 4.098696021548017e-9 9.913567050997084e-10
          6.360183025895932e-10 6.036601319672818e-10 3.8368003014605357e-10 2.8225627102203887e-9 1.8455918805416039e-9 1.6999165988065242e-9
          1.5677667192380273e-8 1.4884667304858677e-8 1.2597601918116824e-8 2.5918315755990566e-8 1.148864201809398e-8 1.0881337204436145e-8
          8.003423405869445e-9 7.548166489202482e-9 9.129505411992407e-9 6.253013823408254e-9 2.0166471945228532e-8 1.93447993908393e-8
          1.3727108476972125e-8 1.672869858885284e-8 9.272785988857422e-9 5.800862645098571e-9 1.7204529124667642e-8 6.602817333299783e-9
          4.436373312538284e-9 4.029691981995653e-9 2.651062796178349e-9 1.2546628031168253e-8 8.687814257840285e-9 7.912987291313823e-9
          7.465794875644881e-10 6.95347079193199e-10 4.38106737115959e-10 4.0769194179723716e-10 5.603287374697499e-10 3.2772748927141833e-10
          2.1990864496442977e-9 2.0516279653442277e-9 1.2181052643380429e-9 1.6562575180783409e-9 2.4410415970548207e-10 2.2700559999260197e-10
          1.2908149314660286e-10 1.1999732260483394e-10 1.8216811051712492e-10 9.622036890749223e-11 7.340238800284387e-10 6.827242337173708e-10
          3.616564110160505e-10 5.468416795059462e-10 3.8925860714356974e-10 2.269667191077373e-10 2.3346761856936437e-10 1.356306358166327e-10
          1.1441586032176195e-9 6.719688577592521e-10 6.73453440163794e-10 1.258707331855904e-10 6.64001328158515e-11 7.499718844924814e-11
          3.951954475079691e-11 3.7402545264789334e-10 1.9733931283148725e-10 2.1803532976584242e-10 5.220421357831338e-9 4.901446724628506e-9
          3.1799597138598415e-9 2.9761275870991983e-9 4.013499554043553e-9 2.4164577795883476e-9 9.753788033076093e-9 9.281482903126952e-9
          5.8452337043526645e-9 7.839167103345509e-9 1.8145077367401114e-9 1.6938673806223012e-9 9.712598707964985e-10 9.050204827499052e-10
          1.3663679357051788e-9 7.267868924723085e-10 3.6243861613458195e-9 3.4114969063183855e-9 1.8541403559052501e-9 2.8028112333802894e-9
          2.8050532417709915e-9 1.6700740712860937e-9 1.6503496553221891e-9 9.716235368493533e-10 5.650388856984538e-9 3.4335101352324083e-9
          3.3842719081388415e-9 9.368564070746368e-10 4.958850458706411e-10 5.412575156515726e-10 2.854989021384137e-10 1.95247517642191e-9
          1.0414253577402536e-9 1.132829010356947e-9 3.555976514221673e-8 3.546298447814855e-8 3.3230866360793524e-8 3.862813881101988e-8
          2.8372587822722145e-8 2.7894793547508908e-8 2.0910402308315065e-8 2.0365786620327232e-8 2.5327047556695686e-8 1.8180357296191867e-8
          3.105648926231698e-8 3.2073421363416836e-8 2.5137656844823633e-8 3.198272698391684e-8 2.6756516345149773e-8 1.7851021106235622e-8
          3.5388648051653254e-8 1.9832051781825252e-8 1.4009895798146827e-8 1.2961553094351644e-8 8.940364721676203e-9 2.680433034003491e-8
          1.9169418114770495e-8 1.8111549094469117e-8 3.4181971497807896e-8 3.746339641937224e-8 4.2706028362345826e-8 3.656366721834251e-8
          2.8564487961405212e-8 3.144223269761573e-8 2.5305878460280882e-8 2.6662397512194158e-8 3.5026880135042563e-8 2.7169026545768032e-8
          2.6812633282525155e-8 3.0471544430129356e-8 2.6637779654716356e-8 3.569380235054951e-8 4.0775334856536975e-8 2.9794419578020203e-8
          4.2473522245461704e-8 3.158572741443119e-8 2.2871920516869254e-8 2.1977184951286862e-8 1.544243300700439e-8 3.3210892627031377e-8
          2.420718096490463e-8 2.3405626460670357e-8 1.4454678861737432e-8 1.4028916521646333e-8 9.565979955815193e-9 9.207385399991541e-9
          1.2396634416417018e-8 7.95801431980364e-9 1.791874277293356e-8 1.7799028262711135e-8 1.1906738235148871e-8 1.646714807418389e-8
          5.841115300208168e-9 5.572924524891538e-9 3.271523446487248e-9 3.1022500284009846e-9 4.717011968080386e-9 2.5875901600962425e-9
          7.712007062730405e-9 7.502333122835808e-9 6.6084111740273575e-9 9.361503020182365e-9 5.836281127974363e-9 5.7935516270751375e-9
          3.5099933895625445e-9 1.3006278790288107e-8 8.305426964794795e-9 8.353439648205983e-9 3.378722869458789e-9 1.8230741224155454e-9
          1.9908903560508535e-9 1.059833849207498e-9 4.900678487570018e-9 2.9484069247781597e-9 1.9447499467064753e-8 1.9827623269252788e-8
          1.3149544739470361e-8 1.329871046951456e-8 1.9130418468469965e-8 1.2676109338119267e-8 1.9657346894317436e-8 2.032739247129884e-8
          1.3655975699037819e-8 2.0021461733862433e-8 8.70545231038077e-9 8.645265971141954e-9 7.920690780270322e-9 8.95997119250347e-9
          8.982969275437238e-9 8.373964080990011e-9 1.5603908807776665e-8 1.0113303617342068e-8 1.0302100729213206e-8 6.418014089769843e-9
          1.6537998617703877e-8 1.0766888157973407e-8 1.1026010829183934e-8 6.058736669519511e-9 3.7105882324189183e-9 6.4881460466218615e-9
          4.001584978229082e-9 2.0151701482755658e-12 1.8836592876202405e-12 4.391382690942883e-12 4.109134916361812e-12 1.5076085702998922e-12
          2.8595538904389865e-12 2.6737211461381945e-12 1.5757262895774062e-12 3.3932869107280194e-12 2.210632374136462e-12 1.8098852887662008e-11
          1.6872531139745236e-11 1.0099520606974398e-11 1.3663929878031916e-11 1.329823896647514e-12 2.4982134709487607e-12 1.0142732188951956e-12
          1.6624009202380735e-12 1.2603436411051313e-12 2.0367402622222226e-12 1.3914254940406258e-12 9.561909362054073e-12 5.759269093065931e-12
          7.185356202669553e-12 6.485632539384831e-11 6.028655073839577e-11 3.0921750949282103e-11 2.8749180067399803e-11 4.833753949254793e-11
          2.306742566658187e-11 1.950344868589202e-10 1.8115534358515447e-10 8.588332612637828e-11 1.446673578326478e-10 3.3362703976662713e-11
          1.595386235632341e-11 1.9875416691797206e-11 9.873020116260062e-11 4.687167664925272e-11 5.756706724457414e-11 4.890059475108591e-10
          4.5506470755796066e-10 2.32010382494835e-10 2.1573005702091274e-10 3.643805762371325e-10 1.7247189274154512e-10 1.006778790702717e-9
          9.4174274826479e-10 4.486860476718798e-10 7.622203013985011e-10 2.479939820536937e-10 1.1733509614245512e-10 1.4269305152953157e-10
          5.224714114625389e-10 2.47108302380725e-10 2.9970931437066366e-10 1.6965425358615318e-9 1.6012339146823223e-9 8.194118883634432e-10
          7.706615469267346e-10 1.3211877951070507e-9 6.309450406650211e-10 9.204587600036646e-10 4.3646937369536443e-10 5.31002496233803e-10
          5.5474351153939993e-11 1.0048718531120407e-11 3.187134035890362e-11 8.729025858892415e-12 5.97029894806845e-12 2.7116757197781038e-11
          6.50169340069972e-11 1.7562350953033892e-11 4.867855704702232e-11 7.12142098055021e-12 9.748330048873823e-12 6.534795436256421e-12
          1.0377518068077517e-12 8.767167395744906e-13 2.9446800774157006e-12 2.414679670409514e-12 5.666033304206974e-13 2.4595874153855006e-12
          2.638890853333444e-12 2.1848845370645565e-12 3.864561496454081e-12 3.093083721927208e-12 1.5371504272210282e-12 2.1890852691645623e-12
          4.577774794776303e-12 2.022401197705643e-12 6.667881079258813e-12 1.5708342788234147e-11 5.131836889103758e-12 1.0783555933081334e-11
          2.0396712035268235e-11 5.0374280425304804e-11 7.916015195565115e-11 3.1085848885424364e-11 1.8499986908446835e-10 2.8490895342369945e-10
          1.1588121732193315e-10 8.312077113425274e-12 1.8462445364779357e-11 1.2178709642325716e-11 6.960562588737825e-11 4.280084497054861e-11
          1.0255026745794242e-10 1.603958505802653e-10 3.220540818567322e-10 4.941506818583058e-10 6.340068346099838e-11 2.0236509517301218e-10
          8.813530177920413e-10 1.327874066996887e-9 5.607049922820418e-10 2.0737446109255634e-9 3.0640052954981636e-9 1.3377662062455727e-9
          4.1352762489718185e-9 5.981034384303078e-9 2.709939520746403e-9 3.772370184841166e-11 1.2218171424231776e-10 2.6709622886465638e-11
          7.063685544390531e-11 3.4093466758203537e-10 1.978442536889517e-10 1.9003342597104835e-11 3.897081924372699e-11 1.0006844116266872e-11
          2.0500072160222377e-11 1.095546575046798e-10 5.779621271318191e-11 8.20810838083893e-10 4.787765587614275e-10 1.6815858947543412e-9
          9.876175622019166e-10 2.654850754020029e-10 1.3995365600855957e-10 5.493023887131225e-10 2.895799972074804e-10 4.461708366682305e-9
          4.2957070541503185e-9 3.6981074227741605e-9 2.67767433485636e-9 1.580130313378505e-9 5.1946533545746495e-9 5.079209181179754e-9
          4.5060707205065735e-9 5.4192815573344285e-9 5.335904506983866e-9 4.795488843563187e-9 3.3426800507687654e-9 1.999404712092624e-9
          3.5926746979650207e-9 2.160686192388299e-9 6.958832284148314e-9 9.864960570543e-9 4.639510999924319e-9 9.952461284660414e-9
          1.3919183383158023e-8 6.738425499111329e-9 1.2253107144604123e-8 1.703342914458569e-8 8.375486383260918e-9 1.3117422574041703e-8
          1.82081957029037e-8 8.9926972654887e-9 2.9153384021890147e-9 1.72689048054943e-9 4.285644490343818e-9 2.559995344277569e-9
          9.650987340367947e-10 5.097024787288793e-10 1.4381800064449084e-9 7.614162842740555e-10 5.377211355458186e-9 3.2315054154932892e-9
          5.794900588994795e-9 3.4901001976931424e-9 1.8228867459398887e-9 9.67162570376976e-10 1.9718053013223005e-9 1.047045722043572e-9
          6.355034522327085e-12 5.924974981688704e-12 1.392066047275162e-11 1.2949215331396788e-11 4.799531348827761e-12 1.0410807973256573e-11
          4.153743631594936e-11 3.857992759916475e-11 3.083379444592397e-11 9.530713397515073e-12 2.7400395837920133e-11 3.423548953226013e-12
          7.239785344939618e-12 2.1739701165575046e-12 4.343498775062215e-12 2.1142828549843275e-11 1.2393862283015192e-11 1.0392104639441778e-10
          9.658876868752686e-11 7.7187815663082e-11 2.1568697613314368e-10 2.0112066766231615e-10 1.6172895759537597e-10 6.763985633559571e-11
          1.4170029938965272e-10 5.2598466673102233e-11 3.045401401143192e-11 1.1039913982566005e-10 6.345476004746488e-11 5.078848624319318e-12
          1.0298435451684714e-11 2.498034957532369e-12 4.973168788196172e-12 2.89973445293508e-11 1.3861618779619548e-11 7.015407130333428e-11
          3.337478286156223e-11 1.449312217504431e-10 6.881433451515598e-11 2.3659907034372934e-9 2.2607053794958556e-9 1.1606482290006946e-9
          1.102590561328938e-9 1.913639103387717e-9 9.217200859186673e-10 3.7036141668031376e-10 3.4742755491677046e-10 2.8292066337701074e-10
          5.301690703485624e-10 5.014448534657876e-10 4.153881608592367e-10 2.509817441425641e-10 1.3623922405340827e-9 6.487278516080776e-10
          7.943829964315309e-10 3.758601104835625e-10 1.9496889567772582e-10 1.1212107924807011e-10 2.902443650977215e-10 1.677731996272772e-10
          2.5480193595855765e-10 1.2071149267805667e-10 3.8069743817527815e-10 1.8012097239003268e-10
        </DataArray>
        <DataArray type="Float64" Name="gradient_matprop_error" format="ascii" RangeMin="0" RangeMax="0">
          0 0 0 0 0 0
          0 0 0 0 0 0
          0 0 0 0 0 0
          0 0 0 0 0 0
          0 0 0 0 0 0
          0 0 0 0 0 0
          0 0 0 0 0 0
          0 0 0 0 0 0
          0 0 0 0 0 0
          0 0 0 0 0 0
          0 0 0 0 0 0
          0 0 0 0 0 0
          0 0 0 0 0 0
          0 0 0 0 0 0
          0 0 0 0 0 0
          0 0 0 0 0 0
          0 0 0 0 0 0
          0 0 0 0 0 0
          0 0 0 0 0 0
          0 0 0 0 0 0
          0 0 0 0 0 0
          0 0 0 0 0 0
          0 0 0 0 0 0
          0 0 0 0 0 0
          0 0 0 0 0 0
          0 0 0 0 0 0
          0 0 0 0 0 0
          0 0 0 0 0 0
          0 0 0 0 0 0
          0 0 0 0 0 0
          0 0 0 0 0 0
          0 0 0 0 0 0
          0 0 0 0 0 0
          0 0 0 0 0 0
          0 0 0 0 0 0
          0 0 0 0 0 0
          0 0 0 0 0 0
          0 0 0 0 0 0
          0 0 0 0 0 0
          0 0 0 0 0 0
          0 0 0 0 0 0
          0 0 0 0 0 0
          0 0 0 0 0 0
          0 0 0 0 0 0
          0 0 0 0 0 0
          0 0 0 0 0 0
          0 0 0 0 0 0
          0 0 0 0 0 0
          0 0 0 0 0 0
          0 0 0 0 0 0
          0 0 0 0 0 0
          0 0 0 0 0 0
          0 0 0 0 0 0
          0 0 0 0 0 0
          0 0 0 0 0 0
          0 0 0 0 0 0
          0 0 0 0 0 0
          0 0 0 0 0 0
          0 0 0 0 0 0
          0 0 0 0 0 0
          0 0 0 0 0 0
          0 0 0 0 0 0
          0 0 0 0 0 0
          0 0 0 0 0 0
          0 0 0 0 0 0
          0 0 0 0 0 0
          0 0 0 0 0 0
          0 0 0 0 0 0
          0 0 0 0 0 0
          0 0 0 0 0 0
          0 0 0 0 0 0
          0 0 0 0 0 0
          0 0 0 0 0 0
          0 0 0 0 0 0
          0 0 0 0 0 0
          0 0 0 0 0 0
          0 0 0 0 0 0
          0 0 0 0 0 0
          0 0 0 0 0 0
          0 0 0 0 0 0
          0 0 0 0 0 0
          0 0 0 0 0 0
          0 0 0 0 0 0
          0 0 0 0 0 0
          0 0 0 0 0 0
          0 0 0 0 0 0
          0 0 0 0 0 0
          0 0 0 0 0 0
          0 0 0 0 0 0
          0 0 0 0 0 0
          0 0 0 0 0 0
          0 0 0 0 0 0
          0 0 0 0 0 0
          0 0 0 0 0 0
          0 0 0 0 0 0
          0 0 0 0 0 0
          0 0 0 0 0 0
          0 0 0 0 0 0
          0 0 0 0 0 0
          0 0 0 0 0 0
          0 0 0 0 0 0
          0 0 0 0 0 0
          0 0 0 0
        </DataArray>
        <DataArray type="Float64" Name="initial_marker" format="ascii" RangeMin="0" RangeMax="2">
          2 0 0 2 2 2
          2 2 2 2 0 0
          1 1 0 1 1 2
          2 2 0 0 0.5 0.25
          0 0 0 2 2 2
          2 2 2 2 2 2
          2 2 2 2 2 2
          2 2 2 2 2 2
          2 2 2 2 2 2
          2 2 2 2 2 2
          2 2 2 2 2 2
          1 1 2 2 2 2
          2 2 2 2 2 2
          2 2 2 2 2 2
          2 2 2 2 2 2
          2 2 2 2 2 2
          1.5 1.75 2 2 2 2
          2 2 1 1.5 1.5 1.5
          1.75 1.25 2 2 2 2
          0 0 1 1 0 1
          1 0 1 1 2 2
          2 2 0.5 1.25 0 1
          2 2 0 1 0 0.75
          0 1 0.5 2 1.75 2
          2 2 2 2 2 2
          2 2 2 2 2 2
          2 2 2 2 2 2
          2 2 2 2 2 2
          2 2 2 2 2 2
          2 2 2 2 2 2
          2 2 2 2 2 2
          2 2 2 2 2 2
          2 2 2 2 2 2
          2 2 2 2 2 2
          2 2 2 2 2 2
          2 2 2 2 2 2
          2 2 2 2 2 2
          2 2 2 2 2 2
          2 2 2 2 2 2
          2 2 2 2 2 2
          2 2 2 2 2 2
          2 2 2 2 2 2
          2 2 2 2 2 2
          2 2 2 2 2 2
          2 2 2 2 2 2
          2 2 2 2 2 2
          2 2 2 2 2 2
          2 2 2 2 2 2
          2 2 2 2 2 2
          2 2 2 2 2 2
          2 2 2 2 2 2
          2 2 2 2 2 2
          2 2 2 2 2 2
          2 2 2 2 2 2
          2 2 2 2 2 2
          2 2 2 2 2 2
          2 2 2 2 2 2
          2 2 2 2 2 2
          2 2 2 2 2 2
          2 2 2 2 2 2
          2 2 2 2 2 2
          2 0 0 0.5 0.5 0
          0 0 0 0.5 0 1.5
          1.5 1.3333333333333333 1.5 0 0.25 0
          0 0 0 0 1.25 1
          1 2 2 2 2 2
          2 2 2 2 2 2
          1.75 1.75 2 2 2 2
          2 2 2 2 2 2
          2 2 2 2 2 2
          2 2 2 2 2 2
          2 2 2 2 2 2
          0 0 0 0 0 0
          0 0.25 0.5 0 0 0
          0 0 0 0 0 0
          0 0 0.5 0 0 0
          0.25 0 0 1.25 0 0
          1 1.5 1.5 1.25 2 2
          2 0 1 1 2 1.75
          1.75 2 2 2 1.5 2
          2 2 2 2 2 2
          2 2 2 1.5 2 1.6666666666666667
          2 2 2 1.5 1.75 1
          1.5 2 2 2 2 2
          2 2 2 2 2 2
          2 2 2 2 2 2
          2 2 2 2 2 2
          2 2 2 2 2 2
          2 2 2 2 2 2
          2 2 2 2 2 2
          2 2 2 2 2 2
          2 2 2 2 2 2
          2 1.5 2 1.75 1 1.5
          2 2 2 1.25 2 0.5
          1.25 0 0.75 2 1.75 2
          2 2 2 2 2 2
          2 2 2 2 2 0.5
          1 0 0.5 1.75 1.5 2
          2 2 2 2 2 2
          2 2 2 2 2 2
          2 2 2 2 2 2
          2 2 2 2 2 2
          2 2 2 2
        </DataArray>
        <DataArray type="Float64" Name="markers_norefine" format="ascii" RangeMin="0" RangeMax="2">
          0 0 0 0 0 0
          0 0 0 0 0 0
          0 0 0 0 0 0
          0 0 0 0 0 0
          0 0 0 0 0 0
          0 0 0 0 0 0
          0 0 0 0 0 0
          0 0 0 0 0 0
          0 0 1.5 1 0 0
          0 0 2 1.5 0 0
          0 0 0 0 0 0
          0 0 0 0 0 0
          0 0 0 0 0 0
          0 0 0 0 0 0
          0 0 0 0 0 0
          0 0 0 0 0 0
          0 0 0 0 0 0
          0 0 0 0 0 0
          0 0 0 0 0 0
          0 0 0 0 0 0
          0 0 0 0 0 0
          0 0 0 0 0 0
          0 0 0 0 0 0
          0 0 0 0 0 0
          0 0 0 0 0 0
          0 0 0 0 0 0
          0 0 0 0 0 0
          0 0 0 0 0 0
          0 0 0 0 0 0
          0 0 0 0 0 0
          0 0 0 0 0 0
          0 0 0 0 0 0
          0 0 0 0 0 0
          0 0 0 0 0 0
          0 0 0 0 0 0
          0 0 0 0 0 0
          0 0 0 0 0 0
          0 0 0 0 0 0
          0 0 0 0 0 0
          0 0 0 0 0 0
          0 0 0 0 0 0
          0 0 0 0 0 0
          0 0 0 0 0 0
          0 0 0.5 0.5 0.25 1.5
          0 0 0 0 0 0
          0.5 0.5 0 0.25 0 0
          0.25 0 0 0 0 0
          0 0 2 2 1.5 2
          1 1 0 0 0.5 0
          1 1 0 0.5 0.5 0
          0.5 0 0 0 0 0
          0 0 0 0 0 0
          0 0 0 0 0 0
          0 0 0 0 0 0
          0 0 0 0 0 0
          0 0 0 0 0 0
          0 0 0 0 0 0
          0 0 0 0 0 0
          0 0 0 0 0 0
          0 0 0 0 0 0
          0 0 0 0 0 0
          0 0 0 0 0 0
          0 0 0 0 0 0
          0 0 0 0 0 0
          0 0 0 0 0 0
          0 0 0 0 0 0
          0 0 0 0 0 0
          0 0 0 0 0 0
          0 0 0 0 0 0
          0 0 0 0 0 0
          0 0 0 0 0 0
          0 0 0 0 0 0
          0 0 0 0 0 0
          0 0 0 0 0 0
          0 0 0 0 0 0
          0 0 0 0 0 0
          0 0 0 0 0 0
          0 0 0 0 0 0
          0 0 0 0 0 0
          0 0 0 0 0 0
          0 0 0 0 0 0
          0 0 0 0 0 0
          0 0 0 0 0 0
          0 0 0 0 0 0
          0 0 0 0 0 0
          0 0 0 0 0 0
          0 0 0 0 0 0
          0 0 0 0 0 0
          0 0 0 0 0 0
          0 0 0 0 0 0
          0 0 0 0 0 0
          0 0 0 0 0 0
          0 0 0 0 0 0
          0 0 0 0 0 0
          0 0 0 0 0 0
          0 0 0 0 0 0
          0 0 0 0 0 0
          0 0 0 0 0 0
          0 0 0 0 0 0
          0 0 0 0 0 0
          0 0 0 0 0 0
          0 0 0 0 0 0
          0 0 0 0
        </DataArray>
        <DataArray type="Float64" Name="markers_mustrefine" format="ascii" RangeMin="0" RangeMax="2">
          2 0 0 2 2 2
          2 2 2 2 0 0
          1 1 0 1 1 2
          2 2 0 0 0.5 0.25
          0 0 0 2 2 2
          2 2 2 2 2 2
          2 2 2 2 2 2
          2 2 2 2 2 2
          2 2 2 2 2 2
          2 2 2 2 2 2
          2 2 2 2 2 2
          1 1 2 2 2 2
          2 2 2 2 2 2
          2 2 2 2 2 2
          2 2 2 2 2 2
          2 2 2 2 2 2
          1.5 1.75 2 2 2 2
          2 2 1 1.5 1.5 1.5
          1.75 1.25 2 2 2 2
          0 0 1 1 0 1
          1 0 1 1 2 2
          2 2 0.5 1.25 0 1
          2 2 0 1 0 0.75
          0 1 0.5 2 1.75 2
          2 2 2 2 2 2
          2 2 2 2 2 2
          2 2 2 2 2 2
          2 2 2 2 2 2
          2 2 2 2 2 2
          2 2 2 2 2 2
          2 2 2 2 2 2
          2 2 2 2 2 2
          2 2 2 2 2 2
          2 2 2 2 2 2
          2 2 2 2 2 2
          2 2 2 2 2 2
          2 2 2 2 2 2
          2 2 2 2 2 2
          2 2 2 2 2 2
          2 2 2 2 2 2
          2 2 2 2 2 2
          2 2 2 2 2 2
          2 2 2 2 2 2