<?xml version="1.0"?>
<VTKFile type="UnstructuredGrid" version="0.1" byte_order="LittleEndian" header_type="UInt32" compressor="vtkZLibDataCompressor">
  <UnstructuredGrid>
    <Piece NumberOfPoints="1618" NumberOfCells="1001">
      <PointData>
        <DataArray type="Int32" Name="libmesh_node_id" format="ascii" RangeMin="474" RangeMax="6842">
          620 764 765 814 850 906
          908 909 958 994 1074 1075
          1081 1083 1084 1085 1086 1087
          1088 1089 1090 1091 1092 1093
          1094 1095 1096 1097 1098 1099
          1100 1104 1105 1108 1110 1187
          1188 1189 1190 1191 1192 1193
          1194 1195 1196 1197 1198 1199
          1200 1204 1205 1393 1394 1397
          1400 1412 1413 1414 1415 1416
          1417 1418 1419 1420 1421 1422
          1423 1424 1425 1426 1427 1428
          1429 1430 1431 1432 1433 1434
          1435 1436 1437 1438 1439 1440
          1441 1442 1443 1444 1445 1446
          1447 1448 1449 1450 1451 1452
          1453 1454 1455 1456 1457 1458
          1459 1460 1461 1462 1463 1464
          1465 1466 1467 1468 1469 1470
          1471 1472 1473 1474 1475 1476
          1477 1478 1479 1480 1481 1482
          1483 1491 1498 1499 1502 1503
          1504 1505 1507 1682 1683 1684
          1685 1686 1687 1688 1689 1690
          1691 1692 1693 1696 1697 1699
          1701 1791 1792 1795 1797 1807
          1809 1811 1813 1814 1815 1816
          1817 1818 1819 1820 1821 1822
          1823 1824 1825 1826 1827 1828
          1829 1830 1831 1832 1833 1834
          1835 1836 1837 1838 1839 1840
          1841 1842 1843 1844 1845 1846
          1847 1848 1849 1850 1851 1852
          1853 1854 1855 1856 1857 1858
          1861 1862 1866 1867 1868 1869
          1870 1871 1872 1873 1876 1880
          1983 1984 1985 1986 1987 1988
          1989 1990 1991 1992 1993 1994
          1995 1996 1997 1998 1999 2000
          2001 2002 2003 2004 2005 2006
          2007 2008 2009 2010 2011 2012
          2013 2014 2015 2016 2020 2021
          2463 2464 2465 2466 2477 2478
          2479 2480 2481 2482 2483 2484
          2485 2486 2497 2498 2499 2500
          2501 2502 2503 2504 2505 2506
          2579 2580 2582 2585 2587 2588
          2589 2590 2591 2592 2593 2594
          2595 2596 2598 2600 2602 2604
          2605 2606 2607 2608 2609 2610
          2613 2614 2616 2619 2621 2622
          2623 2624 2625 2626 2627 2628
          2629 2630 2632 2634 2636 2638
          2639 2640 2641 2642 2643 2644
          2645 2646 2647 2648 2649 2650
          2651 2652 2653 2654 2655 2656
          2657 2658 2659 2660 2661 2662
          2663 2664 2665 2666 2667 2668
          2669 2670 2671 2672 2673 2674
          2675 2676 2677 2678 2679 2680
          2681 2682 2683 2684 2685 2686
          2687 2688 2689 2690 2691 2692
          2693 2694 2695 2696 2697 2698
          2699 2700 2701 2702 2703 2704
          2705 2706 2707 2708 2709 2710
          2711 2712 2713 2714 2715 2716
          2717 2718 2719 2720 2721 2722
          2723 2724 2725 2726 2727 2728
          2729 2730 2731 2732 2733 2734
          2735 2736 2737 2738 2739 2740
          2741 2742 2743 2744 2745 2746
          2747 2748 2749 2750 2751 2752
          2753 2754 2755 2756 2757 2758
          2759 2760 2761 2762 2763 2764
          2765 2766 2767 2768 2769 2770
          2771 2772 2773 2774 2775 2776
          2777 2778 2779 2780 2781 2782
          2783 2784 2785 2786 2787 2788
          2789 2790 2791 2792 2793 2794
          2795 2796 2797 2798 2799 2800
          2801 2802 2803 2804 2805 2806
          2807 2808 2809 2810 2811 2812
          2813 2814 2815 2816 2817 2818
          2819 2820 2821 2822 2823 2824
          2825 2826 2827 2828 2829 2830
          2831 2832 2833 2834 2835 2836
          2837 2838 2839 2840 2841 2842
          2843 2844 2845 2846 2847 2848
          2849 2850 2851 2852 2853 2854
          2855 2856 2857 2858 2859 2860
          2861 2862 2863 2864 2865 2866
          2867 2868 2869 2870 2871 2872
          2873 2874 2875 2876 2877 2878
          2879 2880 2881 2882 2883 2884
          2885 2886 2887 2888 2889 2890
          2891 2892 2893 2894 2895 2896
          2897 2898 2899 2900 2901 2902
          2903 2904 2905 2906 2907 2908
          2909 2910 2911 2912 2913 2914
          2915 2916 2917 2918 2919 2921
          2926 2927 2930 2948 2952 2953
          2954 2955 2956 2957 2958 2959
          2960 2961 2962 2963 2966 2968
          2969 2971 2972 2973 2974 2975
          2976 2977 2978 2979 2981 2982
          2983 2985 2986 2987 2988 2989
          2990 2991 2992 2993 2994 2995
          2996 2997 3000 3002 3003 3005
          3006 3007 3008 3009 3010 3011
          3012 3013 3015 3016 3017 3019
          3042 3046 3076 3080 3822 3823
          3824 3825 3826 3827 3828 3829
          3830 3831 3832 3833 3834 3835
          3836 3837 3838 3839 3840 3841
          3842 3843 3844 3845 3846 3847
          3848 3849 3850 3851 3852 3853
          3854 3855 3856 3857 3858 3859
          3860 3861 3862 3863 3864 3865
          3941 3942 3943 3944 3945 3946
          3947 3948 3949 3950 3951 3952
          3953 3954 3955 3956 3957 3958
          3959 3960 3961 3962 3963 3964
          3965 3966 3967 3968 3969 3970
          3971 3972 3973 3974 3975 3976
          3977 3978 3979 3980 3981 3982
          3983 3984 3985 3986 3987 3988
          3989 3990 3991 3992 3993 3994
          3995 3996 3997 3998 3999 4000
          4001 4002 4003 4004 4005 4006
          4007 4008 4009 4010 4011 4012
          4013 4014 4015 4016 4017 4018
          4019 4021 4022 4023 4025 4026
          4027 4028 4029 4030 4031 4032
          4033 4034 4035 4036 4037 4038
          4039 4040 4041 4042 4043 4044
          4045 4046 4047 4048 4049 4050
          4051 4052 4053 4054 4055 4056
          4057 4058 4059 4060 4061 4062
          4063 4064 4065 4066 4067 4068
          4069 4070 4071 4072 4073 4074
          4075 4076 4077 4078 4079 4080
          4081 4082 4083 4084 4085 4086
          4087 4088 4089 4090 4091 4092
          4093 4094 4095 4096 4097 4100
          4102 4103 4105 4106 4107 4108
          4109 4110 4111 4113 4115 4117
          4118 4119 4120 4121 4122 4123
          4124 4125 4126 4127 4128 4129
          4132 4134 4135 4137 4138 4139
          4140 4141 4142 4143 4144 4145
          4147 4149 4151 6114 6115 6116
          6117 6118 6119 6120 6121 6122
          6123 6131 6132 6133 6134 6135
          6136 6137 6138 6139 6140 6141
          6142 6143 6144 6145 6146 6147
          6148 6149 6150 6151 6152 6153
          6154 6155 6156 6157 6158 6159
          6160 6161 6162 6163 6164 6165
          6166 6167 6168 6169 6170 6171
          6172 6173 6174 6175 6176 6177
          6383 6384 6385 6386 6387 6388
          6389 6390 6391 6392 6393 6394
          6395 6396 6397 6398 6399 6400
          6401 6402 6403 6404 6405 6406
          6407 6408 6409 6410 6411 6412
          6413 6414 6415 6416 6417 6418
          6419 6420 6421 6422 6423 6424
          6425 6426 6427 6428 6429 6430
          6431 6432 6433 6434 6435 6436
          6437 6438 6439 6440 6441 6442
          6443 6444 6445 6446 6447 6448
          6449 6450 6451 6452 6453 6454
          6455 6456 6457 6458 6459 6460
          6461 6462 6463 6464 6465 6466
          6467 6468 6469 6470 6471 6472
          6473 6474 6475 6476 6477 6478
          6479 6480 6481 6482 6483 6484
          6485 6486 6487 6488 6489 6490
          6491 6492 6493 6494 6495 6496
          6497 6498 6499 6500 6501 6502
          6503 6504 6505 6506 6507 6508
          6509 6510 6511 6512 6513 6514
          6515 6516 6517 6518 6519 6520
          6521 6522 6523 6524 6525 6526
          6527 6528 6529 6530 6531 6532
          6533 6534 6535 6536 6537 6538
          6539 6540 6541 6542 6543 6544
          6545 6546 6547 6548 6549 6550
          6551 6552 6553 6554 6555 6556
          6557 6558 6559 6560 6561 6562
          6563 6564 6565 6566 6567 6568
          6569 6570 6571 6572 6573 6574
          6575 6576 6577 6578 6579 6580
          6581 6582 6583 6584 6585 6586
          6587 6588 6589 6590 6591 6592
          6593 6594 6595 6596 6597 6598
          6599 6600 6601 6602 6603 6604
          6605 6606 6607 6608 6609 6610
          6611 6612 6613 6614 6615 6616
          6617 6618 6619 6620 6621 6622
          6623 6624 6625 6626 6627 6628
          6629 6630 6631 6632 6633 6634
          6635 6636 6637 6638 6639 6640
          6641 6642 6643 6644 6645 6646
          6647 6648 6649 6650 6651 6652
          6653 6654 6655 6656 6657 6658
          6659 6660 6661 6662 6663 6664
          6665 6666 6667 6668 6670 6671
          6672 6674 6675 6676 6677 6678
          6679 6680 6681 6682 6683 6684
          6685 6686 6689 6691 6692 6694
          6695 6696 6697 6698 6699 6700
          6702 6704 6706 6707 6708 6709
          6710 6711 6712 6713 6714 6715
          6716 6717 6718 6719 6720 6721
          6722 6723 6724 6725 6726 6727
          6728 6729 6730 6731 6732 6733
          6734 6735 6736 6737 6738 6739
          6740 6741 6742 6743 6744 6745
          6746 6747 6748 6749 6750 6751
          6752 6753 6754 6755 6756 6757
          6758 6759 6760 6761 6762 6763
          6764 6765 6766 6767 6768 6769
          6770 6771 6772 6773 6774 6775
          6776 6777 6778 6779 6780 6781
          6782 6783 6784 6785 6786 6789
          6795 6796 6797 6798 6799 6800
          6801 6802 6804 6808 6809 6810
          6811 6812 6813 6814 6815 6816
          6817 6818 6829 6830 6831 6832
          6833 6834 6835 6838 6842 474
          476 477 475 618 621 619
          478 479 622 623 670 669
          763 813 671 767 815 706
          705 849 707 851 957 993
          959 995 1181 1182 1183 1186
          1073 1201 1202 1203 1206 1101
          1388 762 1392 1389 1390 1391
          1395 1396 1484 1485 1486 1487
          1492 1488 1490 1493 1495 1497
          1674 1078 1675 1678 907 1680
          1694 1106 1695 1698 911 1700
          1789 1790 1793 1794 1401 1796
          1798 1806 1808 1810 1812 1859
          1860 1863 1864 1103 1865 1512
          1874 1875 1877 1878 1879 1977
          1978 1979 1982 2017 2018 2019
          2022 766 2461 2469 2470 2472
          1398 2475 1399 2489 2490 2493
          2495 2473 2474 2577 2578 2476
          2581 2583 2584 2586 2494 2597
          2496 2599 2601 2603 2611 2612
          2615 2617 2618 2620 2631 2633
          2635 2637 2920 2928 2929 2931
          2932 2933 1494 2934 2935 2964
          2965 2967 1500 2970 1501 2980
          2984 3001 3014 1506 3018 3020
          3021 3024 2946 3040 2947 3041
          3043 3044 3045 3074 3075 3077
          3078 3079 1517 4020 4098 4099
          4101 4024 4112 4114 2999 4116
          4133 4146 4148 3004 4150 6106
          6104 6107 6105 6112 6111 6110
          6125 6124 6129 6128 6127 6669
          6687 6688 6690 2998 6693 4104
          6673 6701 6703 6705 6787 6788
          6790 6791 6792 4130 6793 6794
          4131 6803 6805 6806 6807 6819
          6820 6823 6825 6826 6828 6836
          6837 6839 6840 6841
        </DataArray>
        <DataArray type="Float64" Name="bounds" format="ascii" RangeMin="0" RangeMax="0">
          0 0 0 0 0 0
          0 0 0 0 0 0
          0 0 0 0 0 0
          0 0 0 0 0 0
          0 0 0 0 0 0
          0 0 0 0 0 0
          0 0 0 0 0 0
          0 0 0 0 0 0
          0 0 0 0 0 0
          0 0 0 0 0 0
          0 0 0 0 0 0
          0 0 0 0 0 0
          0 0 0 0 0 0
          0 0 0 0 0 0
          0 0 0 0 0 0
          0 0 0 0 0 0
          0 0 0 0 0 0
          0 0 0 0 0 0
          0 0 0 0 0 0
          0 0 0 0 0 0
          0 0 0 0 0 0
          0 0 0 0 0 0
          0 0 0 0 0 0
          0 0 0 0 0 0
          0 0 0 0 0 0
          0 0 0 0 0 0
          0 0 0 0 0 0
          0 0 0 0 0 0
          0 0 0 0 0 0
          0 0 0 0 0 0
          0 0 0 0 0 0
          0 0 0 0 0 0
          0 0 0 0 0 0
          0 0 0 0 0 0
          0 0 0 0 0 0
          0 0 0 0 0 0
          0 0 0 0 0 0
          0 0 0 0 0 0
          0 0 0 0 0 0
          0 0 0 0 0 0
          0 0 0 0 0 0
          0 0 0 0 0 0
          0 0 0 0 0 0
          0 0 0 0 0 0
          0 0 0 0 0 0
          0 0 0 0 0 0
          0 0 0 0 0 0
          0 0 0 0 0 0
          0 0 0 0 0 0
          0 0 0 0 0 0
          0 0 0 0 0 0
          0 0 0 0 0 0
          0 0 0 0 0 0
          0 0 0 0 0 0
          0 0 0 0 0 0
          0 0 0 0 0 0
          0 0 0 0 0 0
          0 0 0 0 0 0
          0 0 0 0 0 0
          0 0 0 0 0 0
          0 0 0 0 0 0
          0 0 0 0 0 0
          0 0 0 0 0 0
          0 0 0 0 0 0
          0 0 0 0 0 0
          0 0 0 0 0 0
          0 0 0 0 0 0
          0 0 0 0 0 0
          0 0 0 0 0 0
          0 0 0 0 0 0
          0 0 0 0 0 0
          0 0 0 0 0 0
          0 0 0 0 0 0
          0 0 0 0 0 0
          0 0 0 0 0 0
          0 0 0 0 0 0
          0 0 0 0 0 0
          0 0 0 0 0 0
          0 0 0 0 0 0
          0 0 0 0 0 0
          0 0 0 0 0 0
          0 0 0 0 0 0
          0 0 0 0 0 0
          0 0 0 0 0 0
          0 0 0 0 0 0
          0 0 0 0 0 0
          0 0 0 0 0 0
          0 0 0 0 0 0
          0 0 0 0 0 0
          0 0 0 0 0 0
          0 0 0 0 0 0
          0 0 0 0 0 0
          0 0 0 0 0 0
          0 0 0 0 0 0
          0 0 0 0 0 0
          0 0 0 0 0 0
          0 0 0 0 0 0
          0 0 0 0 0 0
          0 0 0 0 0 0
          0 0 0 0 0 0
          0 0 0 0 0 0
          0 0 0 0 0 0
          0 0 0 0 0 0
          0 0 0 0 0 0
          0 0 0 0 0 0
          0 0 0 0 0 0
          0 0 0 0 0 0
          0 0 0 0 0 0
          0 0 0 0 0 0
          0 0 0 0 0 0
          0 0 0 0 0 0
          0 0 0 0 0 0
          0 0 0 0 0 0
          0 0 0 0 0 0
          0 0 0 0 0 0
          0 0 0 0 0 0
          0 0 0 0 0 0
          0 0 0 0 0 0
          0 0 0 0 0 0
          0 0 0 0 0 0
          0 0 0 0 0 0
          0 0 0 0 0 0
          0 0 0 0 0 0
          0 0 0 0 0 0
          0 0 0 0 0 0
          0 0 0 0 0 0
          0 0 0 0 0 0
          0 0 0 0 0 0
          0 0 0 0 0 0
          0 0 0 0 0 0
          0 0 0 0 0 0
          0 0 0 0 0 0
          0 0 0 0 0 0
          0 0 0 0 0 0
          0 0 0 0 0 0
          0 0 0 0 0 0
          0 0 0 0 0 0
          0 0 0 0 0 0
          0 0 0 0 0 0
          0 0 0 0 0 0
          0 0 0 0 0 0
          0 0 0 0 0 0
          0 0 0 0 0 0
          0 0 0 0 0 0
          0 0 0 0 0 0
          0 0 0 0 0 0
          0 0 0 0 0 0
          0 0 0 0 0 0
          0 0 0 0 0 0
          0 0 0 0 0 0
          0 0 0 0 0 0
          0 0 0 0 0 0
          0 0 0 0 0 0
          0 0 0 0 0 0
          0 0 0 0 0 0
          0 0 0 0 0 0
          0 0 0 0 0 0
          0 0 0 0 0 0
          0 0 0 0 0 0
          0 0 0 0 0 0
          0 0 0 0 0 0
          0 0 0 0 0 0
          0 0 0 0 0 0
          0 0 0 0 0 0
          0 0 0 0 0 0
          0 0 0 0 0 0
          0 0 0 0 0 0
          0 0 0 0 0 0
          0 0 0 0 0 0
          0 0 0 0 0 0
          0 0 0 0 0 0
          0 0 0 0 0 0
          0 0 0 0 0 0
          0 0 0 0 0 0
          0 0 0 0 0 0
          0 0 0 0 0 0
          0 0 0 0 0 0
          0 0 0 0 0 0
          0 0 0 0 0 0
          0 0 0 0 0 0
          0 0 0 0 0 0
          0 0 0 0 0 0
          0 0 0 0 0 0
          0 0 0 0 0 0
          0 0 0 0 0 0
          0 0 0 0 0 0
          0 0 0 0 0 0
          0 0 0 0 0 0
          0 0 0 0 0 0
          0 0 0 0 0 0
          0 0 0 0 0 0
          0 0 0 0 0 0
          0 0 0 0 0 0
          0 0 0 0 0 0
          0 0 0 0 0 0
          0 0 0 0 0 0
          0 0 0 0 0 0
          0 0 0 0 0 0
          0 0 0 0 0 0
          0 0 0 0 0 0
          0 0 0 0 0 0
          0 0 0 0 0 0
          0 0 0 0 0 0
          0 0 0 0 0 0
          0 0 0 0 0 0
          0 0 0 0 0 0
          0 0 0 0 0 0
          0 0 0 0 0 0
          0 0 0 0 0 0
          0 0 0 0 0 0
          0 0 0 0 0 0
          0 0 0 0 0 0
          0 0 0 0 0 0
          0 0 0 0 0 0
          0 0 0 0 0 0
          0 0 0 0 0 0
          0 0 0 0 0 0
          0 0 0 0 0 0
          0 0 0 0 0 0
          0 0 0 0 0 0
          0 0 0 0 0 0
          0 0 0 0 0 0
          0 0 0 0 0 0
          0 0 0 0 0 0
          0 0 0 0 0 0
          0 0 0 0 0 0
          0 0 0 0 0 0
          0 0 0 0 0 0
          0 0 0 0 0 0
          0 0 0 0 0 0
          0 0 0 0 0 0
          0 0 0 0 0 0
          0 0 0 0 0 0
          0 0 0 0 0 0
          0 0 0 0 0 0
          0 0 0 0 0 0
          0 0 0 0 0 0
          0 0 0 0 0 0
          0 0 0 0 0 0
          0 0 0 0 0 0
          0 0 0 0 0 0
          0 0 0 0 0 0
          0 0 0 0 0 0
          0 0 0 0 0 0
          0 0 0 0 0 0
          0 0 0 0 0 0
          0 0 0 0 0 0
          0 0 0 0 0 0
          0 0 0 0 0 0
          0 0 0 0 0 0
          0 0 0 0 0 0
          0 0 0 0 0 0
          0 0 0 0 0 0
          0 0 0 0 0 0
          0 0 0 0 0 0
          0 0 0 0 0 0
          0 0 0 0 0 0
          0 0 0 0 0 0
          0 0 0 0 0 0
          0 0 0 0 0 0
          0 0 0 0 0 0
          0 0 0 0 0 0
          0 0 0 0 0 0
          0 0 0 0 0 0
          0 0 0 0 0 0
          0 0 0 0 0 0
          0 0 0 0 0 0
          0 0 0 0 0 0
          0 0 0 0 0 0
          0 0 0 0
        </DataArray>
        <DataArray type="Float64" Name="gradient_error" format="ascii" RangeMin="1.0409149786021583e-10" RangeMax="6.928142673914088e-7">
          6.302243925330041e-10 1.4080831099753814e-7 2.1073984104394084e-9 1.0878486993151392e-9 1.3492455353423096e-9 1.6648729789496447e-7
          1.1099014869386752e-9 9.729247049857077e-8 4.901677907060246e-9 2.5442969403617807e-9 3.0671191794648837e-7 2.488709901266897e-7
          3.506353408345413e-7 1.7341401720952835e-7 7.012247624318543e-8 3.3681870963182315e-7 3.337850095203753e-7 4.504790660479115e-8
          3.7277649455464794e-7 3.857874997309122e-7 5.687480511384788e-9 5.098130880418131e-8 2.857429553022462e-8 2.2927011377129918e-7
          3.723924063128276e-7 3.850713384779795e-7 1.4716839991907826e-7 1.0753318822826044e-7 2.1459313488681307e-8 4.160257870271283e-7
          5.004989172057911e-7 1.2026376002310561e-9 1.2020128320998341e-8 3.7422764593718517e-7 4.202751516015167e-8 2.1596113898744922e-9
          1.7855771099538647e-9 2.1547581210842514e-9 2.6099383499980876e-9 6.645777828863815e-10 8.164494029424685e-10 8.632436040660075e-10
          1.4115428300332374e-9 3.661027345584348e-9 1.148240734606415e-9 4.360368142608939e-10 4.0422265568839135e-10 8.127668445501404e-10
          7.561546527483065e-10 3.724084971158888e-10 1.0721090335397424e-9 2.870144740779293e-7 2.3658201596824243e-7 2.257657789326571e-7
          2.763144379541986e-7 2.9632608145400773e-7 3.7030952808258727e-7 3.2153481884339807e-7 3.989460825822009e-7 2.852411711231465e-7
          2.9045604411244285e-7 1.4734898363802015e-7 3.6676107029143524e-7 4.0332671507381923e-7 3.3838732643397187e-7 1.9089837326833675e-7
          1.5687986353086696e-7 2.7202836167361006e-7 2.2155153466242453e-7 1.4086968770445871e-7 2.553158059625956e-7 2.0522061634384735e-7
          1.0575604687813696e-7 2.0404621078216242e-7 1.8117526169488428e-7 3.211652406252662e-7 2.8550631031005924e-7 2.9434141910192267e-7
          2.3625968745505887e-7 1.5712044163111425e-7 1.248754402685393e-7 2.368576515568995e-7 1.8765254337346726e-7 1.0667122948254445e-7
          2.1700718577351183e-7 1.6926610513480062e-7 7.672806789348872e-8 1.572238680436669e-7 1.3079170729529643e-7 3.5400004272828275e-7
          3.0250305857408086e-7 3.088455834635711e-7 4.224820795842574e-7 3.5056445042928004e-7 4.308184486732388e-7 3.8376346691044444e-7
          4.655747367502375e-7 2.928233239874717e-7 3.983589635081528e-7 1.9228210287893356e-7 4.4609057260456347e-7 4.959966150540654e-7
          3.620795708548371e-7 4.2064977671278615e-7 5.042938276518583e-7 2.7386779161525274e-7 5.461385140758841e-7 4.974596345334373e-7
          4.779534230513798e-7 1.4245024966969878e-8 5.496873321815097e-7 4.7392441218533453e-7 3.80448367230767e-7 1.2433014416746725e-7
          8.720349749890903e-8 1.9615565458624444e-7 2.589009781647122e-7 7.016098106687566e-8 1.748532553004448e-7 3.3851688164282077e-7
          4.152064350877807e-8 2.16765082974183e-7 2.9765110086002155e-7 3.9331846231094967e-7 4.144324903910557e-7 5.150328041584679e-7
          4.4928523378156533e-7 1.882865342138317e-8 3.006691622333023e-7 5.925919369602171e-7 4.5049063926584515e-7 4.147214875067086e-7
          6.609929637082159e-10 3.875251123035613e-7 3.842085499772549e-7 1.3739553033003136e-9 9.343501181323884e-9 1.0982883076078241e-9
          1.2322485531120014e-8 4.812967045872448e-10 2.852835623412247e-9 3.849246850355847e-9 1.7313047059347452e-8 2.3546682754632204e-8
          5.2243745422372495e-9 6.30013380451254e-10 9.0646611569134e-9 3.610851154573839e-10 3.126431927404815e-9 1.7499308933375544e-8
          5.891778739352246e-9 5.105461618137089e-8 1.6011003158682107e-7 4.6376982633351615e-8 2.1633746403386578e-7 2.2479034946675254e-7
          3.0729890893298177e-7 2.7647397021145843e-7 4.188266854129477e-8 1.40486756100753e-7 3.340699624191674e-8 1.2086922971094025e-7
          1.2219904034973053e-8 3.505218852870957e-8 2.4928433652782675e-8 1.8844084314701615e-7 2.755953532496776e-7 1.2080238633184432e-7
          2.5432849334388042e-8 1.0178155453784623e-7 1.8496948531558703e-8 8.238627012484425e-8 5.9423728002385515e-9 1.670933813113153e-8
          1.0418742188959947e-8 3.55598651645222e-7 3.099117978503865e-7 5.7971651355456585e-8 1.9819910302953142e-7 2.8290759096298464e-7
          2.5354571220123766e-7 1.9811021523269663e-7 2.4358617397803614e-7 2.085838725342588e-7 3.2337112476123276e-7 3.5609905315487513e-7
          3.0958972455360037e-7 1.4852020416557226e-7 1.051418292236546e-7 1.741269930409672e-7 1.4048896459066745e-7 2.0857340908225584e-7
          1.3235889323283468e-8 6.34119621662033e-8 9.71252907953216e-9 4.6753918151906614e-8 2.0635497809343284e-9 5.762660895796217e-9
          2.4760434917755036e-9 2.603429489568225e-7 2.1205651694149096e-7 1.89720675457662e-8 7.470140744789585e-9 3.2242144312878444e-8
          5.97337054389241e-10 9.325154803387653e-10 8.036413768917265e-9 2.596061982776657e-7 2.1141917218781604e-7 6.51860414714208e-8
          3.450399915289367e-8 1.0829088111668611e-7 8.361117035641664e-8 1.0188971986196732e-7 2.5434070851509282e-8 3.606300807147232e-8
          2.9463847795466712e-9 2.391579066713982e-9 4.850023923998405e-9 4.030260932428857e-9 1.5539960856215874e-9 3.2621201715707966e-9
          2.975507496525647e-9 1.8367733538812926e-9 3.2104979408593087e-9 2.6888948214804963e-9 1.3815749677308643e-9 8.955046424591627e-10
          4.092380680717159e-9 3.534197767777686e-9 5.678135924992524e-10 5.578513918508614e-9 4.101724882280388e-9 4.0943431718746134e-10
          2.9760148548382115e-9 2.624935846052161e-9 8.416811112276448e-10 6.415695900154187e-10 6.999366912818734e-9 4.2101803198984365e-9
          8.169303022461172e-10 7.831523217606666e-9 4.216169021544159e-9 4.414580688031924e-10 1.4209937269781386e-9 6.008148254816507e-10
          1.4148982080585137e-9 9.248870343259732e-10 7.919990817992614e-9 4.258209032265035e-9 4.3487586059343293e-10 5.964272465374547e-10
          1.687993491668708e-7 1.6078988104169506e-7 1.6078237705473522e-7 1.3749465856136064e-7 2.161486164799772e-7 2.0784141425117e-7
          2.1841920290943597e-7 2.0968794706756304e-7 1.8256910897604543e-7 1.832354846375557e-7 2.998634735757857e-7 2.9425271051077115e-7
          3.0057946966681604e-7 2.7171086061576504e-7 1.0592210043979103e-7 1.4253258145094037e-7 1.0428568492549087e-7 1.4172331577354642e-7
          8.963529667338011e-8 1.194611569721527e-7 1.1793235349767162e-7 2.2501778774493052e-7 2.2681483127545607e-7 1.7878404936905343e-7
          3.3047014634547543e-7 3.368728610608164e-7 3.3627091073232234e-7 3.270120294189242e-7 3.410467967567669e-7 3.4747742220873703e-7
          3.521581090323905e-7 3.586021330918703e-7 3.4575058561178976e-7 3.556389425927723e-7 3.084889536417152e-7 3.4039727826781586e-7
          3.5469249725082113e-7 3.842228903236674e-7 3.008071711290099e-7 2.2694963474806056e-7 3.574879460319996e-7 3.065999960932013e-7
          3.1252136951971357e-7 2.275057325407951e-7 2.2752186012621475e-7 3.674088969201199e-7 3.7775419753680457e-7 2.8811384150219706e-7
          2.0315376395573044e-7 2.6913046270830304e-7 3.718408613167817e-7 2.329544382935102e-7 2.137004309078064e-7 2.8277862814048057e-7
          2.2543047816838074e-7 2.977650657950323e-7 3.885291717592509e-7 4.064317364714206e-7 1.5628748468722844e-7 2.46105070601906e-7
          2.607839810189219e-7 3.843355722539465e-7 3.9081120596880915e-7 3.2445060661735716e-7 4.0100326029278083e-7 4.037737676336376e-7
          4.1728461150776744e-7 3.2966873295281526e-7 3.346084019932436e-7 4.1503722058566676e-7 4.2963485105204275e-7 3.445886825647091e-7
          1.6911376945738818e-7 1.6063829071938503e-7 1.6035402156778525e-7 1.3592928987842197e-7 1.6871104331256948e-7 1.5992790682720955e-7
          1.5936011833073314e-7 1.340462221625303e-7 2.2063062358032829e-7 2.1144688367669624e-7 2.2276758244088877e-7 2.1310080332560854e-7
          1.837522067732414e-7 1.840951297214231e-7 3.1380454632074834e-7 3.0708853305711417e-7 3.1379001599181693e-7 2.8092644027356445e-7
          2.2481273441390512e-7 2.1462748229759288e-7 2.26744195788635e-7 2.1599628765409783e-7 1.842293150428608e-7 1.841249088515865e-7
          3.2882390547647523e-7 3.207012139074768e-7 3.2783919129229e-7 2.8998853253768126e-7 1.0255748345471104e-7 1.407537301732332e-7
          1.0076693879502193e-7 1.3962431087808932e-7 8.541919913396e-8 1.1626619057304768e-7 1.1449238652366093e-7 2.2847684700394338e-7
          2.300162629507676e-7 1.7663128143598864e-7 9.895993710285835e-8 1.3833657681970483e-7 9.725270493725232e-8 1.3685313740451584e-7
          8.097220022250576e-8 1.1265675373496876e-7 1.1070483662541936e-7 2.314625926480936e-7 2.3253091366863082e-7 1.727258336880912e-7
          1.6738537561662624e-7 1.586556654434865e-7 1.5785725783701299e-7 1.32262974907254e-7 1.647793717536821e-7 1.5700371329436572e-7
          1.561659754667369e-7 1.3174556645514392e-7 2.2853763934927882e-7 2.1716644968168117e-7 2.3016362957713683e-7 2.1810276362218013e-7
          1.8374057422727368e-7 1.8301749072787003e-7 3.4519620215551597e-7 3.3522100566452535e-7 3.428693636415734e-7 2.98554411063569e-7
          2.3162429931406667e-7 2.1877751966197298e-7 2.3292664790684996e-7 2.1917840471058646e-7 1.8186581221840554e-7 1.802194940512294e-7
          3.631989225908282e-7 3.5077173579632993e-7 3.589575463518657e-7 3.059990716493327e-7 9.579123346233619e-8 1.3513231257187987e-7
          9.474346632162924e-8 1.3324895270594785e-7 7.698247238051122e-8 1.0857873670329588e-7 1.0650482162337907e-7 2.328228378784449e-7
          2.3250296991341256e-7 1.937826628032864e-7 9.43678585785416e-8 1.312910872538957e-7 9.51893915201858e-8 1.2934656096203656e-7
          7.447263908184471e-8 1.047812900808596e-7 1.036842953359373e-7 2.3174993032327018e-7 2.3032841969383762e-7 1.898462663497066e-7
          3.638358156678405e-7 3.70279074536245e-7 3.761147834261979e-7 3.8255363108987876e-7 3.6593925964408064e-7 3.7662855275830306e-7
          3.355381287270836e-7 3.699644203998819e-7 3.862857668188015e-7 4.1448889651251393e-7 3.8903660622296545e-7 3.9550275162430716e-7
          4.0265126659821046e-7 4.0920304479730964e-7 3.876290384060876e-7 3.99043135800011e-7 3.666316378464843e-7 4.0373579558843366e-7
          4.2234635802336026e-7 4.478166640158776e-7 3.186414288605687e-7 3.250963813216369e-7 2.2684742574035674e-7 2.2528056478352736e-7
          3.886208483265619e-7 4.0017993394634766e-7 2.921010868175216e-7 3.321397927146823e-7 3.390863967710321e-7 2.2258683412212334e-7
          2.4652477954688686e-7 4.127391926868708e-7 4.2543310852929285e-7 2.923744356897898e-7 2.3859409656567815e-7 3.1430578742564155e-7
          2.534951965664248e-7 3.326559235073643e-7 4.256222722611552e-7 4.4615250533648314e-7 1.7832195207464183e-7 2.7731929364378827e-7
          2.9611512865668123e-7 4.238675139063756e-7 2.705368759208861e-7 3.5312942790657807e-7 2.899107275395628e-7 3.7591789117281443e-7
          4.6802593645356806e-7 4.912958568206989e-7 2.0915030315702482e-7 3.177173978379257e-7 3.4250323028641024e-7 4.701119645353849e-7
          4.313549755916111e-7 4.4599998823118e-7 3.391866278247809e-7 3.4332266293112204e-7 4.447473951351044e-7 4.6028202827256016e-7
          3.5647560234731687e-7 4.612496480827396e-7 4.7671707255138564e-7 3.4696240239663923e-7 3.5021374721155267e-7 4.760885274614665e-7
          4.921324641207674e-7 3.6743150474952464e-7 4.170308662359514e-7 4.237199709862986e-7 4.3230392331569073e-7 4.392137251742647e-7
          4.1114122918687783e-7 4.2394839131982267e-7 4.0197413074570546e-7 4.420921967561765e-7 4.6272561634867407e-7 4.844038303172527e-7
          4.4886418180554526e-7 4.560725205996783e-7 4.6690262276075154e-7 4.745802980169193e-7 4.374915939681088e-7 4.5198009260508896e-7
          3.4828973079314315e-7 4.382170497656923e-7 4.1348677884564613e-7 5.248770728995618e-7 3.448082310592896e-7 3.4990651655366605e-7
          2.977430794814691e-7 2.9803977750052545e-7 4.3683936299452515e-7 4.47685775518109e-7 3.3574346680074237e-7 3.552088617351401e-7
          3.604858196362973e-7 2.987153949278742e-7 2.9926942733550355e-7 4.591016616696973e-7 4.7088284013918665e-7 3.390214304157338e-7
          2.5378697134200175e-7 3.721410917361926e-7 2.1460178265488321e-7 3.6788468820467095e-7 5.157148713808474e-7 5.405382188204774e-7
          1.3484410160895158e-7 3.130304149683091e-7 2.821234508856671e-7 5.230138919211005e-7 1.2487279654229268e-7 3.4134021930994027e-7
          2.7844198501493114e-8 2.488684146276307e-7 5.649129429729068e-7 5.258270124396955e-7 1.6778649631397055e-9 2.984977241459764e-7
          1.7219446601045756e-7 5.750428427659096e-7 4.918814163348108e-7 5.070317587429845e-7 3.531641857944665e-7 3.5573141220781123e-7