<?xml version="1.0"?>
<VTKFile type="UnstructuredGrid" version="0.1" byte_order="LittleEndian" header_type="UInt32" compressor="vtkZLibDataCompressor">
  <UnstructuredGrid>
    <Piece NumberOfPoints="1177" NumberOfCells="711">
      <PointData>
        <DataArray type="Int32" Name="libmesh_node_id" format="ascii" RangeMin="466" RangeMax="5181">
          554 555 665 666 668 669
          673 674 675 897 898 904
          908 909 911 912 916 917
          918 919 920 921 922 923
          924 925 926 927 928 929
          930 931 932 933 934 935
          936 937 938 939 942 943
          950 951 953 968 969 972
          974 975 977 1232 1235 1237
          1239 1240 1241 1242 1243 1244
          1245 1266 1268 1270 1272 1753
          1754 1755 1756 1757 1758 1759
          1760 1761 1762 1763 1764 1765
          1766 1767 1768 1769 1770 1771
          1772 1773 1774 1775 1776 1777
          1778 1779 1780 1781 1782 1783
          1784 1785 1786 1787 1788 1789
          1790 1791 1792 1793 1794 1795
          1796 1797 1798 1799 1800 1801
          1804 1805 1807 1810 1812 1813
          1814 1815 1816 1817 1818 1819
          1820 1821 1824 1825 1828 1830
          1832 1833 1834 1835 1836 1837
          1838 1839 1840 1843 1844 1846
          1849 1851 1852 1853 1854 1855
          1856 1857 1858 1859 1860 1862
          1864 1866 1868 1869 1870 1871
          1872 1873 1874 1875 1876 1877
          1878 1879 1880 1881 1882 1883
          1884 1885 1886 1887 1888 1889
          1890 1891 1892 1893 1894 1895
          1896 1897 1898 1899 1900 1901
          1902 1903 1904 1905 1906 1907
          1908 1909 1910 1911 1912 1913
          1914 1915 1916 1917 1918 1919
          1920 1921 1922 1923 1924 1925
          1926 1927 1928 1929 1930 1931
          1932 1933 1934 1935 1936 1937
          1938 1939 1940 1941 1942 1943
          1944 1945 1946 1947 1948 1949
          1950 1951 1952 1953 1954 1955
          1956 1957 1958 1959 1960 1964
          1965 1967 1968 1970 1971 1972
          1973 1974 1976 2011 2012 2013
          2014 2015 2016 2017 2018 2019
          2020 2025 2030 2031 2032 2033
          2034 2035 2036 2037 2038 2040
          2042 2044 2045 2046 2047 2048
          2049 2050 2051 2052 2053 2054
          2055 2056 2059 2061 2062 2064
          2065 2066 2067 2068 2069 2070
          2071 2072 2074 2076 2078 2692
          2693 2694 2695 2696 2697 2698
          2699 2700 2701 2702 2703 2704
          2705 2706 2707 2708 2709 2710
          2711 2712 2713 2714 2715 2757
          2758 2759 2760 2761 2762 2763
          2764 2765 2766 2767 2768 2769
          2770 2771 2772 2773 2774 2775
          2776 2777 2778 2779 2780 2781
          2782 2783 2784 2785 2786 2787
          2788 2789 2790 2791 2792 2793
          2794 2795 2796 2797 2798 2799
          2800 2801 2802 2803 2804 2805
          2806 2807 2808 2809 2810 2811
          2812 2813 2814 2815 2816 2817
          2818 2819 2820 2821 2822 2823
          2824 2825 2826 2827 2828 2829
          2830 2831 2832 2833 2834 2835
          2836 2837 2838 2839 2840 2842
          2843 2844 2845 2853 2854 2855
          2856 2858 2859 2860 2861 2862
          2863 2864 2865 2866 2867 2868
          2869 2870 2871 2872 2873 2874
          2875 2876 2877 2878 2879 2880
          2881 2882 2883 2884 2885 2886
          2887 2888 2889 2890 2891 2892
          2893 2894 2895 2896 2897 2898
          2899 2900 2901 2902 2903 2904
          2905 2906 2907 2908 2909 2910
          2911 2912 2913 2914 2915 2916
          2917 2918 2919 2920 2921 2922
          2923 2924 2925 2926 2927 2928
          2929 2930 2941 2942 2943 2944
          2945 2946 2947 2950 2954 2955
          2956 2957 2958 2959 2960 2961
          2962 2963 2964 2975 2976 2977
          2978 2979 2980 2981 4399 4400
          4401 4409 4410 4411 4412 4413
          4414 4415 4416 4417 4418 4419
          4420 4421 4644 4645 4646 4647
          4648 4649 4650 4651 4652 4653
          4654 4655 4656 4657 4658 4659
          4660 4661 4662 4663 4664 4665
          4666 4667 4668 4669 4670 4671
          4672 4673 4674 4675 4676 4677
          4678 4679 4680 4681 4682 4683
          4684 4685 4686 4687 4688 4689
          4690 4691 4692 4693 4694 4695
          4696 4697 4698 4699 4700 4701
          4702 4703 4704 4705 4706 4707
          4708 4709 4710 4711 4712 4713
          4714 4715 4716 4717 4718 4719
          4720 4721 4722 4723 4724 4725
          4726 4727 4728 4729 4730 4731
          4732 4733 4734 4735 4736 4737
          4738 4739 4740 4741 4742 4743
          4744 4745 4746 4747 4748 4749
          4750 4751 4752 4753 4754 4755
          4756 4757 4758 4759 4760 4761
          4762 4763 4764 4765 4766 4767
          4768 4769 4770 4771 4772 4773
          4774 4775 4776 4777 4778 4779
          4780 4781 4782 4783 4784 4785
          4786 4787 4788 4789 4790 4791
          4792 4793 4794 4795 4796 4797
          4798 4799 4800 4801 4802 4803
          4804 4805 4806 4807 4808 4809
          4810 4811 4812 4813 4814 4815
          4816 4817 4818 4819 4820 4821
          4822 4823 4824 4825 4826 4827
          4828 4829 4830 4831 4832 4833
          4834 4835 4836 4837 4838 4839
          4840 4841 4842 4843 4844 4845
          4846 4847 4848 4849 4850 4851
          4852 4853 4854 4855 4856 4857
          4858 4859 4860 4861 4862 4863
          4864 4865 4866 4867 4868 4869
          4870 4871 4872 4873 4874 4875
          4876 4877 4878 4879 4880 4881
          4882 4883 4884 4885 4886 4887
          4888 4889 4890 4891 4892 4893
          4894 4895 4896 4897 4898 4899
          4900 4901 4902 4903 4904 4905
          4906 4907 4908 4909 4910 4911
          4912 4913 4914 4915 4916 4917
          4918 4919 4920 4921 4922 4923
          4924 4925 4926 4927 4928 4929
          4930 4931 4932 4933 4934 4935
          4936 4937 4938 4939 4940 4941
          4942 4943 4944 4945 4946 4947
          4948 4949 4950 4951 4952 4953
          4954 4955 4956 4957 4958 4959
          4960 4961 4962 4963 4964 4965
          4966 4967 4968 4969 4970 4971
          4972 4973 4974 4975 4976 4977
          4978 4979 4981 4986 4988 4992
          4993 4996 4998 4999 5001 5012
          5014 5016 5018 5027 5028 5029
          5030 5031 5032 5033 5034 5035
          5036 5037 5038 5039 5040 5041
          5042 5043 5044 5045 5046 5047
          5048 5049 5050 5051 5052 5053
          5054 5055 5056 5057 5058 5059
          5060 5061 5062 5063 5064 5065
          5066 5067 5068 5069 5070 5071
          5072 5073 5074 5075 5076 5077
          5078 5079 5080 5081 5082 5083
          5084 5085 5086 5087 5088 5089
          5090 5091 5092 5093 5094 5095
          5096 5099 5101 5102 5104 5115
          5117 5119 5121 5129 5130 5133
          5135 5136 5138 5149 5151 5153
          5155 5163 5164 5165 5166 5167
          5169 5175 5177 5179 5181 892
          663 896 893 894 895 664
          899 901 900 903 905 906
          907 466 910 913 914 667
          915 940 941 677 944 945
          946 947 948 678 949 952
          680 671 672 1111 1109 676
          1116 1115 685 1119 690 1125
          1218 1219 1226 1227 1221 1228
          1230 1231 1233 1234 1236 1238
          1229 1247 1253 1249 1254 973
          1267 1255 1269 688 1271 1743
          1744 1745 1748 902 1751 1749
          1750 1802 1803 1752 1806 1808
          1809 1811 1822 1823 1826 1827
          1829 1831 1841 1842 1845 1847
          1848 1850 1861 1863 1865 1867
          1961 1962 1963 1966 679 1969
          2021 2022 2023 2024 2026 2027
          2028 2029 971 1975 2039 2041
          2043 2060 2073 2075 976 2077
          2489 2849 2850 2931 2932 2852
          2935 2948 2857 2936 2949 2951
          2940 2952 2953 2969 2982 2984
          2983 2985 2986 2988 4391 4389
          4392 4390 4397 4396 4403 4402
          4407 4406 4405 4980 4994 4995
          4997 2937 5000 2938 4987 5013
          5015 5017 5097 5098 5100 2965
          5103 2966 5116 5118 5120 5131
          5132 5134 2971 5137 2972 5150
          5152 5154 2974 5168 5176 5178
          5180
        </DataArray>
        <DataArray type="Float64" Name="bounds" format="ascii" RangeMin="0" RangeMax="0">
          0 0 0 0 0 0
          0 0 0 0 0 0
          0 0 0 0 0 0
          0 0 0 0 0 0
          0 0 0 0 0 0
          0 0 0 0 0 0
          0 0 0 0 0 0
          0 0 0 0 0 0
          0 0 0 0 0 0
          0 0 0 0 0 0
          0 0 0 0 0 0
          0 0 0 0 0 0
          0 0 0 0 0 0
          0 0 0 0 0 0
          0 0 0 0 0 0
          0 0 0 0 0 0
          0 0 0 0 0 0
          0 0 0 0 0 0
          0 0 0 0 0 0
          0 0 0 0 0 0
          0 0 0 0 0 0
          0 0 0 0 0 0
          0 0 0 0 0 0
          0 0 0 0 0 0
          0 0 0 0 0 0
          0 0 0 0 0 0
          0 0 0 0 0 0
          0 0 0 0 0 0
          0 0 0 0 0 0
          0 0 0 0 0 0
          0 0 0 0 0 0
          0 0 0 0 0 0
          0 0 0 0 0 0
          0 0 0 0 0 0
          0 0 0 0 0 0
          0 0 0 0 0 0
          0 0 0 0 0 0
          0 0 0 0 0 0
          0 0 0 0 0 0
          0 0 0 0 0 0
          0 0 0 0 0 0
          0 0 0 0 0 0
          0 0 0 0 0 0
          0 0 0 0 0 0
          0 0 0 0 0 0
          0 0 0 0 0 0
          0 0 0 0 0 0
          0 0 0 0 0 0
          0 0 0 0 0 0
          0 0 0 0 0 0
          0 0 0 0 0 0
          0 0 0 0 0 0
          0 0 0 0 0 0
          0 0 0 0 0 0
          0 0 0 0 0 0
          0 0 0 0 0 0
          0 0 0 0 0 0
          0 0 0 0 0 0
          0 0 0 0 0 0
          0 0 0 0 0 0
          0 0 0 0 0 0
          0 0 0 0 0 0
          0 0 0 0 0 0
          0 0 0 0 0 0
          0 0 0 0 0 0
          0 0 0 0 0 0
          0 0 0 0 0 0
          0 0 0 0 0 0
          0 0 0 0 0 0
          0 0 0 0 0 0
          0 0 0 0 0 0
          0 0 0 0 0 0
          0 0 0 0 0 0
          0 0 0 0 0 0
          0 0 0 0 0 0
          0 0 0 0 0 0
          0 0 0 0 0 0
          0 0 0 0 0 0
          0 0 0 0 0 0
          0 0 0 0 0 0
          0 0 0 0 0 0
          0 0 0 0 0 0
          0 0 0 0 0 0
          0 0 0 0 0 0
          0 0 0 0 0 0
          0 0 0 0 0 0
          0 0 0 0 0 0
          0 0 0 0 0 0
          0 0 0 0 0 0
          0 0 0 0 0 0
          0 0 0 0 0 0
          0 0 0 0 0 0
          0 0 0 0 0 0
          0 0 0 0 0 0
          0 0 0 0 0 0
          0 0 0 0 0 0
          0 0 0 0 0 0
          0 0 0 0 0 0
          0 0 0 0 0 0
          0 0 0 0 0 0
          0 0 0 0 0 0
          0 0 0 0 0 0
          0 0 0 0 0 0
          0 0 0 0 0 0
          0 0 0 0 0 0
          0 0 0 0 0 0
          0 0 0 0 0 0
          0 0 0 0 0 0
          0 0 0 0 0 0
          0 0 0 0 0 0
          0 0 0 0 0 0
          0 0 0 0 0 0
          0 0 0 0 0 0
          0 0 0 0 0 0
          0 0 0 0 0 0
          0 0 0 0 0 0
          0 0 0 0 0 0
          0 0 0 0 0 0
          0 0 0 0 0 0
          0 0 0 0 0 0
          0 0 0 0 0 0
          0 0 0 0 0 0
          0 0 0 0 0 0
          0 0 0 0 0 0
          0 0 0 0 0 0
          0 0 0 0 0 0
          0 0 0 0 0 0
          0 0 0 0 0 0
          0 0 0 0 0 0
          0 0 0 0 0 0
          0 0 0 0 0 0
          0 0 0 0 0 0
          0 0 0 0 0 0
          0 0 0 0 0 0
          0 0 0 0 0 0
          0 0 0 0 0 0
          0 0 0 0 0 0
          0 0 0 0 0 0
          0 0 0 0 0 0
          0 0 0 0 0 0
          0 0 0 0 0 0
          0 0 0 0 0 0
          0 0 0 0 0 0
          0 0 0 0 0 0
          0 0 0 0 0 0
          0 0 0 0 0 0
          0 0 0 0 0 0
          0 0 0 0 0 0
          0 0 0 0 0 0
          0 0 0 0 0 0
          0 0 0 0 0 0
          0 0 0 0 0 0
          0 0 0 0 0 0
          0 0 0 0 0 0
          0 0 0 0 0 0
          0 0 0 0 0 0
          0 0 0 0 0 0
          0 0 0 0 0 0
          0 0 0 0 0 0
          0 0 0 0 0 0
          0 0 0 0 0 0
          0 0 0 0 0 0
          0 0 0 0 0 0
          0 0 0 0 0 0
          0 0 0 0 0 0
          0 0 0 0 0 0
          0 0 0 0 0 0
          0 0 0 0 0 0
          0 0 0 0 0 0
          0 0 0 0 0 0
          0 0 0 0 0 0
          0 0 0 0 0 0
          0 0 0 0 0 0
          0 0 0 0 0 0
          0 0 0 0 0 0
          0 0 0 0 0 0
          0 0 0 0 0 0
          0 0 0 0 0 0
          0 0 0 0 0 0
          0 0 0 0 0 0
          0 0 0 0 0 0
          0 0 0 0 0 0
          0 0 0 0 0 0
          0 0 0 0 0 0
          0 0 0 0 0 0
          0 0 0 0 0 0
          0 0 0 0 0 0
          0 0 0 0 0 0
          0 0 0 0 0 0
          0 0 0 0 0 0
          0 0 0 0 0 0
          0 0 0 0 0 0
          0 0 0 0 0 0
          0 0 0 0 0 0
          0 0 0 0 0 0
          0 0 0 0 0 0
          0
        </DataArray>
        <DataArray type="Float64" Name="gradient_error" format="ascii" RangeMin="6.21510393814357e-10" RangeMax="6.676685390317105e-7">
          9.38173623241785e-10 4.509896873289013e-8 3.011833560221068e-7 5.044882201568843e-7 3.3068747293970443e-7 3.899808628252901e-7
          2.436527641343511e-7 3.406844373822328e-7 3.3888125368470577e-7 1.3762237158435282e-7 2.8378142842478354e-7 4.0315702095598304e-7
          1.1727419297591302e-7 2.522989355111769e-7 9.676039338203418e-8 2.181054131696176e-7 3.1611646531194084e-7 3.939463683605456e-7
          3.796107673965107e-7 4.521071994193817e-7 3.695363437433001e-7 4.180846479428495e-7 4.1694309734761304e-7 4.619607765079747e-7
          3.4178260831700464e-7 4.211802042964911e-7 1.973822963737813e-7 4.373992335833771e-7 5.020421325980067e-7 3.313209809451437e-7
          4.7286328144926824e-7 5.117640763833732e-7 3.132291277415264e-7 5.673516188102133e-7 3.9829058983781047e-7 3.6508083094203667e-7
          1.6478185121082344e-8 5.758613254742362e-7 3.7972241752706926e-7 3.446248475556558e-7 7.645784528883052e-8 1.8202053668687085e-7
          3.4390480636953567e-7 3.5885989491904923e-7 3.207909468306514e-7 3.5847982622098054e-7 5.477523252111213e-7 4.092530046775037e-7
          6.4148274438067e-10 4.268106028043866e-7 4.900682140946183e-7 2.998808060355639e-7 1.3503386845828804e-7 1.5533695642069179e-7
          2.5085030625644727e-7 1.9896888464492913e-7 9.033947821355969e-8 4.923081806934025e-8 1.2020651279542017e-7 8.886514750189472e-8
          1.2987947736899506e-7 2.4228249331158855e-7 2.156263446630995e-8 2.4649358553106977e-7 3.119633880034927e-8 1.1535849601731111e-7
          1.171168280637205e-7 1.7299573496668825e-7 1.624388973352152e-7 1.1356909938720091e-7 1.7212541565457143e-7 1.61062503383421e-7
          1.1887516011012992e-7 1.5188205970374214e-7 1.4999959111227056e-7 2.938947607886986e-7 2.79390822576216e-7 2.8563050129388535e-7
          2.701891628971285e-7 1.0779970335355218e-7 1.0954976439730548e-7 1.7076355351138582e-7 1.591919664754369e-7 1.0505730366908398e-7
          1.6883260189575928e-7 1.5675926502511012e-7 1.1129982544105876e-7 1.476203794394879e-7 1.446859281544609e-7 3.086022888649834e-7
          2.918726987291491e-7 2.980737127350088e-7 2.791342490666207e-7 9.852034895625585e-8 1.000989939781627e-7 1.6628360529626143e-7
          1.5371768449481179e-7 9.472152097195702e-8 1.6306567926042985e-7 1.5001812973902765e-7 1.0167763900006956e-7 1.411517636933621e-7
          1.3697058021762542e-7 3.23538680650334e-7 3.040681214718247e-7 3.0968417855041426e-7 2.866078394965051e-7 2.401474832266326e-7
          2.403376000598379e-7 2.391563917907472e-7 1.9317843644003254e-7 2.3710696302583205e-7 2.3374949475505375e-7 1.835855321487796e-7
          3.735079075446541e-7 3.73861269337234e-7 3.5171586131706285e-7 3.9509627274136724e-7 3.90069647622286e-7 3.897639091316312e-7
          4.0769582877660707e-7 4.0663992527536823e-7 3.636798472620458e-7 3.761200221241864e-7 3.9214024661862094e-7 4.1857540952941026e-7
          4.4417223223703125e-7 4.39266634573945e-7 2.388707726864188e-7 2.88081954920905e-7 2.0667298479039824e-7 3.733000357491726e-7
          2.400028670095526e-7 2.928806200210519e-7 2.9685613638163984e-7 1.992120140551865e-7 2.4785971615898864e-7 2.470562502890363e-7
          3.854866168920568e-7 3.971093168075424e-7 2.92958148066934e-7 2.672387555312457e-7 3.3969688563022023e-7 4.3795481209771993e-7
          2.970893773060275e-7 2.8965748473332745e-7 3.663317824680818e-7 3.160352170228929e-7 3.968140903251822e-7 4.660722225448767e-7
          4.967886374468482e-7 2.1801722381265315e-7 3.240198855948834e-7 3.5585847151890877e-7 4.6813160576893936e-7 4.2400792957961247e-7
          3.103607077170479e-7 4.3870892481627094e-7 4.4201967344311577e-7 4.6028452962659777e-7 3.1385631555851135e-7 3.165737515098015e-7
          4.5882448613466923e-7 4.797250983415525e-7 3.3652911814801714e-7 4.264588988629945e-7 4.245526909017031e-7 4.4658017642486217e-7
          4.436802684390629e-7 3.8895460079842465e-7 4.0222324535340976e-7 4.442146538281702e-7 4.7211052328646755e-7 5.019129370935603e-7
          4.860815546556627e-7 4.6880444114314463e-7 4.6458255505702236e-7 4.935781358868489e-7 4.875092514782342e-7 4.160128989813425e-7
          4.3023115151887804e-7 3.944811112558949e-7 4.789377740693812e-7 4.5621502475688624e-7 5.387783540056151e-7 3.00648707323166e-7
          3.039137248295822e-7 2.4603469598989434e-7 2.441613194056085e-7 4.0910758678664047e-7 4.211905946773901e-7 2.9498398421770574e-7
          3.0628023555484175e-7 3.0744399122521037e-7 2.408953421178985e-7 2.3586604648228424e-7 4.331392780714172e-7 4.447858354111315e-7
          2.924599988523635e-7 2.8351535979641514e-7 3.998807363369527e-7 2.4772924476649734e-7 4.028594049686158e-7 5.298199600301422e-7
          5.641623745610618e-7 1.4577636787807975e-7 3.2998139642132666e-7 3.0216277132643776e-7 5.386551054648359e-7 1.4591245694891024e-7
          3.1013930358571435e-7 3.4043081151069794e-8 2.0408354092157874e-7 5.323527824003308e-7 4.989011255246308e-7 1.5281924798041101e-9
          1.7829378577208433e-7 4.222550623045354e-8 4.802327132261502e-7 4.791175450521482e-7 4.985505900685092e-7 3.1827602950379096e-7
          3.1846071339956895e-7 5.01169847950715e-7 5.233910486506554e-7 3.435215604509014e-7 5.189064820482338e-7 5.404478582643163e-7
          3.1647400503647943e-7 3.115521185180884e-7 5.469879160374846e-7 5.724625334017367e-7 3.433605878379223e-7 8.800198268235415e-8
          8.902103698340864e-8 1.5907733249311122e-7 1.4557241635157974e-7 8.318605335096024e-8 1.542283141450957e-7 1.402986650177083e-7
          9.004009128446314e-8 1.320675002100482e-7 1.263690158903209e-7 3.3751644153519615e-7 3.148488866113532e-7 3.193972318895833e-7
          2.912128935003435e-7 7.788236759313505e-8 7.74850227117115e-8 1.4838279701841173e-7 1.3409086856744215e-7 7.708767783028794e-8
          1.1979894011647256e-7 3.497276385750889e-7 3.231062669454975e-7 2.909741588284746e-7 2.2878704471523554e-7 2.2192129457837252e-7
          1.6829807230446106e-7 2.1289687167258385e-7 1.458410574915562e-7 5.206415636581129e-7 5.12156485085228e-7 5.500879283242186e-7
          5.385272282543007e-7 4.4459720281217507e-7 4.587883570840381e-7 3.3444122416917224e-7 4.864643425636661e-7 4.372264327629808e-7
          5.981296962975555e-7 4.7255494559237543e-7 4.942647349325419e-7 3.07096083903312e-7 3.0477455440447263e-7 2.2866916869461683e-7
          2.1893892282525195e-7 4.559798320547727e-7 4.6539727364246727e-7 2.8002213500580996e-7 2.999297470423022e-7 2.063803350766903e-7
          4.7118409968758377e-7 3.393326334452254e-7 3.5304830945441814e-8 2.1178442551275274e-7 5.323666202347566e-9 1.445651644249888e-7
          5.291436741196395e-7 4.793596055051846e-7 7.307091529738466e-10 4.4943920459350225e-8 4.706971498775562e-8 4.0270206539705013e-7
          3.6604634217885683e-9 5.3334391769078694e-8 4.2775134277830766e-7 6.467115388237814e-10 2.8721199685423306e-8 4.539350604135748e-7
          5.633965482801964e-7 5.852123783074674e-7 3.029163091490255e-7 3.520383098190886e-7 6.002385555422357e-7 6.272580235605725e-7
          3.3031954833172246e-7 6.023292824870235e-7 4.545500272325882e-7 6.492529880108999e-7 4.973544002365499e-7 1.3959956336323384e-7
          1.4888555998313136e-7 1.533316528950559e-7 1.6266417790246944e-7 1.2865189220181895e-7 1.422350229636067e-7 1.064415002307447e-7
          1.0628315430699346e-7 1.1200734607728848e-7 1.029446444566856e-7 1.6706374242687796e-7 1.764427958218075e-7 1.5581815372539446e-7
          1.0612480838324222e-7 1.1558920521386755e-7 1.2892354736373646e-7 1.084391493233646e-7 1.2161522497420035e-7 9.740940000517401e-8
          1.0438550421258828e-7 1.0660274542717824e-7 1.4225788951360539e-7 1.347913006250361e-7 1.1136160842000254e-7 6.263318048438431e-8
          6.480361283708984e-8 6.497015897182599e-8 6.864359828990437e-8 6.513670510656214e-8 3.944929427988849e-8 4.034174312237459e-8
          4.263564989616243e-8 4.813076262786512e-8 4.492955666995028e-8 3.593143204822362e-8 3.856327783974293e-8 4.119512363126224e-8
          3.767726139959736e-8 3.5842146659374026e-8 4.05604814419737e-8 3.085227022881523e-8 4.1361706002470566e-8 4.5278816224573374e-8
          5.189183952908925e-8 3.1342550196373465e-8 3.8485312987784965e-8 3.4687140225785556e-8 4.5628075779196465e-8 6.20293103235527e-8
          6.241276137097802e-8 6.279621241840335e-8 4.8966243805286834e-8 5.204258960836925e-8 4.966122298358471e-8 5.511893541145166e-8
          6.273739246372643e-8 6.411138246123091e-8 6.472751246736047e-8 6.722632302361263e-8 6.548537245873541e-8 6.972513357986478e-8
          3.364351008781416e-8 4.836205824154835e-8 4.3234693104341066e-8 6.714064022923603e-8 7.517936239688702e-8 7.725889144888195e-8
          8.091430103284724e-8 7.89450772312177e-8 2.665337232443733e-8 4.158162295233268e-8 1.5970540507351705e-8 3.124123165103123e-8
          5.619951948357726e-8 5.539115819134489e-8 2.278862103037062e-9 3.119403767688703e-8 1.9004973025789465e-8 5.728010355570286e-8
          3.726293798618841e-9 1.9637940272356712e-8 2.8458909455522977e-9 1.2865474143786113e-8 5.462787847547013e-8 4.9352472497543245e-8
          1.1772223569264284e-9 5.27756339398761e-9 4.6580096133756685e-9 4.143018759144203e-8 7.595713518650768e-8 7.740261208744217e-8
          7.673490797612832e-8 7.769640109664984e-8 8.10368177589228e-8 8.020885643581781e-8 8.471889906551825e-8 7.813391074441773e-8
          8.115933448499837e-8 8.147263564041789e-8 7.030652963908208e-8 7.115366222714366e-8 7.351855696380258e-8 7.200079481520524e-8
          7.51848657483327e-8 7.632831883212796e-8 7.992935233265557e-8 7.747177191592323e-8 9.03491114712034e-8 8.300747362037449e-8
          8.40328998032456e-8 8.825488497212714e-8 8.931797378666254e-8 9.313246438494052e-8 9.811774994115107e-8 9.26873071826727e-8
          1.0249719680653948e-7 1.0239747155551105e-7 6.69977154661677e-8 6.98244810485111e-8 6.878522879852371e-8 7.203063933940858e-8
          7.265124663085448e-8 7.527604988029348e-8 3.4894838395416226e-8 3.796506197118852e-8 3.893044659130672e-8 5.4407654120894924e-8
          5.615946401637124e-8 6.701158078601178e-8 4.396423524382582e-8 6.22760992818066e-8 7.79221036142111e-8 8.489986690044497e-8
          2.0785700711285596e-8 3.2393272789657184e-8 2.5481637338590862e-8 5.831054098469981e-8 8.410816552573952e-8 8.72990165203637e-8
          8.666359166886952e-8 9.3114175468144e-8 9.284407446555759e-8 9.044216368964063e-8 9.434658534621522e-8 9.325236324265915e-8
          2.2019895590238676e-9 5.523517255318126e-9 1.7478045428740217e-9 4.9265418923307e-9 4.4421828865972376e-8 4.590696813055638e-8
          8.069820009428714e-10 4.051729428676437e-9 3.5413673309924795e-9 4.3667590333991635e-8 1.4282853156688824e-9 4.344480219996248e-9
          1.2531425388442068e-9 3.802109187291422e-9 4.7253743227874304e-8 4.844406169157835e-8 6.78353211920468e-10 3.126351738849051e-9
          2.757313890011198e-9 4.6025500997931355e-8 8.417781271381042e-8 8.719099054909318e-8 8.799386507299063e-8 9.116035595463479e-8
          8.424745990188132e-8 8.708296457782262e-8 8.932413847711177e-8 9.015359142115336e-8 9.31708166400321e-8 9.445241835947787e-8
          9.80498203957614e-8 8.986501915266609e-8 9.276137499328367e-8 9.565247347629659e-8 4.61656565545369e-8 5.5772358700335225e-8
          4.805930618015512e-8 4.912990259330467e-8 7.999183338700661e-8 7.408697925317316e-8 4.401057075346574e-9 1.6380633717565654e-8
          6.65843507508626e-9 6.082413445766987e-8 9.530460059745122e-8 9.96630425636244e-8 9.604992028748141e-8 1.0146987520386256e-7
          9.716450456603653e-8 1.0085611339372382e-7 1.0039104577096335e-7 1.0583977574528354e-7 1.100680830922693e-7 1.1443939631254507e-9
          3.3229338426368677e-9 1.0972007179039448e-9 2.9428402597583967e-9 4.9529243575251733e-8 4.0465205381567936e-8 6.21510393814357e-10
          2.441881908424718e-9 2.2202518490210196e-9 4.814843046359455e-8 9.633598678033225e-8 8.970492711937748e-8 1.0200449325438936e-7
          1.0637651100512614e-7 9.581970123855335e-8 7.892986980955183e-8 1.0263942835914213e-7 1.6857408359692754e-7 1.6325252843679972e-7
          1.331747971458998e-7 1.8205576731112298e-7 1.7684699318996678e-7 1.3129988550453785e-7 1.2513123134730132e-7 1.9553745102531843e-7
          1.9044145794313386e-7 1.2942497386317588e-7 1.5672858140066007e-7 1.2062212416164444e-7 1.7043509289992467e-7 1.1853331245976341e-7
          1.8414160439918932e-7 1.1644450075788234e-7 4.4179823137118665e-9 4.198205996814076e-9 4.3818872510091666e-9 4.565568505204257e-9
          4.3457921883064666e-9 6.738637267861014e-9 6.4527505045953695e-9 6.755167452949909e-9 6.77184696996688e-9 7.057584401304448e-9
          6.664594929823505e-9 6.781880142224558e-9 6.75447028972893e-9 6.899165354625612e-9 7.832401107538051e-9 4.458403094331707e-9
          4.566433472826547e-9 4.650854940238611e-9 4.674463851321387e-9 6.150131388366656e-9 6.5303202045694755e-9 6.910509020772296e-9
          4.1311022800826136e-9 4.540088057029651e-9 4.992356971940367e-9 4.949073833976687e-9 7.951467231645134e-9 3.8389066528276455e-9
          4.324545539676349e-9 3.3096814733124417e-9 4.17213594539637e-9 4.810184426525052e-9 5.0345904174803e-9 3.2194102113235837e-9
          4.08265760652615e-9 3.6934169505541296e-9 4.945905001728717e-9 2.995887804524349e-9 4.0062677645978375e-9 2.6326896256575857e-9
          3.76298098236864e-9 5.016647724671326e-9 5.738801522763474e-9 1.8606733289660843e-9 3.472447472166025e-9 3.198428077465701e-9
          5.084221615365966e-9 7.650376584506667e-9 7.87089327888231e-9 7.349285937368201e-9 6.040961737108666e-9 6.4552709712169834e-9
          5.838854905408982e-9 6.2877178561706474e-9 6.869580205325302e-9 6.736580806932312e-9 4.323386202334648e-9 5.029142865579434e-9
          4.643280237341603e-9 6.358647506329479e-9 5.578134257352381e-9 6.105533273946649e-9 5.233716294424585e-9 5.880976310278841e-9
          6.6329322905409156e-9 6.974310554330753e-9 3.2606925981145487e-9 4.293897943713634e-9 3.925651438236908e-9 5.982315951868012e-9
          7.89538552443752e-9 7.772249851854178e-9 8.184627587535044e-9 7.94108619346548e-9 8.0157133762049e-9 7.690039149482238e-9
          7.772060209471841e-9 8.087337021985878e-9 2.1706182852590074e-9 3.3565133444266058e-9 1.7839741143057085e-9 2.969491106126592e-9
          5.928466931131691e-9 5.636599226988174e-9 1.3236371354706823e-9 2.810115447178402e-9 2.4560104799443905e-9 5.659750607442239e-9
          1.5347049958000573e-9 2.67677707946249e-9 1.3473619408270428e-9 2.411818098961347e-9 5.380105732251212e-9 5.08508796780548e-9
          1.0396983802522742e-9 2.1949446771664502e-9 1.9798156522776304e-9 4.970087149928516e-9 7.646791747954698e-9 7.607504305796925e-9
          7.97905803724022e-9 8.096818255564975e-9 7.3981979714718755e-9 7.44275875973967e-9 7.773488486945397e-9 7.52906593561149e-9
          7.4261424142125e-9 8.116769569845478e-9 8.15838314990969e-9 7.3680927217407425e-9 7.219080153913694e-9 8.146202117705079e-9
          6.338709972645533e-9 6.637616731998976e-9 6.449440245641712e-9 7.434387612170834e-9 5.824110965952786e-9 6.220564154409631e-9
          5.966617331169481e-9 7.391733157040139e-9 7.991670815531994e-9 8.220033842432115e-9 8.051089898074738e-9 8.33714833102529e-9
          8.426984553349665e-9 8.50784769083678e-9 8.546024779862472e-9 8.8154481343025e-9 8.726713818968498e-9 9.000935199577471e-9
          8.637979503634495e-9 8.410315367516083e-9 8.399087743454518e-9 8.387860119392957e-9 5.181477849036566e-9 5.69900919063068e-9
          6.301442873619208e-9 7.236449277225939e-9 8.31535888571346e-9 8.408332359736673e-9 8.148377284695904e-9 8.388822774314657e-9
          8.501305833759885e-9 8.629268263933412e-9 5.9125815178179406e-9 6.440587081396053e-9 6.030588757934469e-9 7.385566384031471e-9
          8.514498291609938e-9 8.59483224049108e-9 8.772638560992789e-9 8.649237828378538e-9 8.68731920822991e-9 9.078961794610995e-9
          4.893427180203909e-9 5.5813262280672476e-9 4.56542781761733e-9 5.257772681024616e-9 7.0303009773343876e-9 6.832187650489815e-9
          2.4944994881769332e-9 3.540460577636547e-9 3.1827846564399885e-9 5.8958367840790765e-9 4.244666909562185e-9 4.944912115347844e-9
          3.931974488696284e-9 4.638189422531095e-9 6.667247224588977e-9 6.4846758474073594e-9 1.955978689303125e-9 2.8749220064861218e-9
          2.6046467603454477e-9 5.221664081546923e-9 8.003921326835686e-9 8.100828237717693e-9 8.216465974933183e-9 8.487398718887657e-9
          7.769217628371138e-9 7.682676067047339e-9 8.333183355680285e-9 8.149769324416488e-9 8.17127235924136e-9 8.610201520788527e-9
          8.717597380033905e-9 7.598632652011126e-9 7.491952962202867e-9 8.547802464597526e-9 1.2019846515289925e-9 2.1764789171512053e-9
          1.0904404906675374e-9 1.972087334917441e-9 4.756281807013574e-9 4.434606355415789e-9 8.631147144664027e-10 1.797072403164836e-9
          1.6447104733624235e-9 4.347104388366936e-9 1.0054797053608517e-9 1.8004274173648599e-9 9.405476719040856e-10 1.6594953312915563e-9
          4.141220669464469e-9 3.871635444219002e-9 7.642248852870389e-10 1.5202708980435334e-9 1.419458655784927e-9 3.781874467972909e-9