<?xml version="1.0"?>
<VTKFile type="UnstructuredGrid" version="0.1" byte_order="LittleEndian" header_type="UInt32" compressor="vtkZLibDataCompressor">
  <UnstructuredGrid>
    <Piece NumberOfPoints="613" NumberOfCells="352">
      <PointData>
        <DataArray type="Int32" Name="libmesh_node_id" format="ascii" RangeMin="254" RangeMax="5478">
          254 448 449 450 453 454
          456 664 1086 1087 1090 1092
          1094 1095 1096 1097 1098 1099
          1100 1101 1102 1103 1104 1105
          1106 1107 1151 1152 1154 1155
          1157 1158 1159 1160 1161 1162
          1163 1164 1165 1166 1167 1168
          1958 1959 1961 1962 1963 1964
          1974 1978 1988 1990 1991 1992
          1993 1995 1996 1997 1998 2008
          2012 2014 2015 2016 2017 2018
          2019 2020 2021 2022 2023 2024
          2025 2026 2027 2028 2029 2030
          2031 2032 2033 2034 2035 2036
          2037 2038 2039 2040 2041 2042
          2043 2044 2045 2046 2047 2048
          2049 2050 2051 2052 2053 2054
          2213 2215 2217 2218 2269 2270
          2271 2272 2273 2274 2275 2276
          2277 2278 2279 2280 2281 2282
          2341 2342 2343 2344 2345 2346
          2347 2348 2349 2350 2351 2352
          2353 2354 2372 2373 2374 2375
          2376 2377 2378 2379 2380 2381
          2382 2383 2384 2385 2386 2387
          2388 2389 2390 2391 2392 2393
          2394 2395 2396 2397 2398 4910
          4911 4913 4914 4915 4916 4917
          4926 4928 4929 4930 4934 4935
          4937 4940 4942 4943 4944 4945
          4946 4947 4948 4949 4950 4951
          4953 4957 4959 4960 4961 4962
          4963 4964 4965 5030 5032 5034
          5060 5061 5063 5064 5065 5125
          5126 5127 5128 5129 5130 5131
          5132 5133 5134 5149 5150 5151
          5152 5153 5154 5155 5156 5157
          5158 5159 5160 5161 5162 5163
          5164 5165 5166 5167 5168 5169
          5170 5173 5174 5176 5177 5178
          5179 5180 5181 5182 5183 5184
          5185 5186 5187 5188 5189 5190
          5191 5192 5193 5194 5195 5196
          5197 5198 5199 5200 5201 5202
          5203 5204 5207 5208 5210 5211
          5212 5213 5214 5215 5216 5280
          5281 5283 5284 5285 5308 5309
          5311 5312 5313 5329 5330 5331
          5332 5333 5334 5335 5336 5337
          5338 5339 5340 5341 5342 5343
          5344 5345 5346 5347 5348 5349
          5350 5351 5352 5353 5354 5355
          5356 5357 5358 5359 5360 5361
          5362 5363 5364 5365 5366 5367
          5368 5369 5370 5371 5372 5373
          5374 5375 5376 5377 5378 5379
          5380 5381 5382 5383 5384 5385
          5386 5387 5388 5389 5390 5391
          5392 5393 5394 5395 5396 5397
          5398 5399 5400 5401 5402 5403
          5404 5405 5406 5407 5408 5409
          5410 5411 5412 5413 5414 5415
          5416 5417 5418 5419 5420 5421
          5422 5423 5424 5425 5426 5427
          5428 5429 5430 5431 5432 5433
          5434 5435 5436 5437 5438 5439
          5440 5441 5442 5443 5444 5445
          5446 5447 5448 5449 5450 5451
          5452 5453 5454 5455 5456 5457
          5458 5459 5460 5461 5462 5463
          5464 5465 5466 5467 5468 5469
          5470 5471 5472 5473 5474 5475
          5476 5477 5478 332 654 655
          656 657 661 333 662 659
          660 351 666 665 667 339
          447 1082 1089 1109 452 1111
          1113 457 1072 1934 1976 1069
          1077 1080 1065 1909 1910 1911
          1066 1914 446 1917 1928 1929
          1932 2070 2010 2080 2082 455
          2084 4687 4689 4688 4908 4909
          4690 4912 4900 4901 1956 4906
          4903 1957 4706 4705 4925 4707
          4927 4919 4923 4921 4931 1960
          4904 4905 4932 4933 4907 4936
          4938 4939 4941 4922 4952 4924
          4955 4954 4956 1965 4958 4798
          4797 5029 4799 5031 5033 5035
          5045 5043 5046 5044 5051 5050
          5027 5054 1973 5062 5056 5058
          5066 1977 5075 5074 5079 5078
          1980 5097 5098 5089 5117 5118
          1982 5099 5100 1981 5120 1983
          1986 5123 1987 5112 5106 5142
          5136 5113 5143 5146 5140 5147
          1084 4882 5093 5094 1954 5096
          4896 5109 1085 5171 5111 5172
          5175 1985 1994 5205 5145 5206
          5209 1091 1999 5274 5282 5276
          5278 5286 2007 5295 5294 5299
          5298 5302 5310 5304 5306 5314
          2011 5323 5322 5327 5326 5297
          5325
        </DataArray>
        <DataArray type="Float64" Name="bounds" format="ascii" RangeMin="0" RangeMax="0">
          0 0 0 0 0 0
          0 0 0 0 0 0
          0 0 0 0 0 0
          0 0 0 0 0 0
          0 0 0 0 0 0
          0 0 0 0 0 0
          0 0 0 0 0 0
          0 0 0 0 0 0
          0 0 0 0 0 0
          0 0 0 0 0 0
          0 0 0 0 0 0
          0 0 0 0 0 0
          0 0 0 0 0 0
          0 0 0 0 0 0
          0 0 0 0 0 0
          0 0 0 0 0 0
          0 0 0 0 0 0
          0 0 0 0 0 0
          0 0 0 0 0 0
          0 0 0 0 0 0
          0 0 0 0 0 0
          0 0 0 0 0 0
          0 0 0 0 0 0
          0 0 0 0 0 0
          0 0 0 0 0 0
          0 0 0 0 0 0
          0 0 0 0 0 0
          0 0 0 0 0 0
          0 0 0 0 0 0
          0 0 0 0 0 0
          0 0 0 0 0 0
          0 0 0 0 0 0
          0 0 0 0 0 0
          0 0 0 0 0 0
          0 0 0 0 0 0
          0 0 0 0 0 0
          0 0 0 0 0 0
          0 0 0 0 0 0
          0 0 0 0 0 0
          0 0 0 0 0 0
          0 0 0 0 0 0
          0 0 0 0 0 0
          0 0 0 0 0 0
          0 0 0 0 0 0
          0 0 0 0 0 0
          0 0 0 0 0 0
          0 0 0 0 0 0
          0 0 0 0 0 0
          0 0 0 0 0 0
          0 0 0 0 0 0
          0 0 0 0 0 0
          0 0 0 0 0 0
          0 0 0 0 0 0
          0 0 0 0 0 0
          0 0 0 0 0 0
          0 0 0 0 0 0
          0 0 0 0 0 0
          0 0 0 0 0 0
          0 0 0 0 0 0
          0 0 0 0 0 0
          0 0 0 0 0 0
          0 0 0 0 0 0
          0 0 0 0 0 0
          0 0 0 0 0 0
          0 0 0 0 0 0
          0 0 0 0 0 0
          0 0 0 0 0 0
          0 0 0 0 0 0
          0 0 0 0 0 0
          0 0 0 0 0 0
          0 0 0 0 0 0
          0 0 0 0 0 0
          0 0 0 0 0 0
          0 0 0 0 0 0
          0 0 0 0 0 0
          0 0 0 0 0 0
          0 0 0 0 0 0
          0 0 0 0 0 0
          0 0 0 0 0 0
          0 0 0 0 0 0
          0 0 0 0 0 0
          0 0 0 0 0 0
          0 0 0 0 0 0
          0 0 0 0 0 0
          0 0 0 0 0 0
          0 0 0 0 0 0
          0 0 0 0 0 0
          0 0 0 0 0 0
          0 0 0 0 0 0
          0 0 0 0 0 0
          0 0 0 0 0 0
          0 0 0 0 0 0
          0 0 0 0 0 0
          0 0 0 0 0 0
          0 0 0 0 0 0
          0 0 0 0 0 0
          0 0 0 0 0 0
          0 0 0 0 0 0
          0 0 0 0 0 0
          0 0 0 0 0 0
          0 0 0 0 0 0
          0 0 0 0 0 0
          0
        </DataArray>
        <DataArray type="Float64" Name="gradient_error" format="ascii" RangeMin="5.788034045016674e-13" RangeMax="8.940967042414619e-9">
          1.5723343648689489e-12 1.910136194982149e-11 6.321270656212578e-12 7.788416456992844e-12 4.005094046686986e-11 1.0541407132098667e-10
          9.707088843649823e-12 1.242946270615865e-12 5.607202824509375e-11 2.695848314346177e-11 2.7842585687197053e-9 4.970242779103009e-11
          6.67758471239519e-12 5.4486451164233005e-12 8.438274773992087e-12 1.0912093530811123e-11 5.39832599566572e-12 4.551185310353392e-12
          5.463613316859876e-12 8.941401292934532e-12 9.789911510250968e-12 6.0394019524209175e-12 3.5784003543426073e-12 8.334233821256716e-12
          4.612581073359661e-12 7.15004913834736e-12 3.82469072695621e-12 3.327955228176765e-12 2.900304326125125e-12 2.6137745069724446e-12
          5.7522545789254095e-12 3.3118443532677163e-12 1.2528709575780141e-11 1.4242425697313255e-11 6.230175553677916e-12 8.176631521574042e-12
          1.151516305068182e-11 1.7072520045899525e-11 1.0968751660366583e-11 1.2815193480246635e-11 9.494754508603266e-12 2.0824304985157435e-11
          2.558168985406237e-11 2.1383878913715577e-11 1.4542650139200793e-11 3.2357720704244076e-10 2.6718278876774084e-10 4.663320038674121e-11
          1.0790707243375912e-11 1.3639298890789518e-11 2.380873602066054e-9 5.252480283488038e-10 4.3627731379272695e-10 8.998141008048229e-11
          7.486195622836599e-11 4.261687599610569e-11 6.163389831757157e-10 5.136950693960717e-10 8.765838805124535e-11 1.828699902703854e-11
          2.1088547799185525e-11 6.869556593215501e-12 6.164448251005217e-12 8.384387781458978e-12 7.309004968000629e-12 4.539922464200491e-12
          1.107718153866925e-11 9.801206391840133e-12 6.837617993129607e-12 7.272893746659621e-12 6.900109651756168e-12 1.1021636687107477e-11
          1.1496877124500952e-11 9.232631110185322e-12 9.344120790377344e-12 6.302981244847631e-12 8.571781807020482e-12 2.8256852411361377e-12
          4.6210398329501784e-12 4.388936911092953e-12 8.927808932246118e-12 3.967091607399037e-12 7.187810493965712e-12 7.060555167258654e-12
          7.695252526036197e-12 1.2835104915352724e-11 1.2626962302906018e-11 3.10109366916005e-12 5.223165648382714e-12 1.116729267023119e-11
          9.132833158691438e-12 1.496940022316266e-11 1.259081623908605e-11 3.043006468907883e-12 1.0495660932883564e-11 7.094294216047661e-12
          9.740700168640446e-12 6.425156297790187e-12 5.062723937278966e-12 8.056287617245108e-12 1.098310498957537e-11 7.129733028484857e-12
          1.013826292709682e-11 6.5700181722073596e-12 1.1668286355985723e-11 8.84359232569905e-12 1.178480168164491e-12 1.1783228478194245e-12
          1.211798848110301e-12 1.2693675643578352e-12 7.114814335374518e-13 5.788034045016674e-13 7.474250946919428e-13 1.178165527474358e-12
          1.3269362806053695e-12 9.160467848822182e-13 1.2451175280561109e-12 1.3604122808962462e-12 7.833687558464338e-13 1.4757070337363812e-12
          2.451503656876625e-12 2.2444388469971173e-12 2.592282714935568e-12 2.404671197809275e-12 1.6905657495746677e-12 1.4163112429993334e-12
          1.5521995380439564e-12 2.03737403711761e-12 2.2170596806829817e-12 1.6880878330885794e-12 2.733061772994511e-12 2.564903548621432e-12
          1.413833326513245e-12 2.3967453242483533e-12 3.1144899620400023e-12 2.8650261222575523e-12 6.08703844940812e-12 5.497605724323924e-12
          1.7370436252998696e-12 2.5284503954005757e-12 2.3698304311228435e-12 2.259115423142396e-12 4.0703751346366076e-12 1.950903791157538e-12
          1.7057472068944735e-12 2.664189275261103e-12 1.0696338189762023e-12 1.5508698110799526e-12 1.5088258499792576e-12 2.0958012804887177e-12
          1.4111425066899403e-12 6.159972995703876e-12 6.848715570612003e-12 4.1350860751445434e-12 4.010021949044087e-12 4.645733965144143e-12
          5.0322070570628885e-12 4.037569552383753e-12 7.53745814552013e-12 3.88495782294363e-12 5.418680148981634e-12 1.546182750634708e-11
          1.4805080795201256e-11 1.3011823220074238e-11 6.196435940882249e-11 5.915525724350385e-11 2.446107198333221e-11 5.144280861001001e-11
          1.0499247246571554e-11 9.236365721795247e-12 4.094541847049204e-11 1.711474675132732e-11 2.2451499153318467e-10 2.1413361044816244e-10
          1.8518666265107656e-10 3.088510882095372e-10 9.618115955317844e-11 9.17810254976726e-11 3.935508719312792e-11 3.7601107010566655e-11
          7.96190865925452e-11 3.2772197073385876e-11 1.3801533504360726e-10 1.3172878873542293e-10 5.357173683869658e-11 1.1417392708056684e-10
          1.4485557193655849e-10 2.0822810346296602e-10 6.284296488491096e-11 2.6116530464013914e-11 4.555180059649403e-11 1.9176054803874184e-11
          8.963431893320586e-11 3.6978579546382804e-11 6.428537585810466e-11 8.020511537377138e-12 5.44940380304227e-12 1.046790112442969e-11
          3.094695745272374e-11 1.3193823673036108e-11 1.0238421735635587e-11 4.30583124919365e-11 1.836221300551591e-11 5.055808458803407e-9
          4.921440897877619e-9 2.680821477984049e-9 2.5894469869176537e-9 4.41752385375625e-9 2.287211360548581e-9 5.2383377550836755e-9
          5.104783641759362e-9 2.6914516421249514e-9 4.59202778735916e-9 9.511391204640155e-10 9.107517846095187e-10 4.2953002735107904e-10
          4.1046584287763687e-10 7.912909667973589e-10 3.556370401603152e-10 1.161081506587586e-9 1.1139702285702733e-9 5.02557621318507e-10
          9.712620701521166e-10 1.8278256368617586e-10 1.7456163635459827e-10 7.387154436041556e-11 7.06040978235839e-11 1.5134200636604665e-10
          6.145027875487118e-11 2.233232356526436e-10 2.1342424376721369e-10 8.601985118811302e-11 1.8517918714763928e-10 6.14449256638113e-10
          2.7673327138830005e-10 7.550552779503794e-10 3.3937181389432097e-10 1.185070309968195e-10 4.858526229196225e-11 8.443201316256562e-11
          3.5184670641186424e-11 1.4481035098267306e-10 5.908783287378587e-11 1.027156476533117e-10 1.307123847010733e-9 1.255902405080284e-9
          5.92242548537516e-10 5.671854300903756e-10 1.097917451327169e-9 4.931499937364065e-10 1.3594606791574974e-9 1.3068844920087737e-9
          5.904659078005339e-10 1.143611080330272e-9 2.5178369329207496e-10 2.407456772867286e-10 1.0132237747983604e-10 9.685922524461618e-11
          2.0902830222964345e-10 8.427038462072994e-11 2.6203974659118247e-10 2.5059903895095177e-10 1.0076756840578743e-10 2.1764167507824855e-10
          8.545010226671319e-10 3.8367078411202607e-10 8.904824864236518e-10 3.997004072858994e-10 1.6336857008171652e-10 6.645039919775905e-11
          1.1559449351301523e-10 4.7826878983684075e-11 1.7007530235508058e-10 6.909993920607948e-11 1.2024593843441465e-10 5.588770026362526e-11
          2.376884168709263e-11 1.5244261963356046e-11 6.747028255453605e-11 2.8621622857913493e-11 7.562325283994483e-11 3.200661686912905e-11
          2.0349358034159306e-11 7.855892856910941e-11 3.3222895012151994e-11 4.4245322318250244e-12 4.2550136665713985e-12 6.129282112347333e-12
          5.883046587306537e-12 2.5858381841114716e-12 3.513142720966674e-12 3.3792570635489864e-12 3.800517242024395e-12 5.2177891852195984e-12
          3.0090920567189502e-12 1.0184304952768499e-11 9.752773400499205e-12 5.4542016835093355e-12 8.583102812346182e-12 3.189101874379721e-12
          4.270265273951094e-12 2.0522921331827133e-12 2.6412641549369907e-12 2.8626643660284237e-12 3.7417632397287326e-12 2.50971560256738e-12
          6.9065104147371036e-12 4.0512816145322844e-12 5.716938084039595e-12 1.5507466566217796e-11 1.483753450499922e-11 8.632513050714036e-12
          8.265406103604436e-12 1.3000506460237441e-11 7.2637758965508455e-12 2.188618803201375e-11 2.09592919453595e-11 9.089981791552171e-12
          1.8349528064012288e-11 1.0454123791499016e-11 5.921002244615314e-12 7.781778973282201e-12 4.538083214562854e-12 1.47105399128311e-11
          8.229202985125461e-12 1.0916364260139822e-11 4.4106557591104005e-12 5.419715282650265e-12 2.9056415981549113e-12 3.359034554050411e-12
          3.6066113721255253e-12 4.3507097250399236e-12 2.8546545315988927e-12 7.537062963459571e-12 4.427434589172143e-12 5.452935394684177e-12
          2.8550346427680582e-11 2.7389944918398803e-11 1.0514880315434163e-11 9.980444389871513e-12 2.403815254272802e-11 1.0349252325815039e-11
          3.458302522177031e-11 3.3160376250054886e-11 1.2201802264455688e-11 2.9082487909792264e-11 3.3258331165568947e-12 3.159794594734349e-12
          3.833019067883895e-12 3.654488992690078e-12 2.253837247223988e-12 2.214289342316822e-12 2.3850300314037007e-12 2.9937560729118033e-12
          3.4759589174962624e-12 2.555770720490579e-12 4.674236478519136e-12 4.471141065392728e-12 2.61568023880664e-12 4.144344412247728e-12
          1.9222154144438306e-11 1.0738842321048821e-11 1.4144194767117605e-11 7.974268583702611e-12 2.3261876271912546e-11 1.0103817266513264e-11
          1.7078713421582103e-11 3.891501040010916e-11 3.7240609118503563e-11 1.4400702880384121e-11 1.376032192266354e-11 3.254662267121817e-11
          1.2016861181816901e-11 4.0472642367779593e-11 3.870237340001768e-11 1.4340497800418827e-11 3.377538690448059e-11 5.205912527985049e-12
          4.989115226116813e-12 2.7469804143449616e-12 2.7170008290421137e-12 4.411730973780173e-12 2.5611861932293015e-12 5.40355711814272e-12
          5.1851317120939794e-12 2.7188639960543605e-12 4.586026210229114e-12 2.6031504444904513e-11 9.632645107614396e-12 1.9135978628346985e-11
          8.53430080438051e-12 2.7009140236244638e-11 1.0104042369810919e-11 1.9868773304704862e-11 3.423053434378242e-12 3.5564188785656893e-12
          2.4503214591563026e-12 2.27334170924893e-12 2.949164936545936e-12 3.0616937338196095e-12 2.1113322757785237e-12 3.6897843227531365e-12
          2.096361959341558e-12 3.174222531093283e-12 9.75358538347262e-12 5.627655029620176e-12 6.38460826005283e-12 3.8277079164652196e-12
          1.1730716866479573e-11 6.706849158523838e-12 7.676340059471055e-12 3.566945553217355e-12 3.996126560397592e-12 2.310844757628735e-12
          2.4488101121245432e-12 2.766718848346948e-12 3.039364445937161e-12 1.87092187642403e-12 4.756404381524257e-12 2.82737726444075e-12
          3.560639536481352e-12 1.3097109992586025e-11 7.492316649673281e-12 8.523380857958783e-12 4.952115401567566e-12 1.3594605898429129e-11
          7.783803373140862e-12 8.831299064032011e-12 5.256559401023704e-12 3.1435225430066227e-12 3.924591198878568e-12 2.4675628021590222e-12
          5.4256176065767235e-12 3.2190660237520963e-12 4.0399133683218064e-12 1.8021583686399037e-11 4.642752650154219e-12 7.687346112478285e-12
          2.9792455451109806e-12 7.736669255893913e-12 1.0731939574802353e-11 1.1675012721080353e-10 1.2464150036884891e-11 2.2766114032457173e-12
          5.480649697316007e-12 1.0547063767100083e-11 5.8793797988376955e-12 7.858332145189968e-12 1.4196360498967429e-11 5.868042091339127e-11
          1.2684874043556918e-11 3.32233253809237e-11 1.540925496777702e-11 4.307394315919084e-11 1.3888316259837888e-10 7.388923370887625e-11
          4.84705713272222e-11 8.727450523119073e-11 8.56654476945863e-12 8.443891441802381e-12 1.4972630444067353e-11 9.596149637228703e-12
          2.7073008670448603e-11 3.922732249925812e-11 8.99066682426545e-12 8.55599804825062e-12 1.0942464612960053e-11 9.747583131220797e-12
          6.491079903875525e-12 6.915565122817171e-12 1.1518634062454564e-11 9.911585037514307e-12 4.392738882868022e-12 6.152713649930874e-12
          6.6255824229332916e-12 1.5493739074851922e-11 9.320505625747949e-12 1.217920145687443e-11 1.5621958411646166e-11 1.0764390246458481e-11
          1.3750329421259717e-11 2.0739187344891832e-11 9.946304652535916e-12 1.9856557223077754e-11 3.718126845047221e-11 3.5535507214954675e-11
          1.7458107992541238e-11 3.103774278963708e-11 8.514903448509302e-11 8.126525254529586e-11 1.436931928283515e-10 1.3703732787115704e-10
          7.064243291949073e-11 1.1869283561977515e-10 7.221074184583576e-12 1.4193422382445053e-11 2.4938902883038768e-11 1.0744343861099166e-11
          1.8570414699850074e-11 5.610851571526596e-11 9.34310449887776e-11 4.1154168487791235e-11 3.008428179306217e-11 6.751497556898482e-11
          3.170048626590554e-10 3.0223131513045053e-10 4.971273309021447e-10 4.743316212641735e-10 2.6113868617425146e-10 4.0988114596022586e-10
          7.171523807986805e-10 6.853332633171733e-10 5.934627422578467e-10 2.040675487855912e-10 3.1881844943724904e-10 1.455554304784206e-10
          1.0339537550380963e-10 2.248353680942319e-10 4.607637964353183e-10 1.4726110012321181e-10 3.2234458764089927e-10 4.776481402501808e-12
          7.598754667666773e-12 1.2980593216082223e-11 5.819288348975286e-12 8.662023711031632e-12 2.0736099394000774e-11 1.3646785022336628e-11
          2.9383336404683503e-12 4.303792318763913e-12 3.6230314323107343e-12 5.571564766841378e-12 5.43070883589878e-12 8.579766122821748e-12
          4.5639462077920074e-11 6.874126392777253e-11 2.9464277489203294e-11 2.0042916887188122e-11 4.35620150002708e-11 9.655680060589668e-11
          2.749343664087071e-11 6.022123543019064e-11 7.878860076039916e-12 1.2418019205786485e-11 8.733629683644851e-12 1.6907836433059777e-11
          7.860035261882503e-9 4.538043023616462e-9 4.404031209656028e-9 7.70184445571025e-9 8.663543667797039e-9 8.52703346592289e-9
          2.3903734923547565e-9 2.303980055434699e-9 3.929618753201216e-9 7.014797062336674e-9 7.83320387232318e-9 2.026752147583436e-9
          8.940967042414619e-9 8.814755986465877e-9 8.123232442448903e-9 3.1059063421003976e-9 5.65212360102629e-9 3.5065236682053014e-9
          6.352722731615917e-9 1.5834407993701668e-9 1.7914286177872287e-9 3.6507729710183842e-9 6.603518680815165e-9 1.8665620108483687e-9
          1.4913344351480555e-9 1.4287936458135464e-9 1.9681769725791773e-9 1.8914616968060544e-9 1.2427164662304923e-9 1.6545658835163407e-9
          9.654037677148261e-10 1.288591194749113e-9 6.712123237449043e-10 4.2764544194384365e-10 8.928522071956371e-10 1.944723081224956e-10
          5.239299192608925e-10 1.09549733017409e-9 2.375424494534988e-10 5.920540769948357e-10 1.2387975921578422e-9 2.6797446018681664e-10
          6.167135171457361e-10 1.2906452964088192e-9 2.789831703225285e-10 1.2616450258206803e-10 3.5199983479657185e-11 7.767585863357305e-11
          1.529857166725703e-10 4.209629659036579e-11 9.332025771069484e-11 9.527984565171714e-12 2.153579029501367e-11 1.1311456195199391e-11
          2.5546714898490617e-11 1.7186403087507357e-10 4.695015522093593e-11 1.0426970193265119e-10 1.7868010069216222e-10 4.868887581948152e-11
          1.0821360005834359e-10 1.2513953139388904e-11 2.8331969989534812e-11 1.2962534345472872e-11 2.934226128684449e-11 6.898977596076996e-12
          8.792230507851808e-12
        </DataArray>
        <DataArray type="Float64" Name="gradient_matprop_error" format="ascii" RangeMin="0" RangeMax="0">
          0 0 0 0 0 0
          0 0 0 0 0 0
          0 0 0 0 0 0
          0 0 0 0 0 0
          0 0 0 0 0 0
          0 0 0 0 0 0
          0 0 0 0 0 0
          0 0 0 0 0 0
          0 0 0 0 0 0
          0 0 0 0 0 0
          0 0 0 0 0 0
          0 0 0 0 0 0
          0 0 0 0 0 0
          0 0 0 0 0 0
          0 0 0 0 0 0
          0 0 0 0 0 0
          0 0 0 0 0 0
          0 0 0 0 0 0
          0 0 0 0 0 0
          0 0 0 0 0 0
          0 0 0 0 0 0
          0 0 0 0 0 0
          0 0 0 0 0 0
          0 0 0 0 0 0
          0 0 0 0 0 0
          0 0 0 0 0 0
          0 0 0 0 0 0
          0 0 0 0 0 0
          0 0 0 0 0 0
          0 0 0 0 0 0
          0 0 0 0 0 0
          0 0 0 0 0 0
          0 0 0 0 0 0
          0 0 0 0 0 0
          0 0 0 0 0 0
          0 0 0 0 0 0
          0 0 0 0 0 0
          0 0 0 0 0 0
          0 0 0 0 0 0
          0 0 0 0 0 0
          0 0 0 0 0 0
          0 0 0 0 0 0
          0 0 0 0 0 0
          0 0 0 0 0 0
          0 0 0 0 0 0
          0 0 0 0 0 0
          0 0 0 0 0 0
          0 0 0 0 0 0
          0 0 0 0 0 0
          0 0 0 0 0 0
          0 0 0 0 0 0
          0 0 0 0 0 0
          0 0 0 0 0 0
          0 0 0 0 0 0
          0 0 0 0 0 0
          0 0 0 0 0 0
          0 0 0 0 0 0
          0 0 0 0 0 0
          0 0 0 0 0 0
          0 0 0 0 0 0
          0 0 0 0 0 0
          0 0 0 0 0 0
          0 0 0 0 0 0
          0 0 0 0 0 0
          0 0 0 0 0 0
          0 0 0 0 0 0
          0 0 0 0 0 0
          0 0 0 0 0 0
          0 0 0 0 0 0
          0 0 0 0 0 0
          0 0 0 0 0 0
          0 0 0 0 0 0
          0 0 0 0 0 0
          0 0 0 0 0 0
          0 0 0 0 0 0
          0 0 0 0 0 0
          0 0 0 0 0 0
          0 0 0 0 0 0
          0 0 0 0 0 0
          0 0 0 0 0 0
          0 0 0 0 0 0
          0 0 0 0 0 0
          0 0 0 0 0 0
          0 0 0 0 0 0
          0 0 0 0 0 0
          0 0 0 0 0 0
          0 0 0 0 0 0
          0 0 0 0 0 0
          0 0 0 0 0 0
          0 0 0 0 0 0
          0 0 0 0 0 0
          0 0 0 0 0 0
          0 0 0 0 0 0
          0 0 0 0 0 0
          0 0 0 0 0 0
          0 0 0 0 0 0
          0 0 0 0 0 0
          0 0 0 0 0 0
          0 0 0 0 0 0
          0 0 0 0 0 0
          0 0 0 0 0 0
          0 0 0 0 0 0
          0
        </DataArray>
        <DataArray type="Float64" Name="initial_marker" format="ascii" RangeMin="0" RangeMax="2">
          0 0 0 0 0 2
          0 0 2 2 2 2
          0 0 0 0 0 0
          0 0 0 0 0 0
          0 0 0 0 0 0
          0 0 0 0 0 0
          0 0 0 0 0 0
          2 2 1.75 2 2 2
          0.75 1.5 2 2 2 2
          2 2 2 2 2 2
          2 0 0 0.5 0.25 0
          0 0 0 0 0 1
          1 0 0.75 0 0 0
          0 0 0 0 0 0
          0 2 1.5 0 0 1
          0 2 2 0 1 0
          0 0 0 0 0 0
          0 0 0 0 0 0
          0 0 0 0 0 0
          0 0 0 0 0 0
          0 0 0 0 0 0
          0 0 0 0 0 0
          0 0 0 0 0 0
          0 0 0 0 0 0
          0 0 0 0 0 0
          0 0 0 0 0 0
          0 0 0 0 0 2
          1.75 1.5 2 2 2 2
          1.5 1.6666666666666667 2 2 2 2
          2 2 2 2 2 2
          2 2 2 2 2 2
          2 2 2 2 2 2
          2 2 2 1.5 0.5 1.6666666666666667
          2 1.75 1.6666666666666667 2 2 2
          2 2 2 2 2 2
          2 2 2 2 2 2
          2 2 2 2 2 2
          2 2 2 2 2 2
          2 2 2 2 2 2
          2 2 2 2 2 2
          2 2 2 2 2 2
          2 2 2 2 2 2
          2 2 2 2 2 2
          2 2 2 2 2 2
          2 2 2 2 2 2
          2 2 2 2 2 2
          2 1.75 2 2 2 2
          2 2 2 1 0.5 1
          0.75 0 0 0 0 0.5
          0 1.5 1.5 1 1.25 0
          0.5 0 0 0 0.5 0
          1 0 1 2 2 2
          2 1.75 1.5 2 2 1.3333333333333333
          2 1.5 1 1.25 0.5 2
          2 1.75 0.5 0.75 0 0
          0 0.5 0 1.25 0.5 0.6666666666666666
          2 2 1.5 1.5 2 1.6666666666666667
          2 2 2 2 0 0
          0.5 0.5 0 0 0 0
          0.5 0 1 1 0 0.6666666666666666
          2 2 2 2 2 1.3333333333333333
          2 2 2 2 2 2
          1.75 2 2 2 2 1
          1 0 0 0.75 0 1
          1 0 1 2 1.25 2
          1.3333333333333333 2 1.5 2 0 0.25
          0 0 0 0 0 0.5
          0 0 1.5 1 0.75 0
          1.5 1 1 0 0.25 0
          0 0 0 0 0.5 0
          0 1.5 1 1 0 1.5
          1 1 0.5 0 0 0
          0.5 0 0 0 0 0
          0 0 0 0 0 0
          0 0 0 0 0 0
          0 0 0.25 0 0 0
          0 0 0.5 0 0 0
          0 0 0 0 0 0
          0 0 1.5 1 0 0
          0 0 0.5 0 0 0.5
          0 2 1.6666666666666667 2 2 2
          2 2 2 2 2 2
          2 2 1 1.75 2 1.5
          2 2 2 2 2 2
          2 2 2 2 2 2
          2 2 2 2 2 2
          2 2 2 2 2 0.5
          1 1.75 0.3333333333333333 1 2 1.75
          0 0 0 0.25 0.5 1
          2 2 2 2 2 2
          2 2 1 1.5 1 1.75
          2 2 2 2 2 2
          2 2 2 2 2 2
          2 2 2 2 2 2
          2 2 2 2 2 2
          2 2 2 2 2 2
          2 2 2 2 2 2
          2 2 2 2 2 2
          2 2 2 2 2 2
          2 2 2 1.25 2 1.5
          2 2 2 2 2 2
          2 1.5 2 1.5 2 0.6666666666666666
          0.6666666666666666
        </DataArray>
        <DataArray type="Float64" Name="markers_norefine" format="ascii" RangeMin="0" RangeMax="0">
          0 0 0 0 0 0
          0 0 0 0 0 0
          0 0 0 0 0 0
          0 0 0 0 0 0
          0 0 0 0 0 0
          0 0 0 0 0 0
          0 0 0 0 0 0
          0 0 0 0 0 0
          0 0 0 0 0 0
          0 0 0 0 0 0
          0 0 0 0 0 0
          0 0 0 0 0 0
          0 0 0 0 0 0
          0 0 0 0 0 0
          0 0 0 0 0 0
          0 0 0 0 0 0
          0 0 0 0 0 0
          0 0 0 0 0 0
          0 0 0 0 0 0
          0 0 0 0 0 0
          0 0 0 0 0 0
          0 0 0 0 0 0
          0 0 0 0 0 0
          0 0 0 0 0 0
          0 0 0 0 0 0
          0 0 0 0 0 0
          0 0 0 0 0 0
          0 0 0 0 0 0
          0 0 0 0 0 0
          0 0 0 0 0 0
          0 0 0 0 0 0
          0 0 0 0 0 0
          0 0 0 0 0 0
          0 0 0 0 0 0
          0 0 0 0 0 0
          0 0 0 0 0 0
          0 0 0 0 0 0
          0 0 0 0 0 0
          0 0 0 0 0 0
          0 0 0 0 0 0
          0 0 0 0 0 0
          0 0 0 0 0 0
          0 0 0 0 0 0
          0 0 0 0 0 0
          0 0 0 0 0 0
          0 0 0 0 0 0
          0 0 0 0 0 0
          0 0 0 0 0 0
          0 0 0 0 0 0
          0 0 0 0 0 0
          0 0 0 0 0 0
          0 0 0 0 0 0
          0 0 0 0 0 0
          0 0 0 0 0 0
          0 0 0 0 0 0
          0 0 0 0 0 0
          0 0 0 0 0 0
          0 0 0 0 0 0
          0 0 0 0 0 0
          0 0 0 0 0 0
          0 0 0 0 0 0
          0 0 0 0 0 0
          0 0 0 0 0 0
          0 0 0 0 0 0
          0 0 0 0 0 0
          0 0 0 0 0 0
          0 0 0 0 0 0
          0 0 0 0 0 0
          0 0 0 0 0 0
          0 0 0 0 0 0
          0 0 0 0 0 0
          0 0 0 0 0 0
          0 0 0 0 0 0
          0 0 0 0 0 0
          0 0 0 0 0 0
          0 0 0 0 0 0
          0 0 0 0 0 0
          0 0 0 0 0 0
          0 0 0 0 0 0
          0 0 0 0 0 0
          0 0 0 0 0 0
          0 0 0 0 0 0
          0 0 0 0 0 0
          0 0 0 0 0 0
          0 0 0 0 0 0
          0 0 0 0 0 0
          0 0 0 0 0 0
          0 0 0 0 0 0
          0 0 0 0 0 0
          0 0 0 0 0 0
          0 0 0 0 0 0
          0 0 0 0 0 0
          0 0 0 0 0 0
          0 0 0 0 0 0
          0 0 0 0 0 0
          0 0 0 0 0 0
          0 0 0 0 0 0
          0 0 0 0 0 0
          0 0 0 0 0 0
          0 0 0 0 0 0
          0 0 0 0 0 0
          0 0 0 0 0 0
          0
        </DataArray>
        <DataArray type="Float64" Name="markers_mustrefine" format="ascii" RangeMin="0" RangeMax="2">
          0 0 0 0 0 2
          0 0 2 2 2 2
          0 0 0 0 0 0
          0 0 0 0 0 0
          0 0 0 0 0 0
          0 0 0 0 0 0
          0 0 0 0 0 0
          2 2 1.75 2 2 2
          0.75 1.5 2 2 2 2
          2 2 2 2 2 2
          2 0 0 0.5 0.25 0
          0 0 0 0 0 1
          1 0 0.75 0 0 0
          0 0 0 0 0 0
          0 2 1.5 0 0 1
          0 2 2 0 1 0
          0 0 0 0 0 0
          0 0 0 0 0 0
          0 0 0 0 0 0
          0 0 0 0 0 0
          0 0 0 0 0 0
          0 0 0 0 0 0
          0 0 0 0 0 0
          0 0 0 0 0 0
          0 0 0 0 0 0
          0 0 0 0 0 0
          0 0 0 0 0 2
          1.75 1.5 2 2 2 2
          1.5 1.6666666666666667 2 2 2 2
          2 2 2 2 2 2
          2 2 2 2 2 2