<?xml version="1.0"?>
<VTKFile type="UnstructuredGrid" version="0.1" byte_order="LittleEndian" header_type="UInt32" compressor="vtkZLibDataCompressor">
  <UnstructuredGrid>
    <Piece NumberOfPoints="645" NumberOfCells="354">
      <PointData>
        <DataArray type="Int32" Name="libmesh_node_id" format="ascii" RangeMin="0" RangeMax="5943">
          0 1 2 3 4 5
          6 7 8 9 10 11
          12 13 14 15 16 17
          18 19 40 41 42 43
          44 45 46 47 48 49
          60 61 62 63 64 65
          66 67 68 69 80 81
          82 83 84 85 86 87
          88 89 100 101 102 103
          104 110 111 112 113 114
          120 121 122 123 124 125
          126 127 140 141 142 143
          150 151 152 153 160 161
          162 163 164 165 166 167
          180 181 182 183 190 191
          192 193 200 201 202 203
          204 205 206 207 220 221
          222 223 230 231 232 233
          240 241 242 243 244 245
          246 247 260 261 262 263
          270 271 272 273 280 281
          282 283 284 285 286 290
          291 292 294 295 296 298
          355 356 357 358 359 360
          361 365 366 367 369 370
          371 373 668 669 670 671
          672 673 674 678 679 680
          682 683 684 686 2086 2087
          2088 2089 2090 2091 2092 2093
          2094 2095 2096 2097 2098 2099
          2100 2101 2102 2103 2104 2105
          2106 2107 2108 2109 2110 2111
          2112 2113 2114 2115 2116 2117
          2118 2119 2120 2121 2122 2123
          2124 2125 2126 2127 2128 2129
          2130 2131 2132 2133 2134 2135
          2136 2137 2138 2139 2140 2141
          2142 2143 2144 2145 2146 2147
          2148 2149 2150 2151 2152 2153
          2171 2172 2173 2174 2175 2176
          2177 2178 2179 2180 2181 2182
          2183 2184 2185 2186 2187 2188
          2189 2190 2191 2192 2193 2194
          2195 2196 2197 2198 2199 2200
          2201 2202 2203 2204 5638 5639
          5640 5641 5642 5643 5644 5645
          5646 5647 5648 5649 5650 5651
          5652 5653 5654 5655 5656 5657
          5658 5659 5660 5661 5662 5663
          5664 5665 5666 5667 5668 5669
          5670 5671 5672 5673 5674 5675
          5676 5677 5678 5679 5680 5681
          5682 5683 5684 5685 5686 5687
          5688 5689 5690 5691 5692 5693
          5694 5695 5696 5697 5698 5699
          5700 5701 5702 5703 5704 5705
          5706 5707 5708 5709 5710 5711
          5712 5713 5714 5715 5716 5717
          5718 5719 5720 5721 5722 5723
          5724 5725 5726 5727 5728 5729
          5730 5731 5732 5733 5734 5735
          5736 5737 5738 5739 5740 5741
          5742 5743 5744 5745 5746 5747
          5748 5749 5750 5751 5752 5753
          5754 5755 5756 5757 5758 5759
          5760 5761 5762 5763 5764 5765
          5766 5767 5768 5769 5770 5771
          5772 5773 5774 5775 5776 5777
          5778 5779 5780 5781 5782 5783
          5784 5785 5786 5787 5788 5789
          5790 5791 5792 5793 5794 5795
          5796 5797 5798 5799 5800 5801
          5802 5803 5804 5805 5806 5807
          5808 5809 5810 5811 5812 5813
          5814 5815 5816 5817 5818 5819
          5820 5821 5822 5823 5824 5825
          5826 5827 5828 5829 5830 5831
          5832 5833 5834 5835 5836 5837
          5838 5839 5840 5841 5842 5843
          5844 5845 5846 5847 5848 5849
          5850 5851 5852 5853 5854 5855
          5856 5857 5858 5859 5860 5861
          5862 5863 5864 5865 5866 5867
          5868 5869 5870 5871 5872 5873
          5874 5875 5876 5877 5878 5879
          5880 5881 5882 5883 5884 5885
          5886 5887 5888 5889 5890 5891
          5892 5893 5894 5895 5896 5897
          5898 5899 5900 5901 5902 5903
          5904 5905 5906 5907 5908 5909
          5910 5911 5912 5913 5914 5915
          5916 5917 5918 5919 5920 5921
          5922 5923 5924 5925 5926 5927
          5928 5929 5930 5931 5932 5933
          5934 5935 5936 5937 5938 5939
          5940 5941 5942 5943 20 21
          22 23 50 51 70 71
          90 91 105 115 128 129
          130 131 144 145 154 155
          168 169 184 194 209 224
          234 264 274 287 289 293
          362 364 368 363 675 676
          677 681 248 685 372 460
          461 464 470 208 493 495
          500 249 503 528 529 532
          538 288 551 553 558 297
          561 1117 1118 1121 1124 1126
          1128 1131 1133
        </DataArray>
        <DataArray type="Float64" Name="bounds" format="ascii" RangeMin="0" RangeMax="0">
          0 0 0 0 0 0
          0 0 0 0 0 0
          0 0 0 0 0 0
          0 0 0 0 0 0
          0 0 0 0 0 0
          0 0 0 0 0 0
          0 0 0 0 0 0
          0 0 0 0 0 0
          0 0 0 0 0 0
          0 0 0 0 0 0
          0 0 0 0 0 0
          0 0 0 0 0 0
          0 0 0 0 0 0
          0 0 0 0 0 0
          0 0 0 0 0 0
          0 0 0 0 0 0
          0 0 0 0 0 0
          0 0 0 0 0 0
          0 0 0 0 0 0
          0 0 0 0 0 0
          0 0 0 0 0 0
          0 0 0 0 0 0
          0 0 0 0 0 0
          0 0 0 0 0 0
          0 0 0 0 0 0
          0 0 0 0 0 0
          0 0 0 0 0 0
          0 0 0 0 0 0
          0 0 0 0 0 0
          0 0 0 0 0 0
          0 0 0 0 0 0
          0 0 0 0 0 0
          0 0 0 0 0 0
          0 0 0 0 0 0
          0 0 0 0 0 0
          0 0 0 0 0 0
          0 0 0 0 0 0
          0 0 0 0 0 0
          0 0 0 0 0 0
          0 0 0 0 0 0
          0 0 0 0 0 0
          0 0 0 0 0 0
          0 0 0 0 0 0
          0 0 0 0 0 0
          0 0 0 0 0 0
          0 0 0 0 0 0
          0 0 0 0 0 0
          0 0 0 0 0 0
          0 0 0 0 0 0
          0 0 0 0 0 0
          0 0 0 0 0 0
          0 0 0 0 0 0
          0 0 0 0 0 0
          0 0 0 0 0 0
          0 0 0 0 0 0
          0 0 0 0 0 0
          0 0 0 0 0 0
          0 0 0 0 0 0
          0 0 0 0 0 0
          0 0 0 0 0 0
          0 0 0 0 0 0
          0 0 0 0 0 0
          0 0 0 0 0 0
          0 0 0 0 0 0
          0 0 0 0 0 0
          0 0 0 0 0 0
          0 0 0 0 0 0
          0 0 0 0 0 0
          0 0 0 0 0 0
          0 0 0 0 0 0
          0 0 0 0 0 0
          0 0 0 0 0 0
          0 0 0 0 0 0
          0 0 0 0 0 0
          0 0 0 0 0 0
          0 0 0 0 0 0
          0 0 0 0 0 0
          0 0 0 0 0 0
          0 0 0 0 0 0
          0 0 0 0 0 0
          0 0 0 0 0 0
          0 0 0 0 0 0
          0 0 0 0 0 0
          0 0 0 0 0 0
          0 0 0 0 0 0
          0 0 0 0 0 0
          0 0 0 0 0 0
          0 0 0 0 0 0
          0 0 0 0 0 0
          0 0 0 0 0 0
          0 0 0 0 0 0
          0 0 0 0 0 0
          0 0 0 0 0 0
          0 0 0 0 0 0
          0 0 0 0 0 0
          0 0 0 0 0 0
          0 0 0 0 0 0
          0 0 0 0 0 0
          0 0 0 0 0 0
          0 0 0 0 0 0
          0 0 0 0 0 0
          0 0 0 0 0 0
          0 0 0 0 0 0
          0 0 0 0 0 0
          0 0 0 0 0 0
          0 0 0 0 0 0
          0 0 0 0 0 0
          0 0 0
        </DataArray>
        <DataArray type="Float64" Name="gradient_error" format="ascii" RangeMin="1.3118895495685887e-10" RangeMax="0.0000015540513151646778">
          5.834112421260785e-10 5.295541354391867e-10 4.198492107178399e-10 4.758733073825439e-10 1.5627538132021605e-9 1.4276639930398255e-9
          1.0149075969685165e-9 1.1622999682021036e-9 3.6532653801555836e-10 2.8479959124895197e-10 9.672543359786489e-10 6.380839407511294e-10
          2.2928404023412865e-10 1.8898695920160924e-10 4.503164289952601e-10 3.0353307257509944e-10 2.0114289185435152e-10 1.731154796332797e-10
          2.458814492461219e-10 1.9466518771481227e-10 2.2083596862412102e-10 2.497621637979341e-10 3.8365662724077935e-10 4.688535487456625e-10
          1.6866730194183083e-10 2.278981415120076e-10 1.4146724115938993e-10 1.4840955312427334e-10 1.3943018699341514e-10 1.4320992571500393e-10
          1.315276512517489e-10 1.3118895495685887e-10 1.651620535843512e-10 1.758609742892783e-10 1.3306195940131604e-10 1.468827375004053e-10
          1.3424460414969006e-10 1.400693900936078e-10 1.3377230657462238e-10 1.4297092524650523e-10 6.857655092687201e-9 6.15741723109052e-9
          4.399492812033607e-9 5.098011737928585e-9 3.963537785344838e-9 2.6321729506590087e-9 1.764137495667257e-9 1.134466097427056e-9
          1.020326580764114e-9 7.066584611831938e-10 1.4472131025533649e-9 1.8242389222981886e-9 7.324402434371159e-10 3.2254642853164683e-10
          2.761327575256793e-10 2.5285781213003475e-10 3.101094614264072e-10 1.640723709010517e-10 1.4029815787643783e-10 1.5927517344908508e-10
          3.016970630174872e-8 2.6729252889481376e-8 1.922571370275246e-8 2.241956974697575e-8 1.672842138984046e-8 1.1347685835197108e-8
          7.3110810463968685e-9 4.839325376334172e-9 6.168507394045445e-9 7.734970207449476e-9 3.14098724815766e-9 1.314222945114366e-9
          6.148402720673465e-10 8.005072226961718e-10 3.150242157615651e-10 2.6087618395725663e-10 5.556430488407116e-8 4.917813206417445e-8
          4.034435530151786e-8 5.071101917582476e-8 2.947385637860203e-8 1.9683729495062166e-8 2.3766014607396666e-8 9.429376880869106e-9
          2.4205030715947002e-8 3.123166204221247e-8 1.1360811217764442e-8 4.106105355752462e-9 1.7282021365447037e-9 2.0909760182800874e-9
          1.4436083058274012e-9 1.2069057806078788e-9 2.8007525974661657e-7 2.3892826167222046e-7 6.199726311815104e-7 6.705750159331115e-7
          1.8354949290682176e-7 5.315496999523082e-7 8.886560521720003e-7 4.266789907778482e-7 3.946683548348629e-8 5.210695279976414e-8
          1.7717413826692545e-8 5.488838457607319e-9 1.799792836305163e-8 2.0507127948169045e-8 1.1423560800453119e-8 4.8906813678478485e-9
          3.082575649636219e-7 3.971573526026249e-7 9.544521485344896e-7 9.882919360453257e-7 5.730578374688102e-7 8.523890832857944e-7
          8.567652959155836e-7 6.683507875088232e-7 6.639833726197931e-8 9.460460477737964e-8 2.3886449437683646e-8 1.8872658384029045e-8
          3.3462213828805424e-8 3.8033632375939146e-8 2.042251219457196e-8 7.754601402679103e-9 8.713030732907462e-7 7.479283862454479e-7
          8.105078343959754e-7 0.0000014384765485518408 0.0000015540513151646778 0.0000011959281667596295 0.0000012075383761690093 4.6389707608702766e-7
          5.451317793495856e-7 6.866081549515873e-7 5.686685408125595e-7 0.000001356213025676037 0.000001158006481174095 5.443141577454245e-7
          7.012761661470259e-7 7.855987983561283e-7 0.0000010783400718607988 0.0000010453187324745262 5.318232777612696e-7 8.366631524753283e-7
          0.0000012310865774546446 8.441106698626147e-7 0.0000010763852068710767 0.0000011996946091268052 9.018560103463991e-8 5.455693371899936e-7
          0.0000010552372151056255 0.0000010808953064817299 2.1049073415997762e-7 2.1222903334923817e-7 1.990065765764643e-7 1.3990442242917436e-7
          1.4745039635596503e-7 1.7362276525261705e-7 1.639070836501628e-7 2.180851086828905e-7 2.1505662158709274e-7 1.9947235076289814e-7
          9.607055976415258e-8 1.381813741475436e-7 1.3237079729540816e-7 2.0730387280454662e-7 4.310648842394009e-8 2.9809900114337326e-8
          2.3854227519022217e-8 1.3855801530207926e-7 1.4768287949237382e-7 1.080970377751886e-7 1.0123816065155505e-7 1.6513311804734564e-8
          6.851119605800338e-8 6.391830600103084e-8 2.1997771732444103e-7 5.063291670212445e-7 5.164249504722439e-7 7.087737889441406e-7
          7.786084527027945e-7 9.158602693700327e-7 9.0945979186849e-7 6.387174171403431e-7 8.030660612648816e-7 9.002326053211824e-7
          6.998832460526239e-7 9.932826629327276e-7 8.582753108319544e-7 7.715258256772395e-7 5.559240686393882e-8 9.5046040979813e-8
          1.7298686030990655e-7 2.455399194194221e-7 1.5954361260602698e-9 1.6862672563544915e-8 1.6022228083314246e-8 2.9038131375587424e-7
          3.9603379785903126e-7 3.212990900102956e-8 1.8323992768569532e-7 1.7224455394353728e-7 2.312056763890029e-7 3.77456101221318e-7
          3.6042109217536656e-7 3.1439404094300166e-7 3.2704120656250704e-7 1.612491802013792e-7 2.6836698971063676e-7 2.766263119036961e-7
          0.0000014167493392746194 0.0000013238775927844548 9.492735932712096e-7 0.000001077281870044973 0.000001188221602610255 0.000001246951001978413
          0.0000011386084940857355 9.985324890118452e-7 0.0000011258035194401937 0.0000010542436847828669 9.596938659458906e-7 0.0000011700244111723714
          0.0000010529017662790279 0.0000012530745498685423 5.572385843804736e-7 5.697104694909477e-7 7.171126891021626e-7 7.163144538408005e-7
          3.2699715244534117e-7 4.173508739680478e-7 4.5035392395897147e-7 8.769867938238516e-7 8.629184381906534e-7 5.077045954907544e-7
          1.9401818497626208e-7 1.9022652623839705e-7 1.896428512485809e-7 2.0372521946017363e-7 2.0808471017421991e-7 2.028102182895914e-7
          1.9788792048406946e-7 1.8643486750053203e-7 1.975357264049629e-7 1.920506215079653e-7 1.692737557115126e-7 1.7112127110088e-7
          1.5451376456089274e-7 1.375642463521562e-7 1.36792523690318e-7 1.5182625878511408e-7 1.4491499297983577e-7 1.729687864902474e-7
          1.6685999387991014e-7 1.5226573960751535e-7 1.043112916691234e-7 1.3253124646934813e-7 1.353162213987788e-7 1.607512012695729e-7
          2.1903048764843452e-7 2.0843950668199029e-7 2.2694265409381389e-7 2.1894730813022365e-7 2.117403143251949e-7 2.2356719916271144e-7
          2.1529705371405537e-7 2.348548205391933e-7 2.2945510957845705e-7 2.35394084000228e-7 2.3115145059671117e-8 1.4972076692038062e-8
          2.04643518960919e-8 5.9377954656750936e-8 7.724728805921421e-8 6.279681697429459e-8 4.640903049233686e-8 6.82900832440501e-9
          4.834634588937496e-8 3.344010632792281e-8 2.676473488552367e-7 6.163004390029622e-7 6.290701566301932e-7 5.082783820484132e-7
          5.351992457837086e-7 8.498670124794051e-7 8.365570039515321e-7 5.84990675077184e-7 5.864518092732516e-7 8.730532931553042e-7
          8.447505512784547e-7 0.0000010780320729729804 0.000001093015431535951 0.0000010377188202921672 3.385667460760925e-7 5.822800591268643e-7
          5.447378178999796e-7 6.564224529874437e-7 9.798623103704168e-7 2.0428707592077417e-7 5.476947911232087e-7 6.448020958462055e-7
          8.940899558920258e-7 7.504184767591877e-7 9.782036858337368e-7 4.736386185835856e-7 7.47587650973338e-7 9.123987322980158e-7
          3.3188253610694465e-7 3.476056499154904e-7 5.660463584277774e-7 5.84934398396714e-7 2.927637438857378e-7 5.180893398578961e-7
          6.367086707494421e-8 9.985633908743776e-8 1.1083096142053979e-7 7.344879883709407e-8 8.002101807486101e-7 8.222631468779377e-7
          7.434149358300545e-7 1.360418110999313e-7 2.442192593575746e-7 4.557634845395504e-7 1.9359230309787984e-7 3.874043975142924e-7
          2.9797768866158824e-8 4.3815613390404896e-8 2.128136545149117e-8 6.673077097215262e-7 5.81216491930705e-7 5.7833457914650975e-8
          1.4306743398182112e-7 3.173679092892904e-7 5.848836013118546e-9 1.3628994150014194e-8 4.916683845967598e-7 2.1409152286909844e-8
          5.759183439132318e-7 5.768923770340521e-7 7.098263011793818e-7 6.988460436096963e-7 3.857775560970633e-7 4.7372596482494674e-7
          4.891398357801571e-7 8.437342584455315e-7 8.207997101853405e-7 5.616743735528302e-7 2.906240605905112e-7 2.7361316598026707e-7
          2.6878407377608717e-7 4.0349918951647744e-7 4.035017964023312e-7 3.71350701761229e-7 3.733387691536099e-7 2.833235105729199e-7
          4.018884435822494e-7 3.6690479708938015e-7 2.5660227137002294e-7 3.3919960712012677e-7 3.431783487907424e-7 3.319211505965109e-7
          7.427987851453577e-7 7.113621483793064e-7 6.817705580460891e-7 7.410670081938574e-7 6.825953481506433e-7 3.376974545325038e-7
          3.0068681296844215e-7 3.996927945968494e-7 3.597147350913796e-7 3.1159397225780814e-7 3.986238965713388e-7 3.5539215414327524e-7
          2.6367617140438043e-7 3.1973667558590983e-7 3.1216041171521156e-7 8.17937225021882e-7 7.710555825919736e-7 7.265308629958978e-7
          7.318994381192745e-7 8.010907095130024e-7 8.709724101674581e-7 8.024119088798201e-7 8.809496339419195e-7 9.489558675901262e-7
          8.676933193757959e-7 8.154483307800238e-7 9.245581459230297e-7 6.329633809494409e-7 7.883087611184941e-7 7.191761661985945e-7
          8.662638023983778e-7 9.223920879607423e-7 9.737045266322375e-7 0.00000103847649217107 9.867774429591898e-7 7.732227378819056e-7
          9.535844763725094e-7 0.0000010716571813082523 5.582634289275623e-7 5.474739615801627e-7 6.486956021831256e-7 6.289749048217074e-7
          5.672177371401807e-7 6.673701189623885e-7 4.285918366297051e-7 5.02858676436573e-7 4.999775277237328e-7 5.025860473170508e-7
          7.391277754386888e-7 7.104758480632522e-7 7.675225007845966e-7 5.771255162434407e-7 5.736686044075594e-7 6.84352132198934e-7
          4.160925001515553e-7 4.983978361893907e-7 7.950356599903088e-7 5.807031722272262e-7 6.011214722127615e-8 4.5311546782455575e-8
          4.744779636717454e-8 1.7414671035157758e-7 1.6194162973275474e-7 1.1158596207653048e-7 1.2207885174228915e-7 3.97155382044387e-8
          1.3127623858634496e-7 8.659608985010316e-8 3.0510946343634984e-8 6.12302944203062e-8 7.001099313300072e-8 4.191594111386131e-8
          4.620679931658624e-8 3.154889163330664e-8 9.159430681023388e-8 6.053509596684243e-8 1.6890983950027045e-8 2.9475885123450977e-8
          2.731344640124294e-7 2.709254302125539e-7 2.715606133079561e-7 3.7144703687650356e-7 3.732551873181315e-7 3.5316414220998927e-7
          3.5181854550392086e-7 2.6939839026871824e-7 3.777099523438495e-7 3.5648485102999036e-7 2.687163964126784e-7 3.330730971018471e-7
          3.3219005413133817e-7 3.352597497161313e-7 5.15954116082464e-7 5.062598549816735e-7 4.992937377094753e-7 5.237756602971632e-7
          5.036604571569315e-7 2.704224194778299e-7 2.6816895302667107e-7 3.8334336428125175e-7 3.607697827729728e-7 2.674350407624284e-7
          3.89109281353581e-7 3.651442928566464e-7 2.659154865755122e-7 3.3819620126469397e-7 3.411793043597119e-7 5.596937162942554e-7
          5.462632463802695e-7 5.709400785465566e-7 5.391523626475058e-7 4.2786988253163004e-7 4.378235221850814e-7 4.982258210796197e-7
          4.878372922761992e-7 4.625344592110254e-7 5.242530588739032e-7 5.560823954932941e-7 5.46766541194408e-7 5.796435144027101e-7
          3.1711472282906837e-7 4.19334786403317e-7 4.0916358683333333e-7 4.445261089447425e-7 5.55389004146699e-7 4.944650038077254e-7
          5.581050131647762e-7 5.310166367873219e-7 5.966980640333888e-7 6.103158579620794e-7 6.447621213359593e-7 3.6580688411161336e-7
          4.770541460882879e-7 5.143695159245289e-7 6.17141629929838e-7 4.598433368107814e-7 4.56238846805668e-7 4.988914553099562e-7
          4.937792190554615e-7 4.690019121265945e-7 5.118561352592674e-7 4.018364899125345e-7 4.44246239607482e-7 4.418300577428754e-7
          4.503969002498954e-7 5.37939573809131e-7 5.313195913052551e-7 5.547103583919404e-7 4.866559893024295e-7 4.813480870129079e-7
          5.290570574203254e-7 4.95055797271361e-7 5.481959268438e-7 4.1090463901586556e-7 4.5922742143831883e-7 4.6924710229513706e-7
          5.767660278277429e-7 6.01336056416239e-7 5.075502038607721e-7 2.704042567934306e-7 2.6673860674444534e-7 3.943007943749333e-7
          3.688908993346486e-7 2.663875036490238e-7 3.986315824441706e-7 3.7172865732899406e-7 2.6307295669546007e-7 3.4348100429436385e-7
          3.4482573221381756e-7 6.14886727798191e-7 5.970440134813394e-7 6.243440497381007e-7 5.845357938448185e-7 2.74417786451046e-7
          2.667728428796801e-7 4.0177997899075195e-7 3.7331645611199974e-7 2.591278993083142e-7 3.448529332332475e-7 6.761203351990813e-7
          6.526685960996276e-7 6.332383048762991e-7 5.722354477425012e-7 6.397910739121551e-7 6.187859914626612e-7 6.878968341959115e-7
          6.823390337054019e-7 7.231281091789567e-7 4.328947718450564e-7 5.565373127864826e-7 6.041753799245858e-7 6.998189025902099e-7
          6.716105016614642e-7 7.417841721905068e-7 7.67391775615976e-7 5.201225044552237e-7 6.580912215260777e-7 8.002150774965934e-7
          5.088666758525189e-7 5.680602812335057e-7 5.224360300011355e-7 5.883376809377477e-7 4.225285684995585e-7 4.787891951380163e-7
          4.874268204467439e-7 6.272538866144925e-7 6.542393318743601e-7 5.350498217764742e-7 5.354093920470863e-7 6.08738442265056e-7
          4.2953758346562337e-7 4.9465117601771e-7 6.820674924830256e-7 5.597647685697965e-7 1.712727421204653e-10 1.5853681927754278e-10
          1.8048583341148873e-10 1.6186417326537861e-10 1.3984223727854674e-10 1.4275902522516035e-10 1.3388357812247323e-10 1.422755373310522e-10
          6.387899744322689e-10 4.973730801450882e-10 2.5698415865639585e-10 1.5801213145488428e-10 4.321409427587675e-9 3.003868087741826e-9
          2.630022744313975e-9 2.0030129348411673e-9 1.0406159024496123e-9 8.769632561862653e-10 3.949050570032469e-10 3.7792338700417085e-10
          1.743607105052755e-8 8.061711737034092e-9 2.89096280024542e-9 1.057736676860549e-9 2.5305855005451525e-7 3.4091326557037654e-9
          2.6874950768216636e-9 1.437937446573544e-8 3.8829461109489416e-9 3.009152700989477e-7 8.603526268051399e-7 3.8405454111994e-7
          6.454412658293773e-7 5.326377030399836e-7 9.340039340938563e-7 2.2407488130630023e-7 2.2765074183094498e-7 1.5652945907512032e-7
          1.8502393259388815e-7 2.2999655007182908e-7 1.0416772983875534e-7 1.464664892559175e-7 2.1762049405366457e-7 2.194251990068043e-8
          8.766558950971513e-8 7.303929639137795e-8 5.841300327304078e-8 1.1020534749116692e-7 2.9401442109420896e-8 1.0720652423851722e-7
          1.3208724019987646e-8 4.0406407350667265e-7 1.8501160636761356e-7 9.0557532085925e-8 3.281371484601795e-7 2.877169141793793e-7
          2.47296679898579e-7 3.894535496164567e-7 5.361967051646586e-7 7.091402536407497e-7 3.7472875492042147e-7 7.754641767578193e-7
          8.820838021168409e-7 1.9304009331353492e-7 2.174751244886716e-7 2.1238010052178303e-7 2.0728507655489444e-7 2.3688096073001167e-7
          2.424947868187174e-7 2.3851487960643266e-7 2.481086129074231e-7
        </DataArray>
        <DataArray type="Float64" Name="gradient_matprop_error" format="ascii" RangeMin="0" RangeMax="0">
          0 0 0 0 0 0
          0 0 0 0 0 0
          0 0 0 0 0 0
          0 0 0 0 0 0
          0 0 0 0 0 0
          0 0 0 0 0 0
          0 0 0 0 0 0
          0 0 0 0 0 0
          0 0 0 0 0 0
          0 0 0 0 0 0
          0 0 0 0 0 0
          0 0 0 0 0 0
          0 0 0 0 0 0
          0 0 0 0 0 0
          0 0 0 0 0 0
          0 0 0 0 0 0
          0 0 0 0 0 0
          0 0 0 0 0 0
          0 0 0 0 0 0
          0 0 0 0 0 0
          0 0 0 0 0 0
          0 0 0 0 0 0
          0 0 0 0 0 0
          0 0 0 0 0 0
          0 0 0 0 0 0
          0 0 0 0 0 0
          0 0 0 0 0 0
          0 0 0 0 0 0
          0 0 0 0 0 0
          0 0 0 0 0 0
          0 0 0 0 0 0
          0 0 0 0 0 0
          0 0 0 0 0 0
          0 0 0 0 0 0
          0 0 0 0 0 0
          0 0 0 0 0 0
          0 0 0 0 0 0
          0 0 0 0 0 0
          0 0 0 0 0 0
          0 0 0 0 0 0
          0 0 0 0 0 0
          0 0 0 0 0 0
          0 0 0 0 0 0
          0 0 0 0 0 0
          0 0 0 0 0 0
          0 0 0 0 0 0
          0 0 0 0 0 0
          0 0 0 0 0 0
          0 0 0 0 0 0
          0 0 0 0 0 0
          0 0 0 0 0 0
          0 0 0 0 0 0
          0 0 0 0 0 0
          0 0 0 0 0 0
          0 0 0 0 0 0
          0 0 0 0 0 0
          0 0 0 0 0 0
          0 0 0 0 0 0
          0 0 0 0 0 0
          0 0 0 0 0 0
          0 0 0 0 0 0
          0 0 0 0 0 0
          0 0 0 0 0 0
          0 0 0 0 0 0
          0 0 0 0 0 0
          0 0 0 0 0 0
          0 0 0 0 0 0
          0 0 0 0 0 0
          0 0 0 0 0 0
          0 0 0 0 0 0
          0 0 0 0 0 0
          0 0 0 0 0 0
          0 0 0 0 0 0
          0 0 0 0 0 0
          0 0 0 0 0 0
          0 0 0 0 0 0
          0 0 0 0 0 0
          0 0 0 0 0 0
          0 0 0 0 0 0
          0 0 0 0 0 0
          0 0 0 0 0 0
          0 0 0 0 0 0
          0 0 0 0 0 0
          0 0 0 0 0 0
          0 0 0 0 0 0
          0 0 0 0 0 0
          0 0 0 0 0 0
          0 0 0 0 0 0
          0 0 0 0 0 0
          0 0 0 0 0 0
          0 0 0 0 0 0
          0 0 0 0 0 0
          0 0 0 0 0 0
          0 0 0 0 0 0
          0 0 0 0 0 0
          0 0 0 0 0 0
          0 0 0 0 0 0
          0 0 0 0 0 0
          0 0 0 0 0 0
          0 0 0 0 0 0
          0 0 0 0 0 0
          0 0 0 0 0 0
          0 0 0 0 0 0
          0 0 0 0 0 0
          0 0 0 0 0 0
          0 0 0 0 0 0
          0 0 0 0 0 0
          0 0 0
        </DataArray>
        <DataArray type="Float64" Name="initial_marker" format="ascii" RangeMin="0" RangeMax="2">
          0 0 0 0 0 0
          0 0 0 0 0 0
          0 0 0 0 0 0
          0 0 0 0 0 0
          0 0 0 0 0 0
          0 0 0 0 0 0
          0 0 0 0 0 0
          0 0 0 0 0 0
          0 0 0 0 0 0
          0 0 0 0 0 0
          0 0 0 0 0 0
          0 0 0 0 0 0
          0 0 0 0 0 0
          0 0 0 0 0 0
          0 0 0 0 0 0
          0 0 0 0 0 0
          0 0 0 0 0 0
          0 0 0 0 0 0
          0 0 0 0 0 0
          0 0 0 0 0 0
          0 0 0 0 0 0
          0 0 0 0 0 0
          0 0 0 0 0 0
          0 0 0 0 0 0
          0 0 0 0 0 0
          0 0 0 0 0 0
          0.5 0.25 0 0 0 0
          1 0.5 0 0 0 0
          0 0 0 0 0 0
          0 0 0 0 0 0
          0 0 0 0 0 0
          0 0 0 0 0 0
          0 0 0 0 0 0
          0 0 0 0 0 0
          0 0 0 0 0 0
          0 0 0 0 0 0
          0 0 0 0 0 0
          0 0 0 0 0 0
          0 0 0 0 0 0
          0 0 0 0 0 0
          0 0 0 0 0 0
          0 0 0 0 0 0
          0 0 0 0 0 0
          0 0 0 0 0 0
          0 0 0 0 0 0
          0 0 0 0 0 0
          0 0 0 0 0 0
          0 0 0 0 0 0
          0 0 0 0 0 0
          0 0 0 0 0 0
          0 0 0 0 0 0
          0 0 0 0 0 0
          0 0 0 0 0 0
          0 0 0 0 0 0
          0 0 0 0 0 0
          0 0 0 0 0 0
          0 0 0 0 0 0
          0 0 0 0 0 0
          0 0 0 0 0 0
          0 0 0 0 0 0
          0 0 0 0 0 0
          0 0 0 0 0 0
          0 0 0 0 0 0
          0 0 0 0 0 0
          0 0 0 0 0 0
          0 0 0 0 0 0
          0 0 0 0 0 0
          0 0 0 0 0 0
          0 0 0 0 0 0
          0 0 0 0 0 0
          0 0 0 0 0 0
          0 0 0 0 0 0
          0 0 0 0 0 0
          0 0 0 0 0 0
          0 0 0 0 0 0
          0 0 0 0 0 0
          0 0 0 0 0 0
          0 0 0 0 0 0
          0 0 0 0 0 0
          0 0 0 0 0 0
          0 0 0 0 0 0
          0 0 0 0 0 0
          0 0 0 0 0 0
          0 0 0 0 0 0
          0 0 0 0 0 0
          0 0 0 0 0 0
          0 0 0 0 0 0
          0 0 0 0 0 0
          0 0 0 0 0 0
          0 0 0 0 0 0
          0 0 0 0 0 0
          0 0 0 0 0 0
          0 0 0 0 0 0
          0 0 0 0 0 0
          0 0 0 0 0 0
          0 0 0 0 0 0
          0 0 0 0 0 0
          0 0 0 0 0 0
          0 0 0 0 0 0
          0 0 0 0 0 0
          0 0 0 0 0 0
          0 0 0 0.5 0.25 1.5
          1 0.25 2 1.5 0.5 0
          0 0 0 0 0 0
          0 0 0 0 0 0
          0 0 0 0 0 0
          0 0 0 0 0 0
          0 0 0
        </DataArray>
        <DataArray type="Float64" Name="markers_norefine" format="ascii" RangeMin="0" RangeMax="0">
          0 0 0 0 0 0
          0 0 0 0 0 0
          0 0 0 0 0 0
          0 0 0 0 0 0
          0 0 0 0 0 0
          0 0 0 0 0 0
          0 0 0 0 0 0
          0 0 0 0 0 0
          0 0 0 0 0 0
          0 0 0 0 0 0
          0 0 0 0 0 0
          0 0 0 0 0 0
          0 0 0 0 0 0
          0 0 0 0 0 0
          0 0 0 0 0 0
          0 0 0 0 0 0
          0 0 0 0 0 0
          0 0 0 0 0 0
          0 0 0 0 0 0
          0 0 0 0 0 0
          0 0 0 0 0 0
          0 0 0 0 0 0
          0 0 0 0 0 0
          0 0 0 0 0 0
          0 0 0 0 0 0
          0 0 0 0 0 0
          0 0 0 0 0 0
          0 0 0 0 0 0
          0 0 0 0 0 0
          0 0 0 0 0 0
          0 0 0 0 0 0
          0 0 0 0 0 0
          0 0 0 0 0 0
          0 0 0 0 0 0
          0 0 0 0 0 0
          0 0 0 0 0 0
          0 0 0 0 0 0
          0 0 0 0 0 0
          0 0 0 0 0 0
          0 0 0 0 0 0
          0 0 0 0 0 0
          0 0 0 0 0 0
          0 0 0 0 0 0
          0 0 0 0 0 0
          0 0 0 0 0 0
          0 0 0 0 0 0
          0 0 0 0 0 0
          0 0 0 0 0 0
          0 0 0 0 0 0
          0 0 0 0 0 0
          0 0 0 0 0 0
          0 0 0 0 0 0
          0 0 0 0 0 0
          0 0 0 0 0 0
          0 0 0 0 0 0
          0 0 0 0 0 0
          0 0 0 0 0 0
          0 0 0 0 0 0
          0 0 0 0 0 0
          0 0 0 0 0 0
          0 0 0 0 0 0
          0 0 0 0 0 0
          0 0 0 0 0 0
          0 0 0 0 0 0
          0 0 0 0 0 0
          0 0 0 0 0 0
          0 0 0 0 0 0
          0 0 0 0 0 0
          0 0 0 0 0 0
          0 0 0 0 0 0
          0 0 0 0 0 0
          0 0 0 0 0 0
          0 0 0 0 0 0
          0 0 0 0 0 0
          0 0 0 0 0 0
          0 0 0 0 0 0
          0 0 0 0 0 0
          0 0 0 0 0 0
          0 0 0 0 0 0
          0 0 0 0 0 0
          0 0 0 0 0 0
          0 0 0 0 0 0
          0 0 0 0 0 0
          0 0 0 0 0 0
          0 0 0 0 0 0
          0 0 0 0 0 0
          0 0 0 0 0 0
          0 0 0 0 0 0
          0 0 0 0 0 0
          0 0 0 0 0 0
          0 0 0 0 0 0
          0 0 0 0 0 0
          0 0 0 0 0 0
          0 0 0 0 0 0
          0 0 0 0 0 0
          0 0 0 0 0 0
          0 0 0 0 0 0
          0 0 0 0 0 0
          0 0 0 0 0 0
          0 0 0 0 0 0
          0 0 0 0 0 0
          0 0 0 0 0 0
          0 0 0 0 0 0
          0 0 0 0 0 0
          0 0 0 0 0 0
          0 0 0 0 0 0
          0 0 0 0 0 0
          0 0 0
        </DataArray>
        <DataArray type="Float64" Name="markers_mustrefine" format="ascii" RangeMin="0" RangeMax="2">
          0 0 0 0 0 0
          0 0 0 0 0 0
          0 0 0 0 0 0
          0 0 0 0 0 0
          0 0 0 0 0 0
          0 0 0 0 0 0
          0 0 0 0 0 0
          0 0 0 0 0 0
          0 0 0 0 0 0
          0 0 0 0 0 0
          0 0 0 0 0 0
          0 0 0 0 0 0
          0 0 0 0 0 0
          0 0 0 0 0 0
          0 0 0 0 0 0
          0 0 0 0 0 0
          0 0 0 0 0 0
          0 0 0 0 0 0
          0 0 0 0 0 0
          0 0 0 0 0 0