<?xml version="1.0"?>
<VTKFile type="UnstructuredGrid" version="0.1" byte_order="LittleEndian" header_type="UInt32" compressor="vtkZLibDataCompressor">
  <UnstructuredGrid>
    <Piece NumberOfPoints="555" NumberOfCells="302">
      <PointData>
        <DataArray type="Int32" Name="libmesh_node_id" format="ascii" RangeMin="434" RangeMax="2794">
          434 435 442 443 553 554
          555 558 559 561 563 564
          565 566 570 571 574 576
          706 707 710 713 714 725
          726 733 735 736 742 964
          965 966 967 968 969 970
          971 972 973 974 975 976
          977 980 981 986 988 989
          990 991 992 993 994 995
          996 997 998 1000 1002 1003
          1004 1005 1007 1008 1010 1011
          1012 1013 1014 1015 1016 1017
          1018 1019 1020 1021 1022 1023
          1024 1025 1040 1041 1043 1044
          1045 1046 1047 1049 1060 1061
          1062 1063 1064 1065 1066 1067
          1068 1069 1486 1487 1488 1489
          1490 1491 1492 1553 1554 1555
          1556 1557 1558 1565 1566 1567
          1580 1581 1583 1586 1588 1589
          1590 1591 1592 1593 1594 1595
          1596 1597 1598 1599 1600 1601
          1602 1603 1604 1605 1606 1607
          1608 1609 1610 1611 1612 1613
          1614 1615 1616 1617 1618 1619
          1620 1621 1622 1623 1624 1625
          1626 1627 1628 1629 1630 1631
          1632 1633 1634 1635 1636 1637
          1638 1639 1640 1641 1642 1643
          1644 1645 1646 1647 1648 1649
          1650 1651 1652 1653 1654 1655
          1656 1657 1658 1659 1660 1661
          1662 1663 1678 1679 1680 1681
          1682 1683 1684 1685 1686 1687
          1688 1689 1690 1691 1692 1693
          1694 1695 1697 1698 1699 1700
          1701 1702 1703 1704 1705 1706
          1707 1708 1709 1710 1711 1712
          1713 1714 1715 1716 1717 1718
          1719 1720 1721 1722 1723 1726
          1728 1729 1731 1732 1733 1734
          1735 1736 1737 1738 1739 1740
          1741 1742 1743 1744 1745 2504
          2505 2506 2507 2518 2519 2520
          2521 2522 2523 2524 2525 2526
          2527 2528 2529 2530 2531 2532
          2533 2534 2535 2536 2537 2538
          2539 2540 2541 2542 2543 2544
          2545 2546 2547 2548 2549 2550
          2551 2552 2553 2554 2555 2556
          2557 2558 2559 2560 2561 2562
          2563 2564 2565 2566 2567 2568
          2569 2570 2571 2572 2573 2574
          2575 2576 2577 2578 2579 2580
          2581 2582 2583 2584 2585 2586
          2587 2588 2589 2590 2591 2592
          2593 2594 2595 2596 2597 2598
          2599 2600 2601 2602 2603 2604
          2605 2606 2607 2608 2609 2610
          2611 2612 2613 2614 2615 2616
          2617 2618 2619 2620 2621 2622
          2623 2624 2625 2626 2627 2628
          2629 2630 2631 2632 2633 2634
          2635 2636 2637 2638 2639 2640
          2641 2642 2643 2644 2645 2646
          2647 2648 2649 2650 2651 2652
          2653 2654 2655 2656 2657 2662
          2663 2664 2668 2669 2670 2671
          2672 2673 2674 2675 2676 2677
          2678 2679 2680 2681 2682 2683
          2684 2685 2686 2687 2688 2689
          2690 2691 2692 2693 2694 2695
          2696 2697 2698 2699 2700 2701
          2702 2703 2704 2705 2706 2707
          2708 2709 2710 2711 2712 2713
          2714 2715 2716 2717 2718 2719
          2720 2721 2722 2723 2724 2725
          2726 2727 2728 2729 2730 2731
          2732 2733 2734 2735 2736 2737
          2738 2739 2740 2741 2742 2743
          2754 2755 2756 2757 2758 2759
          2760 2768 2769 2770 2771 2772
          2773 2774 2775 2776 2777 2788
          2789 2790 2791 2792 2793 2794
          703 704 549 550 709 556
          721 557 723 562 731 954
          955 956 959 551 962 552
          960 961 978 979 963 983
          982 985 560 987 999 1001
          1006 1009 1478 1479 1483 1563
          1564 1578 1579 1561 1571 1582
          1573 1585 1587 2502 2510 2511
          2513 1584 2516
        </DataArray>
        <DataArray type="Float64" Name="bounds" format="ascii" RangeMin="0" RangeMax="0">
          0 0 0 0 0 0
          0 0 0 0 0 0
          0 0 0 0 0 0
          0 0 0 0 0 0
          0 0 0 0 0 0
          0 0 0 0 0 0
          0 0 0 0 0 0
          0 0 0 0 0 0
          0 0 0 0 0 0
          0 0 0 0 0 0
          0 0 0 0 0 0
          0 0 0 0 0 0
          0 0 0 0 0 0
          0 0 0 0 0 0
          0 0 0 0 0 0
          0 0 0 0 0 0
          0 0 0 0 0 0
          0 0 0 0 0 0
          0 0 0 0 0 0
          0 0 0 0 0 0
          0 0 0 0 0 0
          0 0 0 0 0 0
          0 0 0 0 0 0
          0 0 0 0 0 0
          0 0 0 0 0 0
          0 0 0 0 0 0
          0 0 0 0 0 0
          0 0 0 0 0 0
          0 0 0 0 0 0
          0 0 0 0 0 0
          0 0 0 0 0 0
          0 0 0 0 0 0
          0 0 0 0 0 0
          0 0 0 0 0 0
          0 0 0 0 0 0
          0 0 0 0 0 0
          0 0 0 0 0 0
          0 0 0 0 0 0
          0 0 0 0 0 0
          0 0 0 0 0 0
          0 0 0 0 0 0
          0 0 0 0 0 0
          0 0 0 0 0 0
          0 0 0 0 0 0
          0 0 0 0 0 0
          0 0 0 0 0 0
          0 0 0 0 0 0
          0 0 0 0 0 0
          0 0 0 0 0 0
          0 0 0 0 0 0
          0 0 0 0 0 0
          0 0 0 0 0 0
          0 0 0 0 0 0
          0 0 0 0 0 0
          0 0 0 0 0 0
          0 0 0 0 0 0
          0 0 0 0 0 0
          0 0 0 0 0 0
          0 0 0 0 0 0
          0 0 0 0 0 0
          0 0 0 0 0 0
          0 0 0 0 0 0
          0 0 0 0 0 0
          0 0 0 0 0 0
          0 0 0 0 0 0
          0 0 0 0 0 0
          0 0 0 0 0 0
          0 0 0 0 0 0
          0 0 0 0 0 0
          0 0 0 0 0 0
          0 0 0 0 0 0
          0 0 0 0 0 0
          0 0 0 0 0 0
          0 0 0 0 0 0
          0 0 0 0 0 0
          0 0 0 0 0 0
          0 0 0 0 0 0
          0 0 0 0 0 0
          0 0 0 0 0 0
          0 0 0 0 0 0
          0 0 0 0 0 0
          0 0 0 0 0 0
          0 0 0 0 0 0
          0 0 0 0 0 0
          0 0 0 0 0 0
          0 0 0 0 0 0
          0 0 0 0 0 0
          0 0 0 0 0 0
          0 0 0 0 0 0
          0 0 0 0 0 0
          0 0 0 0 0 0
          0 0 0 0 0 0
          0 0 0
        </DataArray>
        <DataArray type="Float64" Name="gradient_error" format="ascii" RangeMin="1.1997564770324007e-9" RangeMax="7.510139840310302e-7">
          6.224833196437312e-8 8.481887211801644e-8 1.2237218553210835e-9 1.4553576797191775e-7 1.1517979408797371e-7 3.243344401093937e-7
          4.012116265133725e-7 1.3615169276544084e-7 2.987548648027547e-9 4.293764229310444e-7 3.981134066563763e-8 1.3780160892776674e-7
          3.2634636564818794e-7 3.064816035244119e-7 1.568665847168581e-7 1.404069085344483e-7 4.4699163762260137e-7 8.477134932059494e-8
          2.6693835698882343e-8 2.615875883843772e-8 2.5623681977993098e-8 2.4945469304053514e-8 2.5066817539651053e-8 1.0591014795008796e-8
          3.0730800751454664e-8 5.087058670790054e-8 9.176690464666205e-9 1.6382229772441152e-8 2.35877690802161e-8 1.0003560341883812e-7
          9.559719140525239e-8 3.076629563639563e-7 2.6753794318818105e-7 8.05992665286354e-8 2.9917687360194396e-7 2.577875175180541e-7
          8.065857679331838e-8 1.680280364299756e-7 1.7779223229265854e-7 5.150482117187655e-7 5.60422107779392e-7 3.7142577573031907e-7
          4.563246059873531e-7 4.876705210602508e-7 5.723492663821791e-7 3.04348302706168e-7 2.8913994142006424e-7 4.03689465266974e-7
          7.650476317233886e-8 2.2957573625922875e-7 5.33629388268261e-7 4.4883615275774065e-7 1.5685125991708734e-9 7.179100975148909e-8
          7.9446549141976e-8 4.1362480733328225e-7 2.1290040446454362e-7 3.8705573596087927e-7 2.3295455292340583e-7 3.767541769737734e-7
          1.2124062121234454e-7 1.9586104593780723e-7 1.7129598949428733e-7 4.624742946907764e-7 4.566576319923932e-7 2.3044020134701469e-7
          5.795975006101794e-8 6.341924364900518e-8 2.860336637544557e-7 2.440230032066059e-7 4.553768715503615e-8 2.674471288317369e-7
          2.2538528390523123e-7 6.887873723699244e-8 2.0201234265875607e-7 1.8332343897872556e-7 3.279088336125173e-7 2.7331208177538157e-7
          2.672689671276391e-7 2.876710809214975e-7 8.453036450542987e-8 1.2115729546994848e-7 1.3559004158428351e-7 3.5586279564411926e-7
          3.5262333865487037e-7 1.6805052145404918e-9 8.75705603730435e-8 4.412784512197134e-7 2.7694242213302794e-7 3.603246015135859e-7
          2.5107774507020026e-7 3.362469476598301e-7 1.1845423788350657e-7 1.421450288086226e-7 1.1006970629987891e-7 4.437067808941438e-7
          4.2141615024945987e-7 1.6583581973373867e-7 5.138590804882354e-8 8.277476987346423e-8 5.2638399438454644e-8 7.890030714918257e-8
          3.2613441902676964e-8 5.690639689938312e-8 5.7220240288718085e-8 1.1794156198342847e-7 1.245884890205398e-7 1.205986988026373e-7
          1.2576760692538812e-7 1.1660890858473479e-7 1.0253738213682769e-7 1.044812973945188e-7 1.0238772109884755e-7 1.1516187365600621e-7
          5.464555912569568e-8 8.02236361315867e-8 1.1020985804706756e-7 5.5641552117092014e-8 1.190523222155005e-7 1.1842445001989571e-7
          1.2294277077499478e-7 1.2511606422729448e-7 1.2142381078085928e-7 1.1773155733442411e-7 1.0565618308347216e-7 1.0928463206411197e-7
          1.0167281137181524e-7 1.169863817028073e-7 1.2771818051189634e-7 1.250086169894732e-7 1.3365189176699086e-7 1.3193111304789726e-7
          1.2229905346705006e-7 1.278647451865329e-7 7.272847698882485e-8 9.956413163338702e-8 1.053526385965577e-7 1.2968577047409027e-7
          1.1967410244782679e-7 1.2727845244787217e-7 1.1828852253479076e-7 1.1388706943861701e-7 1.0460057197524266e-7 1.3335501767215813e-7
          1.3488024607886413e-7 1.302642848055558e-7 5.652091250949165e-8 7.144196570889918e-8 3.31244420881736e-8 5.0102764152148524e-8
          1.042197889599006e-7 9.786976577422906e-8 2.1161214805063527e-9 3.2612398799037244e-8 8.267778805887067e-9 9.145526600667005e-8
          7.660036428376607e-9 3.9493255465333035e-8 6.52443239020633e-9 4.03808627087767e-8 1.0311173950032093e-7 1.0832807650688195e-7
          1.357492683958516e-9 7.226255354913558e-9 6.343612957999955e-9 7.567531566842684e-8 1.2248037476319344e-7 1.2916757909443344e-7
          1.223375967366054e-7 1.2912347992719292e-7 1.2528664707856007e-7 1.310567057409947e-7 1.2638667093842007e-7 1.3562905716446182e-7
          1.4228608776980155e-7 1.3471445259692362e-7 1.4050202438575898e-7 1.379030966567655e-7 1.4487018479151013e-7 1.3916462038829148e-7
          1.354562065033388e-7 1.309137946050745e-7 1.3640730932692986e-7 1.190283509749136e-7 1.482592087318539e-7 1.4228937937497443e-7
          1.4850591816814476e-7 1.2561172698976974e-7 1.0241250702843613e-7 1.0266348049890902e-7 9.31396948138552e-8 1.0332795443005832e-7
          1.0372796462789176e-7 9.175200489867217e-8 1.4038716771275974e-7 1.3866801096761883e-7 1.4750779610312195e-7 1.456485537180208e-7
          1.3125648154932767e-7 1.3703675934291542e-7 8.044413466389603e-8 9.591483018827515e-8 8.617766867906341e-8 1.2865252997458395e-7
          1.5528929542022627e-7 1.5312633572756738e-7 1.6385944313494927e-7 1.613017232061353e-7 1.4298088490384062e-7 1.4928388925094497e-7
          8.899725582334184e-8 9.105947667388992e-8 1.280695765664297e-7 1.1523494499675123e-7 1.1802947149366022e-7 1.04905781117325e-7
          1.0577473563440921e-7 1.374129281226646e-7 1.4393086528001613e-7 1.287741125122238e-7 1.2087786595726118e-7 1.23624272939437e-7
          1.067573381417496e-7 1.0742477065430538e-7 1.506142876928682e-7 1.5770225462835378e-7 1.3797727208098673e-7 5.649705301653882e-9
          2.5841804147617985e-8 5.092405706646128e-9 1.0156016244023833e-8 9.870062718996326e-8 8.908511154217576e-8 1.2295717537855264e-9
          5.544024561851348e-9 5.054070651498949e-9 8.334870418901283e-8 5.107096690272302e-9 9.66429011226321e-9 9.429647565929252e-8
          2.377924796841884e-9 5.261406589959481e-9 9.228260211278676e-8 1.4950904089308507e-7 1.5742790841251564e-7 1.4698299753640132e-7
          1.5415460577843055e-7 1.5224960850590733e-7 1.6038954875341042e-7 1.530896374691498e-7 1.6617428491160755e-7 1.7589272429764304e-7
          1.6191731993712821e-7 1.7021843110303555e-7 1.695477719219427e-7 1.799015205895608e-7 1.6964276709711006e-7 8.437953360452286e-9
          8.674475851719436e-9 8.51077581718914e-9 8.910998342986587e-9 5.936360003525657e-9 7.32576665703014e-9 5.5856505963938265e-9
          7.049513467224714e-9 8.715173310534623e-9 8.513376338055603e-9 3.4347666465990274e-9 5.977057462340844e-9 5.5882511172602906e-9
          8.51934827808266e-9 1.4388821140282218e-8 1.4047931219808879e-8 1.4510847828986744e-8 1.4703087810590867e-8 1.4973764438164608e-8
          1.5007790379364792e-8 1.4897142958486522e-8 1.5138184008800248e-8 1.478649553760825e-8 7.83600489816769e-9 8.334885439659857e-9
          8.075078501815418e-9 8.833765981152021e-9 1.306824304502045e-8 1.3782363116685732e-8 1.4496483188351015e-8 6.821515002029088e-9
          7.609708107016958e-9 9.060867820399965e-9 1.0660517167498947e-8 1.3228072630978537e-8 1.3431215872357514e-8 1.3662285582231802e-8
          1.393929862172196e-8 5.185937314701128e-9 6.735395992821766e-9 4.7508817080087504e-9 6.331302170625516e-9 8.284854670942403e-9
          9.499205360628314e-9 2.5358697312345647e-9 5.1359065459836754e-9 4.587525839435614e-9 7.735943360732786e-9 4.305898650468355e-9
          5.80280947102002e-9 3.812606182950313e-9 5.256093235711837e-9 9.847246437704207e-9 9.338508209081671e-9 1.7902822989076237e-9
          3.995910835023083e-9 3.5088372873683536e-9 9.033975707909468e-9 1.3096034300882917e-8 1.3517897786365456e-8 1.2963995970787298e-8
          1.3130263648280409e-8 1.3155200363421787e-8 1.3865754712724089e-8 1.43329645971536e-8 1.2829311424203303e-8 1.2648115144611777e-8
          1.3792210803726217e-8 1.294214794623128e-8 1.3648771590518054e-8 1.2782078752146459e-8 1.3421599946457708e-8 1.4355395234804827e-8
          1.4061121140768956e-8 8.483619874296969e-9 9.58605567623165e-9 8.990068902185575e-9 1.1393070947098102e-8 1.264199823029341e-8
          1.3278975460794519e-8 1.2423358637578607e-8 1.3181061429782233e-8 1.3915952691295628e-8 1.393876422198586e-8 7.057481619890473e-9
          8.49336465134854e-9 8.017368014098969e-9 1.0800423933070713e-8 1.3707234559990953e-8 1.3723864289168367e-8 1.4612239235020262e-8
          1.3696563709163634e-8 1.3664797073585084e-8 1.4850350984728347e-8 3.287083542546858e-9 4.764593563605197e-9 2.86124500540783e-9
          4.337006444648219e-9 8.97382841296318e-9 8.6195053505653e-9 1.4432920091534575e-9 3.143771126796457e-9 2.8339871672498355e-9
          7.726563421001729e-9 2.5583084468025147e-9 3.949062316399297e-9 2.3267739493277402e-9 3.588875275559174e-9 8.22483578387131e-9
          7.802302805190017e-9 1.277859735046113e-9 2.572203293204032e-9 2.3669533736846333e-9 6.7717405906280555e-9 1.3127681302638309e-8
          1.3074704012309216e-8 1.4549809364013792e-8 1.472316520737644e-8 1.254812804528566e-8 1.2425543735450064e-8 1.4487379493007322e-8
          1.2988414225193882e-8 1.2886252035120032e-8 1.4866973068641222e-8 1.5018875061650638e-8 1.2280264741224129e-8 1.2107706996654982e-8
          1.4883595152554099e-8 1.5415905593431015e-8 1.539941312697079e-8 1.5680031350164736e-8 1.5382920660510562e-8 1.5681599257605022e-8
          1.5926209132018734e-8 1.6110759272622e-8 1.6979885010678134e-8 1.7324414559715986e-8 1.7853678584924364e-8 1.866962382226505e-8
          1.7918406154924906e-8 1.576111454736984e-8 1.6223465007065153e-8 1.626105250344389e-8 1.7824946864274844e-8 1.9239454934127125e-8
          1.9816422335466882e-8 1.9514831606465024e-8 1.2199084287123717e-8 1.3096661359640994e-8 1.1976415927109681e-8 1.2963535032722825e-8
          1.399423843215827e-8 1.4915155350537453e-8 6.054743148737964e-9 7.570071347555178e-9 7.129460267578247e-9 1.0092885282003648e-8
          1.175918440911997e-8 1.2736436759524649e-8 1.1535243145844959e-8 1.2513806199276394e-8 1.5242735146977446e-8 1.5139333266662937e-8
          5.318549432170541e-9 6.699858207416029e-9 6.365283600631398e-9 1.0703495940479193e-8 1.7108314475885845e-8 1.7372471176831263e-8
          1.3688764992627652e-8 1.473343015048749e-8 1.526967323198914e-8 1.7339942120629462e-8 1.775872516935729e-8 1.790810305723336e-8
          1.8731153058096537e-8 1.515095004222306e-8 1.5071441515590915e-8 1.6976075186149248e-8 2.1634898968459544e-9 3.2840627839087645e-9
          2.073145454242631e-9 3.0775877470666017e-9 7.381934890265182e-9 6.960957455754228e-9 1.1997564770324007e-9 2.2218924650183706e-9
          2.1432936742576214e-9 5.927319959427879e-9 2.0887960284665965e-9 3.0113206441094174e-9 2.2750284589498825e-9 3.0941136970194856e-9
          6.568112792337032e-9 6.276487927617884e-9 1.377262753227028e-9 2.169589260417342e-9 2.374513318706962e-9 5.23481898699244e-9
          1.2791598346549141e-8 1.2656734605935134e-8 1.5223962583539495e-8 1.5473584340252387e-8 1.1894431700470635e-8 1.1659431182166886e-8
          1.5178251935089853e-8 1.2450199956219365e-8 1.2242729133433226e-8 1.5698019587516904e-8 1.584568134671977e-8 1.1424705484327179e-8
          1.1190401752134149e-8 1.5341688762277136e-8 1.1307021456296324e-8 1.2333528448270437e-8 1.111821401160007e-8 1.2177311873421614e-8
          1.515622838934188e-8 1.517594223514234e-8 5.015386730298542e-9 6.190824018927215e-9 6.182103045703631e-9 9.86062325753093e-9
          1.813069981596119e-8 1.8508446255493168e-8 1.9308978293483166e-8 1.9901417775944812e-8 1.509054306307208e-8 1.511658612794482e-8
          1.7826100918638187e-8 2.6134576771464686e-9 3.3375275826270827e-9 3.0154098461356963e-9 3.7115103049908247e-9 6.146075520622145e-9
          6.196881805910364e-9 2.0490702589186638e-9 2.736999016875456e-9 3.1523857619737223e-9 5.058414440591345e-9 1.2072304291368944e-8
          1.1943449523087963e-8 1.5914055029601294e-8 1.5900746198201153e-8 1.0985467154388982e-8 1.0854196965805742e-8 1.5279033202427522e-8
          2.2656266404315792e-8 1.8765041559367786e-8 7.86690054555138e-8 5.79589136122548e-8 1.4873816714419782e-8 3.2851508464760914e-8
          2.2933208006437935e-8 1.1720780983603945e-7 5.786079147584794e-8 2.1128091252542396e-7 9.278837494525796e-8 1.0961840284820429e-7
          3.1309990081655297e-7 2.748903683840077e-7 1.8009203048289163e-7 6.906248560204912e-7 6.398140601315377e-7 4.562659962675164e-7
          6.541159391089084e-7 6.108743094557403e-7 4.5067098600440587e-7 6.295380125986306e-7 4.516128100871403e-7 6.113977246465271e-7
          6.81663142347176e-7 4.742787837812691e-7 5.887030928980197e-7 7.510139840310302e-7 2.2687149942653573e-7 3.9309422112331793e-7
          2.1628400809468384e-7 4.6330612286401696e-7 5.022770723177159e-8 9.054419335111208e-8 5.75851616879032e-8 9.643322767211173e-8
          9.941047438547964e-8 5.249351555738465e-8 7.681388629430011e-8 9.275756760236177e-8 7.727668900466263e-8 1.0095374346406788e-7
          9.410370117067691e-8 5.409946354615238e-8 9.951976582928824e-8 8.734317009805266e-9 6.2586251407731895e-9 7.527810530378964e-9
          8.796995919984738e-9 3.96344683888881e-9 6.3213040509526616e-9
        </DataArray>
        <DataArray type="Float64" Name="gradient_matprop_error" format="ascii" RangeMin="0" RangeMax="0">
          0 0 0 0 0 0
          0 0 0 0 0 0
          0 0 0 0 0 0
          0 0 0 0 0 0
          0 0 0 0 0 0
          0 0 0 0 0 0
          0 0 0 0 0 0
          0 0 0 0 0 0
          0 0 0 0 0 0
          0 0 0 0 0 0
          0 0 0 0 0 0
          0 0 0 0 0 0
          0 0 0 0 0 0
          0 0 0 0 0 0
          0 0 0 0 0 0
          0 0 0 0 0 0
          0 0 0 0 0 0
          0 0 0 0 0 0
          0 0 0 0 0 0
          0 0 0 0 0 0
          0 0 0 0 0 0
          0 0 0 0 0 0
          0 0 0 0 0 0
          0 0 0 0 0 0
          0 0 0 0 0 0
          0 0 0 0 0 0
          0 0 0 0 0 0
          0 0 0 0 0 0
          0 0 0 0 0 0
          0 0 0 0 0 0
          0 0 0 0 0 0
          0 0 0 0 0 0
          0 0 0 0 0 0
          0 0 0 0 0 0
          0 0 0 0 0 0
          0 0 0 0 0 0
          0 0 0 0 0 0
          0 0 0 0 0 0
          0 0 0 0 0 0
          0 0 0 0 0 0
          0 0 0 0 0 0
          0 0 0 0 0 0
          0 0 0 0 0 0
          0 0 0 0 0 0
          0 0 0 0 0 0
          0 0 0 0 0 0
          0 0 0 0 0 0
          0 0 0 0 0 0
          0 0 0 0 0 0
          0 0 0 0 0 0
          0 0 0 0 0 0
          0 0 0 0 0 0
          0 0 0 0 0 0
          0 0 0 0 0 0
          0 0 0 0 0 0
          0 0 0 0 0 0
          0 0 0 0 0 0
          0 0 0 0 0 0
          0 0 0 0 0 0
          0 0 0 0 0 0
          0 0 0 0 0 0
          0 0 0 0 0 0
          0 0 0 0 0 0
          0 0 0 0 0 0
          0 0 0 0 0 0
          0 0 0 0 0 0
          0 0 0 0 0 0
          0 0 0 0 0 0
          0 0 0 0 0 0
          0 0 0 0 0 0
          0 0 0 0 0 0
          0 0 0 0 0 0
          0 0 0 0 0 0
          0 0 0 0 0 0
          0 0 0 0 0 0
          0 0 0 0 0 0
          0 0 0 0 0 0
          0 0 0 0 0 0
          0 0 0 0 0 0
          0 0 0 0 0 0
          0 0 0 0 0 0
          0 0 0 0 0 0
          0 0 0 0 0 0
          0 0 0 0 0 0
          0 0 0 0 0 0
          0 0 0 0 0 0
          0 0 0 0 0 0
          0 0 0 0 0 0
          0 0 0 0 0 0
          0 0 0 0 0 0
          0 0 0 0 0 0
          0 0 0 0 0 0
          0 0 0
        </DataArray>
        <DataArray type="Float64" Name="initial_marker" format="ascii" RangeMin="0" RangeMax="2">
          0 0 2 0 0 2
          1 0 2 2 0 0
          2 1 0 0 2 0
          0 0 0 0 0 0
          0 0 0 0 0 0
          0 1 1 0 1 1
          0 0.5 0.6666666666666666 2 2 2
          1 2 2 2 2 2
          2 2 1.5 1.5 2 2
          2 2 0 0.5 0 0.5
          0 0 0 1 1 0
          0 0 1 1 0 1
          1 0 1 1 2 2
          2 1.3333333333333333 2 2 2 1.5
          1.5 2 2 2 0 0.5
          0 0.5 0 0 0 1
          1 0 0 0 0 0
          0 0 0 2 2 2
          2 2 2 2 2 2
          2 2 2 2 2 2
          2 2 2 2 2 2
          2 2 2 2 2 2
          2 2 2 2 2 2
          2 2 2 2 2 2
          2 2 2 2 2 2
          2 2 2 2 2 2
          2 2 2 2 2 2
          2 2 2 2 2 2
          2 2 2 2 2 2
          2 2 2 2 2 2
          2 2 2 2 2 2
          2 2 2 2 2 2
          2 2 2 2 2 2
          2 2 2 2 2 2
          2 2 2 2 2 2
          2 2 2 2 2 2
          2 2 2 2 2 2
          2 2 2 2 2 2
          2 2 2 2 2 2
          2 2 2 2 2 2
          2 2 2 2 2 2
          2 2 2 2 2 2
          2 2 2 2 2 2
          2 2 2 2 2 2
          2 2 2 2 2 2
          2 2 2 2 2 2
          2 2 2 2 2 2
          2 2 2 2 2 2
          2 2 2 2 2 2
          2 2 2 2 2 2
          2 2 2 2 2 2
          2 2 2 2 2 2
          2 2 2 2 2 2
          2 2 2 2 2 2
          2 2 2 2 2 2
          2 2 2 2 2 2
          2 2 2 2 2 2
          2 2 2 2 2 2
          2 2 2 2 2 2
          2 2 2 2 2 2
          2 2 2 2 2 2
          2 2 2 2 2 2
          2 2 2 2 2 2
          2 2 2 2 2 2
          2 2 2 2 2 2
          2 2 2 2 2 2
          2 2 2 2 2 2
          2 2 2 2 2 2
          2 2 2 2 2 2
          2 2 2 2 2 2
          2 2 2 2 2 2
          2 2 2 2 2 2
          2 2 2 2 2 2
          2 2 2 2 2 2
          2 2 2 2 2 2
          2 2 2 2 2 2
          2 2 2 2 2 2
          2 2 2 2 2 2
          2 2 2 2 2 2
          2 2 2 2 2 2
          2 2 2 2 2 2
          2 2 2 2 2 2
          2 2 2 2 2 2
          2 2 2 2 2 2
          0 0 0 0 0 0
          0 0 0 0 0 0
          1 1 0.5 2 2 1
          2 2 2 2 1 1.25
          1 2 1.5 1 0 0.25
          0 0.5 0 0 0 2
          2 2 2 2 2 2
          2 2 2 2 2 2
          2 2 2
        </DataArray>
        <DataArray type="Float64" Name="markers_norefine" format="ascii" RangeMin="0" RangeMax="2">
          0 0 2 0 0 0
          0 0 2 0 0 0
          0 0 0 0 0 0
          0 0 0 0 0 0
          0 0 0 0 0 0
          0 0 0 0 0 0
          0 0 0 0 0 0
          0 0 0 0 0 0
          0 0 0 0 2 0
          0 0 0 0 0 0
          0 0 0 0 0 0
          0 0 0 0 0 0
          0 0 0 0 0 0
          0 0 0.5 0 0 0
          0 2 1 0 0 0
          0 0 0 0 0 0
          0 0 0 0 0 0
          0 0 0 0 0 0
          0 0 0 0 0 0
          1 0 0 1 0 0
          0 0 0 0 0 0
          0 0 0 0 0 0
          0 0 0 0 0 0
          0 0 0 0 0 0
          0 0 1 0.5 1.5 0.5
          0 0 2 1 2 0
          2 1.25 2 1.5 0 0
          2 2 2 0 0 0
          0 0 0 0 0 0
          0 0 0 0 0 0
          0 0 0 0 0 0
          0 0 0 0 0 0
          0 0 0 0 0 0
          0 0 0 0 0 0
          0 0 0 0 0 0
          1 0.25 0 0 0 0
          0 0 0 0 0 0
          0 0 0 0 0 2
          1.5 2 2 0 0.25 2
          2 2 0.5 2 2 0.5
          2 2 1 0 0 0
          0 0 0 0 0 0
          0 0 0 0 0 2
          1 1 0 2 1.5 2
          1.5 1 1 2 2 2
          2 0 0 0 0 0
          0 0 0 0 2 1.5
          2 1 1 0.5 0 2
          2 1.6666666666666667 1 0 0 0
          0 2 1.75 2 2 1.5
          1.3333333333333333 2 2 2 2 2
          2 2 2 1.25 1.5 2
          2 2 1.5 0 0 0
          0.25 0.5 0 0 0.5 1
          0 1 0.5 1 0.75 0
          0.5 2 1.5 1.75 1 1
          1 1 1 1 1 2
          2 2 2 0.5 1 0
          1 1 0 2 2 2
          2 1.75 2 2 2 2
          2 2 2 2 2 2
          2 2 2 2 2 0.75
          1 0 0 1 1 0
          1 1 0 0 1 1
          0 0 0 0 0 0
          0 0.5 0 0 0 0
          0 2 1 1.5 0 0
          0 0 1 1 1 1
          1 0.6666666666666666 2 2 2 2
          1 1 1.5 1.25 0.75 1
          2 2 2 1.75 0 0
          1 0.6666666666666666 0 0.25 0.5 0
          0 0.75 1.25 0 2 2
          2 2 2 2 2 2
          2 2 2 2 2 2
          2 2 2 2 2 2
          1 1.25 0 0.5 1 1.5
          0 1.5 1.75 1 1.5 2
          2 2 2 1.5 2 1.75
          1 1.25 2 2 2 2
          0.5 0.5 0 0 1.5 1.5
          1 2 2 2 2 2
          2 2 2 2 2 2
          2 2 2 2 2 2
          0 0 0 0 0 0
          0 0 0 0 0 0
          0 0 0 0 0 0
          0 0 0 0 0 0
          0 0 0 0 0 0
          0 0 0 0 0 0
          0 0.5 0 0 0 0
          0 0.5 0 0.5 1.5 1
          0.5 2 1.5
        </DataArray>
        <DataArray type="Float64" Name="markers_mustrefine" format="ascii" RangeMin="0" RangeMax="2">
          0 0 2 0 0 2
          1 0 2 2 0 0
          2 1 0 0 2 0
          0 0 0 0 0 0
          0 0 0 0 0 0
          0 1 1 0 1 1
          0 0.5 0.6666666666666666 2 2 2
          1 2 2 2 2 2
          2 2 1.5 1.5 2 2
          2 2 0 0.5 0 0.5
          0 0 0 1 1 0
          0 0 1 1 0 1
          1 0 1 1 2 2
          2 1.3333333333333333 2 2 2 1.5
          1.5 2 2 2 0 0.5
          0 0.5 0 0 0 1
          1 0 0 0 0 0
          0 0 0 2 2 2
          2 2 2 2 2 2
          2 2 2 2 2 2
          2 2 2 2 2 2
          2 2 2 2 2 2
          2 2 2 2 2 2
          2 2 2 2 2 2
          2 2 2 2 2 2
          2 2 2 2 2 2
          2 2 2 2 2 2
          2 2 2 2 2 2
          2 2 2 2 2 2
          2 2 2 2 2 2
          2 2 2 2 2 2
          2 2 2 2 2 2
          2 2 2 2 2 2
          2 2 2 2 2 2
          2 2 2 2 2 2
          2 2 2 2 2 2
          2 2 2 2 2 2
          2 2 2 2 2 2
          2 2 2 2 2 2
          2 2 2 2 2 2
          2 2 2 2 2 2
          2 2 2 2 2 2
          2 2 2 2 2 2
          2 2 2 2 2 2
          2 2 2 2 2 2
          2 2 2 2 2 2
          2 2 2 2 2 2
          2 2 2 2 2 2
          2 2 2 2 2 2
          2 2 2 2 2 2
          2 2 2 2 2 2
          2 2 2 2 2 2
          2 2 2 2 2 2
          2 2 2 2 2 2
          2 2 2 2 2 2
          2 2 2 2 2 2
          2 2 2 2 2 2
          2 2 2 2 2 2
          2 2 2 2 2 2
          2 2 2 2 2 2
          2 2 2 2 2 2
          2 2 2 2 2 2
          2 2 2 2 2 2
          2 2 2 2 2 2
          2 2 2 2 2 2
          2 2 2 2 2 2
          2 2 2 2 2 2
          2 2 2 2 2 2
          2 2 2 2 2 2
          2 2 2 2 2 2
          2 2 2 2 2 2
          2 2 2 2 2 2
          2 2 2 2 2 2
          2 2 2 2 2 2
          2 2 2 2 2 2
          2 2 2 2 2 2
          2 2 2 2 2 2
          2 2 2 2 2 2
          2 2 2 2 2 2
          2 2 2 2 2 2
          2 2 2 2 2 2
          2 2 2 2 2 2
          2 2 2 2 2 2
          2 2 2 2 2 2
          0 0 0 0 0 0
          0 0 0 0 0 0
          1 1 0.5 2 2 1
          2 2 2 2 1 1.25
          1 2 1.5 1 0 0.25
          0 0.5 0 0 0 2
          2 2 2 2 2 2
          2 2 2 2 2 2
          2 2 2
        </DataArray>
        <DataArray type="Float64" Name="gradient_marker" format="ascii" RangeMin="0" RangeMax="1">
          0.5 0.875 0 1 0.625 0.5
          0.75 0.75 0 1 0.5 0.75
          1 0.75 1 0.75 1 0.75
          1 1 1 1 1 1
          1 1 1 1 1 0
          0 0.5 0.5 0 0.5 0.5
          0 0.375 0.3333333333333333 0.75 0.875 0.625
          0.875 0.5 0.625 0.25 0.25 0.375
          0.25 0.5 0.75 0.625 0 0
          0.5 0.5 0.625 1 0.5 0.875
          0.5 1 0.75 1 1 1
          0 0 0.5 0.5 0 0.5
          0.5 0 0.5 0.5 1 0.5
          0.75 0.6666666666666666 0.5 0.75 0.75 0.75
          0.75 0 0.5 1 0.5 0.75
          0.5 0.625 0 0.5 0.25 1
          0.75 1 0 0.125 0 0
          0 0 0 0 0 0
          0 0 0 0 0 0
          0 0 0 0 0 0
          0 0 0 0 0 0
          0 0 0 0 0.25 0.25
          0 0.16666666666666666 0 0 0.25 0.16666666666666666
          0 0 0 0 0 0.25
          0.3333333333333333 0 0 0 0 0
          0 0 0 0 0 0
          0 0 0 0 0.25 0.5
          0 0 0 0.25 0 0
          0 0 0 0 0 0.375
          0.75 0.25 0.5 0.5 1 0.5
          0.5 0.25 0.5 0 1 0.75
          1 0.25 0 0 0 0
          0 0 0.75 0.625 1 0.75
          0.375 0.5 0.5 0.5 0.5 0.625
          1 0.875 1 1 0.625 0.75
          0.5 0.5 0.75 0.125 0.25 0
          0 0.5 0.75 0.25 0.25 0.25
          0 0 0.75 0.75 0.5 0
          0 0 0 0.5 0.5 0
          0 0 0.5 0 0 0.5
          0 0 0.5 0.875 1 0.75
          1 1 1 1 1 1
          1 1 1 1 1 0
          0 0 0 0 0 0
          0 0 0 0 0 0
          0 0 0 0 0 0
          0 0 0 0 0 0
          0 0 0 0 0 0
          0 0 0 0 0 0
          0 0 0 0 0 0
          0 0 0 0 0 0
          0 0 0 0 0 0
          0 0 0 0 0 0
          0 0 0 0 0 0
          0 0 0 0 0 0
          0 0 0 0 0 0
          0 0 0 0 0 0
          0 0 0 0 0 0
          0 0 0 0 0 0
          0 0 0 0 0 0
          0 0 0 0 0 0
          0 0 0 0 0 0
          0 0 0 0 0 0