<?xml version="1.0"?>
<VTKFile type="UnstructuredGrid" version="0.1" byte_order="LittleEndian" header_type="UInt32" compressor="vtkZLibDataCompressor">
  <UnstructuredGrid>
    <Piece NumberOfPoints="578" NumberOfCells="302">
      <PointData>
        <DataArray type="Int32" Name="libmesh_node_id" format="ascii" RangeMin="0" RangeMax="5654">
          0 1 2 3 4 5
          6 7 8 9 10 11
          12 13 14 15 16 17
          18 19 76 77 78 79
          80 81 82 83 84 85
          114 115 116 117 118 119
          120 121 122 123 124 125
          152 153 154 155 156 157
          171 172 173 174 175 176
          177 178 179 180 181 182
          183 184 209 210 211 212
          213 214 215 228 229 230
          231 232 233 234 235 236
          237 238 239 240 241 266
          267 268 269 270 271 272
          285 286 287 288 289 290
          291 292 293 294 295 296
          297 298 323 324 325 326
          327 328 329 342 343 344
          345 346 347 348 349 350
          351 352 353 354 355 380
          381 382 383 384 385 386
          5001 5002 5003 5004 5005 5006
          5007 5008 5009 5010 5011 5012
          5013 5014 5015 5016 5017 5018
          5019 5020 5021 5022 5023 5024
          5025 5026 5027 5028 5029 5030
          5031 5032 5033 5034 5035 5036
          5037 5038 5039 5040 5041 5042
          5043 5044 5045 5046 5047 5048
          5049 5050 5051 5052 5053 5054
          5055 5056 5057 5058 5059 5060
          5061 5062 5063 5064 5065 5066
          5067 5068 5069 5070 5071 5072
          5073 5074 5075 5076 5077 5078
          5079 5080 5081 5082 5083 5084
          5085 5086 5087 5088 5089 5091
          5096 5161 5162 5163 5164 5165
          5166 5167 5168 5169 5170 5171
          5172 5173 5174 5175 5176 5177
          5178 5179 5180 5181 5182 5183
          5184 5188 5190 5191 5192 5193
          5194 5195 5196 5197 5198 5199
          5200 5201 5202 5203 5204 5205
          5206 5207 5208 5209 5210 5211
          5212 5213 5214 5215 5216 5217
          5218 5219 5220 5221 5222 5223
          5224 5241 5242 5243 5244 5245
          5246 5247 5248 5249 5250 5251
          5252 5253 5254 5255 5256 5257
          5258 5259 5260 5261 5262 5263
          5264 5265 5266 5267 5268 5269
          5270 5271 5272 5273 5274 5275
          5276 5277 5278 5279 5280 5281
          5282 5283 5284 5285 5286 5287
          5288 5289 5290 5291 5292 5293
          5294 5295 5296 5297 5298 5299
          5300 5301 5302 5303 5304 5305
          5306 5307 5308 5309 5310 5311
          5312 5313 5314 5315 5316 5317
          5318 5319 5320 5321 5322 5323
          5324 5325 5326 5327 5328 5329
          5330 5331 5332 5333 5334 5335
          5336 5337 5338 5339 5340 5341
          5342 5343 5344 5345 5346 5347
          5348 5349 5350 5351 5352 5353
          5354 5355 5356 5357 5358 5359
          5360 5361 5362 5363 5364 5365
          5366 5367 5368 5369 5370 5371
          5372 5373 5374 5375 5376 5377
          5378 5379 5380 5381 5382 5383
          5384 5385 5386 5387 5388 5389
          5390 5391 5392 5393 5394 5395
          5396 5397 5398 5399 5400 5401
          5402 5403 5404 5405 5406 5407
          5408 5409 5410 5411 5412 5413
          5414 5415 5416 5417 5418 5419
          5420 5421 5422 5423 5424 5425
          5426 5427 5428 5429 5430 5431
          5432 5433 5434 5435 5436 5437
          5438 5439 5440 5441 5442 5443
          5444 5445 5446 5447 5448 5449
          5450 5451 5452 5453 5454 5455
          5456 5457 5458 5459 5460 5461
          5462 5463 5464 5465 5466 5467
          5468 5469 5470 5471 5472 5473
          5474 5475 5476 5477 5478 5479
          5480 5481 5482 5483 5484 5485
          5486 5487 5488 5489 5490 5491
          5492 5493 5494 5495 5496 5497
          5498 5499 5500 5501 5502 5503
          5504 5505 5506 5507 5508 5509
          5510 5511 5540 5541 5546 5547
          5635 5636 5637 5638 5639 5640
          5641 5642 5643 5644 5645 5646
          5647 5648 5649 5650 5651 5652
          5653 5654
        </DataArray>
        <DataArray type="Float64" Name="bounds" format="ascii" RangeMin="0" RangeMax="0">
          0 0 0 0 0 0
          0 0 0 0 0 0
          0 0 0 0 0 0
          0 0 0 0 0 0
          0 0 0 0 0 0
          0 0 0 0 0 0
          0 0 0 0 0 0
          0 0 0 0 0 0
          0 0 0 0 0 0
          0 0 0 0 0 0
          0 0 0 0 0 0
          0 0 0 0 0 0
          0 0 0 0 0 0
          0 0 0 0 0 0
          0 0 0 0 0 0
          0 0 0 0 0 0
          0 0 0 0 0 0
          0 0 0 0 0 0
          0 0 0 0 0 0
          0 0 0 0 0 0
          0 0 0 0 0 0
          0 0 0 0 0 0
          0 0 0 0 0 0
          0 0 0 0 0 0
          0 0 0 0 0 0
          0 0 0 0 0 0
          0 0 0 0 0 0
          0 0 0 0 0 0
          0 0 0 0 0 0
          0 0 0 0 0 0
          0 0 0 0 0 0
          0 0 0 0 0 0
          0 0 0 0 0 0
          0 0 0 0 0 0
          0 0 0 0 0 0
          0 0 0 0 0 0
          0 0 0 0 0 0
          0 0 0 0 0 0
          0 0 0 0 0 0
          0 0 0 0 0 0
          0 0 0 0 0 0
          0 0 0 0 0 0
          0 0 0 0 0 0
          0 0 0 0 0 0
          0 0 0 0 0 0
          0 0 0 0 0 0
          0 0 0 0 0 0
          0 0 0 0 0 0
          0 0 0 0 0 0
          0 0 0 0 0 0
          0 0 0 0 0 0
          0 0 0 0 0 0
          0 0 0 0 0 0
          0 0 0 0 0 0
          0 0 0 0 0 0
          0 0 0 0 0 0
          0 0 0 0 0 0
          0 0 0 0 0 0
          0 0 0 0 0 0
          0 0 0 0 0 0
          0 0 0 0 0 0
          0 0 0 0 0 0
          0 0 0 0 0 0
          0 0 0 0 0 0
          0 0 0 0 0 0
          0 0 0 0 0 0
          0 0 0 0 0 0
          0 0 0 0 0 0
          0 0 0 0 0 0
          0 0 0 0 0 0
          0 0 0 0 0 0
          0 0 0 0 0 0
          0 0 0 0 0 0
          0 0 0 0 0 0
          0 0 0 0 0 0
          0 0 0 0 0 0
          0 0 0 0 0 0
          0 0 0 0 0 0
          0 0 0 0 0 0
          0 0 0 0 0 0
          0 0 0 0 0 0
          0 0 0 0 0 0
          0 0 0 0 0 0
          0 0 0 0 0 0
          0 0 0 0 0 0
          0 0 0 0 0 0
          0 0 0 0 0 0
          0 0 0 0 0 0
          0 0 0 0 0 0
          0 0 0 0 0 0
          0 0 0 0 0 0
          0 0 0 0 0 0
          0 0 0 0 0 0
          0 0 0 0 0 0
          0 0 0 0 0 0
          0 0 0 0 0 0
          0 0
        </DataArray>
        <DataArray type="Float64" Name="gradient_error" format="ascii" RangeMin="5.001470027626221e-11" RangeMax="0.0000032684052633784438">
          1.352796556739485e-9 1.1225976971817617e-9 6.307996278510198e-10 7.668244400698584e-10 3.6624064396474534e-9 2.9960289047508863e-9
          1.6824075612936142e-9 2.068641724561602e-9 6.243124838990279e-10 3.479357295679638e-10 1.6039268234891338e-9 9.009740243125247e-10
          5.941057530288373e-10 3.240510880820278e-10 1.5391766424323242e-9 8.452022607165539e-10 8.076960254155031e-10 4.2885536284588265e-10
          2.1236187290147643e-9 1.1310214439899064e-9 1.3900155852027775e-10 1.8085232340023189e-10 3.6878621783634185e-10 4.748770094757506e-10
          7.15589752368997e-11 1.9802122513591553e-10 5.399642313521825e-11 1.5122787900078337e-10 5.001470027626221e-11 1.3842415896504852e-10
          1.458872904429164e-8 1.1775000355959496e-8 6.692031087970153e-9 8.313572767493127e-9 6.211844201209961e-9 3.5625758815822552e-9
          6.28419431525232e-9 3.4946542676362345e-9 8.711366105407803e-9 4.676060318590567e-9 5.250731059839513e-9 2.8441778392610294e-9
          1.6090618199808105e-9 2.038416490694615e-9 9.133075619545489e-10 7.05114220020149e-10 6.407545317733308e-10 4.3762461868254586e-10
          5.606490506313485e-8 4.466762836743507e-8 2.587551772328343e-8 3.243951605746706e-8 2.3528350070041098e-8 1.38894965499976e-8
          2.5475590749887646e-8 1.4397351011941554e-8 3.52044200278453e-8 1.9103265244648438e-8 2.1029646306495686e-8 1.1615954142458976e-8
          7.592204437140654e-9 4.939376895822363e-9 7.083407079131795e-9 8.814127051799265e-9 4.250643029954099e-9 3.3191112739954645e-9
          3.002110461451576e-9 2.2022619784222662e-9 2.286549354504072e-9 1.7353390452451032e-7 1.3135982122376468e-7 7.702672032600961e-8
          1.013806912231889e-7 8.453636252726515e-8 4.825434018796319e-8 1.3575172318304714e-7 7.215665341820726e-8 1.186226854494819e-7
          6.057835214648025e-8 2.6687676674071992e-8 1.2618176215705332e-8 1.3916928310819655e-8 8.429302996873629e-9 2.269361942825454e-8
          2.922747792186749e-8 1.197231784866123e-8 8.56158365336737e-9 8.227485961482533e-9 6.305996332053433e-9 6.955644440989164e-9
          0.0000013642450095546057 0.000001342648750486619 9.71245188061119e-7 0.000001031360769649316 0.0000013302062293835675 6.750269089553515e-7
          0.0000013872616395107136 4.317628081612604e-7 0.0000013746649739599107 3.790952822746976e-7 1.3642006670874828e-7 2.955652921448314e-7
          1.0989239733201892e-7 2.451290722650832e-7 0.0000010942046414562141 0.0000011704508131610771 5.278455036547989e-7 1.3330579712778832e-8
          1.397429174109345e-8 1.2175407377747405e-8 1.0564691754857551e-8 2.7205042394978154e-7 3.0400692472155496e-7 0.000002673105241928491
          0.0000027013459364061994 3.5081794765925255e-7 0.000002266447631221714 4.1571064095306406e-7 4.30450225201534e-7 4.933280261105202e-7
          3.914052399581645e-7 6.206006291181176e-7 3.27628916286806e-7 7.931632318910223e-7 2.5496574429581517e-7 0.0000021545693054513733
          0.0000022967669932961797 0.0000010938065008119974 4.891585621561864e-8 7.434934341412174e-8 7.738901811800198e-8 6.934273440492056e-8
          0.000002477277087875384 0.000001998819106150593 0.000001998372295003382 0.0000014778582612592628 0.000001490351407570252 0.0000019021155770840293
          0.0000018920181559650276 0.000001998869558840385 0.00000151575238618952 0.0000019247211478738535 0.000001520361124425802 0.0000023256405434518286
          0.000002316161445551275 0.0000023480738607126995 2.8351957001302267e-7 0.0000018100603278112327 0.0000017879803161195988 0.000001858406347400616
          0.0000031309199624778546 0.0000025122231292748976 0.000001997901995633576 0.000001544608603991557 0.00000195176860236033 0.0000019924851483620455
          0.0000015742150882832137 0.000001975426065596275 0.0000014835808619922544 0.000002375993062685349 0.0000016906098757393963 3.26932459309141e-7
          0.0000019164278607067933 0.000001972720107710687 0.0000032684052633784438 0.0000025394604391191366 0.0000019734185149473984 0.000001603232930494566
          0.0000016147294044325436 0.0000019407770955035545 0.0000016317156220406763 0.0000012531283954941458 7.881894924276336e-7 9.603330717166997e-7
          5.656678778268318e-7 3.770057571669653e-7 0.0000013038322089520232 6.354608078782572e-7 0.0000011630233589898136 0.0000025357628633141726
          0.000001904993614711162 0.0000016577736393718992 0.0000012521650288976813 0.0000012799826163585874 0.0000016862918164040866 0.000001252104176535104
          6.966927280210702e-7 5.375111629356834e-7 5.020788978257108e-7 4.5244647310124174e-7 6.779677578267881e-7 7.227497305996996e-7
          4.1864155875891345e-7 7.629745532574542e-7 6.764448301779549e-7 0.0000011927953640024483 9.748165601506299e-7 3.455520484330384e-7
          7.221623472033249e-7 7.040773129548594e-7 4.276247737997792e-7 4.607586881608581e-7 4.126587859103841e-7 5.446949769476901e-7
          7.710052490308199e-7 8.226547713731973e-7 3.6060901932076967e-7 1.113059758666912e-7 3.1337385799234867e-7 7.670850190163321e-7
          6.969919874573806e-7 2.919303999792298e-7 8.104580052361167e-7 6.882048110400823e-7 3.5567062870466874e-7 3.655722034385691e-7
          3.2015260272375046e-7 6.990846303637669e-7 8.800187224546407e-7 9.421265815577368e-7 2.9224730827676364e-7 2.6889281781714573e-7
          2.919169035487116e-7 2.8335181967229447e-8 1.9082324895326262e-8 2.6705629448806024e-8 8.166487463667958e-8 7.466934264586454e-8
          5.736596261458996e-8 6.091080635415544e-8 1.1975610785363912e-8 5.5616096668259e-8 4.8331886341079974e-8 9.829467823423073e-9
          4.0062582583315385e-8 4.0156738071631296e-8 4.1047676013900936e-8 1.9298357681685346e-8 1.234768240780132e-8 4.479938113124542e-8
          4.446125192822521e-8 1.1722593197187395e-8 4.7427649160153956e-8 4.7339936842904606e-8 5.397007133917291e-9 4.412312272520501e-8
          4.725222452565525e-8 5.0119853091587685e-8 4.863559777050382e-8 6.801929663005929e-8 8.105762021355299e-8 1.6765710682245485e-7
          1.7326363816804053e-7 5.3577039487495353e-8 1.48818683279335e-7 1.687750332612962e-8 4.217543391861705e-8 3.196515088862927e-8
          4.5396250225176945e-8 2.672949170148504e-7 2.6546965612252806e-7 2.440603270711746e-7 6.747336451110449e-8 4.131469525513346e-8
          1.285907300698195e-7 3.2330259759530664e-8 1.0862410094091179e-7 1.5675833169066304e-8 4.6381692571887125e-8 4.640045586684213e-8
          2.1586676488450555e-7 1.8491794212229294e-7 7.708755197470794e-8 2.274785456532752e-8 8.697012714444052e-8 1.3939754246426735e-8
          6.412513407328474e-8 1.3828423697198102e-8 4.440716834788491e-8 4.017752028143668e-8 1.5119239972355348e-7 1.1431051390014275e-7
          7.498591299857173e-8 4.90458193400386e-7 4.799415369330023e-7 4.7538654921761e-7 3.787101840239372e-7 3.829500464064239e-7
          4.2768373785554555e-7 4.232148187769951e-7 4.916649304110975e-7 3.934726486390711e-7 4.390125309949571e-7 4.6942488046561883e-7
          4.724174293046672e-7 4.6771945353005303e-7 4.845524133508431e-7 2.7544189941246184e-7 3.754259387780887e-7 3.7104308833638023e-7
          3.863601315788167e-7 4.754099781437156e-7 5.201457224121329e-7 5.070499665050643e-7 4.0675846016043307e-7 4.535353529738324e-7
          5.238882465635481e-7 4.2113956121980756e-7 4.692387335610685e-7 4.939542105979957e-7 5.003122457872317e-7 5.173379059023295e-7
          2.933711979087333e-7 4.000207394426005e-7 4.1458922055858894e-7 5.066702809764677e-7 5.571862874188168e-7 5.41457051797587e-7
          4.362179812453152e-7 4.856208080876143e-7 5.599296167519703e-7 4.5196326900867857e-7 5.028105377120561e-7 5.257278161763571e-7
          5.350236349299135e-7 5.536578064154336e-7 3.152496750718135e-7 4.2978456437764166e-7 4.4569145867214194e-7 5.443194536834698e-7
          5.978909910694498e-7 5.795799739636663e-7 4.683800384385465e-7 5.21024116423199e-7 6.005892386683322e-7 4.853459188061667e-7
          5.405018155349665e-7 5.61268956857883e-7 5.736681944078515e-7 5.956577122637663e-7 3.388690858076432e-7 4.6246825888273165e-7
          4.804143924016008e-7 5.8606743195782e-7 6.429120844140532e-7 6.231783716077839e-7 5.026718559348812e-7 5.615024404214121e-7
          6.456749487261823e-7 5.220055895184805e-7 5.80490990858745e-7 6.034446588015145e-7 6.20333024907943e-7 5.861098215232445e-7
          3.624316274557093e-7 4.998265092350404e-7 5.153070329913077e-7 6.372213910143716e-7 6.924097992118907e-7 6.680621573217311e-7
          5.444052400816378e-7 5.966202323143491e-7 6.929307147255678e-7 5.67627505988989e-7 6.160608666572681e-7 5.397159461607124e-7
          5.763081684175376e-7 6.004702516814971e-7 3.964006809513847e-7 5.251783073069672e-7 5.391910185889686e-7 6.129003906743628e-7
          7.486589495812637e-7 7.19611440086213e-7 5.911537907284923e-7 6.397040355237299e-7 7.471480439881726e-7 6.161154442654339e-7
          6.648979419208741e-7 5.833516545704847e-7 6.200329428574105e-7 6.386521004554944e-7 4.33648631875721e-7 5.597966309612471e-7
          5.826478398535756e-7 6.567142311443364e-7 8.129432940398618e-7 7.761723577159598e-7 6.42612345891965e-7 6.915504238729113e-7
          8.064297863639631e-7 6.704868717861066e-7 7.195606993208883e-7 6.154552694308888e-7 6.576921604124571e-7 6.772710753808893e-7
          4.722813977440681e-7 6.069284900298631e-7 6.326916122778133e-7 6.999290513940254e-7 3.840279208589994e-7 3.802611375025031e-7
          4.4168730337680297e-7 4.369123722275696e-7 3.868519699018396e-7 4.467392242126441e-7 2.919164631681914e-7 3.315630013577525e-7
          3.3737846841769224e-7 3.2985468709061364e-7 4.993466858946066e-7 4.935636069526361e-7 5.066264785234487e-7 3.712095395473136e-7
          3.892253678702693e-7 4.5159844406173633e-7 3.9115519661200243e-7 4.5619845629159986e-7 2.86941618270819e-7 3.2830106915241655e-7
          3.2648928867709095e-7 5.139715202532035e-7 5.212417159711973e-7 3.6966052003401417e-7 2.422391793638589e-7 2.1864992072851521e-7
          2.516738179118487e-7 3.6513921233331376e-7 3.6111206937951843e-7 3.1816326823488725e-7 3.194793674025771e-7 1.739880908303186e-7
          3.5414558582140613e-7 3.1448004571234777e-7 1.9506066209317153e-7 2.752144670902561e-7 2.7381952247184046e-7 2.7481450560328936e-7
          6.916912915075724e-7 6.436682982473742e-7 7.019762996574576e-7 6.72079226129498e-7 5.700769267380574e-7 8.83378696836687e-7
          8.376587816314131e-7 6.996038274453964e-7 7.48883027653633e-7 7.239826286009693e-7 7.754306729363726e-7 6.482879578479613e-7
          6.973932073808655e-7 7.171400910497072e-7 5.158289580541059e-7 6.601072736758529e-7 6.915393548332116e-7 7.464984569137699e-7
          7.427877418989638e-7 7.989167716773767e-7 7.68987511661506e-7 8.279652102311689e-7 7.368256764272426e-7 7.58107133464963e-7
          5.82177860177961e-7 7.281735626012644e-7 7.667439687977185e-7 7.962200987910694e-7 3.925338727859901e-7 4.604155697728844e-7
          3.9349315755268463e-7 4.6429628532387805e-7 2.8043069630219707e-7 3.2420695264590717e-7 3.2119110582011775e-7 5.282972667597786e-7
          5.350994130950716e-7 3.6798320898961727e-7 3.9422633208904544e-7 4.679065201965036e-7 3.944317869408531e-7 4.710241936494523e-7
          2.6951249393827123e-7 3.172074889943118e-7 3.1277702916981014e-7 5.415867083039618e-7 5.476166003580517e-7 3.6490248405035235e-7
          1.6093966630423652e-7 1.5795070248652917e-7 3.496049191010807e-7 3.102688603632332e-7 1.5008098693030847e-7 3.461085404701246e-7
          3.062729119317965e-7 1.5496173866882183e-7 2.7093280162538576e-7 2.6643728339346855e-7 7.455532613535875e-7 6.917562517226632e-7
          7.089741603600626e-7 6.022499302075747e-7 1.459138052339216e-7 1.4363357167791488e-7 3.420565945115111e-7 3.0169034758382184e-7
          1.3786845423858465e-7 3.372840143959212e-7 2.964127424969824e-7 1.4135333812190818e-7 2.613241006561325e-7 2.5554147059804355e-7
          7.886039212091454e-7 7.25906870374737e-7 7.428033498908293e-7 6.206349459696319e-7 8.055393097009994e-7 8.638710065933603e-7
          8.466745673043794e-7 9.028983867884446e-7 7.802929787494318e-7 8.026214730739627e-7 6.582422685927487e-7 8.068165279813312e-7
          8.503132897900488e-7 8.506629944784762e-7 8.914671584146131e-7 9.448422412791319e-7 9.400886349351961e-7 9.898910980750553e-7
          8.254099502889995e-7 8.485810328741052e-7 7.439258582000361e-7 8.976178652985185e-7 9.491325271238321e-7 9.105149132187293e-7
          3.9374909547279287e-7 4.73395726049407e-7 3.9223663178305393e-7 4.750161223410127e-7 2.5666688450633947e-7 3.084081980856716e-7
          3.0391150480660976e-7 5.530423566260211e-7 5.577956128989713e-7 3.6014951166500375e-7 3.899382485920771e-7 4.758651929703205e-7
          3.8675719835550556e-7 4.758297331665271e-7 2.4439129835591533e-7 2.991278095062927e-7 2.941909617997582e-7 5.617921373485639e-7
          5.649022679775486e-7 3.538643206566701e-7 9.928902203064812e-7 0.0000010383487212119822 8.472334632396999e-7 0.0000010053246135893617
          1.0413852906575161e-7 1.2126588068732617e-7 1.8523608055875797e-7 2.0008332402937922e-7 3.927466405189619e-8 7.225985388085534e-8
          1.201804092287394e-7 2.663336320517643e-7 2.789007673714323e-7 1.052450437098145e-7 3.70944490271346e-7 3.6385165270113526e-7
          4.3113809311997417e-7 4.2755835910287705e-7 3.061716036528385e-7 3.5849507395193375e-7 3.747400380340401e-7 4.913316959686022e-7
          4.912650655046189e-7 4.1081854425102894e-7
        </DataArray>
        <DataArray type="Float64" Name="gradient_matprop_error" format="ascii" RangeMin="0" RangeMax="0">
          0 0 0 0 0 0
          0 0 0 0 0 0
          0 0 0 0 0 0
          0 0 0 0 0 0
          0 0 0 0 0 0
          0 0 0 0 0 0
          0 0 0 0 0 0
          0 0 0 0 0 0
          0 0 0 0 0 0
          0 0 0 0 0 0
          0 0 0 0 0 0
          0 0 0 0 0 0
          0 0 0 0 0 0
          0 0 0 0 0 0
          0 0 0 0 0 0
          0 0 0 0 0 0
          0 0 0 0 0 0
          0 0 0 0 0 0
          0 0 0 0 0 0
          0 0 0 0 0 0
          0 0 0 0 0 0
          0 0 0 0 0 0
          0 0 0 0 0 0
          0 0 0 0 0 0
          0 0 0 0 0 0
          0 0 0 0 0 0
          0 0 0 0 0 0
          0 0 0 0 0 0
          0 0 0 0 0 0
          0 0 0 0 0 0
          0 0 0 0 0 0
          0 0 0 0 0 0
          0 0 0 0 0 0
          0 0 0 0 0 0
          0 0 0 0 0 0
          0 0 0 0 0 0
          0 0 0 0 0 0
          0 0 0 0 0 0
          0 0 0 0 0 0
          0 0 0 0 0 0
          0 0 0 0 0 0
          0 0 0 0 0 0
          0 0 0 0 0 0
          0 0 0 0 0 0
          0 0 0 0 0 0
          0 0 0 0 0 0
          0 0 0 0 0 0
          0 0 0 0 0 0
          0 0 0 0 0 0
          0 0 0 0 0 0
          0 0 0 0 0 0
          0 0 0 0 0 0
          0 0 0 0 0 0
          0 0 0 0 0 0
          0 0 0 0 0 0
          0 0 0 0 0 0
          0 0 0 0 0 0
          0 0 0 0 0 0
          0 0 0 0 0 0
          0 0 0 0 0 0
          0 0 0 0 0 0
          0 0 0 0 0 0
          0 0 0 0 0 0
          0 0 0 0 0 0
          0 0 0 0 0 0
          0 0 0 0 0 0
          0 0 0 0 0 0
          0 0 0 0 0 0
          0 0 0 0 0 0
          0 0 0 0 0 0
          0 0 0 0 0 0
          0 0 0 0 0 0
          0 0 0 0 0 0
          0 0 0 0 0 0
          0 0 0 0 0 0
          0 0 0 0 0 0
          0 0 0 0 0 0
          0 0 0 0 0 0
          0 0 0 0 0 0
          0 0 0 0 0 0
          0 0 0 0 0 0
          0 0 0 0 0 0
          0 0 0 0 0 0
          0 0 0 0 0 0
          0 0 0 0 0 0
          0 0 0 0 0 0
          0 0 0 0 0 0
          0 0 0 0 0 0
          0 0 0 0 0 0
          0 0 0 0 0 0
          0 0 0 0 0 0
          0 0 0 0 0 0
          0 0 0 0 0 0
          0 0 0 0 0 0
          0 0 0 0 0 0
          0 0 0 0 0 0
          0 0
        </DataArray>
        <DataArray type="Float64" Name="initial_marker" format="ascii" RangeMin="0" RangeMax="0">
          0 0 0 0 0 0
          0 0 0 0 0 0
          0 0 0 0 0 0
          0 0 0 0 0 0
          0 0 0 0 0 0
          0 0 0 0 0 0
          0 0 0 0 0 0
          0 0 0 0 0 0
          0 0 0 0 0 0
          0 0 0 0 0 0
          0 0 0 0 0 0
          0 0 0 0 0 0
          0 0 0 0 0 0
          0 0 0 0 0 0
          0 0 0 0 0 0
          0 0 0 0 0 0
          0 0 0 0 0 0
          0 0 0 0 0 0
          0 0 0 0 0 0
          0 0 0 0 0 0
          0 0 0 0 0 0
          0 0 0 0 0 0
          0 0 0 0 0 0
          0 0 0 0 0 0
          0 0 0 0 0 0
          0 0 0 0 0 0
          0 0 0 0 0 0
          0 0 0 0 0 0
          0 0 0 0 0 0
          0 0 0 0 0 0
          0 0 0 0 0 0
          0 0 0 0 0 0
          0 0 0 0 0 0
          0 0 0 0 0 0
          0 0 0 0 0 0
          0 0 0 0 0 0
          0 0 0 0 0 0
          0 0 0 0 0 0
          0 0 0 0 0 0
          0 0 0 0 0 0
          0 0 0 0 0 0
          0 0 0 0 0 0
          0 0 0 0 0 0
          0 0 0 0 0 0
          0 0 0 0 0 0
          0 0 0 0 0 0
          0 0 0 0 0 0
          0 0 0 0 0 0
          0 0 0 0 0 0
          0 0 0 0 0 0
          0 0 0 0 0 0
          0 0 0 0 0 0
          0 0 0 0 0 0
          0 0 0 0 0 0
          0 0 0 0 0 0
          0 0 0 0 0 0
          0 0 0 0 0 0
          0 0 0 0 0 0
          0 0 0 0 0 0
          0 0 0 0 0 0
          0 0 0 0 0 0
          0 0 0 0 0 0
          0 0 0 0 0 0
          0 0 0 0 0 0
          0 0 0 0 0 0
          0 0 0 0 0 0
          0 0 0 0 0 0
          0 0 0 0 0 0
          0 0 0 0 0 0
          0 0 0 0 0 0
          0 0 0 0 0 0
          0 0 0 0 0 0
          0 0 0 0 0 0
          0 0 0 0 0 0
          0 0 0 0 0 0
          0 0 0 0 0 0
          0 0 0 0 0 0
          0 0 0 0 0 0
          0 0 0 0 0 0
          0 0 0 0 0 0
          0 0 0 0 0 0
          0 0 0 0 0 0
          0 0 0 0 0 0
          0 0 0 0 0 0
          0 0 0 0 0 0
          0 0 0 0 0 0
          0 0 0 0 0 0
          0 0 0 0 0 0
          0 0 0 0 0 0
          0 0 0 0 0 0
          0 0 0 0 0 0
          0 0 0 0 0 0
          0 0 0 0 0 0
          0 0 0 0 0 0
          0 0 0 0 0 0
          0 0 0 0 0 0
          0 0
        </DataArray>
        <DataArray type="Float64" Name="markers_norefine" format="ascii" RangeMin="0" RangeMax="0">
          0 0 0 0 0 0
          0 0 0 0 0 0
          0 0 0 0 0 0
          0 0 0 0 0 0
          0 0 0 0 0 0
          0 0 0 0 0 0
          0 0 0 0 0 0
          0 0 0 0 0 0
          0 0 0 0 0 0
          0 0 0 0 0 0
          0 0 0 0 0 0
          0 0 0 0 0 0
          0 0 0 0 0 0
          0 0 0 0 0 0
          0 0 0 0 0 0
          0 0 0 0 0 0
          0 0 0 0 0 0
          0 0 0 0 0 0
          0 0 0 0 0 0
          0 0 0 0 0 0
          0 0 0 0 0 0
          0 0 0 0 0 0
          0 0 0 0 0 0
          0 0 0 0 0 0
          0 0 0 0 0 0
          0 0 0 0 0 0
          0 0 0 0 0 0
          0 0 0 0 0 0
          0 0 0 0 0 0
          0 0 0 0 0 0
          0 0 0 0 0 0
          0 0 0 0 0 0
          0 0 0 0 0 0
          0 0 0 0 0 0
          0 0 0 0 0 0
          0 0 0 0 0 0
          0 0 0 0 0 0
          0 0 0 0 0 0
          0 0 0 0 0 0
          0 0 0 0 0 0
          0 0 0 0 0 0
          0 0 0 0 0 0
          0 0 0 0 0 0
          0 0 0 0 0 0
          0 0 0 0 0 0
          0 0 0 0 0 0
          0 0 0 0 0 0
          0 0 0 0 0 0
          0 0 0 0 0 0
          0 0 0 0 0 0
          0 0 0 0 0 0
          0 0 0 0 0 0
          0 0 0 0 0 0
          0 0 0 0 0 0
          0 0 0 0 0 0
          0 0 0 0 0 0
          0 0 0 0 0 0
          0 0 0 0 0 0
          0 0 0 0 0 0
          0 0 0 0 0 0
          0 0 0 0 0 0
          0 0 0 0 0 0
          0 0 0 0 0 0
          0 0 0 0 0 0
          0 0 0 0 0 0
          0 0 0 0 0 0
          0 0 0 0 0 0
          0 0 0 0 0 0
          0 0 0 0 0 0
          0 0 0 0 0 0
          0 0 0 0 0 0
          0 0 0 0 0 0
          0 0 0 0 0 0
          0 0 0 0 0 0
          0 0 0 0 0 0
          0 0 0 0 0 0
          0 0 0 0 0 0
          0 0 0 0 0 0
          0 0 0 0 0 0
          0 0 0 0 0 0
          0 0 0 0 0 0
          0 0 0 0 0 0
          0 0 0 0 0 0
          0 0 0 0 0 0
          0 0 0 0 0 0
          0 0 0 0 0 0
          0 0 0 0 0 0
          0 0 0 0 0 0
          0 0 0 0 0 0
          0 0 0 0 0 0
          0 0 0 0 0 0
          0 0 0 0 0 0
          0 0 0 0 0 0
          0 0 0 0 0 0
          0 0 0 0 0 0
          0 0 0 0 0 0
          0 0
        </DataArray>
        <DataArray type="Float64" Name="markers_mustrefine" format="ascii" RangeMin="0" RangeMax="0">
          0 0 0 0 0 0
          0 0 0 0 0 0
          0 0 0 0 0 0
          0 0 0 0 0 0
          0 0 0 0 0 0
          0 0 0 0 0 0
          0 0 0 0 0 0
          0 0 0 0 0 0
          0 0 0 0 0 0
          0 0 0 0 0 0
          0 0 0 0 0 0
          0 0 0 0 0 0
          0 0 0 0 0 0
          0 0 0 0 0 0
          0 0 0 0 0 0
          0 0 0 0 0 0
          0 0 0 0 0 0
          0 0 0 0 0 0
          0 0 0 0 0 0
          0 0 0 0 0 0
          0 0 0 0 0 0
          0 0 0 0 0 0
          0 0 0 0 0 0
          0 0 0 0 0 0
          0 0 0 0 0 0
          0 0 0 0 0 0
          0 0 0 0 0 0
          0 0 0 0 0 0
          0 0 0 0 0 0
          0 0 0 0 0 0
          0 0 0 0 0 0
          0 0 0 0 0 0
          0 0 0 0 0 0
          0 0 0 0 0 0
          0 0 0 0 0 0
          0 0 0 0 0 0
          0 0 0 0 0 0
          0 0 0 0 0 0
          0 0 0 0 0 0
          0 0 0 0 0 0
          0 0 0 0 0 0
          0 0 0 0 0 0
          0 0 0 0 0 0
          0 0 0 0 0 0
          0 0 0 0 0 0
          0 0 0 0 0 0
          0 0 0 0 0 0
          0 0 0 0 0 0
          0 0 0 0 0 0
          0 0 0 0 0 0
          0 0 0 0 0 0
          0 0 0 0 0 0
          0 0 0 0 0 0
          0 0 0 0 0 0
          0 0 0 0 0 0
          0 0 0 0 0 0
          0 0 0 0 0 0
          0 0 0 0 0 0
          0 0 0 0 0 0
          0 0 0 0 0 0
          0 0 0 0 0 0
          0 0 0 0 0 0
          0 0 0 0 0 0
          0 0 0 0 0 0
          0 0 0 0 0 0
          0 0 0 0 0 0
          0 0 0 0 0 0
          0 0 0 0 0 0
          0 0 0 0 0 0
          0 0 0 0 0 0
          0 0 0 0 0 0
          0 0 0 0 0 0
          0 0 0 0 0 0
          0 0 0 0 0 0
          0 0 0 0 0 0
          0 0 0 0 0 0
          0 0 0 0 0 0
          0 0 0 0 0 0
          0 0 0 0 0 0
          0 0 0 0 0 0
          0 0 0 0 0 0
          0 0 0 0 0 0
          0 0 0 0 0 0
          0 0 0 0 0 0
          0 0 0 0 0 0
          0 0 0 0 0 0
          0 0 0 0 0 0
          0 0 0 0 0 0
          0 0 0 0 0 0
          0 0 0 0 0 0
          0 0 0 0 0 0
          0 0 0 0 0 0
          0 0 0 0 0 0
          0 0 0 0 0 0
          0 0 0 0 0 0
          0 0 0 0 0 0
          0 0
        </DataArray>
        <DataArray type="Float64" Name="gradient_marker" format="ascii" RangeMin="1" RangeMax="1">
          1 1 1 1 1 1
          1 1 1 1 1 1
          1 1 1 1 1 1
          1 1 1 1 1 1
          1 1 1 1 1 1
          1 1 1 1 1 1
          1 1 1 1 1 1
          1 1 1 1 1 1
          1 1 1 1 1 1
          1 1 1 1 1 1
          1 1 1 1 1 1
          1 1 1 1 1 1
          1 1 1 1 1 1
          1 1 1 1 1 1
          1 1 1 1 1 1
          1 1 1 1 1 1
          1 1 1 1 1 1
          1 1 1 1 1 1
          1 1 1 1 1 1
          1 1 1 1 1 1
          1 1 1 1 1 1
          1 1 1 1 1 1
          1 1 1 1 1 1
          1 1 1 1 1 1
          1 1 1 1 1 1
          1 1 1 1 1 1
          1 1 1 1 1 1
          1 1 1 1 1 1
          1 1 1 1 1 1
          1 1 1 1 1 1
          1 1 1 1 1 1
          1 1 1 1 1 1
          1 1 1 1 1 1
          1 1 1 1 1 1
          1 1 1 1 1 1
          1 1 1 1 1 1
          1 1 1 1 1 1
          1 1 1 1 1 1
          1 1 1 1 1 1
          1 1 1 1 1 1
          1 1 1 1 1 1
          1 1 1 1 1 1
          1 1 1 1 1 1
          1 1 1 1 1 1