<?xml version="1.0"?>
<VTKFile type="UnstructuredGrid" version="0.1" byte_order="LittleEndian" header_type="UInt32" compressor="vtkZLibDataCompressor">
  <UnstructuredGrid>
    <Piece NumberOfPoints="584" NumberOfCells="304">
      <PointData>
        <DataArray type="Int32" Name="libmesh_node_id" format="ascii" RangeMin="193" RangeMax="3423">
          252 253 278 309 310 335
          367 392 432 433 436 437
          438 439 440 441 444 445
          446 447 449 453 454 457
          459 567 568 569 572 575
          577 578 579 580 581 583
          584 585 586 587 588 590
          633 634 635 636 637 638
          639 640 641 642 645 646
          651 653 655 657 658 659
          660 662 663 665 666 667
          668 671 672 674 676 701
          702 705 708 711 712 715
          716 717 718 719 720 727
          728 730 734 737 738 739
          740 741 743 744 745 746
          747 748 749 750 751 752
          753 754 765 766 767 768
          769 770 771 772 773 774
          1030 1031 1032 1035 1038 1055
          1070 1071 1072 1073 1074 1075
          1076 1077 1078 1079 1080 1081
          1082 1083 1084 1085 1086 1087
          1088 1089 1090 1091 1092 1093
          1108 1109 1110 1111 1112 1113
          1114 1115 1116 1117 1128 1129
          1130 1131 1132 1133 1134 1135
          1136 1137 1138 1139 1140 1141
          1142 1143 1144 1145 1146 1147
          1670 1676 1759 1761 1774 1776
          1814 1815 1816 1817 1818 1819
          1820 1821 1822 1823 1824 1825
          1826 1827 1849 1850 1851 1852
          1853 1854 1855 1856 1857 1858
          1859 1860 1861 1862 1863 1864
          1865 1866 1867 1868 1869 1870
          1871 1872 1873 1874 1875 1876
          1877 1878 1879 1880 1881 1882
          1883 1884 1885 1886 1887 1888
          1889 1890 1891 1892 1893 1894
          1895 1896 1897 1898 1899 1900
          1901 1902 1903 1904 1905 1906
          1907 1908 1909 1910 1911 1912
          1913 1914 1915 1916 3016 3018
          3019 3020 3021 3024 3025 3027
          3030 3032 3033 3034 3035 3036
          3037 3038 3039 3040 3041 3043
          3045 3046 3047 3048 3049 3050
          3051 3052 3053 3054 3055 3056
          3057 3058 3059 3060 3061 3062
          3063 3064 3065 3066 3067 3068
          3069 3070 3071 3072 3073 3074
          3075 3076 3077 3078 3079 3080
          3081 3082 3083 3084 3085 3086
          3087 3088 3089 3090 3091 3092
          3093 3094 3095 3098 3099 3101
          3104 3106 3107 3108 3109 3110
          3111 3112 3113 3114 3115 3117
          3119 3121 3123 3124 3125 3126
          3127 3128 3129 3132 3133 3135
          3138 3140 3141 3142 3143 3144
          3145 3146 3147 3148 3149 3151
          3153 3155 3157 3158 3159 3160
          3161 3162 3163 3164 3165 3166
          3167 3168 3169 3170 3171 3172
          3173 3174 3175 3176 3177 3178
          3179 3180 3181 3182 3183 3184
          3185 3186 3187 3188 3189 3190
          3191 3192 3193 3194 3195 3196
          3197 3198 3199 3200 3201 3202
          3203 3204 3205 3206 3207 3208
          3209 3210 3211 3212 3213 3214
          3215 3216 3217 3218 3219 3220
          3221 3222 3223 3224 3225 3226
          3227 3228 3229 3230 3231 3233
          3235 3236 3237 3239 3241 3243
          3245 3246 3247 3248 3249 3250
          3251 3252 3253 3254 3255 3256
          3257 3258 3259 3260 3261 3262
          3263 3264 3265 3266 3267 3268
          3269 3270 3271 3272 3273 3274
          3275 3276 3277 3278 3279 3281
          3286 3288 3292 3293 3296 3298
          3299 3301 3312 3314 3316 3318
          3363 3364 3367 3369 3370 3372
          3383 3385 3387 3389 3397 3398
          3401 3403 3404 3406 3417 3419
          3421 3423 193 195 196 194
          250 251 221 220 277 308
          334 422 424 435 427 626
          627 628 632 307 654 656
          661 365 664 391 695 696
          703 704 697 706 707 709
          700 710 713 714 553 564
          570 722 721 724 723 729
          725 726 732 731 733 735
          571 736 576 742 1062 1063
          1066 1068
        </DataArray>
        <DataArray type="Float64" Name="bounds" format="ascii" RangeMin="0" RangeMax="0">
          0 0 0 0 0 0
          0 0 0 0 0 0
          0 0 0 0 0 0
          0 0 0 0 0 0
          0 0 0 0 0 0
          0 0 0 0 0 0
          0 0 0 0 0 0
          0 0 0 0 0 0
          0 0 0 0 0 0
          0 0 0 0 0 0
          0 0 0 0 0 0
          0 0 0 0 0 0
          0 0 0 0 0 0
          0 0 0 0 0 0
          0 0 0 0 0 0
          0 0 0 0 0 0
          0 0 0 0 0 0
          0 0 0 0 0 0
          0 0 0 0 0 0
          0 0 0 0 0 0
          0 0 0 0 0 0
          0 0 0 0 0 0
          0 0 0 0 0 0
          0 0 0 0 0 0
          0 0 0 0 0 0
          0 0 0 0 0 0
          0 0 0 0 0 0
          0 0 0 0 0 0
          0 0 0 0 0 0
          0 0 0 0 0 0
          0 0 0 0 0 0
          0 0 0 0 0 0
          0 0 0 0 0 0
          0 0 0 0 0 0
          0 0 0 0 0 0
          0 0 0 0 0 0
          0 0 0 0 0 0
          0 0 0 0 0 0
          0 0 0 0 0 0
          0 0 0 0 0 0
          0 0 0 0 0 0
          0 0 0 0 0 0
          0 0 0 0 0 0
          0 0 0 0 0 0
          0 0 0 0 0 0
          0 0 0 0 0 0
          0 0 0 0 0 0
          0 0 0 0 0 0
          0 0 0 0 0 0
          0 0 0 0 0 0
          0 0 0 0 0 0
          0 0 0 0 0 0
          0 0 0 0 0 0
          0 0 0 0 0 0
          0 0 0 0 0 0
          0 0 0 0 0 0
          0 0 0 0 0 0
          0 0 0 0 0 0
          0 0 0 0 0 0
          0 0 0 0 0 0
          0 0 0 0 0 0
          0 0 0 0 0 0
          0 0 0 0 0 0
          0 0 0 0 0 0
          0 0 0 0 0 0
          0 0 0 0 0 0
          0 0 0 0 0 0
          0 0 0 0 0 0
          0 0 0 0 0 0
          0 0 0 0 0 0
          0 0 0 0 0 0
          0 0 0 0 0 0
          0 0 0 0 0 0
          0 0 0 0 0 0
          0 0 0 0 0 0
          0 0 0 0 0 0
          0 0 0 0 0 0
          0 0 0 0 0 0
          0 0 0 0 0 0
          0 0 0 0 0 0
          0 0 0 0 0 0
          0 0 0 0 0 0
          0 0 0 0 0 0
          0 0 0 0 0 0
          0 0 0 0 0 0
          0 0 0 0 0 0
          0 0 0 0 0 0
          0 0 0 0 0 0
          0 0 0 0 0 0
          0 0 0 0 0 0
          0 0 0 0 0 0
          0 0 0 0 0 0
          0 0 0 0 0 0
          0 0 0 0 0 0
          0 0 0 0 0 0
          0 0 0 0 0 0
          0 0 0 0 0 0
          0 0
        </DataArray>
        <DataArray type="Float64" Name="gradient_error" format="ascii" RangeMin="1.4833894803144958e-10" RangeMax="4.237783345589915e-7">
          4.181613898463943e-10 5.185589336113129e-10 6.036504898331566e-10 3.4925852516406685e-9 2.9279536045700007e-9 6.680080754843471e-10
          2.1827685429248242e-9 4.679145033169083e-10 5.88704906434669e-9 5.119802837444889e-9 4.031556779595112e-9 1.837942278324897e-8
          6.979168917515014e-8 3.700315170635763e-9 4.113021385668751e-9 3.298881953127971e-9 3.501923509540472e-8 7.680185127054242e-9
          9.309465642680623e-10 1.451016648282865e-9 7.668088786808242e-9 1.6517582710946493e-9 1.2565305911445987e-9 1.8231848992570158e-9
          4.998861498284285e-10 7.851766262627372e-8 3.0206508213771126e-7 2.177108775887897e-7 7.646310033886766e-8 4.237783345589915e-7
          1.2780353754372371e-8 3.3139285353805356e-8 2.3277177513299526e-7 1.1392361221254548e-7 8.312797785416675e-9 2.750196476853751e-8
          3.7982682100250844e-8 3.0477119734856096e-8 7.337483093126703e-9 1.535424151757252e-8 3.1426560175649005e-7 7.536492070162302e-9
          8.015011649656196e-10 6.202325571649956e-10 2.238894556078505e-9 1.7668186248622267e-9 4.400999165384464e-10 1.2722670826731744e-9
          1.282024298366853e-9 4.389639493643716e-10 1.294742693645948e-9 1.2917815140605316e-9 6.289103701514905e-10 6.265279241047086e-10
          6.241454780579267e-10 9.049622901363447e-10 1.774177668501575e-9 9.941650193720453e-10 1.1507916368336004e-9 3.6762175681561076e-10
          7.058687297651931e-10 4.468003354618542e-10 2.643393046866805e-9 1.3074182542951557e-9 1.0441157027147753e-9 4.742399260807152e-10
          4.560334206575689e-10 2.118822613114217e-10 1.8011060467143566e-10 4.378269152344225e-10 1.4833894803144958e-10 7.158287903598111e-9
          5.751033777073383e-9 7.621045447819972e-9 4.343779650548654e-9 7.69459668625777e-9 7.56595532995191e-9 4.816538292589506e-9
          1.5704604126588287e-8 1.5742456225936737e-8 7.43731397364605e-9 2.5188165775248596e-8 1.5780308325285188e-8 4.946642785146883e-9
          1.1520233840240036e-8 7.188345470383027e-9 1.8093824895333188e-8 7.0739577724309974e-9 8.41226721559502e-9 3.1146856673295418e-9
          4.302566012505312e-9 2.2969467884680805e-9 9.750576658759043e-9 5.490446357681081e-9 2.3157090474211294e-9 2.198925447036569e-9
          7.417243274940801e-9 7.107562135126022e-9 6.834648682661364e-10 2.2176032726727394e-9 1.9715367734978985e-9 2.082141846652009e-9
          6.797880995311243e-9 1.7612347032773289e-9 3.162401725353098e-9 3.386895247175413e-9 8.140976648600991e-10 9.530498642974168e-10
          1.1621253369573775e-9 9.855608642977827e-10 3.180014524942224e-10 3.611388768997727e-9 1.0920020637347346e-9 8.08996391638188e-10
          1.8729251943371582e-8 2.1365103696294576e-7 1.735944856583453e-7 1.3353793435374482e-7 2.3462085865241184e-7 3.1530243094419334e-7
          2.1916389605184282e-7 3.032165688978053e-7 1.8093013249550577e-7 2.597777716053795e-7 6.639200532649713e-8 7.754477547403226e-8
          4.80313460719294e-8 3.872692417437677e-7 3.3862541071525324e-7 8.86975456215674e-8 1.0911849454239777e-8 1.443792610704584e-8
          1.7926875448229426e-7 1.4135701971519457e-7 1.2147462866020759e-8 1.3763644826553814e-7 1.0517189483236775e-7 1.79640027598519e-8
          1.034452849480949e-7 7.270734139919735e-8 2.741664906379914e-7 2.0420297488298246e-7 1.6376460087108513e-7 1.683882211353742e-7
          2.6390119097408963e-8 2.0213275736236993e-7 3.639371088248201e-8 8.786798034119703e-8 2.7316060991158467e-7 2.1271772666384283e-7
          9.566633115721591e-9 2.9519395158229458e-8 4.174007543856296e-8 3.823999536144298e-7 1.3780628211999998e-7 2.06078055571181e-7
          9.392473132721304e-8 1.4623105131822144e-7 2.5283823534701006e-8 2.5082516516864962e-8 1.085973731512619e-8 2.74349829022362e-7
          1.9853737130922983e-7 2.488120949902892e-8 5.5462022319561415e-8 8.954154310353962e-8 1.3931928095287414e-8 3.358054738559576e-8
          6.1330228797751016e-9 4.5382986141193e-9 2.1667562732163485e-9 1.2362106388751782e-7 4.732380838797446e-8 2.943574348463499e-9
          1.74905253367668e-7 9.888187716528043e-8 1.5235144861793332e-7 1.775481221265846e-7 1.3110655976795107e-7 1.0355932280641572e-7
          1.9470390350929316e-7 1.8053788264467878e-7 1.8444909251477488e-7 1.4137789812711988e-7 2.0408539127384886e-7 1.8574147673995512e-7
          1.8289020973374537e-7 1.364623344718094e-7 9.473010307301308e-8 8.898908259290667e-8 7.307627167185083e-8 8.175812620931209e-8
          7.283486843849447e-8 5.798914568106679e-8 1.1377427822514445e-7 1.6051600015665332e-7 1.1848937904289017e-7 1.6855362232827314e-7
          1.8490712967719246e-7 1.918099038082258e-7 2.3522906183949415e-8 8.180379846416007e-8 8.918662441298727e-8 1.8801086158809408e-7
          1.2192042086668677e-7 1.4236518155984549e-7 1.2354466103788908e-7 1.118282033210607e-7 1.630140601293099e-7 1.282644961013073e-7
          3.062659921000141e-8 6.50638469205204e-8 4.022672378935356e-8 1.4755366693250797e-7 1.3090660278711625e-7 1.29184124131736e-7
          9.951962691017362e-8 9.36694899741832e-8 1.9805089876131676e-7 2.0549663454736442e-7 1.604223247657585e-7 1.249421299588248e-7
          1.172897513465913e-7 8.599052603853036e-8 7.620573643380866e-8 1.7447974315886617e-7 1.3615671561172727e-7 1.5436769228672586e-7
          1.373079257282433e-8 1.7868097158929056e-8 1.6621391033066018e-8 2.164283844233559e-8 8.633774542202285e-8 9.474153585690591e-8
          7.68045022814181e-9 1.5085366374536995e-8 1.854362102178489e-8 2.5488047137811647e-8 2.049750846445971e-8 2.6672186635979378e-8
          2.5736024520697617e-8 3.370580663427757e-8 6.950803464338286e-8 4.3355781017903075e-8 1.2165861408204404e-8 2.3362520676309213e-8
          3.007500926291369e-8 3.487638290734554e-8 1.8180342643772102e-7 1.909413006378863e-7 2.140899085955627e-7 2.1902354234731418e-7
          1.3483379179365652e-7 1.405164995201095e-7 2.3329814980810473e-7 1.6298476262178342e-7 1.2881372899577145e-7 2.1953963504802755e-7
          2.124210948749892e-7 1.442201142662511e-7 1.4436960435546244e-7 2.4433579191859734e-7 3.2581694338832e-8 3.457339671878894e-8
          3.427048196249148e-8 3.5968252606639666e-8 3.396756720619402e-8 3.0579866480465705e-8 3.1012876265009426e-8 3.144588604955315e-8
          2.452950541989014e-8 3.181915728908556e-8 3.232328932579183e-8 3.3271919068833165e-8 3.379895367266313e-8 3.282742136249809e-8
          3.432598827649308e-8 2.4792919102332915e-8 2.57900824522899e-8 2.7347262278667144e-8 2.746586093294666e-8 2.9744243091214976e-8
          3.1209126200075395e-8 3.293747880332267e-8 3.359516120580458e-8 3.796111070113525e-8 3.764435435783634e-8 3.9360132991482994e-8
          3.732759801453743e-8 4.170614809467201e-8 4.11722939443844e-8 4.312212123090692e-8 3.9263713775459277e-8 3.5253707078949726e-8
          3.561883170772341e-8 3.645375292485351e-8 3.334867565862506e-8 3.4955661039382896e-8 3.545138646414411e-8 3.688346485032654e-8
          3.732509307972473e-8 3.5947111888905336e-8 3.828033270484121e-8 2.833429392834503e-8 2.9233620164140473e-8 3.151379877125715e-8
          3.0926302500265625e-8 3.906532530040595e-8 3.945120488653298e-8 4.150343936873434e-8 4.1805687497068315e-8 4.0001958788857774e-8
          4.2061320127036716e-8 3.3293955915367326e-8 3.422955603939427e-8 3.7328520804012656e-8 3.733146286206776e-8 3.747383115116211e-8
          3.5640106806046433e-8 3.495553814470445e-8 3.798676379758409e-8 3.739806158848386e-8 3.833238840448546e-8 3.998076533025788e-8
          3.6497943703915394e-8 3.794682603184463e-8 4.032784458141999e-8 4.311144362162387e-8 4.104932457726912e-8 3.7559255932302336e-8
          3.835048313281165e-8 3.963391515126668e-8 3.586883173806725e-8 1.728627338175944e-8 1.8182426862030665e-8 2.1450768411668882e-8
          1.499536938866136e-8 1.893778191170361e-8 1.981544259033486e-8 2.0794783913473754e-8 2.169077825368982e-8 2.302585699032383e-8
          2.4888748162154907e-8 1.507760534205226e-8 1.651144520973414e-8 1.823721674369377e-8 1.963708451836253e-8 2.695278529349399e-8
          3.00826141059521e-8 2.2234199734741094e-8 2.8492743530626817e-8 3.032611825047936e-8 3.162687634957209e-8 3.3461512770554794e-8
          2.3973563582737184e-8 2.6013930202158675e-8 2.9001302888891823e-8 9.650110479117383e-9 1.167887728124166e-8 1.5953176407932368e-8
          1.0116916860628493e-8 1.0674483432232853e-8 1.291761447289542e-8 1.1863841866102023e-8 1.4357841279863205e-8 1.7628514287491627e-8
          1.9552989441494615e-8 8.548399658484751e-9 1.1239155491504657e-8 1.2557935761070814e-8 1.667941987888694e-8 1.994172986168047e-8
          2.6255281582510457e-8 1.9576387749651757e-8 2.1832177758423904e-8 2.3999638032285164e-8 2.8011216567539413e-8 3.007695840776671e-8
          2.1493589212551664e-8 2.368617335788903e-8 2.734977454841089e-8 2.2902068752440047e-8 2.384004777706508e-8 2.5334038019163048e-8
          2.634534238923883e-8 2.7077669963933344e-8 2.9594050335354733e-8 1.841188267034092e-8 2.022560631737756e-8 2.2538791657521833e-8
          2.395149660113216e-8 2.8168372115687188e-8 2.9293654473782234e-8 3.148788329178627e-8 3.2743503437328725e-8 3.251678339058751e-8
          3.60337042490362e-8 2.2924200456233632e-8 2.5249648916511888e-8 2.843731023399487e-8 2.990373752347415e-8 3.2480684568976836e-8
          3.482574749060601e-8 3.558405601177711e-8 3.907410463834362e-8 2.840246187605437e-8 3.11326577093847e-8 3.318992043353939e-8
          3.7472242745932806e-8 4.080120856360838e-8 4.1668659129781205e-8 4.444994648785391e-8 3.4277755031063e-8 3.803075851353448e-8
          4.018653330042918e-8 1.3251809077583141e-8 1.6049871790738148e-8 1.4867260738836099e-8 1.8046776492373765e-8 2.1800169023205888e-8
          2.4449822043031606e-8 1.0765613840305025e-8 1.4119804743022281e-8 1.5969110073633703e-8 2.0746543903252314e-8 1.6711243929118564e-8
          2.038278937268166e-8 1.8703902668735094e-8 2.303340252939831e-8 2.757869704545352e-8 3.1258109133203084e-8 1.3747421852549482e-8
          1.812459360979703e-8 2.0511403620668723e-8 2.6460763903254486e-8 2.651679683351695e-8 2.947454459609065e-8 3.246079946365111e-8
          3.523415587168795e-8 2.623450090817438e-8 2.920210066993502e-8 3.20217434945283e-8 3.2934921246145585e-8 3.6911741661360453e-8
          3.844305665593899e-8 4.199368902512038e-8 3.264907386043831e-8 3.6649273915283246e-8 3.809998397928121e-8 3.404456110799507e-8
          3.573206494103889e-8 3.758432383143955e-8 3.769670762773298e-8 3.3474806006869257e-8 3.6123799839579744e-8 3.2905050905743446e-8
          3.519100971094799e-8 3.710615881444106e-8 3.7927658742239696e-8 3.980353868855418e-8 3.4649954480857085e-8 3.6627993797442566e-8
          3.8158609856746406e-8 3.9907590915675846e-8 3.8232950055955135e-8 3.95650794549093e-8 4.190298941238577e-8 4.144291863771766e-8
          4.0808880005873075e-8 4.249208300714695e-8 3.8610297294751595e-8 3.9618405250601624e-8 4.369962285804826e-8 4.606471272327695e-8
          4.334931150720599e-8 3.9184480628781855e-8 4.146468151009732e-8 4.172855245477676e-8 4.373678862884827e-8 3.88038818026544e-8
          4.120284185114067e-8 4.201418627183586e-8 4.3982643429528256e-8 4.6711237459528106e-8 4.584595676480742e-8 4.8105264315191704e-8
          4.383331802189449e-8 4.6643300335529516e-8 4.634505336663879e-8 4.58995214702494e-8 4.5166782445875324e-8 4.241478389584856e-8
          3.735480935903088e-8 3.431409434786587e-8 4.416408528609761e-8 4.4357729040904474e-8 4.427071396581591e-8 3.995806323735984e-8
          4.082484875110206e-8 4.354665451189358e-8 4.148366317722805e-8 3.897727121853561e-8 4.597055323575581e-8 4.54872260643016e-8
          3.53815862809928e-8 3.6779170331853304e-8 4.0207984407382005e-8 2.900108667477176e-8 3.218802429506187e-8 3.815445337118347e-8
          4.4884699040185143e-8 4.706268905497608e-8 4.254242139236011e-8 4.676965484700701e-8 2.0642739312447026e-8 2.588409691732593e-8
          3.551267680172191e-8 1.655900046456227e-8 2.2849464041964246e-8 3.416575068783698e-8 4.144907599050848e-8 4.582540046671924e-8
          4.125411780058063e-8 4.5826254297526885e-8 6.007588516375745e-10 2.589489076186439e-10 2.2072985450594701e-10 5.356369592853225e-10
          1.273085639848569e-9 1.0659032749580624e-9 1.8251080139325013e-10 4.705150669330704e-10 1.4568717628107226e-9 3.6199944185469488e-9
          1.2070443210740791e-9 5.805583767259932e-9 3.676286948442764e-8 8.481887211801644e-8 5.733740697426271e-9 1.003725658083077e-9
          4.302494012598839e-9 2.7899821336564817e-9 1.2774702547141247e-9 8.453675509901802e-9 6.566937872116478e-10 1.880804085920452e-9
          7.915189925496347e-10 1.4618125221475654e-8 3.1049143846292558e-9 1.3187441435807943e-9 7.421186959723585e-9 3.060976604301539e-8
          2.2656266404315792e-8 1.8765041559367786e-8 2.139648964669889e-8 2.6693835698882343e-8 2.615875883843772e-8 1.4873816714419782e-8
          1.2183213250382387e-8 2.5623681977993098e-8 2.4945469304053514e-8 2.5066817539651053e-8 1.1517979408797371e-7 1.3780160892776674e-7
          1.568665847168581e-7 4.579336383186659e-8 2.2933208006437935e-8 9.478696541634723e-8 5.786079147584794e-8 1.610411340591559e-8
          1.0591014795008796e-8 3.0730800751454664e-8 1.4378056700082784e-7 9.278837494525796e-8 5.087058670790054e-8 9.176690464666205e-9
          1.404069085344483e-7 1.6382229772441152e-8 8.477134932059494e-8 2.35877690802161e-8 2.5107774507020026e-7 3.362469476598301e-7
          1.1006970629987891e-7 4.2141615024945987e-7
        </DataArray>
        <DataArray type="Float64" Name="gradient_matprop_error" format="ascii" RangeMin="0" RangeMax="0">
          0 0 0 0 0 0
          0 0 0 0 0 0
          0 0 0 0 0 0
          0 0 0 0 0 0
          0 0 0 0 0 0
          0 0 0 0 0 0
          0 0 0 0 0 0
          0 0 0 0 0 0
          0 0 0 0 0 0
          0 0 0 0 0 0
          0 0 0 0 0 0
          0 0 0 0 0 0
          0 0 0 0 0 0
          0 0 0 0 0 0
          0 0 0 0 0 0
          0 0 0 0 0 0
          0 0 0 0 0 0
          0 0 0 0 0 0
          0 0 0 0 0 0
          0 0 0 0 0 0
          0 0 0 0 0 0
          0 0 0 0 0 0
          0 0 0 0 0 0
          0 0 0 0 0 0
          0 0 0 0 0 0
          0 0 0 0 0 0
          0 0 0 0 0 0
          0 0 0 0 0 0
          0 0 0 0 0 0
          0 0 0 0 0 0
          0 0 0 0 0 0
          0 0 0 0 0 0
          0 0 0 0 0 0
          0 0 0 0 0 0
          0 0 0 0 0 0
          0 0 0 0 0 0
          0 0 0 0 0 0
          0 0 0 0 0 0
          0 0 0 0 0 0
          0 0 0 0 0 0
          0 0 0 0 0 0
          0 0 0 0 0 0
          0 0 0 0 0 0
          0 0 0 0 0 0
          0 0 0 0 0 0
          0 0 0 0 0 0
          0 0 0 0 0 0
          0 0 0 0 0 0
          0 0 0 0 0 0
          0 0 0 0 0 0
          0 0 0 0 0 0
          0 0 0 0 0 0
          0 0 0 0 0 0
          0 0 0 0 0 0
          0 0 0 0 0 0
          0 0 0 0 0 0
          0 0 0 0 0 0
          0 0 0 0 0 0
          0 0 0 0 0 0
          0 0 0 0 0 0
          0 0 0 0 0 0
          0 0 0 0 0 0
          0 0 0 0 0 0
          0 0 0 0 0 0
          0 0 0 0 0 0
          0 0 0 0 0 0
          0 0 0 0 0 0
          0 0 0 0 0 0
          0 0 0 0 0 0
          0 0 0 0 0 0
          0 0 0 0 0 0
          0 0 0 0 0 0
          0 0 0 0 0 0
          0 0 0 0 0 0
          0 0 0 0 0 0
          0 0 0 0 0 0
          0 0 0 0 0 0
          0 0 0 0 0 0
          0 0 0 0 0 0
          0 0 0 0 0 0
          0 0 0 0 0 0
          0 0 0 0 0 0
          0 0 0 0 0 0
          0 0 0 0 0 0
          0 0 0 0 0 0
          0 0 0 0 0 0
          0 0 0 0 0 0
          0 0 0 0 0 0
          0 0 0 0 0 0
          0 0 0 0 0 0
          0 0 0 0 0 0
          0 0 0 0 0 0
          0 0 0 0 0 0
          0 0 0 0 0 0
          0 0 0 0 0 0
          0 0 0 0 0 0
          0 0 0 0 0 0
          0 0
        </DataArray>
        <DataArray type="Float64" Name="initial_marker" format="ascii" RangeMin="0" RangeMax="2">
          0 0 0 0 0 0
          0 0 0 0 0 0
          0 0 0 0 0 0
          0 0 0 0 0 0
          0 0 2 1 0 2
          0 0 2 1 0 0.75
          0 0 0 2 2 0
          0 0 0 0 0 0
          0 0 0 0 0 0
          0 0 0 0 0 0
          0 0 0 0 0 0
          0 0 0 0 0 0
          0 0 0 0 0 0
          0 0 0 0 0 0
          0 0 0 0 0 0
          0 0 0 0 0 0
          0 0 0 0 0 0
          0 0 0 0 0 0
          0 0 0 0 0 0
          0 1 1 1 2 1.5
          0 0.5 0 0.5 0 0
          0 1 1 0 0 0
          1 1 0 1 1 0
          1 1 2 2 2 1.3333333333333333
          2 2 2 2 1.5 1.5
          2 2 2 2 0 0.5
          0 0.5 0 0 0 1
          1 0 0 0.5 0 0.25
          0 0 0 1 0.5 0
          2 2 2 2 2 2
          2 2 2 2 2 2
          2 2 2 2 2 2
          2 2 2 2 2 2
          2 2 2 2 2 2
          2 2 2 2 2 2
          2 2 2 2 2 2
          2 2 2 2 2 2
          2 2 2 2 2 2
          2 2 2 2 2 2
          2 2 2 2 2 2
          2 2 2 2 2 2
          2 2 2 2 2 2
          2 2 2 2 2 2
          2 2 2 2 2 2
          2 2 2 2 2 2
          2 2 2 2 2 2
          2 2 2 2 2 2
          2 2 2 2 2 2
          2 2 2 2 2 2
          2 2 2 2 2 2
          2 2 2 2 2 2
          2 2 2 2 2 2
          2 2 2 2 2 2
          2 2 2 2 2 2
          2 2 2 2 2 2
          2 2 2 2 2 2
          2 2 2 2 2 2
          2 2 2 2 2 2
          2 2 2 2 2 2
          2 2 2 2 2 2
          2 2 2 2 2 2
          2 2 2 2 2 2
          2 2 2 2 2 2
          2 2 2 2 2 2
          2 2 2 2 2 2
          2 2 2 2 2 2
          2 2 2 2 2 2
          2 2 2 2 2 2
          2 2 2 2 2 2
          2 2 2 2 2 2
          2 2 2 2 2 2
          2 2 2 2 2 2
          2 2 2 2 2 2
          2 2 2 2 2 2
          2 2 2 2 2 2
          2 2 2 2 2 2
          2 2 2 2 2 2
          2 2 2 2 2 2
          2 2 2 2 2 2
          2 2 2 2 2 2
          2 2 2 2 2 2
          2 2 2 2 2 2
          2 2 2 2 2 2
          2 2 2 2 2 2
          2 2 2 2 2 2
          2 2 2 2 2 2
          2 2 2 2 2 2
          2 2 0 0 0 0
          0 0 0 0 0 0
          0 0 0 0 0 0
          0 0 0 0 0 0
          0 0 0 0 0 0
          0 0 0 0 0 0
          0 0 0 0 0 0
          0 0 0 0 0 0
          0 0 0 0 0 0
          0 0 0 0 0 0.5
          0 1
        </DataArray>
        <DataArray type="Float64" Name="markers_norefine" format="ascii" RangeMin="0" RangeMax="2">
          0 0 0 0 0 0
          0 0 0 0 0 0
          0 0 0 0 0 0
          0 0 0 0 0 0
          0 0 0 0 0 0
          0 0 0 0 0 0
          0 0 0 2 0 0
          0 0 0 0 0 0
          0 0 0 0 0 0
          0 0 0 0 0 0
          0 0 0 0 0 0
          0 0 0 0 0 0
          0 0 0 0 0 0
          0 0 0 0 0 0
          0 0 0 0 0 0
          0 0 0 0 0 0
          0 0 0 0 0 0
          0 0 0 0 0 0
          0 0 0 0 0 0
          0 0 0 0 0 0
          0 0 0 0 0 0
          0 0 0 0 0 0
          0 0 0 0 0 0
          0 0 0 0 0 0
          2 0.5 2 0.5 0 0
          2 2 2 0 0 0
          0 0 0 0 0 0
          0 0 0 0 0 0
          0 0 0 0 0 0
          0 0 0 0 0 0
          0 0 0 0 0 0
          0 0 0 0 0 0
          0 0 0 0 0 0
          0 0 2 1.5 1.5 0.25
          0 0 0 0 0 0
          2 1.5 2 0.5 0 0
          0 0 0 0 0 0
          0 0 0 0 0 0
          2 2 2 2 1.5 1.5
          2 2 2 2 2 2
          2 2 1.75 2 2 2
          2 2 0 0 0 0
          0 0 0 0 0 0
          0 0 0 0 0 0
          0 0 0 1 1 1
          2 1 1 1 1 1
          1 2 2 2 2 1.5
          2 2 2 0 0 0
          0 0 0 0 0 0
          0 0 0 1 1 1
          1 1 0.6666666666666666 2 2 2
          2 1 1 1 1 0.75
          1 2 2 2 1.75 0
          0 2 1.3333333333333333 2 0.25 0.5
          0 0 1.25 1.5 0.6666666666666666 0
          0 0 0 2 2 2
          2 2 2 2 2 2
          2 2 2 2 2 1.75
          1.5 2 2 2 2 2
          2 2 2 2 2 2
          2 2 2 2 2 2
          2 2 2 2 2 2
          2 2 2 2 2 2
          2 2 2 2 2 2
          2 2 2 2 2 2
          2 2 2 2 2 2
          2 2 2 2 2 2
          2 2 1.6666666666666667 2 2 2
          2 2 1.5 1.5 2 2
          2 2 2 2 2 2
          2 2 2 2 2 2
          2 2 2 2 2 2
          2 2 2 2 2 2
          2 2 2 2 2 2
          2 2 2 2 2 1
          1 1 0 1 0 1
          1 1 0 0 1 1
          0 0.5 0 1 1 0
          0.5 0.5 0 0 1 1
          0 1 1 0 0 1
          1 0 1 1 0 0
          1 1 0 0 0 0
          0 0 1 1 1 2
          2 2 0.5 0 1.5 0.6666666666666666
          2 2 2 2 2 2
          2 1.25 2 1.75 2 2
          2 2 2 2 2 2
          2 2 0 0 0 0
          0 0 0 0 0 0
          0 0 0 0 0 0
          0 0 0 0 0 0
          0 0 0 0 0 0
          0 0 0 0 0 0
          0 0 0 0 0 0
          0 0 0 0 0 0
          0 0 0 0 0 0
          0 0 0 0 0 0
          0 0
        </DataArray>
        <DataArray type="Float64" Name="markers_mustrefine" format="ascii" RangeMin="0" RangeMax="2">
          0 0 0 0 0 0
          0 0 0 0 0 0
          0 0 0 0 0 0
          0 0 0 0 0 0
          0 0 2 1 0 2
          0 0 2 1 0 0.75
          0 0 0 2 2 0
          0 0 0 0 0 0
          0 0 0 0 0 0
          0 0 0 0 0 0
          0 0 0 0 0 0
          0 0 0 0 0 0
          0 0 0 0 0 0
          0 0 0 0 0 0
          0 0 0 0 0 0
          0 0 0 0 0 0
          0 0 0 0 0 0
          0 0 0 0 0 0
          0 0 0 0 0 0
          0 1 1 1 2 1.5
          0 0.5 0 0.5 0 0
          0 1 1 0 0 0
          1 1 0 1 1 0
          1 1 2 2 2 1.3333333333333333
          2 2 2 2 1.5 1.5
          2 2 2 2 0 0.5
          0 0.5 0 0 0 1
          1 0 0 0.5 0 0.25
          0 0 0 1 0.5 0
          2 2 2 2 2 2
          2 2 2 2 2 2
          2 2 2 2 2 2
          2 2 2 2 2 2
          2 2 2 2 2 2
          2 2 2 2 2 2
          2 2 2 2 2 2
          2 2 2 2 2 2
          2 2 2 2 2 2
          2 2 2 2 2 2
          2 2 2 2 2 2
          2 2 2 2 2 2
          2 2 2 2 2 2
          2 2 2 2 2 2
          2 2 2 2 2 2
          2 2 2 2 2 2
          2 2 2 2 2 2
          2 2 2 2 2 2
          2 2 2 2 2 2
          2 2 2 2 2 2
          2 2 2 2 2 2
          2 2 2 2 2 2
          2 2 2 2 2 2
          2 2 2 2 2 2
          2 2 2 2 2 2
          2 2 2 2 2 2
          2 2 2 2 2 2
          2 2 2 2 2 2
          2 2 2 2 2 2
          2 2 2 2 2 2
          2 2 2 2 2 2
          2 2 2 2 2 2
          2 2 2 2 2 2
          2 2 2 2 2 2
          2 2 2 2 2 2
          2 2 2 2 2 2
          2 2 2 2 2 2
          2 2 2 2 2 2
          2 2 2 2 2 2
          2 2 2 2 2 2
          2 2 2 2 2 2
          2 2 2 2 2 2
          2 2 2 2 2 2
          2 2 2 2 2 2
          2 2 2 2 2 2
          2 2 2 2 2 2
          2 2 2 2 2 2
          2 2 2 2 2 2
          2 2 2 2 2 2
          2 2 2 2 2 2
          2 2 2 2 2 2
          2 2 2 2 2 2
          2 2 2 2 2 2
          2 2 2 2 2 2
          2 2 2 2 2 2
          2 2 2 2 2 2
          2 2 2 2 2 2
          2 2 2 2 2 2
          2 2 0 0 0 0
          0 0 0 0 0 0
          0 0 0 0 0 0
          0 0 0 0 0 0
          0 0 0 0 0 0
          0 0 0 0 0 0
          0 0 0 0 0 0
          0 0 0 0 0 0
          0 0 0 0 0 0
          0 0 0 0 0 0.5
          0 1
        </DataArray>
        <DataArray type="Float64" Name="gradient_marker" format="ascii" RangeMin="0" RangeMax="1">
          1 1 1 1 1 1
          1 1 1 1 1 0.5
          1 1 1 1 0.5 1
          1 1 0.875 1 1 0.5
          1 0.75 1 0.75 0.75 1
          0.5 0.75 1 0.5 0.5 0.125
          1 0.75 0.625 0 1 0.5
          1 1 1 1 1 1
          1 1 1 1 1 1
          1 1 1 1 1 1
          1 1 1 1 1 1
          1 1 1 1 1 1
          1 1 1 1 1 1
          1 1 1 1 1 1
          1 1 1 1 1 1
          1 1 1 1 1 1
          1 1 1 0.75 0.875 1
          1 1 1 1 1 1
          1 1 1 1 1 1
          0 0.5 0.5 0.5 0.75 0.75
          0.5 0.5 0.5 0.5 0 0
          0 0.5 0.5 0 0 0