<?xml version="1.0"?>
<VTKFile type="UnstructuredGrid" version="0.1" byte_order="LittleEndian" header_type="UInt32" compressor="vtkZLibDataCompressor">
  <UnstructuredGrid>
    <Piece NumberOfPoints="527" NumberOfCells="309">
      <PointData>
        <DataArray type="Int32" Name="libmesh_node_id" format="ascii" RangeMin="366" RangeMax="3244">
          366 573 1026 1027 1028 1029
          1033 1034 1036 1037 1039 1042
          1048 1050 1051 1052 1053 1054
          1056 1057 1058 1059 1664 1665
          1666 1667 1668 1669 1671 1672
          1673 1674 1675 1677 1696 1724
          1725 1727 1730 1746 1747 1748
          1749 1750 1751 1752 1753 1754
          1755 1756 1757 1758 1760 1762
          1763 1764 1765 1766 1767 1768
          1769 1770 1771 1772 1773 1775
          1777 1778 1779 1780 1781 1782
          1783 1784 1785 1786 1787 1788
          1789 1790 1791 1792 1793 1794
          1795 1796 1797 1798 1799 1800
          1801 1802 1803 1804 1805 1806
          1807 1808 1809 1810 1811 1812
          1813 2658 2659 2660 2661 2665
          2666 2667 2744 2745 2746 2747
          2748 2749 2750 2751 2752 2753
          2761 2762 2763 2764 2765 2766
          2767 2778 2779 2780 2781 2782
          2783 2784 2785 2786 2787 2795
          2796 2797 2798 2799 2800 2801
          2802 2803 2804 2805 2806 2807
          2808 2809 2810 2811 2812 2813
          2814 2815 2816 2817 2818 2819
          2820 2821 2822 2823 2824 2825
          2826 2827 2828 2829 2830 2831
          2832 2833 2834 2835 2836 2837
          2838 2839 2840 2841 2842 2843
          2844 2845 2846 2847 2848 2849
          2850 2851 2852 2853 2854 2855
          2856 2857 2858 2859 2860 2861
          2862 2863 2864 2865 2866 2867
          2868 2869 2870 2871 2872 2873
          2874 2875 2876 2877 2878 2879
          2880 2881 2882 2883 2884 2885
          2886 2887 2888 2889 2890 2891
          2892 2893 2894 2895 2896 2897
          2898 2899 2900 2901 2902 2903
          2904 2905 2906 2907 2908 2909
          2910 2911 2912 2913 2914 2915
          2916 2917 2918 2919 2920 2921
          2922 2923 2924 2925 2926 2927
          2928 2929 2930 2931 2932 2933
          2934 2935 2936 2937 2938 2939
          2940 2941 2942 2943 2944 2945
          2946 2947 2948 2949 2950 2951
          2952 2953 2954 2955 2956 2957
          2958 2959 2960 2961 2962 2963
          2964 2965 2966 2967 2968 2969
          2970 2971 2972 2973 2974 2975
          2976 2977 2978 2979 2980 2981
          2982 2983 2984 2985 2986 2987
          2988 2989 2990 2991 2992 2993
          2994 2995 2996 2997 2998 2999
          3000 3001 3002 3003 3004 3005
          3006 3007 3008 3009 3010 3011
          3012 3013 3014 3015 3017 3022
          3023 3026 3028 3029 3031 3042
          3044 3096 3097 3100 3102 3103
          3105 3116 3118 3120 3122 3130
          3131 3134 3136 3137 3139 3150
          3152 3154 3156 3232 3234 3238
          3240 3242 3244 564 567 438
          570 566 569 572 571 713
          716 717 714 563 437 1016
          1017 1018 1030 1031 1032 1021
          1035 565 1024 568 1038 1070
          1062 1045 1071 1063 1072 1055
          1073 574 1077 1068 575 1078
          1688 1690 1691 1689 1694 1695
          1693 1692 1043 1697 1710 1709
          1726 1740 1739 1731 1744 1743
          1656 1670 1759 1761 1662 1706
          1708 1676 1774 1776 1742 1814
          1815 1849 1850 1853 1856 1858
          1869 1873 1871 1875 1887 1903
          1905 1907 1909 2656 2736 2737
          2739 1722 2742 1723 2663 2755
          2757 2759 2770 2771 2773 1728
          2776 1729 2789 2791 2793 3016
          3024 3025 3027 1855 3030 3098
          3099 3101 1883 3104 1884 3043
          3117 3119 3121 3132 3133 3135
          1889 3138 1890 3151 3153 3155
          1892 3233 3239 3241 3243
        </DataArray>
        <DataArray type="Float64" Name="bounds" format="ascii" RangeMin="0" RangeMax="0">
          0 0 0 0 0 0
          0 0 0 0 0 0
          0 0 0 0 0 0
          0 0 0 0 0 0
          0 0 0 0 0 0
          0 0 0 0 0 0
          0 0 0 0 0 0
          0 0 0 0 0 0
          0 0 0 0 0 0
          0 0 0 0 0 0
          0 0 0 0 0 0
          0 0 0 0 0 0
          0 0 0 0 0 0
          0 0 0 0 0 0
          0 0 0 0 0 0
          0 0 0 0 0 0
          0 0 0 0 0 0
          0 0 0 0 0 0
          0 0 0 0 0 0
          0 0 0 0 0 0
          0 0 0 0 0 0
          0 0 0 0 0 0
          0 0 0 0 0 0
          0 0 0 0 0 0
          0 0 0 0 0 0
          0 0 0 0 0 0
          0 0 0 0 0 0
          0 0 0 0 0 0
          0 0 0 0 0 0
          0 0 0 0 0 0
          0 0 0 0 0 0
          0 0 0 0 0 0
          0 0 0 0 0 0
          0 0 0 0 0 0
          0 0 0 0 0 0
          0 0 0 0 0 0
          0 0 0 0 0 0
          0 0 0 0 0 0
          0 0 0 0 0 0
          0 0 0 0 0 0
          0 0 0 0 0 0
          0 0 0 0 0 0
          0 0 0 0 0 0
          0 0 0 0 0 0
          0 0 0 0 0 0
          0 0 0 0 0 0
          0 0 0 0 0 0
          0 0 0 0 0 0
          0 0 0 0 0 0
          0 0 0 0 0 0
          0 0 0 0 0 0
          0 0 0 0 0 0
          0 0 0 0 0 0
          0 0 0 0 0 0
          0 0 0 0 0 0
          0 0 0 0 0 0
          0 0 0 0 0 0
          0 0 0 0 0 0
          0 0 0 0 0 0
          0 0 0 0 0 0
          0 0 0 0 0 0
          0 0 0 0 0 0
          0 0 0 0 0 0
          0 0 0 0 0 0
          0 0 0 0 0 0
          0 0 0 0 0 0
          0 0 0 0 0 0
          0 0 0 0 0 0
          0 0 0 0 0 0
          0 0 0 0 0 0
          0 0 0 0 0 0
          0 0 0 0 0 0
          0 0 0 0 0 0
          0 0 0 0 0 0
          0 0 0 0 0 0
          0 0 0 0 0 0
          0 0 0 0 0 0
          0 0 0 0 0 0
          0 0 0 0 0 0
          0 0 0 0 0 0
          0 0 0 0 0 0
          0 0 0 0 0 0
          0 0 0 0 0 0
          0 0 0 0 0 0
          0 0 0 0 0 0
          0 0 0 0 0 0
          0 0 0 0 0 0
          0 0 0 0 0
        </DataArray>
        <DataArray type="Float64" Name="gradient_error" format="ascii" RangeMin="2.377924796841884e-9" RangeMax="4.4699163762260137e-7">
          6.285483793088148e-9 2.964490188816429e-9 1.9590518564937834e-8 2.950385572704381e-8 2.429922720624431e-7 2.0173067902820378e-7
          3.941719288914979e-8 1.6046908599396447e-7 3.1846808915446225e-7 2.550328641179654e-7 2.466829381877118e-7 9.386328384445075e-8
          9.767578262398067e-8 1.0587043629219431e-7 1.5315990199736842e-7 2.16308399184574e-8 1.750984431904166e-7 3.405261652284086e-7
          4.329676421585143e-9 1.9562759859642264e-8 2.2684090875741255e-8 4.429279714729178e-7 1.626480801859772e-7 1.5498815640602497e-7
          1.616790806416572e-7 1.3285706327290364e-7 1.7877764307926398e-7 1.6842938866315433e-7 1.388731935054054e-7 1.036758136205517e-7
          1.0299624598298197e-7 8.89657333213689e-8 1.015192376920119e-7 8.337322262025761e-8 9.642876810299586e-8 5.754570209061575e-9
          9.641394696543783e-9 1.0017131879756614e-7 6.108052630506523e-9 1.732953211179582e-7 1.7025047150997984e-7 1.836622968346653e-7
          1.8003275909860812e-7 1.5597996879741623e-7 1.630303823023858e-7 9.936137738877848e-8 1.023935227973313e-7 1.0911678840887589e-7
          1.4389385240129287e-7 1.4715775613052393e-7 1.6659644129070735e-7 1.0838745438308265e-7 1.7024121755624017e-7 6.521730496049593e-8
          9.269484718935918e-8 7.566204243401674e-8 1.6354885226177405e-7 1.2619754887293043e-7 1.2844322759829564e-7 1.0764078205302993e-7
          1.0722891195437066e-7 1.6517563030215042e-7 1.73026850273108e-7 1.4762226417231197e-7 1.3016894624608152e-7 1.0599853095065322e-7
          1.812836004805825e-7 1.8975412289926223e-7 1.5614184201430533e-7 6.8134239353829475e-9 1.0153066230435452e-8 8.029120108647903e-9
          1.1213713837797593e-8 8.467393885054642e-8 6.839686425713055e-8 3.5989780466293793e-9 7.232024598919363e-9 8.610603017096368e-9
          5.99543540179346e-8 9.535347231167486e-9 1.2788815424445072e-8 1.146302941788344e-8 1.4947014588729128e-8 7.337479288576604e-8
          7.933614992080408e-8 5.202484314107806e-9 1.0356357404573804e-8 1.2474975752255553e-8 2.0866721738018276e-8 1.645733713332768e-7
          1.5290040403880846e-7 1.789913973154428e-7 1.8823858306438588e-7 1.4761786538134213e-7 1.1376560318178467e-7 1.8905409707095262e-7
          1.621745076625498e-7 1.719679102447821e-7 1.9764968907119657e-7 2.0653578540036585e-7 1.207379174763709e-7 1.2802423242400225e-7
          2.1163953339483134e-7 1.5491814055842124e-8 1.6221218060161018e-8 1.611378799249045e-8 1.8469666303135733e-8 2.0407214381553853e-8
          2.1010037771519367e-8 2.082571822131615e-8 1.1013650337278755e-8 1.207340568630771e-8 1.1016469945645527e-8 1.2046998024126158e-8
          1.5217975625237816e-8 1.5301823437903735e-8 5.360480230445908e-9 6.329072218641388e-9 6.617461835110182e-9 9.585042560879057e-9
          1.8903824093061967e-8 1.9319245752534866e-8 2.0504857970984958e-8 2.1112370731869054e-8 1.5175876483894636e-8 1.5289028017405274e-8
          1.847933205286802e-8 3.428655551711573e-9 4.147765888428571e-9 3.836592588489831e-9 4.6094856227040475e-9 6.4163771461288175e-9
          6.773601554826236e-9 2.671837261246715e-9 3.562980652028767e-9 3.964255630949598e-9 5.628954117839419e-9 1.1885522386856134e-8
          1.1927098611003007e-8 1.5805166706600203e-8 1.568937276927181e-8 1.0819725610493074e-8 1.0904594920745838e-8 1.483566702811813e-8
          1.4956688549734222e-8 1.597641523234114e-8 1.58871818709255e-8 1.9024643010165373e-8 1.4795582586658045e-8 1.5920910967575316e-8
          1.607821893070819e-8 1.9535146858239252e-8 2.163810677082497e-8 2.2294376255243113e-8 2.2223069436267253e-8 2.2967215628474944e-8
          2.3682990651879446e-8 2.3910376888963974e-8 2.728347988882843e-8 2.826494254008406e-8 2.810840216914103e-8 2.9604746165483677e-8
          2.7951861798198e-8 2.7091126965763615e-8 2.7021601518175857e-8 2.69520760705881e-8 1.5169899267509777e-8 1.6318147017078962e-8
          1.9936211806229453e-8 2.0237206119701168e-8 2.752206740153063e-8 2.7605175080344577e-8 2.8465701764536427e-8 2.8732925454985335e-8
          2.768828275915852e-8 2.9000149145434236e-8 2.1121609565197193e-8 2.1927318646906118e-8 2.2600017375764554e-8 2.3301334110901212e-8
          2.4486377247787302e-8 2.538183219437215e-8 2.5964737022820414e-8 2.6361651034950627e-8 2.7406649125015147e-8 2.828535519442772e-8
          1.1125071482664104e-8 1.2111081957995897e-8 1.1343735681605413e-8 1.2283335274158672e-8 1.5431642177205662e-8 1.561538304515016e-8
          6.253442832760848e-9 7.030252868854716e-9 7.548280816187881e-9 9.830915098205774e-9 1.1678138859609975e-8 1.2580023794156695e-8
          1.2102379845873205e-8 1.2992337806775104e-8 1.5881934846087783e-8 1.625831237729699e-8 7.4039828449681205e-9 8.145466697489617e-9
          8.808405593508492e-9 1.0615957283382886e-8 1.975281497085814e-8 2.0210445247184953e-8 2.173943802063265e-8 2.2413059270781527e-8
          1.546349115054583e-8 1.568300549925613e-8 1.9072215009628703e-8 2.071495083898082e-8 2.128321144812402e-8 2.3147940714489494e-8
          2.3932093909331068e-8 1.597395374631278e-8 1.639797439851196e-8 2.1355875718301548e-8 4.242480715645854e-9 5.092932847403667e-9
          4.659273640901121e-9 5.6071374636339285e-9 7.236220727158482e-9 7.790824975108928e-9 3.2715301813639958e-9 4.371108640748553e-9
          4.797201972283935e-9 6.649252602151372e-9 5.098608095373736e-9 6.151773396363132e-9 5.570794305584352e-9 6.72861464559215e-9
          8.439752079304175e-9 9.184272600145136e-9 3.949945633373136e-9 5.251750018485101e-9 5.7468747870093385e-9 7.87631242577889e-9
          1.2083778989293361e-8 1.2309937358297467e-8 1.5638501503431235e-8 1.8514533583565467e-8 1.1108098848386373e-8 1.1380377957209475e-8
          1.4388379592603111e-8 1.2595386315824616e-8 1.3045161621602635e-8 2.0063935429858682e-8 2.0463419072397786e-8 1.170555118851037e-8
          1.2177806690549939e-8 1.928680955227255e-8 1.2595936359970993e-8 1.3508854738997942e-8 1.3132818804122208e-8 1.4085497407287694e-8
          1.6743848232549245e-8 1.732776779853637e-8 8.72653567012195e-9 9.558535008485176e-9 1.0423469584769857e-8 1.193677089737756e-8
          1.3767587848353995e-8 1.4746737623493192e-8 1.4660596583588992e-8 1.56374826314887e-8 1.8060420362716335e-8 1.9002298660274702e-8
          1.0460009733331958e-8 1.1399748995169064e-8 1.246800372867537e-8 1.3785448453768445e-8 2.1918092644034342e-8 2.2649523041431857e-8
          2.4770261940995083e-8 2.5681686496244156e-8 1.6934884736417447e-8 1.7594400523514163e-8 2.252864191916259e-8 2.352202578925633e-8
          2.453109263707763e-8 2.6649098251712385e-8 2.767195663299426e-8 1.8442540289424737e-8 1.9495390793566397e-8 2.4046086927638902e-8
          6.087709407468308e-9 7.35534833205316e-9 6.656264535315259e-9 8.047979905868405e-9 1.0030930229325832e-8 1.0981203952944773e-8
          4.7443209271249256e-9 6.2931891080528915e-9 6.895559321189943e-9 9.438809009293869e-9 7.28101112176808e-9 8.810640327699766e-9
          7.976188302950769e-9 9.653961655728739e-9 1.2028174437283738e-8 1.3184220479074915e-8 5.7131516061630555e-9 7.562568609783668e-9
          8.307951110042016e-9 1.1366643386170962e-8 1.369723856937169e-8 1.4534360379672568e-8 2.10804081223411e-8 2.1792918177656762e-8
          1.2874515706189864e-8 1.3797133600808371e-8 2.0155746795523193e-8 1.5574952954234185e-8 1.6824931737296412e-8 2.262638575960571e-8
          2.3611429223552853e-8 1.4947225873180934e-8 1.6314618036600143e-8 2.1690061782251597e-8 2.4716008528029656e-8 2.5364485192913574e-8
          2.6534919711385186e-8 2.5867230182664306e-8 2.47901616650515e-8 2.5223174684894228e-8 2.4864314802073343e-8 2.532191746465549e-8
          2.6353269981603997e-8 2.603217123998703e-8 2.738791484692737e-8 2.527934973639741e-8 2.617162025182282e-8 2.619711229730975e-8
          2.758723040018852e-8 2.8688902314458852e-8 2.8362059092745613e-8 2.987743642082333e-8 3.1158388785246623e-8 3.092395591536747e-8
          2.7346419205705723e-8 2.8369340735530877e-8 2.8487626103458967e-8 2.9698853245625366e-8 2.7105608011222924e-8 2.8049779156602904e-8
          2.8613193114172317e-8 2.9470445525542285e-8 3.066548538323776e-8 3.112194609940549e-8 3.2721269844319506e-8 2.9063454630261238e-8
          3.017258198122888e-8 3.1319936283443507e-8 3.120408034510409e-8 3.101203201234201e-8 3.0819983679579925e-8 2.9493217538931242e-8
          2.983621352726648e-8 3.01792095156017e-8 2.2495336757707875e-8 2.349497727303895e-8 2.5121075532756706e-8 2.850583661238209e-8
          3.063768220323411e-8 1.5850487056998464e-8 1.6792323200017973e-8 2.01287329061244e-8 1.253881296760736e-8 1.3653654017474506e-8
          1.6303777467721194e-8 2.565671746181443e-8 2.8790128454417555e-8 2.0752324874741678e-8 2.609277449961176e-8 8.759573340558808e-9
          1.0601466480517154e-8 1.4481723046718459e-8 6.934176077242462e-9 9.150711822234275e-9 1.3700961346920001e-8 1.8279892959052106e-8
          2.4800871454351252e-8 1.786273447986763e-8 2.3933868512085357e-8 3.2533324406129536e-8 3.411950507618902e-8 3.197919450318362e-8
          3.4396345542807545e-8 3.142506460023772e-8 3.467318600942606e-8 1.3780160892776674e-7 7.851766262627372e-8 6.979168917515014e-8
          1.568665847168581e-7 3.064816035244119e-7 2.177108775887897e-7 7.646310033886766e-8 1.404069085344483e-7 2.4945469304053514e-8
          1.5704604126588287e-8 1.5742456225936737e-8 2.5066817539651053e-8 3.981134066563763e-8 1.837942278324897e-8 4.553768715503615e-8
          2.674471288317369e-7 2.2538528390523123e-7 1.8729251943371582e-8 2.1365103696294576e-7 1.735944856583453e-7 1.8332343897872556e-7
          1.3353793435374482e-7 3.2634636564818794e-7 2.672689671276391e-7 3.0206508213771126e-7 2.3462085865241184e-7 2.1916389605184282e-7
          2.5107774507020026e-7 3.5262333865487037e-7 3.032165688978053e-7 3.362469476598301e-7 1.8093013249550577e-7 3.1530243094419334e-7
          2.597777716053795e-7 4.4699163762260137e-7 3.872692417437677e-7 4.2141615024945987e-7 4.237783345589915e-7 3.3862541071525324e-7
          1.5528929542022627e-7 1.6385944313494927e-7 1.613017232061353e-7 1.5312633572756738e-7 8.899725582334184e-8 9.105947667388992e-8
          1.4928388925094497e-7 1.4298088490384062e-7 1.3559004158428351e-7 1.280695765664297e-7 1.5770225462835378e-7 1.506142876928682e-7
          9.429647565929252e-8 1.7589272429764304e-7 1.6617428491160755e-7 9.228260211278676e-8 1.799015205895608e-7 1.695477719219427e-7
          1.4850591816814476e-7 1.74905253367668e-7 1.5235144861793332e-7 1.775481221265846e-7 1.0372796462789176e-7 1.23624272939437e-7
          1.0742477065430538e-7 9.888187716528043e-8 1.3110655976795107e-7 1.0355932280641572e-7 1.7021843110303555e-7 1.9470390350929316e-7
          1.8053788264467878e-7 1.1377427822514445e-7 1.6051600015665332e-7 1.8490712967719246e-7 8.180379846416007e-8 1.8801086158809408e-7
          1.3090660278711625e-7 1.9805089876131676e-7 9.951962691017362e-8 1.604223247657585e-7 8.633774542202285e-8 1.8180342643772102e-7
          2.140899085955627e-7 1.3483379179365652e-7 2.3329814980810473e-7 1.626105250344389e-8 1.111821401160007e-8 1.2177311873421614e-8
          1.517594223514234e-8 5.107096690272302e-9 6.182103045703631e-9 9.66429011226321e-9 1.9816422335466882e-8 1.8508446255493168e-8
          1.9901417775944812e-8 1.511658612794482e-8 3.0154098461356963e-9 3.7115103049908247e-9 6.196881805910364e-9 2.377924796841884e-9
          3.1523857619737223e-9 5.261406589959481e-9 1.1943449523087963e-8 1.5900746198201153e-8 1.0854196965805742e-8 3.2581694338832e-8
          3.0579866480465705e-8 3.1012876265009426e-8 3.144588604955315e-8 2.3522906183949415e-8 2.452950541989014e-8 1.728627338175944e-8
          1.8182426862030665e-8 2.1450768411668882e-8 1.373079257282433e-8 1.499536938866136e-8 1.7868097158929056e-8 2.9744243091214976e-8
          2.695278529349399e-8 3.00826141059521e-8 2.2234199734741094e-8 9.650110479117383e-9 1.167887728124166e-8 1.5953176407932368e-8
          7.68045022814181e-9 1.0116916860628493e-8 1.5085366374536995e-8 1.994172986168047e-8 2.6255281582510457e-8 1.9576387749651757e-8
          2.5488047137811647e-8 3.404456110799507e-8 3.3474806006869257e-8 3.6123799839579744e-8 3.2905050905743446e-8
        </DataArray>
        <DataArray type="Float64" Name="gradient_matprop_error" format="ascii" RangeMin="0" RangeMax="0">
          0 0 0 0 0 0
          0 0 0 0 0 0
          0 0 0 0 0 0
          0 0 0 0 0 0
          0 0 0 0 0 0
          0 0 0 0 0 0
          0 0 0 0 0 0
          0 0 0 0 0 0
          0 0 0 0 0 0
          0 0 0 0 0 0
          0 0 0 0 0 0
          0 0 0 0 0 0
          0 0 0 0 0 0
          0 0 0 0 0 0
          0 0 0 0 0 0
          0 0 0 0 0 0
          0 0 0 0 0 0
          0 0 0 0 0 0
          0 0 0 0 0 0
          0 0 0 0 0 0
          0 0 0 0 0 0
          0 0 0 0 0 0
          0 0 0 0 0 0
          0 0 0 0 0 0
          0 0 0 0 0 0
          0 0 0 0 0 0
          0 0 0 0 0 0
          0 0 0 0 0 0
          0 0 0 0 0 0
          0 0 0 0 0 0
          0 0 0 0 0 0
          0 0 0 0 0 0
          0 0 0 0 0 0
          0 0 0 0 0 0
          0 0 0 0 0 0
          0 0 0 0 0 0
          0 0 0 0 0 0
          0 0 0 0 0 0
          0 0 0 0 0 0
          0 0 0 0 0 0
          0 0 0 0 0 0
          0 0 0 0 0 0
          0 0 0 0 0 0
          0 0 0 0 0 0
          0 0 0 0 0 0
          0 0 0 0 0 0
          0 0 0 0 0 0
          0 0 0 0 0 0
          0 0 0 0 0 0
          0 0 0 0 0 0
          0 0 0 0 0 0
          0 0 0 0 0 0
          0 0 0 0 0 0
          0 0 0 0 0 0
          0 0 0 0 0 0
          0 0 0 0 0 0
          0 0 0 0 0 0
          0 0 0 0 0 0
          0 0 0 0 0 0
          0 0 0 0 0 0
          0 0 0 0 0 0
          0 0 0 0 0 0
          0 0 0 0 0 0
          0 0 0 0 0 0
          0 0 0 0 0 0
          0 0 0 0 0 0
          0 0 0 0 0 0
          0 0 0 0 0 0
          0 0 0 0 0 0
          0 0 0 0 0 0
          0 0 0 0 0 0
          0 0 0 0 0 0
          0 0 0 0 0 0
          0 0 0 0 0 0
          0 0 0 0 0 0
          0 0 0 0 0 0
          0 0 0 0 0 0
          0 0 0 0 0 0
          0 0 0 0 0 0
          0 0 0 0 0 0
          0 0 0 0 0 0
          0 0 0 0 0 0
          0 0 0 0 0 0
          0 0 0 0 0 0
          0 0 0 0 0 0
          0 0 0 0 0 0
          0 0 0 0 0 0
          0 0 0 0 0
        </DataArray>
        <DataArray type="Float64" Name="initial_marker" format="ascii" RangeMin="0" RangeMax="2">
          2 2 0 0 1 1
          0 1 2 2 1.3333333333333333 2
          2 2 2 2 2 1.5
          2 2 2 2 2 2
          2 2 2 2 2 2
          2 2 2 2 2 2
          2 2 2 2 2 2
          2 2 2 2 2 2
          2 2 2 2 2 2
          2 2 2 2 2 2
          2 2 2 2 2 2
          2 2 2 2 2 2
          2 2 2 2 2 2
          2 2 2 2 2 2
          2 2 2 2 2 2
          2 2 2 2 2 2
          2 2 2 2 2 2
          2 2 2 2 2 2
          2 2 2 2 2 2
          2 2 2 2 2 2
          2 2 2 2 2 2
          2 2 2 2 2 2
          2 2 2 2 2 2
          2 2 2 2 2 2
          2 2 2 2 2 2
          2 2 2 2 2 2
          2 2 2 2 2 2
          2 2 2 2 2 2
          2 2 2 2 2 2
          2 2 2 2 2 2
          2 2 2 2 2 2
          2 2 2 2 2 2
          2 2 2 2 2 2
          2 2 2 2 2 2
          2 2 2 2 2 2
          2 2 2 2 2 2
          2 2 2 2 2 2
          2 2 2 2 2 2
          2 2 2 2 2 2
          2 2 2 2 2 2
          2 2 2 2 2 2
          2 2 2 2 2 2
          2 2 2 2 2 2
          2 2 2 2 2 2
          2 2 2 2 2 2
          2 2 2 2 2 2
          2 2 2 2 2 2
          2 2 2 2 2 2
          2 2 2 2 2 2
          2 2 2 2 2 2
          2 2 2 2 2 2
          2 2 2 2 2 2
          2 2 2 2 2 2
          2 2 2 2 2 2
          2 2 2 2 2 2
          2 2 2 2 2 2
          2 2 2 2 2 2
          2 2 2 2 2 2
          2 2 2 2 2 2
          2 2 2 2 2 2
          2 2 2 2 2 2
          2 2 2 2 2 2
          2 2 2 2 2 2
          2 2 2 2 2 2
          2 2 2 2 2 2
          2 2 2 0 0 0
          0 1 1 0 0 0
          0 0 0 0 0 0
          1 1 0 1 1 1
          1 2 2 2 2 0
          0 1.5 0.5 0.5 0 1.5
          0.5 2 1 1 2 1
          2 2 2 2 2 2
          2 2 2 2 2 2
          2 2 2 2 2 2
          2 2 2 2 2 2
          2 2 2 2 2 2
          2 2 2 2 2 2
          2 2 2 2 2 2
          2 2 2 2 2 2
          2 2 2 2 2 2
          2 2 2 2 2 2
          2 2 2 2 2 2
          2 2 2 2 2 2
          2 2 2 2 2 2
          2 2 2 2 2 2
          2 2 2 2 2 2
          2 2 2 2 2
        </DataArray>
        <DataArray type="Float64" Name="markers_norefine" format="ascii" RangeMin="0" RangeMax="2">
          2 2 0 0 0 0
          0 0 0 0 0 1
          1 1 0 2 0 0
          2 2 2 0 0 0
          0 0 0 0 0 0
          0 0 0 0 0.5 2
          2 0.5 2 0 0 0
          0 0 0 1 0.75 1
          0 0 0 0 0 1.5
          1 1.25 0 0 0 0
          0 0 0 0 0 0
          0 0 0 2 2 2
          2 1 1 2 2 2
          1 2 2 2 2 1.25
          1.5 2 2 2 2 0
          0 0 0 0 0 0
          0 0 0 0 0 0
          0 2 2 2 1 0
          0 0 2 2 2 2
          1.5 1.5 2 2 2 2
          0.5 0.5 0 0 1.5 1.5
          1 2 2 2 2 2
          2 2 2 2 2 2
          2 2 2 2 2 2
          2 2 2 1 2 2
          2 2 0 0.5 0 1
          1 0 0 0 0 0
          0 1 0.5 0 2 2
          1.6666666666666667 2 1 0.5 1 0.75
          0 0.5 2 1.5 1.75 1.3333333333333333
          1 1 0 1 1 0
          2 2 2 2 1.5 1.75
          2 2 2 2 2 2
          2 2 2 2 2 2
          2 2 0.75 1.25 0.5 1
          1.75 2 1.5 1.5 1.5 1
          1 2 2 1.3333333333333333 2 2
          2 2 2 2 2 2
          2 2 2 2 2 2
          2 2 2 2 2 2
          2 2 2 1.3333333333333333 2 2
          2 2 2 1.25 1.5 2
          2 1.5 2 2 2 2
          2 2 2 2 2 2
          2 2 2 2 2 2
          2 2 2 2 1.5 1.5
          1 1 2 2 1.3333333333333333 1.5
          1.5 1 1 2 2 2
          2 2 2 2 2 2
          2 2 2 2 2 2
          2 2 2 2 2 2
          2 2 2 2 1.5 1.75
          2 2 2 2 2 2
          2 2 2 2 0 0
          0 0 0 0 0 0.25
          0.5 0 0 0.5 1 0
          0 0.5 0 1 1 0
          0.5 0.75 0 0 1 1
          0 1 1 0 0 1
          1 0 0 0 0 1
          1 1 2 2 2 1
          0 2 2 2 2 2
          2 1.5 1 2 2 2
          2 2 2 2 2 2
          2 2 2 1 0 1
          0 1 0 0 0 0
          0 0 0 0 0 0
          0 0 0 0 0 0
          0 0 0 0 0 0
          0 0 0 0 0 0
          0 0 0 0 0 0
          0 0 0 0 0 0
          0 0 0 0 1 0.25
          0 0 0 0 0 0
          0.5 0 0 1 0 0
          0 0 0 0 0 0
          0 0 0 0 0 0
          0 0 0 0 1.5 0.25
          0 0 0 0 1.5 0
          0 0 0 1.5 2 1.75
          1.25 2 2 2 0 0.5
          0 1.5 2 2 2 2
          2 2 2 2 2 0
          1 1 1 2 2 2
          2 2 2 2 2 1.5
          1.75 1.5 2 2 2 2
          2 2 2 2 2 2
          2 1 1 0 1
        </DataArray>
        <DataArray type="Float64" Name="markers_mustrefine" format="ascii" RangeMin="0" RangeMax="2">
          2 2 0 0 1 1
          0 1 2 2 1.3333333333333333 2
          2 2 2 2 2 1.5
          2 2 2 2 2 2
          2 2 2 2 2 2
          2 2 2 2 2 2
          2 2 2 2 2 2
          2 2 2 2 2 2
          2 2 2 2 2 2
          2 2 2 2 2 2
          2 2 2 2 2 2
          2 2 2 2 2 2
          2 2 2 2 2 2
          2 2 2 2 2 2
          2 2 2 2 2 2
          2 2 2 2 2 2
          2 2 2 2 2 2
          2 2 2 2 2 2
          2 2 2 2 2 2
          2 2 2 2 2 2
          2 2 2 2 2 2
          2 2 2 2 2 2
          2 2 2 2 2 2
          2 2 2 2 2 2
          2 2 2 2 2 2
          2 2 2 2 2 2
          2 2 2 2 2 2
          2 2 2 2 2 2
          2 2 2 2 2 2
          2 2 2 2 2 2
          2 2 2 2 2 2
          2 2 2 2 2 2
          2 2 2 2 2 2
          2 2 2 2 2 2
          2 2 2 2 2 2
          2 2 2 2 2 2
          2 2 2 2 2 2
          2 2 2 2 2 2
          2 2 2 2 2 2
          2 2 2 2 2 2
          2 2 2 2 2 2
          2 2 2 2 2 2
          2 2 2 2 2 2
          2 2 2 2 2 2
          2 2 2 2 2 2
          2 2 2 2 2 2
          2 2 2 2 2 2
          2 2 2 2 2 2
          2 2 2 2 2 2
          2 2 2 2 2 2
          2 2 2 2 2 2
          2 2 2 2 2 2
          2 2 2 2 2 2
          2 2 2 2 2 2
          2 2 2 2 2 2
          2 2 2 2 2 2
          2 2 2 2 2 2
          2 2 2 2 2 2
          2 2 2 2 2 2
          2 2 2 2 2 2
          2 2 2 2 2 2
          2 2 2 2 2 2
          2 2 2 2 2 2
          2 2 2 2 2 2
          2 2 2 2 2 2
          2 2 2 0 0 0
          0 1 1 0 0 0
          0 0 0 0 0 0
          1 1 0 1 1 1
          1 2 2 2 2 0
          0 1.5 0.5 0.5 0 1.5
          0.5 2 1 1 2 1
          2 2 2 2 2 2
          2 2 2 2 2 2
          2 2 2 2 2 2
          2 2 2 2 2 2
          2 2 2 2 2 2
          2 2 2 2 2 2
          2 2 2 2 2 2
          2 2 2 2 2 2
          2 2 2 2 2 2
          2 2 2 2 2 2
          2 2 2 2 2 2
          2 2 2 2 2 2
          2 2 2 2 2 2
          2 2 2 2 2 2
          2 2 2 2 2 2
          2 2 2 2 2
        </DataArray>
        <DataArray type="Float64" Name="gradient_marker" format="ascii" RangeMin="0" RangeMax="1">
          0 0 0 0 0.5 0.5
          0 0.5 1 0.75 0.6666666666666666 0.5
          0.5 0.5 0.75 0 0.75 0.75
          0 0 0 1 1 1
          1 0.5 1 1 0.5 0
          0 0 0 0 0.5 0
          0 0.5 0 1 1 1
          1 0.75 0.75 0.5 0.5 0.5
          0.75 0.75 0.875 0.5 0.75 0.25
          0.375 0.25 0.75 0.25 0.25 0
          0 0.75 0.75 0.5 0.25 0
          0.75 0.75 0.5 0 0 0
          0 0.375 0.25 0 0 0
          0.25 0 0 0 0 0.25
          0.25 0 0 0 0 0.875
          0.75 1 1 0.75 0.5 1
          0.75 0.75 1 1 0.5 0.5
          1 0 0 0 0 0
          0 0 0 0 0 0
          0 0 0 0 0 0
          0 0 0 0 0 0
          0 0 0 0 0 0
          0 0 0 0 0 0
          0 0 0 0 0 0
          0 0 0 0 0 0
          0 0 0 0 0 0
          0 0 0 0 0 0
          0 0 0 0 0 0
          0 0 0 0 0 0
          0 0 0 0 0 0
          0 0 0 0 0 0
          0 0 0 0 0 0
          0 0 0 0 0 0
          0 0 0 0 0 0
          0 0 0 0 0 0
          0 0 0 0 0 0
          0 0 0 0 0 0
          0 0 0 0 0 0
          0 0 0 0 0 0
          0 0 0 0 0 0
          0 0 0 0 0 0
          0 0 0 0 0 0
          0 0 0 0 0 0
          0 0 0 0 0 0
          0 0 0 0 0 0
          0 0 0 0 0 0
          0 0 0 0 0 0
          0 0 0 0 0 0
          0 0 0 0 0 0
          0 0 0 0 0 0
          0 0 0 0 0 0
          0 0 0 0 0 0
          0 0 0 0 0 0
          0 0 0 0 0 0
          0 0 0 0 0 0
          0 0 0 0 0 0
          0 0 0 0 0 0
          0 0 0 0 0 0
          0 0 0 0 0 0
          0 0 0 0 0 0
          0 0 0 0 0 0
          0 0 0 0 0 0
          0 0 0 0 0 0
          0 0 0 0 0 0
          0 0 0 0 0 0
          0 0 0 0.75 0.75 1
          1 0.75 0.75 0.75 0.75 1
          1 1 1 0.5 0.5 0
          0.5 0.5 0 0.5 0.5 0.5
          0.5 1 0.75 1 0.75 0.5
          0.5 0.75 0.5 0.625 0.5 0.75
          0.5 1 0.5 0.75 1 0.5
          1 1 1 0.875 0.5 0.5
          0.75 0.625 0.75 0.75 0.75 0.75
          0.5 1 1 0.5 1 1
          1 1 0.75 0.75 0 0.25
          0 0 0.25 0 1 1
          1 0.5 0.75 0.75 0.25 0.75
          0.25 0.75 0 0.5 0.25 0.75
          1 0.5 1 0 0 0
          0 0 0 0 0 0
          0 0 0 0 0 0
          0 0 0 0 0 0
          0 0 0 0 0 0
          0 0 0 0 0 0
          0 0 0 0 0 0
          0 0 0 0 0 0
          0 0 0 0 0
        </DataArray>
        <DataArray type="Float64" Name="gradient_matprop_marker" format="ascii" RangeMin="0" RangeMax="0">
          0 0 0 0 0 0
          0 0 0 0 0 0
          0 0 0 0 0 0
          0 0 0 0 0 0
          0 0 0 0 0 0
          0 0 0 0 0 0
          0 0 0 0 0 0
          0 0 0 0 0 0
          0 0 0 0 0 0
          0 0 0 0 0 0
          0 0 0 0 0 0
          0 0 0 0 0 0
          0 0 0 0 0 0
          0 0 0 0 0 0
          0 0 0 0 0 0
          0 0 0 0 0 0
          0 0 0 0 0 0
          0 0 0 0 0 0
          0 0 0 0 0 0
          0 0 0 0 0 0
          0 0 0 0 0 0
          0 0 0 0 0 0
          0 0 0 0 0 0
          0 0 0 0 0 0
          0 0 0 0 0 0
          0 0 0 0 0 0
          0 0 0 0 0 0
          0 0 0 0 0 0
          0 0 0 0 0 0
          0 0 0 0 0 0
          0 0 0 0 0 0
          0 0 0 0 0 0
          0 0 0 0 0 0
          0 0 0 0 0 0