<?xml version="1.0"?>
<VTKFile type="UnstructuredGrid" version="0.1" byte_order="LittleEndian" header_type="UInt32" compressor="vtkZLibDataCompressor">
  <UnstructuredGrid>
    <Piece NumberOfPoints="1104" NumberOfCells="745">
      <PointData>
        <DataArray type="Int32" Name="libmesh_node_id" format="ascii" RangeMin="959" RangeMax="7932">
          959 967 968 1308 1324 1326
          1327 1329 1330 1331 1332 2460
          2461 2462 2463 2467 2468 2469
          2518 2519 2520 2521 2522 2523
          2524 2525 2526 2527 2533 2535
          2536 2537 2538 2539 2540 2541
          2544 2545 2547 2550 2552 2553
          2554 2555 2556 2557 2558 2559
          2560 2561 2563 2565 2567 2569
          2570 2571 2572 2573 2574 2575
          3677 3683 3685 3686 3687 3688
          3689 3690 3691 3692 3694 3695
          3696 3697 3698 3699 3700 3701
          3702 3703 3704 3705 3706 3707
          3708 3709 3710 3711 3712 3713
          3714 3715 3716 3717 3718 3719
          3720 3721 3734 3735 3737 3740
          3750 3752 3754 3766 3767 3768
          3769 3770 3771 3772 3773 3774
          3775 3783 3784 3785 3786 3787
          3788 3789 3790 3791 3792 3793
          3794 3795 3796 3797 3798 3799
          3800 3801 3802 3803 3804 3805
          3806 3807 3808 3809 3810 3811
          3812 3813 3814 3815 3816 3817
          3818 3819 3820 3821 3822 3823
          3824 3825 3826 3827 3828 3829
          3830 3831 3832 3833 3834 3835
          3836 3837 3838 3839 3840 3841
          3842 3843 3844 3845 3846 3847
          3848 3849 3850 3851 3852 3853
          3854 3855 3856 3857 3861 3862
          3863 3871 3872 3873 3874 3875
          3876 3877 3878 3879 3880 3881
          3882 3883 3884 3885 3886 3887
          3888 3889 3890 3891 3892 3893
          3894 3895 3896 3897 3912 3913
          3916 3918 3919 3921 3932 3934
          3936 3938 4029 4030 4033 4035
          4036 4038 4049 4051 4053 4055
          4063 4064 4067 4069 4070 4072
          4083 4085 4087 4089 4165 4171
          4175 6496 6497 6498 6499 6503
          6504 6505 6506 6507 6508 6509
          6510 6511 6512 6513 6514 6515
          6516 6517 6518 6519 6520 6521
          6522 6523 6524 6525 6526 6527
          6528 6529 6530 6531 6532 6533
          6612 6613 6614 6615 6616 6617
          6618 6619 6620 6621 6629 6630
          6631 6632 6633 6634 6635 6646
          6647 6648 6649 6650 6651 6652
          6653 6654 6655 6663 6664 6665
          6666 6667 6668 6669 6693 6694
          6695 6703 6704 6705 6706 6707
          6708 6709 6710 6781 6782 6784
          6787 6789 6790 6791 6792 6793
          6794 6795 6796 6797 6798 6800
          6802 6804 6806 6807 6808 6809
          6810 6811 6812 6815 6816 6818
          6821 6823 6824 6825 6826 6827
          6828 6829 6830 6831 6832 6834
          6836 6838 6840 6841 6842 6843
          6844 6845 6846 6896 6898 6900
          6902 6903 6904 6905 6906 6907
          6908 6909 6910 6911 6912 6913
          6914 6915 6916 6918 6920 6922
          6924 6925 6926 6927 6928 6929
          6930 6931 6932 6933 6934 6935
          6936 6937 6938 6939 6940 6941
          6942 6943 6944 6945 6946 6947
          6948 6949 6950 6951 6952 6953
          6954 6955 6956 6957 6958 6959
          6960 6961 6962 6963 6964 6965
          6966 6967 6968 6969 6970 6971
          6972 6973 6974 6975 6976 6977
          6978 6979 6980 6981 6982 6983
          6984 6985 6986 6987 6988 6989
          6990 6991 6992 6993 6994 6995
          6996 6997 6998 6999 7000 7001
          7002 7003 7004 7005 7006 7007
          7008 7009 7010 7011 7012 7013
          7014 7015 7016 7017 7018 7019
          7020 7021 7022 7023 7024 7025
          7026 7027 7028 7029 7030 7031
          7032 7033 7034 7035 7036 7037
          7038 7039 7040 7041 7042 7043
          7044 7045 7046 7047 7048 7049
          7050 7051 7052 7053 7054 7055
          7056 7057 7058 7059 7060 7061
          7062 7063 7064 7065 7066 7067
          7068 7069 7070 7071 7072 7073
          7074 7075 7076 7077 7078 7079
          7080 7081 7082 7083 7084 7085
          7086 7087 7088 7089 7090 7091
          7092 7093 7094 7095 7096 7097
          7098 7099 7100 7101 7102 7103
          7104 7105 7106 7107 7108 7109
          7110 7111 7112 7113 7114 7115
          7116 7117 7118 7119 7120 7121
          7122 7123 7124 7125 7126 7127
          7128 7129 7130 7131 7132 7133
          7134 7135 7136 7137 7138 7139
          7140 7141 7142 7143 7144 7145
          7146 7147 7148 7149 7150 7151
          7152 7153 7154 7155 7156 7157
          7158 7159 7160 7161 7162 7163
          7164 7165 7166 7167 7168 7169
          7170 7171 7172 7173 7174 7175
          7176 7177 7178 7179 7180 7181
          7182 7183 7184 7185 7186 7187
          7188 7189 7190 7191 7192 7193
          7194 7195 7196 7197 7198 7199
          7200 7201 7202 7203 7204 7205
          7206 7207 7208 7209 7210 7211
          7212 7213 7214 7215 7216 7217
          7218 7219 7220 7221 7222 7223
          7224 7225 7226 7227 7228 7229
          7230 7231 7232 7233 7234 7235
          7236 7237 7238 7239 7240 7241
          7242 7243 7244 7245 7246 7247
          7248 7249 7250 7251 7252 7253
          7254 7255 7256 7257 7258 7259
          7260 7261 7262 7263 7264 7265
          7266 7267 7268 7269 7270 7271
          7272 7273 7274 7275 7276 7277
          7278 7279 7280 7281 7282 7283
          7284 7285 7286 7287 7288 7289
          7290 7291 7292 7293 7294 7295
          7296 7297 7298 7299 7300 7301
          7302 7303 7304 7305 7306 7307
          7308 7309 7310 7311 7312 7313
          7314 7315 7316 7317 7318 7319
          7320 7321 7322 7323 7324 7325
          7326 7327 7328 7329 7330 7331
          7332 7333 7334 7335 7336 7337
          7338 7339 7340 7341 7342 7343
          7344 7345 7346 7347 7348 7349
          7350 7351 7352 7353 7354 7355
          7356 7357 7358 7359 7360 7361
          7362 7363 7364 7365 7366 7367
          7368 7369 7370 7371 7372 7373
          7374 7375 7376 7377 7378 7379
          7380 7389 7390 7391 7392 7403
          7404 7405 7573 7574 7575 7576
          7577 7578 7579 7580 7581 7582
          7593 7594 7595 7596 7597 7598
          7599 7607 7608 7609 7610 7611
          7612 7613 7614 7615 7616 7627
          7628 7629 7630 7631 7632 7633
          7709 7710 7711 7715 7716 7717
          7718 7719 7720 7721 7729 7730
          7731 7752 7753 7754 7755 7756
          7757 7758 7759 7760 7761 7772
          7773 7774 7775 7776 7777 7778
          7786 7787 7788 7789 7790 7791
          7792 7793 7794 7795 7806 7807
          7808 7809 7810 7811 7812 7888
          7889 7890 7891 7892 7893 7894
          7902 7903 7904 7905 7906 7907
          7908 7912 7913 7914 7915 7916
          7917 7918 7926 7927 7928 7929
          7930 7931 7932 1298 1301 1302
          1299 1306 1307 1305 1304 960
          1309 1595 1594 1328 1608 1607
          1333 1612 1611 2458 2510 2511
          2513 2516 1325 2512 2529 2528
          2517 2532 2531 2530 2534 2465
          2546 2562 2564 2566 2568 3669
          3671 3672 3670 3675 3676 3674
          3673 3678 3657 3682 3736 3749
          3684 3751 3753 3755 3747 3777
          3779 3859 3865 3867 2551 3869
          6494 6604 6605 6607 3732 6610
          3733 6501 6623 6625 6627 6638
          6639 6641 3738 6644 3739 6657
          6659 6661 3741 6691 6697 6699
          6701 6642 6643 6779 6780 6645
          6783 6785 6786 6788 6660 6799
          6662 6801 6803 6805 6813 6814
          6817 6819 6820 6822 6833 6835
          6837 6839 6700 6895 6702 6897
          6899 6901 6917 6919 6921 6923
          6865 6877 6889 6891 3781 6893
        </DataArray>
        <DataArray type="Float64" Name="bounds" format="ascii" RangeMin="0" RangeMax="0">
          0 0 0 0 0 0
          0 0 0 0 0 0
          0 0 0 0 0 0
          0 0 0 0 0 0
          0 0 0 0 0 0
          0 0 0 0 0 0
          0 0 0 0 0 0
          0 0 0 0 0 0
          0 0 0 0 0 0
          0 0 0 0 0 0
          0 0 0 0 0 0
          0 0 0 0 0 0
          0 0 0 0 0 0
          0 0 0 0 0 0
          0 0 0 0 0 0
          0 0 0 0 0 0
          0 0 0 0 0 0
          0 0 0 0 0 0
          0 0 0 0 0 0
          0 0 0 0 0 0
          0 0 0 0 0 0
          0 0 0 0 0 0
          0 0 0 0 0 0
          0 0 0 0 0 0
          0 0 0 0 0 0
          0 0 0 0 0 0
          0 0 0 0 0 0
          0 0 0 0 0 0
          0 0 0 0 0 0
          0 0 0 0 0 0
          0 0 0 0 0 0
          0 0 0 0 0 0
          0 0 0 0 0 0
          0 0 0 0 0 0
          0 0 0 0 0 0
          0 0 0 0 0 0
          0 0 0 0 0 0
          0 0 0 0 0 0
          0 0 0 0 0 0
          0 0 0 0 0 0
          0 0 0 0 0 0
          0 0 0 0 0 0
          0 0 0 0 0 0
          0 0 0 0 0 0
          0 0 0 0 0 0
          0 0 0 0 0 0
          0 0 0 0 0 0
          0 0 0 0 0 0
          0 0 0 0 0 0
          0 0 0 0 0 0
          0 0 0 0 0 0
          0 0 0 0 0 0
          0 0 0 0 0 0
          0 0 0 0 0 0
          0 0 0 0 0 0
          0 0 0 0 0 0
          0 0 0 0 0 0
          0 0 0 0 0 0
          0 0 0 0 0 0
          0 0 0 0 0 0
          0 0 0 0 0 0
          0 0 0 0 0 0
          0 0 0 0 0 0
          0 0 0 0 0 0
          0 0 0 0 0 0
          0 0 0 0 0 0
          0 0 0 0 0 0
          0 0 0 0 0 0
          0 0 0 0 0 0
          0 0 0 0 0 0
          0 0 0 0 0 0
          0 0 0 0 0 0
          0 0 0 0 0 0
          0 0 0 0 0 0
          0 0 0 0 0 0
          0 0 0 0 0 0
          0 0 0 0 0 0
          0 0 0 0 0 0
          0 0 0 0 0 0
          0 0 0 0 0 0
          0 0 0 0 0 0
          0 0 0 0 0 0
          0 0 0 0 0 0
          0 0 0 0 0 0
          0 0 0 0 0 0
          0 0 0 0 0 0
          0 0 0 0 0 0
          0 0 0 0 0 0
          0 0 0 0 0 0
          0 0 0 0 0 0
          0 0 0 0 0 0
          0 0 0 0 0 0
          0 0 0 0 0 0
          0 0 0 0 0 0
          0 0 0 0 0 0
          0 0 0 0 0 0
          0 0 0 0 0 0
          0 0 0 0 0 0
          0 0 0 0 0 0
          0 0 0 0 0 0
          0 0 0 0 0 0
          0 0 0 0 0 0
          0 0 0 0 0 0
          0 0 0 0 0 0
          0 0 0 0 0 0
          0 0 0 0 0 0
          0 0 0 0 0 0
          0 0 0 0 0 0
          0 0 0 0 0 0
          0 0 0 0 0 0
          0 0 0 0 0 0
          0 0 0 0 0 0
          0 0 0 0 0 0
          0 0 0 0 0 0
          0 0 0 0 0 0
          0 0 0 0 0 0
          0 0 0 0 0 0
          0 0 0 0 0 0
          0 0 0 0 0 0
          0 0 0 0 0 0
          0 0 0 0 0 0
          0 0 0 0 0 0
          0 0 0 0 0 0
          0 0 0 0 0 0
          0 0 0 0 0 0
          0 0 0 0 0 0
          0 0 0 0 0 0
          0 0 0 0 0 0
          0 0 0 0 0 0
          0 0 0 0 0 0
          0 0 0 0 0 0
          0 0 0 0 0 0
          0 0 0 0 0 0
          0 0 0 0 0 0
          0 0 0 0 0 0
          0 0 0 0 0 0
          0 0 0 0 0 0
          0 0 0 0 0 0
          0 0 0 0 0 0
          0 0 0 0 0 0
          0 0 0 0 0 0
          0 0 0 0 0 0
          0 0 0 0 0 0
          0 0 0 0 0 0
          0 0 0 0 0 0
          0 0 0 0 0 0
          0 0 0 0 0 0
          0 0 0 0 0 0
          0 0 0 0 0 0
          0 0 0 0 0 0
          0 0 0 0 0 0
          0 0 0 0 0 0
          0 0 0 0 0 0
          0 0 0 0 0 0
          0 0 0 0 0 0
          0 0 0 0 0 0
          0 0 0 0 0 0
          0 0 0 0 0 0
          0 0 0 0 0 0
          0 0 0 0 0 0
          0 0 0 0 0 0
          0 0 0 0 0 0
          0 0 0 0 0 0
          0 0 0 0 0 0
          0 0 0 0 0 0
          0 0 0 0 0 0
          0 0 0 0 0 0
          0 0 0 0 0 0
          0 0 0 0 0 0
          0 0 0 0 0 0
          0 0 0 0 0 0
          0 0 0 0 0 0
          0 0 0 0 0 0
          0 0 0 0 0 0
          0 0 0 0 0 0
          0 0 0 0 0 0
          0 0 0 0 0 0
          0 0 0 0 0 0
          0 0 0 0 0 0
          0 0 0 0 0 0
          0 0 0 0 0 0
          0 0 0 0 0 0
          0 0 0 0 0 0
          0 0 0 0 0 0
        </DataArray>
        <DataArray type="Float64" Name="gradient_error" format="ascii" RangeMin="3.1865794694043566e-9" RangeMax="6.018099574415571e-7">
          3.041028769332925e-7 7.163994420589313e-9 1.9480879410332042e-7 1.5615720378703163e-7 8.184679423858512e-8 1.0318163356076588e-7
          4.6791751038459747e-7 1.0179963217624788e-7 3.861351846975685e-9 1.05777825766514e-7 1.2119737508070933e-7 4.2673041932186796e-7
          3.5947855764704926e-7 3.3854741646717464e-7 2.060075137750023e-7 7.64003790996938e-8 5.622679028740873e-8 3.301242662161356e-8
          2.7751372725352635e-7 4.4097255301704083e-7 2.7299326829171117e-7 3.318117312637392e-7 4.3841856360580967e-7 3.054780404728952e-7
          9.111856657462342e-8 3.2417925104097635e-7 2.459617081305425e-7 5.96944205679703e-7 4.481358945859954e-7 1.6943482353787135e-7
          1.3519019937979175e-7 6.775407593501568e-8 4.5856538696009676e-8 4.053757079409611e-7 3.4582056351523483e-7 1.6327569872746747e-7
          8.310200156960394e-9 1.4099432239121724e-8 3.381958681736753e-7 1.3212741543398358e-8 1.0411616186923392e-8 1.7598156464234337e-8
          1.3520617019961214e-8 2.3207977719813993e-8 3.2082976152536247e-7 3.1040862894661965e-7 5.140033447086202e-9 1.7320191469442604e-8
          2.3416604139648e-8 1.1566298937701281e-7 4.377435186094978e-7 3.60708251790683e-7 2.8044510896917567e-7 3.9417156173981423e-7
          3.327358821477927e-7 2.8657594271158186e-7 2.054492608394386e-7 2.3747861597397323e-7 1.841475106355413e-7 3.4909621321664657e-7
          8.158965866991515e-8 1.6519335297448483e-7 1.2455592619448177e-7 1.2352934657589892e-7 1.270068578948476e-7 1.2250276695731607e-7
          1.319814674638501e-7 1.3014538846175248e-7 1.326745633639559e-7 1.2830930945965487e-7 1.4004703552966593e-7 1.3799098387807784e-7
          1.4675066131309533e-7 1.4434622688761494e-7 1.3593493222648973e-7 1.4194179246213453e-7 8.620819262364498e-8 8.612647327105914e-8
          9.120196435216976e-8 1.181205076382481e-7 1.5393652625416831e-7 1.5115310113576715e-7 1.6165601805741633e-7 1.5884291826914833e-7
          1.4836967601736596e-7 1.4851022293599368e-7 9.680643675945562e-8 9.699661257850042e-8 1.0409043694263714e-7 1.3463098533025672e-7
          1.743903250099199e-7 1.841664563122313e-7 1.664384142044952e-7 1.1665233558226297e-7 9.98336393183055e-8 1.9431696357054652e-7
          1.8360384222791549e-7 1.8033488166020294e-7 1.0010898426409728e-8 1.2306074177603332e-8 5.67349266186074e-8 1.021793503965457e-8
          1.353380936837048e-7 1.7351815983191346e-7 8.452433426573143e-8 4.9624027412398796e-9 7.7258833139593e-9 5.5381910807113684e-9
          8.71222219041982e-9 1.1841258570712737e-8 1.3353352847246423e-8 3.391382792491783e-9 6.973046071807897e-9 7.92414062650313e-9
          1.1660651760462804e-8 5.912601396786305e-8 4.1176453206116196e-8 1.352053875613174e-7 1.200765703608182e-7 1.8159644904547028e-8
          1.956335836391983e-8 1.0072442024762778e-7 1.1111225310942e-8 1.3247594381575082e-8 1.2507305591611231e-8 1.457034902798711e-8
          6.026901471839566e-8 6.435119998546334e-8 9.279882848913483e-9 1.1514573704207058e-8 1.3073574535602578e-8 1.5661683042915334e-8
          1.4138378509470694e-8 1.626740372927336e-8 1.6151250047015352e-8 1.8489312164326418e-8 6.915933219670305e-8 7.504703225665005e-8
          1.1782505464221229e-8 1.4996005270592724e-8 1.7475816703014713e-8 2.0055871583325782e-8 1.4331152211741438e-7 1.5203693631826305e-7
          1.829426008401582e-7 1.930066362669525e-7 6.812823773548924e-8 7.290491643155646e-8 1.3089766919457292e-7 1.6123743696561343e-7
          1.7077956426590961e-7 2.0333651443097608e-7 2.1271113379931544e-7 7.82029319100206e-8 8.383724045765243e-8 1.4276650549060487e-7
          6.212518628269314e-9 9.891603852685578e-9 7.01771283032169e-9 1.1335687773830943e-8 1.5158726060564076e-8 1.7350462217869068e-8
          4.433084532687944e-9 9.076000008605603e-9 1.0497019092084468e-8 1.5079728014232297e-8 7.998385604351993e-9 1.3149730414047617e-8
          9.220798315407212e-9 1.5504345179140704e-8 2.0046853117596403e-8 2.345569584732809e-8 6.030546266014657e-9 1.2291800642114152e-8
          1.4619708800382622e-8 2.0044836823964507e-8 2.2290965296069262e-8 2.4472219989164873e-8 1.0352745850673875e-7 1.0717000494784924e-7
          2.1217414972066733e-8 2.3340750481113672e-8 1.1089867411662622e-7 2.7204729789956314e-8 3.057950977264611e-8 1.0986157577089584e-7
          1.1065848859001514e-7 2.6088536182801337e-8 2.961583531924453e-8 1.1947644323066726e-7 1.4487546155460203e-7 1.4789401739264895e-7
          1.328370195302137e-7 1.4960958032350844e-7 1.531796208796127e-7 1.3177995077205238e-7 1.321526089935021e-7 1.5434369909241486e-7
          1.5846522436657643e-7 1.3072288201389104e-7 1.499387664284309e-7 1.5045801125568994e-7 1.3325355220792115e-7 1.488205843628852e-7
          1.4410061310286058e-7 1.2654923134313553e-7 1.5587952136442637e-7 1.570947536837643e-7 1.3124817258530625e-7 1.2844337833108165e-7
          1.6182027630042186e-7 1.6373149611183873e-7 1.2924279296269138e-7 1.5610877883117223e-7 1.519913934642827e-7 1.2331136239285666e-7
          1.1598821679124779e-7 1.6339697329945923e-7 1.5988217382570484e-7 1.2007349344257774e-7 1.2471585944033594e-7 1.4468553339895482e-7
          1.4969077053579898e-7 6.487838992931209e-8 8.986149019158192e-8 1.6073528666830933e-7 1.1460094701666191e-7 9.456021210112924e-8
          1.7893534139962954e-7 1.5181187172666254e-7 1.881205727459792e-8 2.1492725459943755e-8 8.231686001144469e-8 1.584898712915354e-8
          2.08450611417157e-8 2.7261102862353306e-8 1.800084408734556e-7 2.1955348828898872e-7 1.2254927020605249e-7 1.9374125651064034e-7
          1.078811173539963e-8 1.8695660760904253e-8 2.7842723450085258e-8 8.522228465052827e-9 1.767435279879728e-8 2.7705985094789467e-8
          6.730850101420562e-8 1.4207021600259323e-7 3.412945017492361e-8 1.1937461763467073e-7 1.358117817323523e-7 1.4412479062679536e-7
          1.5243779952123842e-7 1.6693049275970132e-8 1.7041143495857878e-8 1.7251486572930124e-8 1.8437697097964127e-8 1.9820297309028357e-8
          2.0489024514491386e-8 2.0154438137874084e-8 1.686764601053738e-8 1.7410025453109717e-8 1.7537036996508307e-8 1.9347073834845868e-8
          1.6907019076795842e-8 1.766890917256628e-8 1.7857813573904348e-8 2.0245145111736937e-8 2.123652272546629e-8 2.2028503358441336e-8
          2.1731302676922892e-8 2.2825911497405868e-8 2.3681813749412532e-8 2.3592332039674584e-8 1.731123865459491e-8 1.8144774759707515e-8
          1.8533292410406175e-8 2.1248554940331404e-8 1.8215202500021468e-8 1.9008121983442583e-8 1.9589848618631476e-8 2.2467051605663972e-8
          2.4666972028706128e-8 2.574169714142672e-8 2.581514504156957e-8 2.6848371932348504e-8 2.7823049985602614e-8 2.856368212023276e-8
          1.3381899483247789e-8 1.4011913812224915e-8 1.3556518298703706e-8 1.4196725810952217e-8 1.6023748089377925e-8 1.6312418785047548e-8
          9.601251096774353e-9 1.019116323927243e-8 1.0570959919160687e-8 1.1962423899587663e-8 1.861735904021334e-8 1.9106649707522287e-8
          1.982915004287287e-8 2.0425395168150207e-8 1.5085907570588174e-8 1.5450830870666125e-8 1.8132666604129336e-8 8.785761203296176e-9
          9.132675696689326e-9 9.323017482036953e-9 9.689714748953114e-9 1.0134980010457157e-8 1.0715960521645294e-8 7.870674527389161e-9
          8.372400035407794e-9 8.85209629609588e-9 9.637815510555004e-9 1.2033572322577021e-8 1.25779873917844e-8 1.5764799352480143e-8
          1.626678357823282e-8 1.1196372579053576e-8 1.187501490588666e-8 1.3453632829034967e-8 2.128340344340467e-8 2.1996853017784166e-8
          2.2224892521964404e-8 2.0243525510011087e-8 2.0905575540075045e-8 2.2234227129384086e-8 2.3058049679831932e-8 1.7955843360320154e-8
          1.8575344708580326e-8 2.0995660742993944e-8 2.4904166129583484e-8 6.271843626004305e-9 6.898355573728169e-9 8.434205800709164e-9
          5.790866550831383e-9 6.611618899090662e-9 7.286542882609885e-9 6.973643724287468e-9 7.70215593944648e-9 8.935304462512335e-9
          9.475930029487894e-9 5.239720970306871e-9 6.128126178554281e-9 6.493016919238891e-9 8.198560266111502e-9 1.0254528224292804e-8
          1.2045318725053407e-8 9.895466612422471e-9 1.0884984935109982e-8 1.1563133190508756e-8 1.2725794977603463e-8 1.3471785119549028e-8
          1.0509355778394081e-8 1.1177209048854913e-8 1.2567624035787774e-8 3.849382586967087e-9 4.883505503565609e-9 7.179297047419092e-9
          4.521063226400665e-9 4.0865500515468246e-9 5.190006571986719e-9 4.345314186791049e-9 5.524968584104978e-9 7.63704423462427e-9
          8.137616542351091e-9 3.6153168094520015e-9 4.817755524694796e-9 5.143497324992532e-9 7.426857143470907e-9 9.609514358020209e-9
          1.1712852541404029e-8 9.500687897996044e-9 1.0222558435573501e-8 1.089173050044019e-8 1.2454287555548746e-8 1.326256028957867e-8
          1.0113380301847666e-8 1.0783867415204496e-8 1.2400181109361056e-8 1.547351522946142e-8 1.8021905377435334e-8 1.422521894226526e-8
          1.6074350254340325e-8 1.67084549576127e-8 1.8557938364798118e-8 2.1058153867161717e-8 1.4885041417905187e-8 1.561188173672462e-8
          1.8555660885293265e-8 2.2101027839182645e-8 2.283594191712199e-8 2.2525296359280175e-8 2.500554202872098e-8 2.4993450761505928e-8
          2.3601792753393993e-8 2.4628902469040815e-8 2.4082517202111547e-8 1.3561801078838207e-8 1.8323960042289658e-8 1.3490316492684071e-8
          1.4302155175949035e-8 1.514835973228848e-8 1.8994809569428428e-8 1.9740597068613667e-8 1.4274888880745538e-8 1.515347455155839e-8
          1.8840186301123024e-8 2.2064549891221694e-8 2.277753529763164e-8 2.2621160577871763e-8 2.3383110626918678e-8 2.2028071943260744e-8
          2.2719128678141285e-8 2.2717024796463345e-8 2.3516752564996918e-8 2.428615335023999e-8 2.420411272626263e-8 2.507556234626938e-8
          2.3431712376599847e-8 2.4182411960848006e-8 2.432570825041372e-8 1.379181872787006e-8 1.4433044346229568e-8 1.4086643041336867e-8
          1.4729554168163526e-8 1.6644733710158106e-8 1.7022434825386492e-8 1.051729766790002e-8 1.1043884183304047e-8 1.1609986288108842e-8
          1.2730481355846141e-8 1.4444843180832727e-8 1.5092114201215658e-8 1.4881018207059978e-8 1.5529551740502113e-8 1.7455677502096392e-8
          1.7968946870409534e-8 1.17795724577309e-8 1.22609056139962e-8 1.2984282911436688e-8 1.3862288117216249e-8 1.965359625813046e-8
          2.0238806283052627e-8 2.1091995060533788e-8 2.180520821032247e-8 1.5877910463031232e-8 1.6367447393043574e-8 1.9055523384314557e-8
          2.0857372587640243e-8 2.157240710998957e-8 2.2542775392686294e-8 2.338500575310432e-8 1.6933812554273947e-8 1.761359907390076e-8
          2.0174703695596498e-8 9.874675893622939e-9 1.0279648299079509e-8 1.0451822930173188e-8 1.0907234966946804e-8 1.135741710272917e-8
          1.2070105699361683e-8 8.778297154213903e-9 9.36524917886118e-9 9.918344710106948e-9 1.083910785341244e-8 1.1070153313529631e-8
          1.1580301511885955e-8 1.1744191939649527e-8 1.2308687947487393e-8 1.2854353082165345e-8 1.370380285840422e-8 9.821524812153246e-9
          1.0518985267522719e-8 1.1176513042349538e-8 1.2256081972343109e-8 1.3201690017890496e-8 1.3911144993891903e-8 1.6837101417801112e-8
          1.747914243907196e-8 1.2613052714590543e-8 1.3423300258823363e-8 1.4837256674405498e-8 1.4707401402580848e-8 1.559273387744081e-8
          1.8209372388752915e-8 1.904611233813824e-8 1.431676251672826e-8 1.530322884096501e-8 1.6576388998143748e-8 1.541042739290505e-8
          1.6054883312782552e-8 1.602977713331724e-8 1.6676145370837592e-8 1.8568764585193494e-8 1.9244843971371287e-8 1.3289487187506203e-8
          1.378110682702277e-8 1.4668750554425695e-8 1.5367822030989238e-8 1.6733726449226817e-8 1.7398339823875967e-8 1.7531254834658247e-8
          1.8242857464425026e-8 2.000483454848011e-8 2.087717014097824e-8 1.5079632514626267e-8 1.566881325041044e-8 1.6802545916752116e-8
          1.7297584948144567e-8 2.2430343267222265e-8 2.338170328358782e-8 2.4422496596717597e-8 2.5596232232791e-8 1.8425671545304558e-8
          1.9352237177144798e-8 2.176665097253628e-8 2.438337257890907e-8 2.536014843973615e-8 2.6820029259383052e-8 2.7920416691707614e-8
          2.0391169762786856e-8 2.158004992513583e-8 2.3907946879699852e-8 1.2487405693150657e-8 1.310761949237046e-8 1.3312581876501227e-8
          1.3996806529982401e-8 1.4628058558851248e-8 1.5658109680127916e-8 1.1060715648046153e-8 1.1903236812088892e-8 1.2715230710597569e-8
          1.3980278002805889e-8 1.4236420092218043e-8 1.4996595171469027e-8 1.528267534159848e-8 1.6131706241744428e-8 1.682824173520699e-8
          1.8168997861206523e-8 1.2594657168423546e-8 1.3633900786037226e-8 1.4687526821456986e-8 1.6148905970918197e-8 1.658142201517258e-8
          1.7697276445839823e-8 2.001291546703558e-8 2.113232208988042e-8 1.6396358897093096e-8 1.761773656005261e-8 1.875069182310394e-8
          1.8970941476771075e-8 2.0451172829214833e-8 2.241605128995461e-8 2.3890732299094907e-8 1.8999500650729823e-8 2.0577750364035283e-8
          2.1533237141284303e-8 2.2725506199939016e-8 2.3527783727904603e-8 2.4015100073090853e-8 2.4461872415479186e-8 2.5497935633296386e-8
          2.6170209032922654e-8 2.1622218070617706e-8 2.2416510539715293e-8 2.3943399840491923e-8 2.4919461794067525e-8 1.926746285172019e-8
          2.0066536163892062e-8 2.3416995230638392e-8 2.3311691081664102e-8 2.429813237388384e-8 2.6001183736895653e-8 2.7155086064889654e-8
          2.096414068237281e-8 2.195299840879426e-8 2.5344727176082184e-8 2.552399331415067e-8 2.666023554005989e-8 2.5518007497374272e-8
          2.767340308000365e-8 2.875519912978731e-8 2.7539244992001972e-8 2.659158171236881e-8 2.778918891764324e-8 2.866006149746872e-8
          2.9138414789993086e-8 3.058865860515775e-8 3.144331617184497e-8 2.536208665009893e-8 2.6554911906837404e-8 2.8332902570359636e-8
          2.9604544348801375e-8 2.3053433515516355e-8 2.431074872577454e-8 2.755891057373329e-8 2.7922384019912745e-8 2.9428144220062604e-8
          3.105483519376446e-8 3.261991091984238e-8 2.5764458063636677e-8 2.7415533772079063e-8 3.022409131447292e-8 2.9996958476403034e-8
          3.127033334209059e-8 2.9683991530667985e-8 3.2443998759461244e-8 3.3624354075397074e-8 3.188927479146153e-8 7.361604660525623e-9
          8.150061502243248e-9 7.779988713905438e-9 8.63619206597028e-9 1.006287706727821e-8 1.070467311682828e-8 5.861208237612763e-9
          6.890086914600969e-9 7.324545916268975e-9 9.273846207656119e-9 8.234032561893639e-9 9.167414581178543e-9 8.730011694866912e-9
          9.751862788103968e-9 1.1411482603053627e-8 1.2195118813588208e-8 6.59635707375907e-9 7.80245232091219e-9 8.331104147207544e-9
          1.0575058733204212e-8 1.2296573493258187e-8 1.3099806410094387e-8 1.430112760304926e-8 1.5218791212009288e-8 1.1908128163946796e-8
          1.2712488676027204e-8 1.4213291364519269e-8 1.3988061725674804e-8 1.4975367363522663e-8 1.6234475892934084e-8 1.7363771798181287e-8
          1.360153242913058e-8 1.4588764818740167e-8 1.6200203092182762e-8 4.6288791546624176e-9 5.892814944598668e-9 4.940834560273221e-9
          6.2985998218403794e-9 8.68760916854963e-9 9.29472098212483e-9 4.132704743371323e-9 5.502672177659875e-9 5.900371220364142e-9
          8.471329428754965e-9 5.285448671163484e-9 6.748365938376644e-9 5.6678523449434416e-9 7.249509964597397e-9 9.968187216667061e-9
          1.0719418753039515e-8 4.767027690756691e-9 6.3427968878851035e-9 6.837611105489845e-9 9.747398050700769e-9 1.1625083746144113e-8
          1.243176744245625e-8 1.4142924159481261e-8 1.5106238519846685e-8 1.1519181622243094e-8 1.2328074244760718e-8 1.4104268928414236e-8
          1.3322888417292115e-8 1.4312129833747574e-8 1.6164214707277895e-8 1.7328978116007355e-8 1.3221321768704582e-8 1.4212277152776842e-8
          1.6147495626731018e-8 9.275766145042459e-9 1.0399762841418337e-8 9.881348331910834e-9 1.1124535223064778e-8 1.3070232609823819e-8
          1.4056207043938094e-8 7.48260153507842e-9 8.919533954601847e-9 9.579102270676109e-9 1.2187812372475927e-8 1.0560168155231719e-8
          1.1944139661198255e-8 1.1330718086884097e-8 1.288321423087954e-8 1.5178470091424335e-8 1.6470917926030978e-8 8.574105113492557e-9
          1.032430409977604e-8 1.117383825389734e-8 1.4244961358088956e-8 1.6077791494252813e-8 1.7316267659027592e-8 1.8620884410738745e-8
          2.0024320029398102e-8 1.5691601931557565e-8 1.6932387424260377e-8 1.8625424040995365e-8 1.8719089289768835e-8 2.0321819156428817e-8
          2.1599684143730354e-8 2.338439523307459e-8 1.833966893812102e-8 1.9947963234336028e-8 2.164418292722781e-8 6.0941618673720636e-9
          7.811119546051065e-9 6.5714796065342814e-9 8.444289004337357e-9 1.1562730829048485e-8 1.2516084713142993e-8 5.558674801083993e-9
          7.3942404381102924e-9 8.024092774639332e-9 1.1339193412960574e-8 7.107505001968562e-9 9.162171021486866e-9 7.70893567764211e-9
          9.979141273518605e-9 1.3601814964002912e-8 1.484704287392417e-8 6.563647304184065e-9 8.740333100170245e-9 9.556167818290838e-9
          1.3376766518261282e-8 1.541638584536975e-8 1.665704473231187e-8 1.861641862111595e-8 2.004592268741173e-8 1.531764846741825e-8
          1.655816477719192e-8 1.861315288671032e-8 1.8060938014529052e-8 1.9661194382490038e-8 2.1642088587523716e-8 2.343633945505624e-8
          1.795963208433216e-8 1.9554092583122767e-8 2.1637075785110023e-8 1.737991613330032e-8 1.8191745196249087e-8 2.2570287512491777e-8
          2.3461383540438996e-8 1.6413932629824105e-8 1.732937586994869e-8 2.1384442335811595e-8 1.9151933321720954e-8 2.0227087506271385e-8
          2.4465366221058637e-8 2.5570551502282362e-8 1.836931832564994e-8 1.9530016960465368e-8 2.3320150301568926e-8 2.5556448789169577e-8
          2.662519214615737e-8 2.5535810809778542e-8 2.6556187184483696e-8 2.5399225120988813e-8 2.6353167496174204e-8 2.5618377605134644e-8
          2.766277884749508e-8 2.8771607552814145e-8 2.7483694956152428e-8 2.8462954498453707e-8 2.739216374856028e-8 2.851428089923838e-8