<?xml version="1.0"?>
<VTKFile type="UnstructuredGrid" version="0.1" byte_order="LittleEndian" header_type="UInt32" compressor="vtkZLibDataCompressor">
  <UnstructuredGrid>
    <Piece NumberOfPoints="1101" NumberOfCells="635">
      <PointData>
        <DataArray type="Int32" Name="libmesh_node_id" format="ascii" RangeMin="868" RangeMax="9714">
          954 1038 1039 1040 1041 1065
          1066 1086 1087 1122 1123 1124
          1125 1126 1149 1150 1170 1171
          1223 1224 1226 1227 1228 1229
          1230 1231 1232 1235 1236 1237
          1238 1239 1240 1241 1242 1243
          1244 1245 1246 1247 1248 1249
          1250 1275 1276 1277 1278 1279
          1280 1281 1282 1283 1284 1398
          1408 1409 1412 1413 1414 1415
          1416 1417 1420 1424 1425 1428
          1430 1432 1433 1434 1435 1436
          1437 1438 1439 1440 1441 1442
          1443 1444 1445 1446 1447 1448
          1449 1450 1451 1452 1453 1454
          1455 1480 1481 1482 1483 1484
          1485 1486 1487 1488 1489 1514
          1515 1516 1517 1518 1519 1520
          1521 1522 1523 1592 1593 1594
          1596 1597 1598 1599 1601 1602
          1603 1604 1605 1606 1607 1608
          1609 1610 1611 1612 1613 1614
          1615 1616 1617 1618 1619 1620
          1621 2043 2044 2045 2046 2047
          2094 2109 2110 2113 2114 2115
          2116 2118 2121 2127 2133 2135
          2136 2137 2138 2139 2141 2142
          2153 2155 2157 2163 2164 2165
          2166 2167 2168 2169 2171 2173
          2174 2175 2176 2177 2178 2179
          2180 2181 2182 2183 2184 2185
          2186 2187 2188 2189 2190 2191
          2192 2193 2194 2195 2196 2207
          2208 2209 2210 2211 2212 2213
          2214 2215 2216 2217 2218 2219
          2220 2221 2222 2223 2224 2225
          2226 2227 2228 2229 2230 2261
          2263 2264 2265 2266 2267 2268
          2269 2270 2271 2272 2273 2274
          2275 2276 2277 2278 2279 2280
          2281 2282 2283 2284 2285 2286
          2287 2288 2289 2290 2291 2387
          2388 2389 2390 2391 2392 2393
          2394 2395 2396 2397 2398 2399
          2400 2401 2402 2403 2404 2405
          2406 2407 2408 2409 2410 2418
          2419 2420 2421 2422 2423 2424
          2425 2426 2427 2428 2429 2430
          2431 2432 2433 2434 2435 2436
          2437 2438 2439 2440 2441 2442
          2443 2444 2445 2446 2447 2448
          2449 2450 2451 3505 3515 3516
          3517 3518 3519 3520 3521 3522
          3523 3524 3525 3526 3527 3528
          3539 3540 3541 3542 3543 3544
          3545 3546 3547 3548 3559 3560
          3561 3562 3563 3564 3565 3566
          3567 3568 3576 3577 3578 3579
          3580 3581 3582 3661 3662 3663
          3664 3665 3666 3667 3668 3669
          3670 3678 3679 3680 3681 3682
          3683 3684 3759 3760 3761 3762
          3763 3764 3765 3766 3767 3768
          3769 3770 3771 3772 3773 3774
          3775 3776 3777 3778 3779 3780
          3781 3782 3783 3784 3785 3786
          3787 3788 3789 3790 3791 3792
          3793 3794 3795 3796 3797 3798
          3799 3800 3801 3802 3803 3804
          3805 3806 3807 3808 3809 3810
          3811 3812 3813 3814 3815 3816
          3817 3818 3819 3820 3821 3822
          3823 3824 3825 3826 3827 3828
          3829 3830 3831 3832 3833 3848
          3849 3850 3851 3852 3853 3854
          3872 3873 3874 3875 3876 3877
          3878 3879 3880 3881 3882 3883
          3884 3885 3886 3887 3888 3889
          3890 3891 3892 3959 3960 3961
          3962 3963 3964 3965 3966 3967
          3968 4000 4001 4002 4003 4004
          4005 4006 4007 4008 4009 4010
          4011 4012 4013 4014 4015 4016
          4021 4022 4023 4026 4027 4028
          4029 4030 4031 4032 4033 4034
          4035 4036 8251 8252 8253 8254
          8255 8256 8257 8258 8259 8260
          8261 8262 8263 8264 8265 8266
          8267 8268 8269 8270 8271 8272
          8273 8274 8275 8276 8277 8278
          8279 8280 8281 8282 8283 8284
          8285 8286 8287 8288 8289 8290
          8291 8292 8293 8294 8295 8296
          8297 8298 8299 8300 8301 8302
          8303 8304 8305 8306 8307 8308
          8309 8310 8311 8312 8313 8314
          8315 8384 8385 8386 8387 8388
          8389 8390 8391 8392 8393 8394
          8395 8396 8397 8398 8399 8400
          8401 8402 8403 8406 8407 8410
          8412 8414 8415 8416 8417 8418
          8419 8420 8421 8422 8423 8492
          8493 8494 8495 8496 8497 8498
          8499 8500 8501 8502 8503 8504
          8505 8506 8507 8508 8509 8510
          8511 8512 8513 8514 8515 8516
          8517 8518 8519 8520 8521 8522
          8523 8524 8525 8526 8527 8528
          8529 8530 8531 8532 8533 8534
          8535 8536 8537 8538 8539 8540
          8541 8542 8543 8544 8545 8546
          8547 8548 8549 8550 8551 8552
          8553 8554 8555 8556 8557 8558
          8559 8616 8617 8618 8619 8620
          8621 8622 8623 8624 8625 8626
          8627 8628 8629 8630 8631 8633
          8634 8635 8637 8638 8639 8640
          8641 8642 8643 8644 8645 8646
          8647 8648 8649 8650 8651 8652
          8653 8654 8655 8656 8657 8658
          8659 8661 8662 8663 8665 8666
          8667 8668 8669 8670 8671 9132
          9191 9193 9195 9197 9198 9199
          9200 9201 9202 9203 9204 9205
          9206 9209 9210 9213 9215 9217
          9218 9219 9220 9221 9222 9223
          9224 9225 9226 9228 9230 9232
          9234 9235 9236 9237 9238 9239
          9240 9242 9244 9246 9248 9249
          9250 9251 9252 9253 9254 9463
          9464 9465 9466 9467 9468 9469
          9470 9471 9472 9473 9474 9475
          9476 9477 9478 9479 9480 9481
          9482 9483 9484 9485 9486 9487
          9488 9489 9490 9491 9492 9493
          9494 9495 9496 9497 9498 9499
          9500 9501 9502 9503 9504 9505
          9506 9507 9508 9509 9510 9511
          9512 9513 9514 9515 9516 9517
          9518 9519 9520 9521 9522 9523
          9524 9525 9526 9527 9528 9529
          9530 9531 9532 9533 9534 9535
          9536 9537 9538 9539 9540 9541
          9542 9543 9544 9545 9546 9547
          9548 9549 9550 9551 9552 9553
          9554 9555 9556 9557 9558 9559
          9560 9561 9562 9563 9564 9565
          9566 9567 9568 9569 9570 9571
          9572 9573 9574 9575 9576 9577
          9578 9579 9580 9581 9582 9583
          9584 9585 9586 9587 9588 9589
          9590 9591 9592 9593 9594 9595
          9596 9597 9598 9599 9600 9601
          9602 9603 9604 9605 9606 9607
          9608 9609 9610 9611 9612 9613
          9614 9615 9616 9617 9618 9619
          9620 9621 9622 9623 9624 9625
          9626 9627 9628 9629 9630 9631
          9632 9633 9634 9635 9636 9637
          9638 9639 9640 9641 9642 9643
          9644 9645 9646 9647 9648 9649
          9650 9651 9652 9653 9654 9655
          9656 9657 9658 9659 9660 9661
          9662 9663 9664 9665 9666 9667
          9668 9669 9670 9671 9672 9673
          9674 9675 9676 9677 9678 9679
          9680 9681 9682 9683 9684 9685
          9686 9687 9688 9689 9690 9691
          9692 9693 9694 9695 9696 9697
          9698 9699 9700 9701 9702 9703
          9704 9705 9706 9707 9708 9709
          9710 9711 9712 9713 9714 868
          870 871 869 952 955 953
          872 873 956 957 958 959
          1042 1043 981 980 1037 1064
          982 983 1067 1002 1001 1085
          1003 1004 1088 1044 1045 1128
          1129 1127 1151 1148 1169 1172
          1267 1218 1268 1271 1121 1273
          1422 1426 1423 1427 1474 1475
          1476 1479 1036 1213 1586 1587
          1595 1588 1600 1591 2255 2262
          2256 2260 1401 1386 2413 2037
          2414 2417 2145
        </DataArray>
        <DataArray type="Float64" Name="bounds" format="ascii" RangeMin="0" RangeMax="0">
          0 0 0 0 0 0
          0 0 0 0 0 0
          0 0 0 0 0 0
          0 0 0 0 0 0
          0 0 0 0 0 0
          0 0 0 0 0 0
          0 0 0 0 0 0
          0 0 0 0 0 0
          0 0 0 0 0 0
          0 0 0 0 0 0
          0 0 0 0 0 0
          0 0 0 0 0 0
          0 0 0 0 0 0
          0 0 0 0 0 0
          0 0 0 0 0 0
          0 0 0 0 0 0
          0 0 0 0 0 0
          0 0 0 0 0 0
          0 0 0 0 0 0
          0 0 0 0 0 0
          0 0 0 0 0 0
          0 0 0 0 0 0
          0 0 0 0 0 0
          0 0 0 0 0 0
          0 0 0 0 0 0
          0 0 0 0 0 0
          0 0 0 0 0 0
          0 0 0 0 0 0
          0 0 0 0 0 0
          0 0 0 0 0 0
          0 0 0 0 0 0
          0 0 0 0 0 0
          0 0 0 0 0 0
          0 0 0 0 0 0
          0 0 0 0 0 0
          0 0 0 0 0 0
          0 0 0 0 0 0
          0 0 0 0 0 0
          0 0 0 0 0 0
          0 0 0 0 0 0
          0 0 0 0 0 0
          0 0 0 0 0 0
          0 0 0 0 0 0
          0 0 0 0 0 0
          0 0 0 0 0 0
          0 0 0 0 0 0
          0 0 0 0 0 0
          0 0 0 0 0 0
          0 0 0 0 0 0
          0 0 0 0 0 0
          0 0 0 0 0 0
          0 0 0 0 0 0
          0 0 0 0 0 0
          0 0 0 0 0 0
          0 0 0 0 0 0
          0 0 0 0 0 0
          0 0 0 0 0 0
          0 0 0 0 0 0
          0 0 0 0 0 0
          0 0 0 0 0 0
          0 0 0 0 0 0
          0 0 0 0 0 0
          0 0 0 0 0 0
          0 0 0 0 0 0
          0 0 0 0 0 0
          0 0 0 0 0 0
          0 0 0 0 0 0
          0 0 0 0 0 0
          0 0 0 0 0 0
          0 0 0 0 0 0
          0 0 0 0 0 0
          0 0 0 0 0 0
          0 0 0 0 0 0
          0 0 0 0 0 0
          0 0 0 0 0 0
          0 0 0 0 0 0
          0 0 0 0 0 0
          0 0 0 0 0 0
          0 0 0 0 0 0
          0 0 0 0 0 0
          0 0 0 0 0 0
          0 0 0 0 0 0
          0 0 0 0 0 0
          0 0 0 0 0 0
          0 0 0 0 0 0
          0 0 0 0 0 0
          0 0 0 0 0 0
          0 0 0 0 0 0
          0 0 0 0 0 0
          0 0 0 0 0 0
          0 0 0 0 0 0
          0 0 0 0 0 0
          0 0 0 0 0 0
          0 0 0 0 0 0
          0 0 0 0 0 0
          0 0 0 0 0 0
          0 0 0 0 0 0
          0 0 0 0 0 0
          0 0 0 0 0 0
          0 0 0 0 0 0
          0 0 0 0 0 0
          0 0 0 0 0 0
          0 0 0 0 0 0
          0 0 0 0 0 0
          0 0 0 0 0 0
          0 0 0 0 0 0
          0 0 0 0 0 0
          0 0 0 0 0 0
          0 0 0 0 0 0
          0 0 0 0 0 0
          0 0 0 0 0 0
          0 0 0 0 0 0
          0 0 0 0 0 0
          0 0 0 0 0 0
          0 0 0 0 0 0
          0 0 0 0 0 0
          0 0 0 0 0 0
          0 0 0 0 0 0
          0 0 0 0 0 0
          0 0 0 0 0 0
          0 0 0 0 0 0
          0 0 0 0 0 0
          0 0 0 0 0 0
          0 0 0 0 0 0
          0 0 0 0 0 0
          0 0 0 0 0 0
          0 0 0 0 0 0
          0 0 0 0 0 0
          0 0 0 0 0 0
          0 0 0 0 0 0
          0 0 0 0 0 0
          0 0 0 0 0 0
          0 0 0 0 0 0
          0 0 0 0 0 0
          0 0 0 0 0 0
          0 0 0 0 0 0
          0 0 0 0 0 0
          0 0 0 0 0 0
          0 0 0 0 0 0
          0 0 0 0 0 0
          0 0 0 0 0 0
          0 0 0 0 0 0
          0 0 0 0 0 0
          0 0 0 0 0 0
          0 0 0 0 0 0
          0 0 0 0 0 0
          0 0 0 0 0 0
          0 0 0 0 0 0
          0 0 0 0 0 0
          0 0 0 0 0 0
          0 0 0 0 0 0
          0 0 0 0 0 0
          0 0 0 0 0 0
          0 0 0 0 0 0
          0 0 0 0 0 0
          0 0 0 0 0 0
          0 0 0 0 0 0
          0 0 0 0 0 0
          0 0 0 0 0 0
          0 0 0 0 0 0
          0 0 0 0 0 0
          0 0 0 0 0 0
          0 0 0 0 0 0
          0 0 0 0 0 0
          0 0 0 0 0 0
          0 0 0 0 0 0
          0 0 0 0 0 0
          0 0 0 0 0 0
          0 0 0 0 0 0
          0 0 0 0 0 0
          0 0 0 0 0 0
          0 0 0 0 0 0
          0 0 0 0 0 0
          0 0 0 0 0 0
          0 0 0 0 0 0
          0 0 0 0 0 0
          0 0 0 0 0 0
          0 0 0 0 0 0
          0 0 0 0 0 0
          0 0 0 0 0 0
          0 0 0 0 0 0
          0 0 0 0 0 0
          0 0 0 0 0 0
          0 0 0
        </DataArray>
        <DataArray type="Float64" Name="gradient_error" format="ascii" RangeMin="1.9259149115780143e-14" RangeMax="1.5066585023187787e-9">
          5.458719091625535e-12 1.5607055126589638e-12 9.525295260971937e-12 2.2088340866113532e-13 9.27049670900611e-13 1.0751089541229122e-11
          1.204613582626422e-12 9.227936412072453e-12 1.0637350526167815e-12 3.405175007118475e-12 3.0245685700430095e-11 4.9774558297216636e-14
          1.2129183649491163e-12 1.0722668276799941e-13 1.4644473299405478e-11 1.6195154059102325e-12 1.4519268260920713e-11 1.57561723852615e-12
          9.42712326407438e-12 7.335334225562429e-12 2.8477864346784734e-11 1.901997954748561e-12 1.8948455614461743e-12 1.915654418533587e-12
          2.834452602431413e-11 1.0247946596106676e-10 1.8627939720424993e-11 1.1619207146840696e-12 1.9407563223715617e-10 2.4811486628457675e-13
          7.628141001540175e-13 1.3182905256291514e-13 8.268928716175214e-13 2.63093638669922e-13 7.658991535082663e-14 3.8492516952190516e-13
          1.7300222007520172e-12 3.0682601413943136e-12 9.012460579360937e-13 1.572158588876986e-13 6.223189326795802e-13 4.919005677188226e-13
          3.965874848483315e-12 4.4484463472713075e-11 9.928782028403919e-11 1.0352316562435195e-11 2.176442705821655e-11 1.6989718055161886e-11
          2.4688443479660104e-11 1.0474944351709406e-11 1.540911770953653e-10 3.317653755399791e-11 3.238716890415832e-11 5.933052955250816e-11
          1.2024586989387597e-11 9.836485612021276e-12 1.6131882138736749e-12 5.273814911576831e-13 5.47148055859917e-13 5.788827902775334e-12
          3.933136433436046e-12 1.3163747226703438e-12 8.245620131934848e-13 2.3451949988294575e-11 4.766183912915026e-11 8.089145576887792e-11
          7.260477411262046e-11 6.503817137133014e-12 1.064099981681392e-11 3.277167645225087e-12 4.332425838644244e-12 8.993534756969865e-12
          1.861261068534988e-11 6.954304169461621e-12 1.365416968203472e-11 4.980666650594606e-12 2.3961152597781127e-11 3.568347810882593e-13
          3.25060495902906e-13 1.0653236596090883e-13 2.4950562172571915e-13 1.288019842469925e-13 9.15499287026195e-14 1.6683698642268636e-13
          4.1430530238615353e-13 5.285672097214134e-13 2.771147330408122e-13 5.446777395529489e-13 5.367526746378677e-13 2.551255886798914e-13
          6.969165690379706e-13 3.649126718965817e-12 3.649915307773719e-12 4.918721554117559e-12 4.88963529261674e-12 1.4318084826144274e-12
          1.2048542960361038e-12 1.611669447165464e-12 3.650703896581621e-12 4.860549031115921e-12 2.0184845982948236e-12 2.2102752955167815e-12
          3.956631367637096e-12 8.166760476924055e-13 1.3293324537930241e-12 1.8144604231194923e-12 3.4416704109930502e-12 1.3414658369037158e-12
          5.702987439757411e-12 1.841988859893643e-12 5.068880398866609e-12 2.6425683592130038e-11 2.3877624618116546e-11 2.1082560262703376e-10
          1.1469404802208361e-11 6.036062961654843e-11 5.0161254535866766e-11 1.616870176814572e-11 2.8327452090593557e-11 6.131073105345567e-12
          5.4008220335343535e-12 1.3074020832208021e-11 1.1081709192089195e-11 1.7996035643514283e-12 2.6905886120960614e-12 2.3341018420067528e-12
          3.766762575821816e-12 6.605739207656497e-12 1.8185717480009165e-12 1.019900661862329e-12 1.3659973259478176e-12 6.827132027657663e-13
          8.680355273061595e-13 1.3797937498992581e-12 1.94152309034001e-12 1.3896209987356286e-12 1.7120939900333062e-12 1.0533578518465527e-12
          2.503252430780762e-12 1.744315287091522e-11 1.458034475170734e-11 2.593779861337083e-11 3.1396944074841133e-11 1.3409971124965996e-11
          2.3310322721320724e-12 7.191370088533737e-13 9.097177616480278e-13 6.148166351825149e-13 8.577706967713851e-13 5.970141802112454e-13
          1.4447884645428098e-12 4.255504568459544e-13 2.4548810553574238e-12 8.548847036952482e-12 1.4644177875258561e-12 6.313774775176721e-13
          7.072039337505923e-13 1.334087705792733e-12 1.7952652468519226e-12 1.0608568607978535e-12 8.13522454764384e-13 2.3184335663751645e-12
          3.9253078839559965e-11 1.3206445007517634e-11 4.0251955217712923e-11 5.463621708972605e-12 6.612165246324596e-12 3.717121208407473e-12
          3.760971354865706e-12 5.017972589994656e-12 8.580219750466932e-12 2.818261065527324e-12 3.2628685651535794e-12 1.934982457814565e-13
          2.3238146103672603e-13 1.3273120952271747e-13 2.832128303683995e-13 1.7051909950538482e-13 2.8329721512096834e-13 2.841786754724533e-13
          2.2231755864038446e-13 3.450387908279464e-13 3.838190143485236e-13 3.933535378620636e-13 2.7569899798726965e-13 4.165548373066719e-13
          5.595193783337637e-13 1.9906666021634903e-13 4.523811554721984e-13 1.328328711948794e-13 3.987889158757532e-13 2.270984488772367e-13
          5.437393686316889e-13 2.1637660878449951e-13 6.811652287155422e-13 5.959119716358898e-13 7.544258825692813e-13 4.0936258878803877e-13
          4.283461807721283e-13 3.593858003142331e-13 4.062043673553514e-13 3.406976544899264e-13 2.2394500042705896e-13 2.846292709837596e-13
          4.473297727562178e-13 4.5302293439646974e-13 3.4531354154046023e-13 2.8322602908000332e-14 9.116259617397181e-14 3.736929760455841e-14
          1.4231181168616387e-13 5.781538545821174e-14 1.9259149115780143e-14 9.117293860674986e-14 1.540025894399433e-13 2.4725432576776937e-13
          1.6308672809771957e-13 4.641599230111649e-14 1.9346102719835595e-13 1.2453049175528796e-13 3.405060620955954e-13 1.2718039164887766e-11
          6.896860949410416e-12 1.3271665446611665e-11 1.442824043758714e-11 2.5504719061042184e-11 9.850306167221307e-12 5.456160132445092e-13
          4.639665610266574e-13 5.720024833397847e-13 4.966713409006159e-13 1.728757949612644e-13 1.9713658869881196e-13 1.8458334052019978e-13
          3.823171088088057e-13 4.2134019846144705e-13 1.720300923415876e-13 3.166749531331272e-14 2.977983944667627e-14 5.93518074206906e-14
          5.1879910370262423e-14 2.3566633275527923e-14 2.6877932037787035e-14 2.7623397727765582e-14 2.7892183580039828e-14 4.4408013319834246e-14
          2.836886341774413e-14 8.703611952806849e-14 7.397998129384857e-14 3.168016218000324e-14 6.092384305962866e-14 1.2352306650177683e-12
          1.1261731850144409e-12 7.870371879583603e-13 8.865523946393933e-13 4.3875275564992197e-13 3.809378009501059e-13 5.360249762748944e-13
          8.67868198037397e-13 1.31890383676194e-12 5.882398157809961e-13 5.50532654189526e-12 7.72726463307357e-12 1.968869288346829e-12
          2.847827480558167e-12 2.9694176398196377e-12 7.40392361612495e-12 2.9171396647152144e-12 6.371191906052191e-13 1.2660898625720603e-12
          2.878379828118973e-13 4.147460974124479e-13 5.556176901467577e-13 8.852213860650658e-13 3.394031355859793e-13 1.156369617890847e-12
          1.626211990460032e-12 6.132880487842896e-13 8.331272781611441e-13 7.172556753692384e-13 8.027808447326527e-13 5.34822438111678e-13
          2.0960543630292165e-12 1.0529665075379985e-12 8.883060140960671e-13 1.400508752117558e-13 1.317272899922213e-13 2.147515208840509e-13
          1.989768302890035e-13 1.0213917985782485e-13 1.150725701685886e-13 1.0203472472726895e-13 1.1434901627078085e-13 1.646504323848435e-13
          7.921557734290772e-14 1.0315599632216956e-13 9.773748775779772e-14 2.661724963179889e-13 2.2147855767891342e-13 5.8599681944925e-14
          1.1488809534224482e-13 1.0293001032890483e-13 9.231897919342587e-14 1.7678461903983787e-13 9.097192531556483e-14 4.291889963138083e-13
          3.452196276000291e-13 1.4726033871288464e-13 2.612502588862499e-13 6.689967158051272e-13 5.115731890513579e-13 4.761702902303216e-13
          6.871903312136451e-13 6.384527057071529e-13 5.246006933912004e-13 4.869005171730984e-13 4.554665964079735e-13 7.180956780764142e-13
          7.103047866838332e-13 3.7566460234832685e-13 2.364341795308837e-12 2.1589108836245973e-12 7.835575360868663e-13 1.6464655960247467e-12
          1.0649938566438298e-12 6.965175929438917e-13 4.267505152521548e-13 3.529908273822495e-13 6.859283250653533e-13 5.591468433572452e-13
          4.1862822609535363e-13 1.0545113321028384e-12 4.451713543735555e-13 6.690470007315369e-13 7.401682798728839e-12 6.734697214848734e-12
          2.701328576349945e-12 2.456776273638058e-12 5.0644368098916345e-12 1.844991519475327e-12 9.108576247900519e-12 8.453791929255217e-12
          3.1486043223963277e-12 6.643869875376822e-12 3.1422480895088093e-12 1.1423851100875911e-12 1.6149716621795512e-12 5.84479061073556e-13
          4.295643692552953e-12 1.5768224665520583e-12 2.258849664974405e-12 4.119713887041666e-13 5.777804926895751e-13 1.8055903059511806e-13
          3.5554703262900534e-13 3.1412598984914195e-13 5.971850684096236e-13 2.49604098400662e-13 5.557697333293608e-13 3.796301452936504e-13
          6.748504138931442e-13 6.950886976719633e-13 3.827847951040559e-13 8.167165773615733e-13 5.331820834467383e-13 9.730267219098775e-13
          5.192327422524833e-13 1.0481303166281196e-12 2.8624339768362705e-13 2.6665994834315957e-13 1.8532697454142014e-13 2.3136708950978836e-13
          9.563693705566127e-14 1.081867562478562e-13 1.609195763911024e-13 2.1936925113471517e-13 2.381211272739213e-13 2.1784157420825498e-13
          2.9232745774818037e-13 3.133062202711243e-13 1.7455434028758544e-13 2.8726041306601723e-13 1.6190258591684565e-13 2.5097373353250986e-13
          9.769805940520779e-14 1.976363136772886e-13 1.1677652278671504e-13 2.413337017269884e-13 1.3659997501952243e-13 2.6243046744737253e-13
          2.4040525286041804e-13 2.7260192882607447e-13 9.255384739120972e-13 8.410128364142725e-13 2.956904589240307e-13 2.681154422975227e-13
          6.309914781006847e-13 2.4017841872699504e-13 1.1935283209783487e-12 1.0997970188598217e-12 3.6100145605857586e-13 8.513211829375936e-13
          1.3717486626495728e-13 1.2619838232336548e-13 2.1545628007313385e-13 1.970534819926756e-13 1.4065691403130964e-13 3.1904087215185905e-13
          2.9275139669451826e-13 1.7433943494878687e-13 2.0136942947014295e-13 2.300129189402338e-13 2.806654459792648e-13 2.5809729633143287e-13
          3.7029698196002593e-13 1.994917407506129e-13 3.8920344043368017e-13 2.387559597756487e-13 3.066245799802657e-13 3.4006333576955873e-13
          5.438901259154204e-13 2.650919062167059e-13 4.196549657498979e-13 2.393628526667684e-13 2.384953274115079e-13 1.295266512935851e-13
          1.6859884334885357e-13 1.8566105576423717e-13 2.5407848669990506e-13 1.4363377005441702e-13 2.4101288040469785e-13 2.0767103540412204e-13
          3.2249591763557295e-13 2.470010075382435e-13 4.0525378311666076e-13 2.070058873046909e-13 4.0486141210078853e-13 2.4316461344937225e-13
          4.662696381876817e-13 2.4922288358581585e-13 5.197940761441696e-13 5.11622356800373e-13 5.882989933170845e-13 2.886284953835253e-12
          3.96919454636409e-12 1.6226412645194798e-12 2.014357637636199e-12 2.9096157177500138e-12 3.816308229385554e-12 2.5282301751045367e-12
          1.4499733312307106e-11 2.915485974625261e-11 5.533201475550708e-12 1.0095011277081405e-11 1.234953179743267e-11 1.7626146964733788e-11
          7.044192156685056e-12 2.134191825749481e-12 3.4023418747611844e-12 1.4771594633897705e-12 2.0209109197558206e-12 1.99509755764146e-12
          2.6955478139628157e-12 1.8009936993559017e-12 9.05687090796267e-14 1.2229614590055427e-13 6.89321740770457e-14 6.646602817559398e-14
          7.58430903903785e-14 9.849356672537768e-14 6.349778095132178e-14 6.950139805392399e-13 8.986346251494152e-13 4.435659493443327e-13
          5.559927389183221e-13 4.12985391715809e-13 4.779615687298369e-13 3.463316903477828e-13 1.1022552697595906e-12 6.684195284923116e-13
          5.429377457438646e-13 4.0995689160213846e-14 4.85508170640614e-14 8.561945020799423e-14 8.498058280928996e-14 3.788073930653564e-14
          4.7287661252122935e-14 5.199437797007222e-14 5.610594496790897e-14 8.43417154105857e-14 5.6701094688021497e-14 9.007597856754388e-14
          1.4675712092541239e-13 6.514145003432844e-14 9.05263786212531e-14 7.874208012861066e-14 1.1041551198453808e-13 7.349175069572522e-14
          3.345744359574179e-13 7.18765639240882e-13 6.763236007132007e-13 6.655755061563862e-13 1.590516654267451e-13 1.6612618534461243e-13
          2.8340791214725276e-13 2.709714682831298e-13 1.1616303371187142e-13 1.438370262442677e-13 1.5432539864420375e-13 1.7320070526247975e-13
          2.585350244190069e-13 1.648137710441398e-13 2.243176799433303e-13 2.2007857918106864e-13 3.4200383597786736e-13 3.3597230082231047e-13
          1.8190264003873223e-13 2.594355382541771e-13 2.55300248697454e-13 2.1091610900835323e-13 3.194949703778009e-13 2.4208145061353223e-13
          7.81165333170519e-13 7.664479277756476e-13 5.567678201275155e-13 7.230603447462523e-13 2.107367304885446e-13 2.9424081102983715e-13
          1.6890227921081667e-13 2.2576556767761993e-13 2.1548072137918976e-13 2.7943244697082613e-13 2.1853319326890633e-13 6.497610811679634e-13
          4.737304191822013e-13 6.490645176109889e-13 1.7679366953323159e-12 1.7312612870385307e-12 1.0918239396371372e-12 1.0691261617926335e-12
          1.6256112926068927e-12 1.0035740220250427e-12 3.836830909314729e-12 3.750525683551857e-12 2.3111683312092312e-12 3.503536390941875e-12
          4.0522862644726905e-13 3.9728710985759937e-13 6.577999826811646e-13 6.441237793362979e-13 2.333134544672922e-13 3.905470251803599e-13
          3.824559826676104e-13 3.7387025882644026e-13 6.04558989699064e-13 3.5898150407705496e-13 1.4352893674926338e-12 1.403072114200402e-12
          8.38567761450283e-13 1.310758555568991e-12 1.4644179881682062e-12 9.027074406549819e-13 1.2658536205481204e-12 7.781220408872713e-13
          3.128736647174697e-12 1.927752789482071e-12 2.6726744314575736e-12 3.3755190846709456e-13 5.43883437717004e-13 1.9926615370022002e-13
          3.2295663904639345e-13 2.9333564219103263e-13 4.693422734959125e-13 2.7929096638621545e-13 1.1704023719894864e-12 6.997840196290912e-13
          9.990935800471483e-13 6.69669290457843e-13 1.0500967057950503e-12 4.073272994935072e-13 6.434173437413134e-13 5.392641998618258e-13
          8.374553383308879e-13 5.124450480772145e-13 2.1857786995958815e-12 1.3463266473135763e-12 1.7131564565665635e-12 2.4643558848973764e-13
          3.8852702828537127e-13 1.512038302719456e-13 2.3052854892880863e-13 2.019835373767331e-13 3.0874093146378084e-13 2.0333276468266504e-13
          8.172371488407371e-13 4.857990816774094e-13 6.396142909096844e-13 2.620092815822537e-13 3.923235163156066e-13 3.232308683796949e-13
          7.91441972966431e-13 1.6490547299128782e-13 2.355908469815558e-13 1.3058900444543924e-13 1.7789799076805073e-13 1.4875265637575767e-13
          2.0116581264177832e-13 1.5537843784555495e-13 4.757896750781831e-13 3.309115079404665e-13 3.892721412540393e-13 7.551909168300131e-12
          7.37306379363513e-12 4.6561809149095555e-12 4.5458714017910135e-12 6.861920914701069e-12 4.230584353990915e-12 1.1967921400117535e-11
          1.1690226322095343e-11 7.229245506224296e-12 1.0893504321112206e-11 2.8272204786244357e-12 2.7603473093277055e-12 1.6905278794566985e-12
          1.6508748939235118e-12 2.5690990366116006e-12 1.5371781490090502e-12 4.5066257797532235e-12 4.4013198097771455e-12 2.6380963585213285e-12
          4.0993619332285204e-12 6.08885282093915e-12 3.753683787510517e-12 5.153439129215267e-12 3.1768064187776437e-12 9.680139183104699e-12
          5.98206991013278e-12 8.199274649777024e-12 2.279548798713209e-12 1.3643463085184463e-12 1.929043013587217e-12 1.154312266002501e-12
          3.640020386117892e-12 2.180944754093282e-12 3.0804016457938773e-12 1.4304252478507218e-11 1.4017113532248184e-11 8.9144522719853e-12
          8.732452474973415e-12 1.3178383201383279e-11 8.201995882504626e-12 1.4536051391086172e-11 1.4280343381461544e-11 8.943269600733884e-12
          1.3519702535529068e-11 5.466875973696697e-12 5.3535511421093806e-12 3.2993738918814716e-12 3.230008039956186e-12 5.023903722379329e-12
          3.02861433509569e-12 5.61473394906561e-12 5.509973503734076e-12 3.3400361386841003e-12 5.201012260958524e-12 1.186051606175586e-11
          7.371592314163826e-12 1.0190297676684039e-11 6.3236968015915855e-12 1.2288044810402846e-11 7.667040484727854e-12 1.0673378000290404e-11
          4.509583375470219e-12 2.7154061213515965e-12 3.863075241641965e-12 2.323141455287077e-12 4.707633799119015e-12 2.8446944366879064e-12
          4.070594963577106e-12 4.163293474256759e-12 2.5665683471490375e-12 3.2139429155074385e-12 1.9812460203855063e-12 6.61833609470139e-12
          4.0859174297525324e-12 5.092088517088864e-12 1.5597378583529338e-12 9.334095888838077e-13 1.2055575260265781e-12 7.210041120317633e-13
          2.4839949937963933e-12 1.4869644618317258e-12 1.909235345360828e-12 2.376699202492568e-12 1.4656610386444644e-12 1.038031780937132e-12
          3.737073268478467e-12 2.3047159070643114e-12 8.900057410709953e-13 5.304897731703077e-13 6.265976157001776e-13 3.7224704855483244e-13
          1.3996314295908045e-12 8.37134036359271e-13 9.798499969066552e-13 8.338204275394376e-12 5.166548928801644e-12 6.48824718948499e-12
          4.01491086404738e-12 8.825290031839987e-12 5.481253785758262e-12 6.9295367394739536e-12 3.151959993314742e-12 1.893204173695669e-12
          2.4467292210270006e-12 1.4685706984395836e-12 3.3515498861420947e-12 2.017553705726355e-12 2.6223725471169606e-12 4.800058120741433e-12
          2.9669680666660963e-12 2.0874431634856318e-12 5.162956574675701e-12 3.1955802016085954e-12 1.8064426438108202e-12 1.0840301123531252e-12
          1.2694854769750214e-12 7.601077442096769e-13 1.94833078139748e-12 1.1710079249629557e-12 1.3753474641099283e-12 4.564161634828807e-13
          7.033828821266838e-13 4.568005450812464e-13 1.083146584412604e-12 3.11469139725724e-13 4.2335927261998626e-13 1.849760721644105e-13
          2.4980032962324936e-13 2.050754380968453e-13 2.738827062717475e-13 1.8355305407627616e-13 6.583848632990564e-13 3.9017689547753817e-13