<?xml version="1.0"?>
<VTKFile type="UnstructuredGrid" version="0.1" byte_order="LittleEndian" header_type="UInt32" compressor="vtkZLibDataCompressor">
  <UnstructuredGrid>
    <Piece NumberOfPoints="1470" NumberOfCells="950">
      <PointData>
        <DataArray type="Int32" Name="libmesh_node_id" format="ascii" RangeMin="1962" RangeMax="14232">
          1962 1963 1964 1965 2001 2002
          2031 2032 2082 2083 2084 2085
          2121 2122 2151 2152 2203 2204
          2205 2241 2242 2271 2272 2324
          2325 2326 2327 2361 2362 2391
          2392 2461 2462 2465 2466 2467
          2468 2469 2470 2473 2474 2475
          2476 2477 2478 2479 2480 2481
          2482 2483 2484 2485 2486 2487
          2488 2523 2524 2525 2526 2527
          2528 2529 2530 2531 2532 2704
          2705 2706 2707 2708 2709 2710
          2713 2714 2715 2716 2717 2724
          2756 2757 2758 2761 2762 2763
          2764 2765 2766 2767 2768 2769
          2770 2771 2840 2848 2849 2850
          2851 2852 2853 2854 2855 2856
          2857 2858 2859 2860 2861 2862
          2863 2864 2865 2866 2867 2868
          2869 3465 3466 3467 3468 3469
          3471 3472 3473 3474 3475 3476
          3477 3478 3479 3480 3481 3482
          3483 3484 3485 3486 3487 3488
          3489 3490 3492 3493 3494 3497
          3498 3499 3501 3502 3503 3504
          3505 3506 3507 3508 3509 3510
          3592 3593 3594 3595 3596 3597
          3598 3599 3600 3601 3794 3795
          3796 3799 3800 3801 3802 3803
          3804 3805 3806 3807 3808 3809
          3812 3813 3816 3836 3837 3840
          3842 3844 3845 3846 3847 3848
          3849 3850 3851 3852 3853 3854
          3855 3856 3857 5373 5375 5376
          5377 5378 5379 5380 5381 5382
          5383 5384 5385 5386 5387 5388
          5397 5399 5400 5401 5402 5403
          5404 5405 5406 5407 5408 5411
          5412 5414 5417 5419 5420 5421
          5422 5423 5424 5425 5426 5427
          5428 5430 5432 5434 5436 5437
          5438 5439 5440 5441 5442 5443
          5444 5445 5446 5447 5448 5449
          5450 5451 5452 5453 5454 5455
          5456 5457 5458 5459 5460 5461
          5462 5463 5464 5465 5466 5467
          5468 5469 5470 5471 5472 5473
          5474 5475 5476 5477 5478 5479
          5480 5481 5482 5483 5484 5485
          5486 5487 5488 5489 5490 5491
          5492 5493 5494 5495 5496 5497
          5498 5499 5500 5501 5502 5503
          5504 5505 5506 5507 5514 5516
          5518 5519 5520 5521 5522 5523
          5524 5525 5526 5527 5529 5531
          5533 5535 5536 5537 5538 5539
          5540 5541 5544 5545 5550 5552
          5553 5554 5555 5556 5557 5558
          5559 5560 5561 5562 5563 5564
          5565 5566 5567 5568 5569 5570
          5571 5633 5634 5635 5636 5637
          5638 5639 5640 5641 5642 5674
          5675 5676 5677 5678 5679 5680
          5681 5682 5683 5745 5746 5747
          5748 5749 5750 5751 5779 5780
          5781 5782 5783 5784 5785 5786
          5787 5788 5789 5790 5791 5792
          5793 5794 5795 5796 5797 5798
          5919 5920 5921 5922 5923 5924
          5925 5926 5927 5928 5929 5930
          5931 5932 5933 5934 5935 5938
          5939 5942 5943 5944 5945 5946
          5947 5948 5949 5950 5951 5952
          5953 5954 5955 5956 5957 5958
          5959 5960 5961 5962 5963 5964
          5965 5966 5967 5968 5969 5970
          5971 5972 5973 5974 5975 5976
          6080 6081 6082 6083 6084 6085
          6086 6087 6088 6089 6107 6108
          6109 6110 6111 6112 6113 6114
          6115 6116 6117 6118 6119 6120
          6121 6122 6123 6124 6125 6126
          6127 6128 6129 6130 13197 13198
          13200 13203 13213 13215 13217 13219
          13220 13221 13222 13223 13224 13225
          13226 13227 13228 13229 13230 13231
          13232 13233 13234 13235 13236 13237
          13238 13239 13240 13241 13242 13243
          13244 13245 13246 13247 13248 13249
          13250 13251 13252 13253 13254 13255
          13256 13257 13258 13259 13260 13261
          13262 13263 13264 13265 13266 13267
          13268 13269 13270 13271 13272 13273
          13274 13275 13276 13315 13317 13319
          13330 13331 13334 13336 13338 13339
          13340 13341 13342 13343 13344 13345
          13346 13347 13348 13349 13350 13351
          13352 13353 13354 13355 13356 13357
          13358 13359 13360 13361 13362 13363
          13364 13365 13366 13367 13368 13369
          13370 13371 13372 13373 13374 13375
          13376 13377 13390 13391 13393 13396
          13406 13408 13410 13424 13425 13427
          13430 13440 13442 13444 13446 13447
          13448 13449 13450 13451 13452 13453
          13454 13455 13456 13457 13458 13459
          13460 13461 13462 13463 13464 13465
          13466 13467 13468 13469 13470 13471
          13472 13473 13474 13475 13476 13477
          13478 13479 13480 13481 13482 13483
          13484 13485 13486 13487 13488 13489
          13490 13491 13492 13493 13494 13495
          13496 13497 13498 13499 13500 13501
          13502 13503 13504 13505 13506 13507
          13508 13509 13510 13511 13512 13513
          13522 13524 13526 13536 13538 13540
          13550 13552 13554 13564 13566 13568
          13570 13571 13572 13573 13574 13575
          13576 13577 13578 13579 13580 13581
          13582 13583 13584 13585 13586 13587
          13588 13589 13590 13591 13592 13593
          13594 13595 13596 13597 13598 13599
          13600 13601 13602 13603 13604 13605
          13606 13607 13608 13609 13610 13611
          13612 13613 13614 13615 13616 13617
          13618 13619 13620 13621 13622 13623
          13624 13625 13626 13627 13628 13629
          13630 13631 13632 13633 13634 13635
          13636 13637 13638 13639 13640 13641
          13642 13643 13644 13645 13646 13647
          13648 13649 13650 13651 13652 13653
          13654 13655 13656 13657 13658 13659
          13660 13661 13662 13663 13664 13665
          13666 13667 13668 13669 13670 13671
          13672 13673 13674 13675 13676 13677
          13678 13679 13680 13681 13682 13683
          13684 13685 13686 13687 13688 13689
          13690 13691 13692 13693 13694 13695
          13696 13697 13698 13699 13700 13701
          13702 13703 13704 13705 13706 13707
          13708 13709 13710 13711 13712 13713
          13714 13715 13716 13717 13718 13719
          13720 13721 13722 13723 13724 13725
          13726 13727 13728 13729 13730 13731
          13732 13733 13734 13735 13736 13737
          13738 13739 13740 13741 13742 13743
          13744 13745 13746 13747 13748 13749
          13750 13751 13752 13753 13754 13755
          13756 13757 13758 13759 13760 13761
          13762 13763 13764 13765 13766 13767
          13768 13769 13770 13771 13772 13773
          13774 13775 13776 13777 13778 13779
          13780 13781 13782 13783 13784 13785
          13786 13787 13788 13789 13790 13791
          13792 13793 13794 13795 13796 13797
          13798 13799 13800 13801 13802 13803
          13804 13805 13806 13807 13808 13809
          13810 13811 13812 13813 13814 13815
          13816 13817 13818 13819 13820 13821
          13822 13823 13824 13825 13826 13827
          13828 13829 13830 13831 13832 13833
          13834 13835 13836 13837 13838 13839
          13840 13841 13842 13843 13844 13845
          13846 13847 13848 13849 13850 13851
          13852 13853 13854 13855 13856 13857
          13858 13859 13860 13861 13862 13863
          13864 13865 13866 13867 13868 13869
          13870 13871 13872 13873 13874 13875
          13876 13877 13878 13879 13880 13881
          13882 13883 13884 13885 13886 13887
          13888 13889 13890 13891 13892 13893
          13894 13895 13896 13897 13898 13899
          13900 13901 13902 13903 13904 13905
          13906 13907 13908 13909 13910 13911
          13912 13913 13914 13915 13916 13917
          13918 13919 13920 13921 13922 13923
          13924 13925 13926 13927 13928 13929
          13930 13931 13932 13933 13934 13935
          13936 13937 13938 13939 13940 13941
          13942 13943 13944 13945 13946 13947
          13948 13949 13962 13963 13966 13968
          13980 13981 13982 13983 13984 13985
          13986 13987 13988 13989 13990 13991
          13992 13993 13994 13995 13996 13997
          13998 13999 14000 14001 14002 14003
          14004 14005 14006 14007 14008 14009
          14018 14020 14022 14031 14032 14033
          14034 14035 14036 14037 14046 14048
          14050 14059 14060 14061 14062 14063
          14064 14065 14066 14067 14068 14069
          14070 14071 14072 14073 14074 14075
          14076 14077 14078 14079 14080 14081
          14082 14083 14084 14085 14086 14087
          14088 14089 14090 14091 14092 14093
          14094 14095 14096 14097 14098 14099
          14100 14101 14102 14103 14104 14105
          14106 14107 14108 14109 14110 14111
          14112 14113 14114 14115 14116 14117
          14118 14119 14120 14121 14122 14123
          14124 14125 14126 14127 14138 14139
          14140 14141 14142 14143 14144 14145
          14146 14147 14155 14156 14157 14158
          14159 14160 14161 14172 14173 14174
          14175 14176 14177 14178 14179 14180
          14181 14182 14183 14184 14185 14186
          14187 14188 14189 14190 14191 14192
          14193 14194 14195 14196 14197 14198
          14199 14200 14201 14202 14203 14204
          14205 14206 14207 14208 14209 14210
          14211 14212 14213 14214 14215 14216
          14217 14218 14219 14220 14221 14222
          14223 14224 14225 14226 14227 14228
          14229 14230 14231 14232 1966 1967
          2086 2087 2003 2123 2033 2153
          2206 2207 2243 2273 2208 2209
          2328 2329 2244 2364 2363 2393
          2464 2711 2846 2712 2847 2720
          2721 2726 2841 2842 2845 2463
          2694 3790 3791 3792 3793 3797
          3798 3464 3470 3810 3811 3814
          3815 3491 3495 3834 3496 3835
          3838 3839 3500 3841 3843 5365
          5367 5370 5391 5392 5395 5508
          5510 5512 5509 5511 5513 5542
          5546 5543 5548 5547 5549 5551
          5936 5937 5940 5941 5517 6074
          6075 6076 6079 3463 13161 5366
          13163 13162 13195 13196 13164 13199
          13201 13202 13204 13183 13182 13212
          13184 13214 13216 13218 13155 13156
          13157 13160 13295 13294 13314 13296
          13316 13318 13320 13328 13329 13332
          13333 13335 13337 13388 13389 13392
          13394 13395 13397 13405 13407 13409
          13411 13422 13423 13426 13428 13429
          13431 13439 13441 13443 13445 13521
          13523 13525 13527 13535 13537 13539
          13541 13549 13551 13553 13555 13563
          13565 13567 13569 13960 13961 13964
          13965 13967 13969 13972 13956 13973
          13976 5515 13978 14017 14019 14021
          14023 14013 14025 14027 5528 14029
          5530 14045 14047 14049 14051 14041
          14053 14055 5532 14057 5534 14130
          14131 14134 14136 14149 14151 14153
        </DataArray>
        <DataArray type="Float64" Name="bounds" format="ascii" RangeMin="0" RangeMax="0">
          0 0 0 0 0 0
          0 0 0 0 0 0
          0 0 0 0 0 0
          0 0 0 0 0 0
          0 0 0 0 0 0
          0 0 0 0 0 0
          0 0 0 0 0 0
          0 0 0 0 0 0
          0 0 0 0 0 0
          0 0 0 0 0 0
          0 0 0 0 0 0
          0 0 0 0 0 0
          0 0 0 0 0 0
          0 0 0 0 0 0
          0 0 0 0 0 0
          0 0 0 0 0 0
          0 0 0 0 0 0
          0 0 0 0 0 0
          0 0 0 0 0 0
          0 0 0 0 0 0
          0 0 0 0 0 0
          0 0 0 0 0 0
          0 0 0 0 0 0
          0 0 0 0 0 0
          0 0 0 0 0 0
          0 0 0 0 0 0
          0 0 0 0 0 0
          0 0 0 0 0 0
          0 0 0 0 0 0
          0 0 0 0 0 0
          0 0 0 0 0 0
          0 0 0 0 0 0
          0 0 0 0 0 0
          0 0 0 0 0 0
          0 0 0 0 0 0
          0 0 0 0 0 0
          0 0 0 0 0 0
          0 0 0 0 0 0
          0 0 0 0 0 0
          0 0 0 0 0 0
          0 0 0 0 0 0
          0 0 0 0 0 0
          0 0 0 0 0 0
          0 0 0 0 0 0
          0 0 0 0 0 0
          0 0 0 0 0 0
          0 0 0 0 0 0
          0 0 0 0 0 0
          0 0 0 0 0 0
          0 0 0 0 0 0
          0 0 0 0 0 0
          0 0 0 0 0 0
          0 0 0 0 0 0
          0 0 0 0 0 0
          0 0 0 0 0 0
          0 0 0 0 0 0
          0 0 0 0 0 0
          0 0 0 0 0 0
          0 0 0 0 0 0
          0 0 0 0 0 0
          0 0 0 0 0 0
          0 0 0 0 0 0
          0 0 0 0 0 0
          0 0 0 0 0 0
          0 0 0 0 0 0
          0 0 0 0 0 0
          0 0 0 0 0 0
          0 0 0 0 0 0
          0 0 0 0 0 0
          0 0 0 0 0 0
          0 0 0 0 0 0
          0 0 0 0 0 0
          0 0 0 0 0 0
          0 0 0 0 0 0
          0 0 0 0 0 0
          0 0 0 0 0 0
          0 0 0 0 0 0
          0 0 0 0 0 0
          0 0 0 0 0 0
          0 0 0 0 0 0
          0 0 0 0 0 0
          0 0 0 0 0 0
          0 0 0 0 0 0
          0 0 0 0 0 0
          0 0 0 0 0 0
          0 0 0 0 0 0
          0 0 0 0 0 0
          0 0 0 0 0 0
          0 0 0 0 0 0
          0 0 0 0 0 0
          0 0 0 0 0 0
          0 0 0 0 0 0
          0 0 0 0 0 0
          0 0 0 0 0 0
          0 0 0 0 0 0
          0 0 0 0 0 0
          0 0 0 0 0 0
          0 0 0 0 0 0
          0 0 0 0 0 0
          0 0 0 0 0 0
          0 0 0 0 0 0
          0 0 0 0 0 0
          0 0 0 0 0 0
          0 0 0 0 0 0
          0 0 0 0 0 0
          0 0 0 0 0 0
          0 0 0 0 0 0
          0 0 0 0 0 0
          0 0 0 0 0 0
          0 0 0 0 0 0
          0 0 0 0 0 0
          0 0 0 0 0 0
          0 0 0 0 0 0
          0 0 0 0 0 0
          0 0 0 0 0 0
          0 0 0 0 0 0
          0 0 0 0 0 0
          0 0 0 0 0 0
          0 0 0 0 0 0
          0 0 0 0 0 0
          0 0 0 0 0 0
          0 0 0 0 0 0
          0 0 0 0 0 0
          0 0 0 0 0 0
          0 0 0 0 0 0
          0 0 0 0 0 0
          0 0 0 0 0 0
          0 0 0 0 0 0
          0 0 0 0 0 0
          0 0 0 0 0 0
          0 0 0 0 0 0
          0 0 0 0 0 0
          0 0 0 0 0 0
          0 0 0 0 0 0
          0 0 0 0 0 0
          0 0 0 0 0 0
          0 0 0 0 0 0
          0 0 0 0 0 0
          0 0 0 0 0 0
          0 0 0 0 0 0
          0 0 0 0 0 0
          0 0 0 0 0 0
          0 0 0 0 0 0
          0 0 0 0 0 0
          0 0 0 0 0 0
          0 0 0 0 0 0
          0 0 0 0 0 0
          0 0 0 0 0 0
          0 0 0 0 0 0
          0 0 0 0 0 0
          0 0 0 0 0 0
          0 0 0 0 0 0
          0 0 0 0 0 0
          0 0 0 0 0 0
          0 0 0 0 0 0
          0 0 0 0 0 0
          0 0 0 0 0 0
          0 0 0 0 0 0
          0 0 0 0 0 0
          0 0 0 0 0 0
          0 0 0 0 0 0
          0 0 0 0 0 0
          0 0 0 0 0 0
          0 0 0 0 0 0
          0 0 0 0 0 0
          0 0 0 0 0 0
          0 0 0 0 0 0
          0 0 0 0 0 0
          0 0 0 0 0 0
          0 0 0 0 0 0
          0 0 0 0 0 0
          0 0 0 0 0 0
          0 0 0 0 0 0
          0 0 0 0 0 0
          0 0 0 0 0 0
          0 0 0 0 0 0
          0 0 0 0 0 0
          0 0 0 0 0 0
          0 0 0 0 0 0
          0 0 0 0 0 0
          0 0 0 0 0 0
          0 0 0 0 0 0
          0 0 0 0 0 0
          0 0 0 0 0 0
          0 0 0 0 0 0
          0 0 0 0 0 0
          0 0 0 0 0 0
          0 0 0 0 0 0
          0 0 0 0 0 0
          0 0 0 0 0 0
          0 0 0 0 0 0
          0 0 0 0 0 0
          0 0 0 0 0 0
          0 0 0 0 0 0
          0 0 0 0 0 0
          0 0 0 0 0 0
          0 0 0 0 0 0
          0 0 0 0 0 0
          0 0 0 0 0 0
          0 0 0 0 0 0
          0 0 0 0 0 0
          0 0 0 0 0 0
          0 0 0 0 0 0
          0 0 0 0 0 0
          0 0 0 0 0 0
          0 0 0 0 0 0
          0 0 0 0 0 0
          0 0 0 0 0 0
          0 0 0 0 0 0
          0 0 0 0 0 0
          0 0 0 0 0 0
          0 0 0 0 0 0
          0 0 0 0 0 0
          0 0 0 0 0 0
          0 0 0 0 0 0
          0 0 0 0 0 0
          0 0 0 0 0 0
          0 0 0 0 0 0
          0 0 0 0 0 0
          0 0 0 0 0 0
          0 0 0 0 0 0
          0 0 0 0 0 0
          0 0 0 0 0 0
          0 0 0 0 0 0
          0 0 0 0 0 0
          0 0 0 0 0 0
          0 0 0 0 0 0
          0 0 0 0 0 0
          0 0 0 0 0 0
          0 0 0 0 0 0
          0 0 0 0 0 0
          0 0 0 0 0 0
          0 0 0 0 0 0
          0 0 0 0 0 0
          0 0 0 0 0 0
          0 0 0 0 0 0
          0 0 0 0 0 0
          0 0 0 0 0 0
          0 0 0 0 0 0
          0 0 0 0 0 0
          0 0 0 0 0 0
          0 0 0 0 0 0
          0 0 0 0 0 0
          0 0 0 0 0 0
          0 0 0 0 0 0
        </DataArray>
        <DataArray type="Float64" Name="gradient_error" format="ascii" RangeMin="3.734440620512439e-15" RangeMax="9.023322815530315e-12">
          4.501101091851862e-12 4.488355394508819e-12 5.342109291221076e-13 5.47045067744106e-13 2.8170698364377003e-12 3.3525912508375524e-13
          1.1585299757096264e-12 1.1063904380140618e-13 4.5533435154389134e-12 9.023322815530315e-12 5.647953760115581e-13 7.722159682927304e-13
          8.395881043396514e-12 6.626830467008101e-13 3.435731909129426e-12 3.7219579397517747e-13 6.6831700435239385e-12 1.8651419916042433e-13
          4.042135802648109e-13 7.559668433222372e-12 6.13846062210656e-13 5.1011925493507535e-12 7.072972587767618e-13 9.747768605435293e-14
          4.6014674048176905e-14 6.773720425266224e-14 2.42305846188405e-14 3.410655234389493e-12 4.870787903759408e-13 5.262833529958439e-12
          8.632307640587536e-13 8.024854905282472e-13 4.724641667477236e-13 1.7653822789890753e-13 8.900391189643365e-14 1.166536934510514e-13
          3.873614074105135e-13 3.0718365235437205e-13 1.142450667835221e-13 5.513776375001516e-14 1.556655067253116e-13 6.827267340320817e-14
          5.337629548902012e-14 5.874668376885946e-14 4.1799705178873874e-14 1.959411959814202e-14 5.10114829861149e-14 3.413448490754903e-14
          3.1840490098003434e-14 2.289358905501772e-14 1.362161816345246e-14 1.1728260495741465e-13 3.7926064632410714e-14 4.867485021695604e-14
          1.3115023010735821e-14 3.5569241083643654e-13 2.977122074945813e-13 6.855598067166046e-14 8.133823956514547e-14 1.4306409118896692e-13
          2.5888072765934883e-13 8.542373031426712e-14 2.3343278885706673e-13 9.41204984586305e-14 3.746973641297308e-13 2.914677846296183e-13
          2.3388614572843e-13 1.6657370708274948e-13 1.389322800489087e-13 6.626212282970339e-14 5.463084500626366e-14 4.5526148787985505e-14
          3.050232066646815e-14 8.092671454170839e-13 2.391518012540824e-13 1.0918647848766215e-13 1.1158986404372089e-13 1.681577958422755e-13
          1.3866118780293914e-12 1.885628920505167e-12 2.059408374026502e-12 2.2331878275478367e-12 2.1099068275467562e-13 2.639838591996198e-13
          3.1180727802800015e-13 3.0782051132152116e-13 1.8669799568426882e-13 1.220595723137772e-13 1.6780768277546448e-13 3.1697703564456395e-13
          3.0383374461504207e-13 2.1355579323715175e-13 9.69888473457901e-13 3.743623203527198e-14 2.7124145947218138e-14 6.06121418983033e-14
          6.225182130486916e-14 1.9879476339036765e-14 4.1040842623762706e-14 1.7842400630354468e-14 6.389150071143503e-14 2.705795299433248e-14
          2.4246919300214946e-14 6.239556966753854e-14 4.3047071933844566e-14 1.480509386012582e-14 8.343401667986262e-14 5.769653936732536e-14
          1.7188970033460756e-14 2.047389620395778e-14 1.94743292841823e-14 1.5228902318704753e-13 8.434448064585438e-14 1.005879848745249e-13
          2.6279083721610318e-14 1.031859642652856e-12 7.405431617863299e-13 1.7801849367096575e-13 2.432447424962774e-13 1.7398255879125413e-13
          2.768447052642544e-13 7.657712763162127e-14 3.224329675278024e-12 2.4624908670969945e-12 6.09521738405763e-13 9.861839783370356e-13
          7.717833718336897e-14 6.577900905402764e-14 7.410382934419258e-14 7.265088365653182e-14 5.131261374487591e-14 6.80386512758273e-14
          6.802698509692393e-14 5.562730962886873e-14 6.067861576061085e-14 7.186782465601405e-14 1.7899191489862304e-13 1.3309536510946873e-13
          7.173284162930648e-14 8.349553395500762e-14 1.2205368800501686e-13 7.888081153409425e-14 1.0402272529767187e-13 8.470669095481284e-14
          1.9017015223623687e-13 1.3036383389993179e-13 5.2348775110952136e-14 7.833188415995656e-14 4.013634402011858e-14 7.106780521779982e-14
          4.027161276986109e-14 5.698678428432684e-14 4.364446155151258e-14 1.0796325828622642e-13 9.323918202741242e-14 6.500246787657222e-14
          3.5507610441136537e-13 2.841788969487696e-13 4.311818528008677e-13 3.5135613981548374e-13 1.1590383123548221e-13 1.622391138467841e-13
          1.3344033733592832e-13 2.132816894861738e-13 2.715304268300999e-13 1.0464156082507257e-13 6.589309465612261e-14 8.536359423868582e-14
          1.1951859137978883e-13 1.235558258813125e-13 2.3662526195168953e-14 2.1405445308218804e-14 6.53271853384782e-14 5.850839713144643e-14
          1.656257026324106e-14 3.595220495278957e-14 3.1091059911804627e-14 1.8160742497663562e-14 4.1503437934968616e-14 2.0711567863837757e-14
          3.540476787786702e-14 6.879671626297278e-14 4.3209080200603884e-14 4.2001860933606106e-14 6.392380774855527e-14 1.9169920361168013e-14
          8.584575456350446e-14 7.513285360845189e-14 6.400470032877905e-14 8.798728110202988e-14 7.192581650344791e-14 3.6868643897710466e-14
          9.852628202502558e-14 8.037813121886957e-14 4.0467134666124475e-14 5.938084765777567e-14 4.5603720338803675e-14 1.171889541668749e-13
          9.217651709680143e-14 1.2388761854002868e-13 8.151593518917101e-14 9.496140416647388e-13 1.3566214526494398e-13 1.870002894373048e-13
          1.742217900909449e-13 2.1871820629417641e-13 1.604796225723842e-13 1.4887027736815138e-13 1.4002446714140588e-13 2.6068810662826377e-13
          2.3304199738178623e-13 1.1569861012707881e-13 5.088335812883716e-13 4.680667708279818e-13 2.2363039876249583e-13 3.6463066322198596e-13
          4.904491779323372e-13 2.5870248431081633e-13 1.6822958453238837e-13 1.2782379696246397e-13 8.24553436185024e-14 1.6705281732198846e-13
          1.0682847151797816e-13 6.59079367646398e-14 2.411433144831876e-13 1.1483822560834305e-13 1.3574549207188275e-13 3.069539638281641e-12
          2.8177049730964583e-12 2.178629036106013e-12 3.0226692910993986e-12 1.5301469317398367e-12 1.4040885531912718e-12 7.395139599240041e-13
          6.783556120661733e-13 1.0845406394170845e-12 5.235834175481166e-13 1.6412857920532322e-12 1.5353389665673373e-12 7.555388767556291e-13
          1.2444333797908608e-12 1.417908541026116e-12 7.772981854863886e-13 1.704679147048424e-12 7.047294678077777e-13 3.397015724386279e-13
          3.855294138607098e-13 1.8509423057576567e-13 8.565317353047489e-13 4.1736974352685715e-13 4.930060735643586e-13 1.0974679555047095e-13
          1.0149390664222237e-13 7.182998414580276e-14 6.646956956593492e-14 4.4044232556835036e-14 5.911043678325937e-14 5.498400333089768e-14
          8.081274716519413e-14 7.33483615282419e-14 6.50521515865869e-14 1.125035299648958e-13 1.0340607159519995e-13 6.847348551771008e-14
          9.658452457652304e-14 5.747172796396628e-14 6.963550025049043e-14 2.8052975920948257e-14 6.553041703985254e-14 3.808890515965183e-14
          5.819789486087447e-14 4.8245615941022036e-14 8.102564839341146e-14 6.713463468489451e-14 6.006407863025171e-14 3.4642656388290674e-13
          3.176451850849817e-13 1.5674471020682398e-13 1.436242252585537e-13 2.447994685007257e-13 1.1050923542438583e-13 3.865810899403095e-13
          3.6023665171356944e-13 1.6646133684235061e-13 2.8935341113801095e-13 5.888131740275403e-14 5.443552094549565e-14 6.781143979400976e-14
          6.210532452694597e-14 5.090415433045713e-14 7.75958093754154e-14 7.169234901987784e-14 5.823194853325027e-14 5.995271759082877e-14
          7.113580882817584e-14 8.059138260264887e-14 7.475989979337707e-14 9.02723413322332e-14 5.896305858857526e-14 1.5839821296583803e-13
          7.101380136635538e-14 8.562618927896397e-14 6.310777559168285e-14 1.9729301401138634e-13 9.039380036543847e-14 1.1234434680326242e-13
          5.3807125831871665e-14 6.61870529621412e-14 6.119637219956222e-14 7.94495307003898e-14 5.0564517162174765e-14 8.044014320231464e-14
          7.505262628089979e-14 6.872941273788474e-14 8.11778262307264e-14 1.0272223030703534e-13 1.3153979766868474e-13 1.599646858919089e-13
          9.418591908348212e-14 1.0661226867971241e-13 4.7395872920175604e-14 6.669144392437233e-14 4.972178675763399e-14 9.791411984965265e-14
          5.85084862762694e-14 1.0707617720818763e-13 8.623051392864618e-14 1.0770652047549004e-13 3.600658289367513e-13 1.4081530512435427e-13
          4.747301229205747e-13 1.7766826631388095e-13 1.029667736156042e-13 1.1183306046370599e-13 1.2239301290010017e-13 2.359257474581152e-13
          1.1347500601475857e-13 1.4839669548992546e-13 1.1524934827155256e-13 1.4397834119146394e-13 1.8162421628957242e-13 7.5605533421495e-14
          1.203487233484321e-13 6.848253004745305e-14 1.0990207593195076e-13 6.419264901839934e-14 1.1470786305017992e-13 5.820944739865586e-14
          1.5145267790211103e-13 1.376507736538226e-13 1.403279431512469e-13 7.748126369889206e-14 8.527468755852652e-14 5.69565002397611e-14
          8.602377631330848e-14 8.366150019578603e-14 9.945714924213876e-14 8.0157552340251e-14 8.547161830674541e-14 1.0949529939651355e-13
          9.748313212159123e-14 2.2725196845351467e-14 2.2368773171853535e-14 1.3863764372375026e-14 1.2308179301509707e-14 2.0249331069528142e-14
          2.3290687875740514e-14 1.463060910509765e-14 2.20123494983556e-14 1.0752594230644387e-14 2.6332044681952886e-14 1.0643944401302917e-14
          1.1050262834848761e-14 7.712851287233782e-15 5.723645953873111e-15 8.34583434178173e-15 6.39944316390342e-15 4.457695394169725e-15
          1.1456581268394604e-14 3.734440620512439e-15 4.45305198602511e-15 1.585048983235737e-14 2.3484637056873138e-14 1.2663892262456187e-14
          1.3112393704212891e-14 1.452785909065628e-14 1.5652007168223708e-14 1.1031566551569949e-14 1.5194162959715705e-14 2.232002955954984e-14
          9.059367291752292e-15 1.0913318785871324e-14 8.620034108323677e-15 1.0385165531773331e-14 7.632879982515058e-15 2.944589615938398e-14
          1.2767270279990355e-14 1.2150296955222981e-14 2.0709321188082432e-14 4.2191079424970826e-14 1.2440556027078237e-14 2.1226504554606302e-14
          1.3360920093022146e-14 2.1047018406038383e-14 1.3475548844318802e-14 6.36728376618592e-14 3.0012453082134364e-14 2.873311671905462e-14
          2.3220052206957196e-14 2.2409099970511856e-14 5.580169351314888e-14 5.215374312146738e-14 1.8973813212844333e-14 3.766177019526053e-14
          3.4974674724750595e-14 2.0513842432815006e-14 4.313146663166104e-14 2.8037541280790692e-14 1.818940500610318e-14 3.1996253940250257e-14
          1.4807661708313146e-14 2.060172529208321e-14 1.6949272880642863e-14 2.6235367346964302e-14 1.74159472768257e-14 4.837348229648536e-14
          8.733433952040034e-14 5.42844033918581e-14 2.839215313158447e-14 4.5199604226504705e-14 2.271029210955869e-14 3.192556291588001e-14
          2.1054539626843238e-14 3.0176027357264476e-14 2.243272258213711e-14 2.5420358645500502e-14 4.7680484749872363e-14 1.9755831886510294e-14
          3.275280077571661e-14 2.1221886303215455e-14 3.348051655231168e-14 2.4871905004862883e-14 5.290265654770303e-14 7.137541480197335e-14
          3.612385883708349e-14 4.7845997093594794e-14 3.6568878570136196e-14 4.8857513843605226e-14 3.5720794715054606e-14 8.984817305624367e-14
          5.95681353501061e-14 6.114614911707426e-14 4.3060957803532304e-14 5.656282050606875e-14 2.9880225231223435e-14 3.760286512658815e-14
          2.8060675075492923e-14 3.5412307073044486e-14 2.69161902861545e-14 7.006468320860522e-14 4.5325505021952865e-14 4.276393907059605e-14
          3.937576649683103e-14 4.181831932567205e-14 6.877776641206735e-14 6.452453660350106e-14 3.190311596255568e-14 4.2802313799940796e-14
          4.367916683194783e-14 4.426087215451306e-14 6.027130679493476e-14 4.4556019863954864e-14 7.090086886776556e-14 6.551007497023624e-14
          9.356904144829142e-14 8.668378238643258e-14 4.486596563163959e-14 6.494854389115426e-14 6.022843598234581e-14 5.2873847961700836e-14
          6.959355136304701e-14 4.813583123488954e-14 1.1623721402881725e-13 1.0785748980262896e-13 7.559090633305204e-14 8.631325476439319e-14
          3.8623453476491683e-14 4.993085419112826e-14 2.5870933934334474e-14 3.4233045327690545e-14 3.161849210228858e-14 4.047312898073627e-14
          2.7702756259139372e-14 6.123825490576484e-14 4.2595156721046614e-14 4.932776585918396e-14 4.969909014691741e-13 4.882887490146864e-13
          4.624959811479666e-13 1.0106559656394448e-12 4.2039775834659576e-13 3.660793471412567e-13 8.560514421303777e-13 5.3380424715070965e-14
          5.697779429061404e-14 7.662240978673556e-14 7.556964663460904e-14 4.9861629332294446e-14 6.222968582627584e-14 6.234150959169297e-14
          6.057516386615713e-14 7.45168834824825e-14 6.245333335711013e-14 1.6376957840338523e-13 1.587181891477608e-13 1.2913612576649452e-13
          1.701343742223578e-13 3.5125850936593343e-13 3.44352939859323e-13 2.458683131559897e-13 2.4052965196800413e-13 3.246048692337614e-13
          2.2567134228210702e-13 7.274685740568839e-13 7.124852989358938e-13 4.983185595720579e-13 6.693540182852569e-13 1.0838797860468713e-13
          1.0583455572487177e-13 1.6897083918368263e-13 1.6537592914720485e-13 7.101578241311698e-14 1.1505563172165268e-13 1.1274024148759572e-13
          9.902848795591626e-14 1.5530485376489709e-13 1.0616517845569949e-13 3.53212748798342e-13 3.458763548587022e-13 2.381821893463722e-13
          3.247985775496891e-13 1.913804045178283e-13 2.938779765352779e-13 1.3065471734456057e-13 2.0351209517133735e-13 1.6635901312737183e-13
          2.5541967319379373e-13 1.7664347861779263e-13 6.032491262372711e-13 4.217425580852723e-13 5.216814472382032e-13 8.926246830332163e-14