<?xml version="1.0"?>
<VTKFile type="UnstructuredGrid" version="0.1" byte_order="LittleEndian" header_type="UInt32" compressor="vtkZLibDataCompressor">
  <UnstructuredGrid>
    <Piece NumberOfPoints="1648" NumberOfCells="962">
      <PointData>
        <DataArray type="Int32" Name="libmesh_node_id" format="ascii" RangeMin="1956" RangeMax="6695">
          1956 1957 1958 1959 1960 1961
          2076 2077 2078 2079 2080 2081
          2118 2119 2120 2148 2149 2150
          2196 2197 2198 2199 2200 2201
          2202 2238 2239 2240 2268 2269
          2270 2316 2317 2318 2319 2321
          2323 2358 2359 2360 2388 2389
          2390 2407 2408 2409 2413 2417
          2419 2420 2421 2422 2423 2424
          2425 2426 2427 2428 2429 2430
          2431 2432 2433 2434 2435 2436
          2437 2438 2439 2440 2441 2442
          2443 2444 2445 2446 2447 2448
          2451 2453 2454 2455 2456 2489
          2490 2491 2492 2493 2494 2495
          2496 2497 2498 2499 2500 2501
          2502 2503 2504 2505 2506 2507
          2508 2509 2510 2511 2512 2513
          2514 2515 2516 2517 2518 2519
          2520 2521 2522 2540 2541 2542
          2546 2550 2552 2553 2554 2555
          2556 2557 2558 2559 2560 2561
          2562 2563 2564 2565 2566 2567
          2568 2569 2570 2571 2572 2573
          2574 2575 2576 2577 2578 2579
          2580 2581 2582 2583 2584 2585
          2586 2587 2588 2589 2590 2591
          2592 2593 2594 2595 2596 2597
          2598 2599 2600 2601 2602 2603
          2604 2605 2606 2607 2608 2609
          2610 2611 2612 2614 2615 2616
          2617 2618 2619 2621 2622 2623
          2624 2625 2626 2627 2628 2629
          2630 2631 2632 2633 2634 2635
          2636 2637 2638 2639 2640 2641
          2642 2643 2649 2663 2670 2671
          2672 2674 2675 2676 2679 2680
          2681 2682 2683 2684 2685 2686
          2689 2722 2723 2727 2728 2729
          2730 2731 2732 2733 2734 2735
          2736 2737 2738 2739 2740 2741
          2742 2743 2744 2745 2746 2747
          2748 2749 2750 2751 2752 2753
          2754 2755 2759 2760 2772 2773
          2774 2775 2776 2777 2778 2779
          2780 2781 2782 2783 2784 2785
          2786 2787 2788 2789 2790 2791
          2792 2793 2794 2795 2796 2797
          2798 2799 2800 2801 2802 2803
          2804 2805 2806 2807 2808 2809
          2810 2811 2812 2813 2814 2815
          2816 2817 2818 2819 2820 2821
          2822 2823 2824 2825 2826 2827
          2828 2829 2830 2831 2832 2833
          2834 2835 2836 2837 2843 2877
          2878 2879 2883 2887 2889 2890
          2891 2892 2893 2894 2895 2896
          2897 2898 2899 2900 2901 2902
          2903 2904 2905 2906 2907 2908
          2909 2910 2911 2912 2913 2914
          2915 2916 2917 2918 2919 2920
          2921 2922 2923 2924 2925 2926
          2927 2928 2929 2930 2931 2932
          2933 2934 2935 2936 2937 2938
          2939 2940 2941 2942 2943 2944
          2945 2946 2947 2948 2949 2950
          2951 2952 2953 2954 2955 2956
          2957 2958 2959 2960 2961 2962
          2963 2964 2965 2966 2967 2968
          2969 2970 2971 2972 2973 2974
          2975 2976 2977 2978 2979 2980
          2981 2982 2983 2984 2985 2986
          2987 2988 2989 2990 2991 2992
          2993 2994 2995 2996 2997 2998
          2999 3000 3001 3002 3003 3004
          3005 3006 3007 3008 3009 3010
          3011 3012 3013 3014 3015 3016
          3017 3018 3019 3020 3021 3022
          3023 3024 3025 3026 3027 3028
          3029 3030 3031 3032 3033 3034
          3035 3036 3037 3038 3039 3040
          3041 3042 3043 3044 3045 3046
          3047 3048 3049 3050 3051 3052
          3053 3054 3055 3056 3057 3058
          3059 3060 3061 3062 3063 3064
          3065 3066 3067 3068 3069 3070
          3071 3072 3073 3074 3075 3076
          3077 3078 3079 3080 3081 3082
          3083 3084 3085 3086 3087 3088
          3089 3090 3091 3092 3093 3094
          3095 3096 3097 3098 3099 3100
          3101 3102 3103 3104 3105 3106
          3107 3108 3109 3110 3111 3112
          3113 3114 3115 3116 3117 3118
          3119 3120 3122 3123 3124 3125
          3126 3127 3128 3129 3130 3131
          3132 3133 3134 3135 3136 3137
          3138 3139 3140 3141 3142 3143
          3144 3145 3146 3147 3148 3149
          3150 3151 3152 3154 3157 3162
          3163 3164 3165 3166 3167 3168
          3169 3170 3171 3172 3173 3174
          3176 3177 3178 3179 3180 3181
          3182 3183 3184 3185 3186 3187
          3191 3192 3193 3194 3195 3196
          3197 3198 3199 3200 3204 3219
          3220 3221 3222 3223 3224 3225
          3226 3228 3259 3261 3307 3315
          3316 3317 3355 3359 3377 3385
          3387 3389 3390 3391 3511 3515
          3516 3520 3551 3552 3553 3554
          3555 3556 3557 3558 3559 3560
          3561 3562 3563 3564 3565 3566
          3567 3568 3569 3570 3571 3572
          3573 3574 3575 3576 3577 3578
          3579 3580 3581 3582 3583 3584
          3585 3586 3587 3588 3589 3590
          3591 3602 3604 3606 3607 3608
          3609 3610 3611 3612 3613 3614
          3615 3616 3617 3618 3619 3620
          3621 3622 3623 3624 3625 3626
          3627 3628 3629 3630 3631 3632
          3633 3634 3635 3636 3637 3638
          3639 3640 3641 3642 3653 3654
          3655 3656 3657 3658 3659 3660
          3661 3662 3663 3664 3665 3666
          3667 3668 3669 3670 3671 3672
          3673 3674 3675 3676 3677 3678
          3679 3680 3681 3682 3683 3684
          3685 3686 3687 3688 3689 3690
          3691 3692 3693 3694 3695 3696
          3697 3698 3699 3700 3701 3702
          3703 3704 3705 3706 3707 3708
          3709 3710 3711 3712 3713 3714
          3715 3716 3717 3718 3719 3720
          3721 3722 3723 3724 3725 3726
          3727 3728 3729 3730 3754 3755
          3758 3759 3760 3761 3762 3763
          3764 3765 3768 3769 3772 3774
          3780 3781 3817 3818 3821 3822
          3824 3825 3826 3827 3828 3829
          3830 3831 3832 3833 3858 3859
          3860 3861 3862 3863 3864 3865
          3866 3867 3868 3869 3870 3871
          3872 3873 3874 3875 3876 3877
          3878 3879 3880 3881 3882 3883
          3884 3885 3886 3887 3888 3889
          3890 3891 3892 3893 3894 3895
          3896 3897 3898 3899 3900 3901
          3902 3903 3904 3905 3906 3907
          3908 3909 3910 3911 3912 3913
          3914 3915 3916 3917 3918 3919
          3920 3921 3922 3923 3924 3925
          3926 3927 3928 3929 3930 3931
          3932 3933 3934 3935 3936 3937
          3938 3939 3940 3941 3942 3943
          3944 3945 3946 3947 3948 3949
          3950 3951 3952 3953 3954 3955
          3956 3957 3958 3959 3960 3961
          3962 3963 3964 3965 3966 3967
          3968 3969 3970 3971 3972 3973
          3974 3975 3976 3977 3978 3979
          3980 3981 3982 3983 3984 3985
          3986 3987 3992 3993 3994 3998
          3999 4000 4001 4002 4003 4004
          4005 4006 4007 4008 4009 4010
          4011 4012 4013 4014 4015 4016
          4017 4018 4019 4020 4021 4022
          4023 4024 4025 4026 4027 4028
          4029 4030 4031 4032 4033 4034
          4035 4036 4037 4038 4039 4040
          4041 4042 4043 4044 4045 4046
          4047 4048 4049 4050 4051 4052
          4053 4054 4055 4056 4057 4058
          4059 4060 4061 4062 4063 4064
          4065 4066 4067 4068 4069 4070
          4071 4072 4073 4075 4086 4087
          4088 4089 4090 4091 4092 4100
          4101 4104 4106 4107 4109 4120
          4121 4122 4123 4124 4126 4134
          4135 4136 4137 4138 4139 4140
          4144 4145 4146 4147 4148 4149
          4150 5667 5668 5669 5670 5671
          5672 5673 5684 5685 5686 5687
          5688 5689 5690 5691 5692 5693
          5694 5695 5696 5697 5698 5699
          5700 5701 5702 5703 5728 5729
          5730 5731 5732 5733 5734 5735
          5736 5737 5738 5739 5740 5741
          5742 5743 5744 5759 5760 5761
          5762 5763 5764 5765 5766 5767
          5768 5769 5770 5771 5772 5773
          5774 5775 5776 5777 5778 6131
          6132 6133 6134 6135 6136 6137
          6138 6139 6140 6141 6142 6143
          6144 6145 6146 6147 6148 6149
          6150 6151 6152 6153 6154 6155
          6156 6157 6158 6159 6160 6161
          6162 6163 6164 6165 6166 6167
          6168 6169 6170 6171 6172 6173
          6174 6175 6176 6177 6178 6179
          6180 6181 6182 6183 6184 6185
          6186 6187 6188 6189 6190 6191
          6192 6193 6194 6195 6196 6197
          6198 6199 6200 6201 6202 6203
          6204 6205 6206 6207 6208 6209
          6210 6211 6212 6213 6214 6215
          6216 6217 6218 6219 6220 6221
          6222 6223 6224 6225 6226 6227
          6228 6229 6230 6231 6232 6233
          6234 6235 6236 6237 6238 6239
          6240 6241 6242 6243 6244 6245
          6246 6247 6248 6249 6250 6251
          6252 6253 6254 6255 6256 6257
          6258 6259 6260 6261 6262 6263
          6264 6265 6266 6267 6268 6269
          6270 6271 6272 6273 6274 6275
          6276 6277 6278 6279 6280 6281
          6282 6283 6284 6285 6286 6287
          6288 6289 6290 6291 6292 6293
          6294 6295 6296 6297 6298 6299
          6300 6301 6302 6303 6304 6305
          6306 6307 6308 6309 6310 6311
          6312 6313 6314 6315 6316 6317
          6318 6319 6320 6321 6322 6323
          6324 6325 6326 6327 6328 6329
          6330 6331 6332 6333 6334 6335
          6336 6337 6338 6339 6340 6341
          6342 6343 6344 6345 6346 6347
          6348 6349 6350 6351 6352 6353
          6354 6355 6356 6357 6358 6359
          6360 6361 6362 6363 6364 6365
          6366 6367 6368 6369 6370 6371
          6372 6373 6374 6375 6376 6377
          6378 6379 6380 6381 6382 6383
          6384 6385 6386 6387 6388 6389
          6390 6391 6392 6393 6394 6395
          6396 6397 6398 6399 6400 6401
          6402 6403 6404 6405 6406 6407
          6408 6409 6410 6411 6412 6413
          6414 6415 6416 6417 6418 6419
          6420 6421 6422 6423 6424 6425
          6426 6427 6428 6429 6430 6431
          6432 6433 6434 6435 6436 6437
          6438 6439 6440 6441 6442 6443
          6444 6445 6446 6447 6448 6449
          6450 6451 6452 6453 6454 6455
          6456 6457 6458 6459 6460 6461
          6462 6463 6464 6465 6466 6467
          6468 6469 6470 6471 6472 6473
          6474 6475 6476 6477 6478 6479
          6480 6481 6482 6483 6484 6485
          6486 6487 6488 6489 6490 6491
          6492 6493 6494 6495 6496 6497
          6498 6499 6500 6501 6502 6503
          6504 6505 6506 6507 6508 6509
          6510 6511 6512 6513 6514 6515
          6516 6517 6518 6519 6520 6521
          6522 6527 6528 6529 6547 6548
          6549 6550 6551 6552 6553 6554
          6555 6556 6567 6568 6569 6570
          6571 6572 6573 6581 6582 6583
          6584 6585 6586 6587 6588 6589
          6590 6601 6602 6603 6604 6605
          6606 6607 6683 6684 6685 6689
          6690 6691 6692 6693 6694 6695
          1962 1963 2082 2083 2121 2203
          2241 2151 2271 2361 2391 2468
          2523 2469 2524 2527 2528 2530
          2532 2718 2719 2720 2721 2724
          2725 2726 2474 2756 2757 2758
          2761 2764 2765 2461 2462 2770
          2838 2839 2840 2841 2842 2844
          2845 3603 3605 2697 3819 3782
          3820 3823 3513 3517
        </DataArray>
        <DataArray type="Float64" Name="bounds" format="ascii" RangeMin="0" RangeMax="0">
          0 0 0 0 0 0
          0 0 0 0 0 0
          0 0 0 0 0 0
          0 0 0 0 0 0
          0 0 0 0 0 0
          0 0 0 0 0 0
          0 0 0 0 0 0
          0 0 0 0 0 0
          0 0 0 0 0 0
          0 0 0 0 0 0
          0 0 0 0 0 0
          0 0 0 0 0 0
          0 0 0 0 0 0
          0 0 0 0 0 0
          0 0 0 0 0 0
          0 0 0 0 0 0
          0 0 0 0 0 0
          0 0 0 0 0 0
          0 0 0 0 0 0
          0 0 0 0 0 0
          0 0 0 0 0 0
          0 0 0 0 0 0
          0 0 0 0 0 0
          0 0 0 0 0 0
          0 0 0 0 0 0
          0 0 0 0 0 0
          0 0 0 0 0 0
          0 0 0 0 0 0
          0 0 0 0 0 0
          0 0 0 0 0 0
          0 0 0 0 0 0
          0 0 0 0 0 0
          0 0 0 0 0 0
          0 0 0 0 0 0
          0 0 0 0 0 0
          0 0 0 0 0 0
          0 0 0 0 0 0
          0 0 0 0 0 0
          0 0 0 0 0 0
          0 0 0 0 0 0
          0 0 0 0 0 0
          0 0 0 0 0 0
          0 0 0 0 0 0
          0 0 0 0 0 0
          0 0 0 0 0 0
          0 0 0 0 0 0
          0 0 0 0 0 0
          0 0 0 0 0 0
          0 0 0 0 0 0
          0 0 0 0 0 0
          0 0 0 0 0 0
          0 0 0 0 0 0
          0 0 0 0 0 0
          0 0 0 0 0 0
          0 0 0 0 0 0
          0 0 0 0 0 0
          0 0 0 0 0 0
          0 0 0 0 0 0
          0 0 0 0 0 0
          0 0 0 0 0 0
          0 0 0 0 0 0
          0 0 0 0 0 0
          0 0 0 0 0 0
          0 0 0 0 0 0
          0 0 0 0 0 0
          0 0 0 0 0 0
          0 0 0 0 0 0
          0 0 0 0 0 0
          0 0 0 0 0 0
          0 0 0 0 0 0
          0 0 0 0 0 0
          0 0 0 0 0 0
          0 0 0 0 0 0
          0 0 0 0 0 0
          0 0 0 0 0 0
          0 0 0 0 0 0
          0 0 0 0 0 0
          0 0 0 0 0 0
          0 0 0 0 0 0
          0 0 0 0 0 0
          0 0 0 0 0 0
          0 0 0 0 0 0
          0 0 0 0 0 0
          0 0 0 0 0 0
          0 0 0 0 0 0
          0 0 0 0 0 0
          0 0 0 0 0 0
          0 0 0 0 0 0
          0 0 0 0 0 0
          0 0 0 0 0 0
          0 0 0 0 0 0
          0 0 0 0 0 0
          0 0 0 0 0 0
          0 0 0 0 0 0
          0 0 0 0 0 0
          0 0 0 0 0 0
          0 0 0 0 0 0
          0 0 0 0 0 0
          0 0 0 0 0 0
          0 0 0 0 0 0
          0 0 0 0 0 0
          0 0 0 0 0 0
          0 0 0 0 0 0
          0 0 0 0 0 0
          0 0 0 0 0 0
          0 0 0 0 0 0
          0 0 0 0 0 0
          0 0 0 0 0 0
          0 0 0 0 0 0
          0 0 0 0 0 0
          0 0 0 0 0 0
          0 0 0 0 0 0
          0 0 0 0 0 0
          0 0 0 0 0 0
          0 0 0 0 0 0
          0 0 0 0 0 0
          0 0 0 0 0 0
          0 0 0 0 0 0
          0 0 0 0 0 0
          0 0 0 0 0 0
          0 0 0 0 0 0
          0 0 0 0 0 0
          0 0 0 0 0 0
          0 0 0 0 0 0
          0 0 0 0 0 0
          0 0 0 0 0 0
          0 0 0 0 0 0
          0 0 0 0 0 0
          0 0 0 0 0 0
          0 0 0 0 0 0
          0 0 0 0 0 0
          0 0 0 0 0 0
          0 0 0 0 0 0
          0 0 0 0 0 0
          0 0 0 0 0 0
          0 0 0 0 0 0
          0 0 0 0 0 0
          0 0 0 0 0 0
          0 0 0 0 0 0
          0 0 0 0 0 0
          0 0 0 0 0 0
          0 0 0 0 0 0
          0 0 0 0 0 0
          0 0 0 0 0 0
          0 0 0 0 0 0
          0 0 0 0 0 0
          0 0 0 0 0 0
          0 0 0 0 0 0
          0 0 0 0 0 0
          0 0 0 0 0 0
          0 0 0 0 0 0
          0 0 0 0 0 0
          0 0 0 0 0 0
          0 0 0 0 0 0
          0 0 0 0 0 0
          0 0 0 0 0 0
          0 0 0 0 0 0
          0 0 0 0 0 0
          0 0 0 0 0 0
          0 0 0 0 0 0
          0 0 0 0 0 0
          0 0 0 0 0 0
          0 0 0 0 0 0
          0 0 0 0 0 0
          0 0 0 0 0 0
          0 0 0 0 0 0
          0 0 0 0 0 0
          0 0 0 0 0 0
          0 0 0 0 0 0
          0 0 0 0 0 0
          0 0 0 0 0 0
          0 0 0 0 0 0
          0 0 0 0 0 0
          0 0 0 0 0 0
          0 0 0 0 0 0
          0 0 0 0 0 0
          0 0 0 0 0 0
          0 0 0 0 0 0
          0 0 0 0 0 0
          0 0 0 0 0 0
          0 0 0 0 0 0
          0 0 0 0 0 0
          0 0 0 0 0 0
          0 0 0 0 0 0
          0 0 0 0 0 0
          0 0 0 0 0 0
          0 0 0 0 0 0
          0 0 0 0 0 0
          0 0 0 0 0 0
          0 0 0 0 0 0
          0 0 0 0 0 0
          0 0 0 0 0 0
          0 0 0 0 0 0
          0 0 0 0 0 0
          0 0 0 0 0 0
          0 0 0 0 0 0
          0 0 0 0 0 0
          0 0 0 0 0 0
          0 0 0 0 0 0
          0 0 0 0 0 0
          0 0 0 0 0 0
          0 0 0 0 0 0
          0 0 0 0 0 0
          0 0 0 0 0 0
          0 0 0 0 0 0
          0 0 0 0 0 0
          0 0 0 0 0 0
          0 0 0 0 0 0
          0 0 0 0 0 0
          0 0 0 0 0 0
          0 0 0 0 0 0
          0 0 0 0 0 0
          0 0 0 0 0 0
          0 0 0 0 0 0
          0 0 0 0 0 0
          0 0 0 0 0 0
          0 0 0 0 0 0
          0 0 0 0 0 0
          0 0 0 0 0 0
          0 0 0 0 0 0
          0 0 0 0 0 0
          0 0 0 0 0 0
          0 0 0 0 0 0
          0 0 0 0 0 0
          0 0 0 0 0 0
          0 0 0 0 0 0
          0 0 0 0 0 0
          0 0 0 0 0 0
          0 0 0 0 0 0
          0 0 0 0 0 0
          0 0 0 0 0 0
          0 0 0 0 0 0
          0 0 0 0 0 0
          0 0 0 0 0 0
          0 0 0 0 0 0
          0 0 0 0 0 0
          0 0 0 0 0 0
          0 0 0 0 0 0
          0 0 0 0 0 0
          0 0 0 0 0 0
          0 0 0 0 0 0
          0 0 0 0 0 0
          0 0 0 0 0 0
          0 0 0 0 0 0
          0 0 0 0 0 0
          0 0 0 0 0 0
          0 0 0 0 0 0
          0 0 0 0 0 0
          0 0 0 0 0 0
          0 0 0 0 0 0
          0 0 0 0 0 0
          0 0 0 0 0 0
          0 0 0 0 0 0
          0 0 0 0 0 0
          0 0 0 0 0 0
          0 0 0 0 0 0
          0 0 0 0 0 0
          0 0 0 0 0 0
          0 0 0 0 0 0
          0 0 0 0 0 0
          0 0 0 0 0 0
          0 0 0 0 0 0
          0 0 0 0 0 0
          0 0 0 0 0 0
          0 0 0 0 0 0
          0 0 0 0 0 0
          0 0 0 0 0 0
          0 0 0 0 0 0
          0 0 0 0 0 0
          0 0 0 0 0 0
          0 0 0 0 0 0
          0 0 0 0 0 0
          0 0 0 0 0 0
          0 0 0 0 0 0
          0 0 0 0
        </DataArray>
        <DataArray type="Float64" Name="gradient_error" format="ascii" RangeMin="4.3759858006969815e-14" RangeMax="6.780503322276637e-8">
          3.179740791773531e-10 2.9832247907340396e-10 1.2072784982305704e-10 1.201593074309254e-10 2.5517325954928228e-11 2.5211270024708007e-11
          7.616170387389011e-10 8.930800934141999e-10 2.1625586986439035e-10 3.2434355505331505e-10 2.857835515951005e-11 5.350931131558101e-11
          6.670249289524468e-10 2.677198217347328e-10 4.807928280870649e-11 2.8267136467020743e-10 1.1196847123153811e-10 1.7080406763233812e-11
          5.85165746013721e-9 1.7573191532995905e-8 9.379624550922267e-10 6.899691226262966e-10 7.943502109835082e-11 4.7636733905692316e-11
          5.042306725673935e-12 7.979010654889783e-10 2.9894773126122565e-10 4.91456106078209e-11 5.686692735727539e-10 2.0549309583174165e-10
          3.489215223263975e-11 1.4990626319120303e-8 1.2911566490942352e-8 2.2554709666921505e-8 3.7679698298686595e-9 6.270558274714966e-10
          2.4066908762518337e-13 8.524875922767361e-10 2.495722036603643e-10 3.3449046253522285e-11 7.018775941146814e-10 2.414286074692501e-10
          4.560294787578314e-11 2.0269963327075523e-8 4.6234343256306164e-8 6.119094483451551e-8 2.0614957103593657e-8 4.2997854514039426e-8
          2.7194112077098124e-9 9.49241369204967e-9 3.969389977683735e-8 3.020872073306041e-8 1.028728472574244e-9 2.829455117630175e-8
          1.7373608512304096e-8 1.0054725796488455e-8 9.495474470882747e-9 1.4429517960612162e-9 2.2775459699892116e-8 2.4251061426336147e-8
          2.5307027227883906e-8 8.604715656171227e-9 3.0835460465640625e-10 1.96311686445902e-10 1.486526936949236e-8 9.029661427294972e-9
          7.675255517951032e-11 4.558618609314198e-9 2.4617888532904356e-9 9.405647755193828e-11 4.2568025271483975e-10 1.175155217123503e-10
          4.18954578841624e-10 4.695707167064156e-8 2.458065065487985e-8 8.017637964986451e-10 1.794976160272659e-11 1.2892590901385369e-11
          3.25207274244692e-12 1.055928596265016e-11 8.292162781516498e-12 2.3754401947653077e-11 2.2270159703078814e-12 7.888921230801713e-10
          1.0821735781904626e-9 1.1573097149689192e-9 2.3405639210593174e-9 3.180547189372094e-10 3.867854819438627e-10 3.0216227914098993e-10
          3.858732174053391e-10 7.078473630215465e-10 1.971117798035869e-10 1.5257273068576669e-9 3.598954263928172e-9 4.829799925862381e-10
          4.695841556696883e-10 7.98076594699627e-11 7.782790500820783e-11 1.7850685184499792e-11 1.526146144913514e-11 3.974271850877854e-11
          8.895029669546137e-11 1.6427636599839208e-11 9.337862777275167e-11 2.7329737917282528e-11 1.381578748821442e-10 6.988893614735955e-12
          5.4795566040161826e-12 2.825208737489171e-12 1.8967417642844762e-12 3.899874947059151e-12 4.93640897771852e-12 1.4063523782298748e-12
          6.8877984943783325e-12 8.833287421405167e-13 5.9729430083778895e-12 5.4235758284028285e-8 3.074682519925524e-8 4.4510771320677704e-8
          5.6817063731863335e-8 2.7607863066573525e-8 4.367981799347215e-8 3.4679242090169245e-8 3.55156145337144e-8 3.23804850740419e-8
          3.113519966526546e-8 4.156725474066154e-8 3.6328692363313946e-8 3.477858712339837e-8 2.84572408574942e-8 2.7411585077075784e-8
          1.8097238520803696e-8 3.195136436196987e-8 3.770839648636132e-8 2.3005234761305634e-8 3.446876313751068e-8 2.6696114995985987e-8
          4.923667730159926e-8 4.076021477344288e-8 2.1533653521816372e-8 5.849737822846034e-8 4.544594434477031e-8 2.149851023716975e-8
          2.5874295670180765e-8 2.3574020319548787e-8 3.037001692894588e-8 4.5537605209220067e-8 5.6346335252976056e-8 2.509619104361311e-8
          1.4558704500992734e-8 2.095837278626011e-8 1.6794587830342745e-8 2.010191646359101e-8 1.1561494638798322e-8 1.3317165503137391e-8
          3.996741723937778e-9 8.074223274364316e-9 1.1216912888121512e-8 3.390836243966494e-9 9.459936071351567e-9 1.167238705644338e-8
          7.336827171932938e-9 1.0877708954472707e-8 2.1581162155374266e-8 1.6022863368203048e-8 6.780503322276637e-8 4.9328933507670825e-8
          1.076014156196201e-8 3.06109643989902e-8 4.1354837510669076e-8 1.3041331555993845e-8 2.735613696169302e-8 2.9303713622394082e-8
          3.570610345961685e-10 3.7301578958047583e-8 4.4587768926892425e-8 3.7785898745793894e-8 8.94910544435061e-9 6.331404567684613e-9
          2.763817127374425e-8 2.859520322668857e-8 3.1661350642756105e-9 2.1839341297842825e-8 5.64417775928391e-9 2.2115471367158367e-8
          1.1884637878032924e-8 7.287816634623613e-10 3.229360925638641e-8 3.863006540585777e-8 8.74544599699401e-9 1.7209257519003965e-8
          6.2182537664515955e-9 2.017327833218111e-8 9.188370271859291e-10 1.2726282359772188e-9 6.538017936003835e-10 1.9483713735561458e-8
          2.8939472106292163e-8 1.605171658178573e-9 4.03276940357658e-9 1.4747692769179295e-8 1.614224406377542e-9 6.40563803538621e-9
          2.9502072889604333e-10 5.466832744130297e-10 3.812844731122285e-10 2.1902218899451995e-8 9.948745411046412e-9 8.20091076029088e-10
          1.94918087323677e-9 1.379767961575924e-9 4.349999328728685e-10 4.1414466861308607e-11 1.02582676438501e-10 2.7055444984865597e-10
          4.258933335995777e-11 7.083153186152081e-11 1.599704972153041e-10 2.810669919136605e-11 2.4919773003781094e-10 1.1332326049083991e-11
          7.567273123354792e-12 2.841391174211883e-12 2.3475121760622918e-12 6.220572160464654e-12 4.327220758140342e-12 9.63942347124947e-13
          1.3813463722795042e-12 4.310336582053957e-13 3.147182971935522e-13 1.5606553981334055e-13 6.66349999108698e-10 6.671972684389949e-10
          9.729459286080326e-10 3.4369915742878784e-9 2.180854302753899e-9 2.1890879980936846e-9 3.383339596131757e-9 2.4097330828374846e-10
          7.761576272946395e-10 7.848324261015399e-10 6.680445377692916e-10 2.1973216934334695e-9 3.329687617975636e-9 7.935072249084402e-10
          2.1022058159118926e-11 2.3172197291370252e-11 9.64299631744423e-11 8.903703645657708e-11 1.273123220450412e-11 3.848353477076366e-11
          3.212471644308034e-11 2.5322336423621578e-11 8.164410973871186e-11 2.5765898115397023e-11 3.6081680474067206e-12 3.98505311281974e-12
          8.737436712604005e-12 8.719309488140092e-12 4.361938178232759e-12 8.70118226367618e-12 7.713980299724504e-10 1.435512311956134e-9
          3.0199291529833754e-9 2.77971206465772e-8 2.2369180665928533e-8 1.818736092786618e-8 2.291546613909227e-8 6.342953393294137e-10
          1.700750875787057e-8 1.3583825389330796e-8 2.2251519750949737e-9 9.248837384380279e-9 1.3821997265121852e-8 6.51308478267922e-9
          3.277422414046136e-8 3.655812014053444e-8 2.305823683255417e-8 3.7324916740520346e-8 1.0509382172423186e-8 1.3971261097081679e-8
          1.647775331056757e-8 1.3560885309305014e-8 3.854518354250878e-8 1.7433140021740172e-8 5.700394841215453e-10 4.712556524264248e-10
          1.1941299563884421e-8 9.421191646038901e-9 3.633384156425527e-10 7.49736622540597e-9 5.883583515286727e-9 3.357540339879026e-10
          4.275750612304382e-9 2.5552290588388126e-9 2.435738897974968e-10 2.1654757738423502e-10 4.1267012154978535e-9 3.2396980831564087e-9
          1.0152058017108115e-10 1.988282401993663e-9 1.5638723879794354e-9 1.6682429270714933e-10 1.3639375793680472e-9 6.511958569708186e-10
          3.522924241360646e-11 4.050954663741938e-11 8.390313849210041e-10 6.541084996164368e-10 1.966149951871962e-11 3.027497159342589e-10
          2.349996564117016e-10 4.2016549029331714e-11 2.7622311323194143e-10 1.0531057818982343e-10 1.5367799306632768e-11 1.2771180909162342e-11
          9.628903660803526e-11 7.654737498378268e-11 6.427501269071885e-12 2.902369700865579e-11 2.2863871960031772e-11 7.402334867909401e-12
          3.570821662277405e-11 1.0572964596653197e-11 3.301544988722708e-12 2.7434354723081653e-12 1.5092697122189617e-12 3.0471659973842194e-8
          2.225302369240845e-8 2.5376968290400335e-8 2.9067698398729784e-8 2.01676392419901e-8 3.299965251544411e-8 3.268700842596973e-8
          2.4226134184625053e-8 2.739089432298003e-8 3.504331344932941e-8 2.6591456152276516e-8 2.9783294018092455e-8 3.0407480238152084e-8
          3.1086199306905235e-8 3.3323649483414466e-8 1.638973460406437e-8 2.1881113841872146e-8 2.3965681219465243e-8 2.961751391357378e-8
          3.835691797114847e-8 3.7649485702412184e-8 2.939646245585767e-8 3.265959624645589e-8 4.0547727717147535e-8 3.276893757364608e-8
          3.607061704238155e-8 3.430083434238318e-8 3.5914357078559776e-8 3.887398941110571e-8 2.0187443342775916e-8 2.6447706120857005e-8
          2.944622502901373e-8 3.46153486139933e-8 2.5161407561963615e-8 2.5092963031992722e-8 2.884016324317974e-8 2.7561640323706813e-8
          2.6262267726395973e-8 3.0273042034635736e-8 1.9104464690374636e-8 2.0642668177326124e-8 2.182650529748455e-8 2.1455527344562294e-8
          2.954294298847204e-8 2.8291714511629897e-8 3.106277045252452e-8 2.205895158406292e-8 2.721932172538308e-8 3.1896996796763206e-8
          2.8118920340072008e-8 3.3624055232471334e-8 1.986963312071515e-8 2.198941231497855e-8 2.240712640703334e-8 3.287870761081844e-8
          3.487182798845373e-8 2.3682737121393308e-8 2.4225276316323675e-8 2.2438043703617143e-8 2.3220000398445717e-8 3.4970647367412974e-8
          3.5640997926838695e-8 3.321950835134027e-8 3.275621375490488e-8 2.132882173733421e-8 3.5956264772892444e-8 3.333673055780177e-8
          1.7613522706864732e-8 2.6611303485670888e-8 2.6628122326885126e-8 2.630465345461275e-8 5.372221956256386e-8 5.120454946820348e-8
          4.7327750749548175e-8 5.528524870198104e-8 4.310562288948689e-8 4.518448186070475e-8 4.376973882810584e-8 3.687161075418364e-8
          4.0144220945805085e-8 4.1936319885227607e-8 4.505540224092134e-8 3.848690998903227e-8 4.2256108209314295e-8 4.6127405275265664e-8
          2.606436597315867e-8 3.31304487198194e-8 3.774773009411039e-8 4.131367720868035e-8 4.828169113432763e-8 5.102910635494349e-8
          4.570443962208875e-8 5.2985642460515164e-8 5.055300858638265e-8 5.5581434318795884e-8 3.6175662680881264e-8 4.365008677254343e-8
          4.068079408576999e-8 5.050385565826856e-8 2.8980097211191856e-8 3.546112153336645e-8 2.977315762581602e-8 3.7402778585216886e-8
          2.005644490934474e-8 2.273741372938844e-8 2.2944901306445624e-8 3.7041515898784605e-8 3.940651228772413e-8 2.4730776972399365e-8
          3.0457436991551366e-8 3.9439731374979585e-8 3.0984966489527927e-8 4.156479761663515e-8 1.969718836769387e-8 2.298246585998616e-8
          2.279385356708845e-8 4.1987981032050174e-8 4.480808227370525e-8 2.5306070399534758e-8 9.643499156805548e-9 1.021108907000729e-8
          1.09106818006916e-8 1.144836649979705e-8 8.970653290170497e-9 1.0264742848213724e-8 6.9764483664736085e-9 7.406399034164099e-9
          7.732161603220361e-9 7.2690739119545706e-9 1.2177864444577651e-8 1.268564392958681e-8 1.1558832406256954e-8 7.836349701854589e-9
          2.1670419391673884e-8 1.988790503009776e-8 3.5836080246696476e-8 3.304437776335655e-8 1.8119307253022393e-8 3.520049391375379e-8
          3.227736986956329e-8 1.5216847100572597e-8 2.566417866933311e-8 2.4648792789638462e-8 6.329159067415562e-8 5.929396019110434e-8
          6.295254204666168e-8 4.758548203986642e-8 1.7671878559061315e-8 1.6057444109330247e-8 3.403556759880981e-8 3.09811639001162e-8
          1.3743875330389445e-8 3.228134706768726e-8 2.9146524757008575e-8 1.195621512633855e-8 2.320546745382634e-8 2.1346161072295536e-8
          5.0483904282317186e-8 5.529671685371523e-8 3.667335439632674e-8 5.051434920791265e-8 7.467378187160616e-9 8.686345595294816e-9
          1.3998236282744091e-8 1.530918913662536e-8 6.225099326762586e-9 1.247285957292703e-8 5.465335781243311e-9 9.512297859258083e-9
          1.0675038519346575e-8 8.265099447592879e-9 3.0856803382404297e-8 3.131129256849283e-8 2.985840613216145e-8 2.094371663067611e-8
          4.2886394580988916e-8 4.73339584239957e-8 4.8195921563118225e-8 4.517425320779192e-8 5.3168981145409724e-8 5.012574425484039e-8
          2.9588747568663e-9 2.1697915739322685e-8 5.45725950435148e-9 4.741153941453674e-8 2.9151051834903605e-8 3.8819631223682076e-8
          8.363071074340473e-9 2.0817749263052654e-8 5.366576419043211e-8 4.7419158053429766e-8 2.608477451366282e-10 6.3125306404556825e-9
          1.2230116379811536e-9 4.0898818161814345e-8 3.1307726450965096e-8 4.381247699671036e-8 4.598207593107024e-8 1.8432121354912884e-8