<?xml version="1.0"?>
<VTKFile type="UnstructuredGrid" version="0.1" byte_order="LittleEndian" header_type="UInt32" compressor="vtkZLibDataCompressor">
  <UnstructuredGrid>
    <Piece NumberOfPoints="1409" NumberOfCells="942">
      <PointData>
        <DataArray type="Int32" Name="libmesh_node_id" format="ascii" RangeMin="2321" RangeMax="10985">
          2450 2458 2460 2650 2651 2655
          2664 2669 2673 2677 2678 2687
          3188 3189 3190 3227 3233 3234
          3235 3238 3262 3268 3269 3272
          3305 3306 3310 3320 3343 3344
          3347 3356 3357 3358 3360 3361
          3362 3363 3364 3365 3366 3367
          3368 3369 3370 3371 3372 3373
          3374 3375 3376 3378 3379 3380
          3381 3382 3383 3384 3386 3392
          3394 3731 3732 3733 3734 3735
          3736 3737 3738 3739 3740 3741
          3742 3743 3744 3745 3746 3747
          3748 3749 3750 3751 3752 3753
          3756 3757 3766 3767 3770 3771
          3773 3775 4389 4390 4391 4392
          4403 4404 4405 4420 4421 4422
          4423 4424 4425 4426 4427 4428
          4429 4430 4431 4432 4433 4434
          4435 4436 4437 4438 4439 4454
          4455 4456 4457 4458 4459 4460
          4461 4462 4463 4464 4465 4466
          4467 4754 4755 4756 4757 4758
          4759 4760 4761 4762 4763 4764
          4765 4766 4767 4768 4769 4770
          4771 4772 4773 4788 4789 4790
          4791 4792 4793 4794 4795 4796
          4797 4798 4799 4800 4801 4816
          4817 4820 4821 4823 4825 4850
          4852 4854 4856 4864 4865 4866
          4867 4868 4869 4870 4871 4872
          4873 4874 4875 4876 4877 4878
          4879 4880 4881 4882 4883 4884
          4885 4886 4887 4888 4889 4890
          4891 4892 4893 4894 4895 4896
          4897 4898 4899 4900 4901 4902
          4903 4904 4905 4906 4907 4908
          4909 4910 4911 4912 4913 4914
          4915 4916 4917 4918 4919 4920
          4921 4922 4923 4924 4925 4926
          4927 4928 4929 4930 4931 4932
          4933 4934 4935 4936 4937 4938
          4939 4940 4941 4942 4943 4944
          4945 4946 4947 4948 4949 4950
          4951 4952 4953 4954 4955 4956
          4957 4958 4959 4960 4961 4962
          4963 4964 4965 4966 4967 4968
          4969 4970 4971 4972 4973 4974
          4975 4976 4977 4978 4979 4980
          4981 4982 4983 4984 4985 4986
          4987 4988 4989 4990 4991 4992
          5003 5004 5005 5006 5007 5008
          5009 5801 5803 5805 5806 5807
          5808 5810 5812 5813 5814 5815
          5817 5818 5819 5821 5822 5823
          5824 5825 5826 5827 5828 5829
          5830 5831 5834 5835 5844 5845
          5846 5847 5848 5849 5850 5851
          5852 5853 5854 5855 5856 5857
          5858 5859 5860 5861 5862 5863
          5864 5865 5866 5867 5868 5869
          5870 5871 5872 5873 5874 5875
          5876 5877 5878 5879 5880 5881
          5882 5883 5884 6011 6012 6013
          6014 6015 6016 6017 6018 6019
          6020 6021 6022 6023 6024 6025
          6026 6027 7673 7679 7680 7681
          7684 7685 7686 7687 7688 7689
          7690 7691 7692 7693 7694 7695
          7696 7697 7698 7700 7704 7705
          7708 7709 7710 7711 7712 7713
          7714 7715 7716 7717 7718 7723
          7724 7725 7728 7733 7734 7735
          7738 7739 7740 7741 7742 7743
          7744 7745 7746 7747 7748 7749
          7750 7751 7752 7753 7754 7755
          7756 7757 7758 7761 7762 7765
          7768 7769 7772 7773 7774 7775
          7776 7777 7778 7779 7780 7781
          7782 7783 7784 7785 7786 7884
          7888 7889 7892 7893 7894 7895
          7896 7897 7898 7899 7900 7901
          7902 7904 7908 7909 7912 7913
          7914 7915 7916 7917 7918 7919
          7920 7921 7922 7925 7926 7929
          7932 7933 7936 7937 7938 7939
          7940 7941 7942 7943 7944 7945
          7946 7947 7948 7949 7950 7953
          7954 7957 7960 7961 7964 7965
          7966 7967 7968 7969 7970 7971
          7972 7973 7974 7975 7976 7977
          7978 9569 9570 9571 9574 9579
          9580 9581 9584 9585 9586 9587
          9588 9589 9590 9591 9592 9593
          9594 9595 9596 9597 9598 9599
          9600 9601 9602 9603 9604 9607
          9608 9611 9614 9615 9618 9619
          9620 9621 9622 9623 9624 9625
          9626 9627 9628 9629 9630 9631
          9632 9637 9638 9639 9642 9647
          9648 9649 9652 9653 9654 9655
          9656 9657 9658 9659 9660 9661
          9662 9663 9664 9665 9666 9667
          9668 9669 9670 9671 9672 9674
          9675 9676 9678 9679 9680 9681
          9682 9683 9684 9685 9686 9687
          9688 9689 9690 9691 9692 9693
          9694 9695 9696 9697 9698 9699
          9700 9815 9816 9819 9822 9823
          9826 9827 9828 9829 9830 9831
          9832 9833 9834 9835 9836 9837
          9838 9839 9840 9843 9844 9847
          9850 9851 9854 9855 9856 9857
          9858 9859 9860 9861 9862 9863
          9864 9865 9866 9867 9868 9870
          9871 9872 9874 9875 9876 9877
          9878 9879 9880 9881 9882 9883
          9884 9885 9886 9887 9888 9889
          9890 9891 9892 9893 9894 9895
          9896 9898 9899 9900 9902 9903
          9904 9905 9906 9907 9908 9909
          9910 9911 9912 9913 9914 9915
          9916 9917 9918 9919 9920 9921
          9922 9923 9924 10050 10051 10052
          10055 10066 10067 10068 10069 10070
          10071 10072 10073 10074 10075 10086
          10087 10088 10089 10090 10091 10092
          10100 10101 10102 10103 10104 10105
          10106 10294 10295 10296 10297 10298
          10299 10300 10308 10309 10310 10311
          10312 10313 10314 10322 10323 10324
          10325 10326 10327 10328 10336 10337
          10338 10339 10340 10341 10342 10406
          10407 10408 10409 10410 10411 10412
          10413 10414 10415 10416 10417 10418
          10419 10420 10421 10422 10423 10424
          10425 10426 10427 10428 10429 10430
          10431 10432 10433 10434 10435 10436
          10437 10438 10439 10440 10441 10442
          10443 10444 10445 10446 10447 10448
          10449 10450 10451 10452 10453 10454
          10455 10456 10457 10458 10459 10460
          10461 10462 10463 10464 10465 10466
          10467 10468 10469 10470 10471 10472
          10473 10474 10475 10476 10477 10478
          10479 10480 10481 10482 10483 10484
          10485 10486 10487 10488 10489 10490
          10491 10492 10493 10494 10495 10496
          10497 10498 10499 10500 10501 10502
          10503 10504 10505 10506 10507 10508
          10509 10510 10511 10512 10513 10514
          10515 10516 10517 10518 10519 10520
          10521 10522 10523 10524 10525 10526
          10527 10528 10529 10530 10531 10532
          10533 10534 10535 10536 10537 10538
          10539 10540 10541 10542 10543 10544
          10545 10546 10547 10548 10549 10550
          10551 10552 10553 10554 10555 10556
          10557 10558 10559 10560 10561 10562
          10563 10564 10565 10566 10567 10568
          10569 10570 10571 10572 10573 10574
          10575 10576 10577 10578 10579 10580
          10581 10582 10583 10584 10585 10586
          10587 10588 10589 10590 10591 10592
          10593 10594 10595 10596 10597 10598
          10599 10600 10601 10602 10603 10604
          10605 10606 10607 10608 10609 10610
          10611 10612 10613 10614 10615 10616
          10617 10618 10619 10620 10621 10622
          10623 10624 10625 10626 10627 10628
          10629 10630 10631 10632 10633 10634
          10635 10636 10637 10638 10639 10640
          10641 10642 10643 10644 10645 10646
          10647 10648 10649 10650 10651 10652
          10653 10654 10655 10656 10657 10658
          10659 10660 10661 10662 10663 10664
          10665 10666 10667 10668 10669 10670
          10671 10672 10673 10674 10675 10676
          10677 10678 10679 10680 10681 10682
          10683 10684 10685 10686 10687 10688
          10689 10690 10691 10692 10693 10694
          10695 10696 10697 10698 10699 10700
          10701 10702 10703 10704 10705 10706
          10707 10708 10709 10710 10711 10712
          10713 10714 10715 10716 10717 10718
          10719 10720 10721 10722 10723 10724
          10725 10726 10727 10728 10729 10730
          10731 10732 10733 10734 10735 10736
          10737 10738 10739 10740 10741 10742
          10743 10744 10745 10746 10747 10748
          10749 10750 10751 10752 10753 10754
          10755 10756 10757 10758 10759 10760
          10761 10762 10763 10764 10765 10766
          10767 10768 10769 10770 10771 10772
          10773 10774 10775 10776 10777 10778
          10779 10780 10781 10782 10783 10784
          10785 10786 10787 10788 10789 10790
          10791 10792 10793 10794 10795 10796
          10797 10798 10799 10800 10801 10802
          10803 10804 10805 10806 10807 10808
          10809 10810 10811 10812 10813 10814
          10815 10816 10817 10818 10819 10820
          10821 10822 10823 10824 10825 10826
          10827 10828 10829 10830 10831 10832
          10833 10834 10835 10836 10837 10838
          10839 10840 10841 10842 10843 10844
          10845 10846 10847 10848 10849 10850
          10851 10852 10853 10854 10855 10856
          10857 10858 10859 10860 10861 10862
          10863 10864 10865 10866 10867 10868
          10869 10870 10871 10872 10873 10874
          10875 10876 10877 10878 10879 10880
          10881 10882 10883 10884 10885 10886
          10887 10888 10889 10890 10891 10892
          10893 10903 10924 10925 10926 10927
          10928 10929 10930 10933 10934 10937
          10938 10939 10940 10941 10942 10943
          10944 10945 10946 10947 10948 10949
          10950 10951 10952 10953 10954 10955
          10956 10957 10958 10959 10960 10961
          10962 10963 10964 10967 10968 10971
          10972 10973 10974 10975 10976 10977
          10978 10979 10980 10981 10982 10983
          10984 10985 2670 2672 2455 2674
          2671 2676 2675 2635 2638 2640
          2679 2321 2680 2684 2681 2685
          3226 3228 3259 3260 3261 3263
          3264 3265 2617 3355 3187 3173
          3359 2445 3377 3385 3389 3390
          2824 2825 3581 3579 2649 2834
          3586 2663 3626 3624 3631 3630
          3634 2689 3640 3224 3225 3727
          3725 3730 3729 3726 3754 3307
          3755 3758 3316 3760 3768 3769
          3772 3774 5735 5736 5742
        </DataArray>
        <DataArray type="Float64" Name="bounds" format="ascii" RangeMin="0" RangeMax="0">
          0 0 0 0 0 0
          0 0 0 0 0 0
          0 0 0 0 0 0
          0 0 0 0 0 0
          0 0 0 0 0 0
          0 0 0 0 0 0
          0 0 0 0 0 0
          0 0 0 0 0 0
          0 0 0 0 0 0
          0 0 0 0 0 0
          0 0 0 0 0 0
          0 0 0 0 0 0
          0 0 0 0 0 0
          0 0 0 0 0 0
          0 0 0 0 0 0
          0 0 0 0 0 0
          0 0 0 0 0 0
          0 0 0 0 0 0
          0 0 0 0 0 0
          0 0 0 0 0 0
          0 0 0 0 0 0
          0 0 0 0 0 0
          0 0 0 0 0 0
          0 0 0 0 0 0
          0 0 0 0 0 0
          0 0 0 0 0 0
          0 0 0 0 0 0
          0 0 0 0 0 0
          0 0 0 0 0 0
          0 0 0 0 0 0
          0 0 0 0 0 0
          0 0 0 0 0 0
          0 0 0 0 0 0
          0 0 0 0 0 0
          0 0 0 0 0 0
          0 0 0 0 0 0
          0 0 0 0 0 0
          0 0 0 0 0 0
          0 0 0 0 0 0
          0 0 0 0 0 0
          0 0 0 0 0 0
          0 0 0 0 0 0
          0 0 0 0 0 0
          0 0 0 0 0 0
          0 0 0 0 0 0
          0 0 0 0 0 0
          0 0 0 0 0 0
          0 0 0 0 0 0
          0 0 0 0 0 0
          0 0 0 0 0 0
          0 0 0 0 0 0
          0 0 0 0 0 0
          0 0 0 0 0 0
          0 0 0 0 0 0
          0 0 0 0 0 0
          0 0 0 0 0 0
          0 0 0 0 0 0
          0 0 0 0 0 0
          0 0 0 0 0 0
          0 0 0 0 0 0
          0 0 0 0 0 0
          0 0 0 0 0 0
          0 0 0 0 0 0
          0 0 0 0 0 0
          0 0 0 0 0 0
          0 0 0 0 0 0
          0 0 0 0 0 0
          0 0 0 0 0 0
          0 0 0 0 0 0
          0 0 0 0 0 0
          0 0 0 0 0 0
          0 0 0 0 0 0
          0 0 0 0 0 0
          0 0 0 0 0 0
          0 0 0 0 0 0
          0 0 0 0 0 0
          0 0 0 0 0 0
          0 0 0 0 0 0
          0 0 0 0 0 0
          0 0 0 0 0 0
          0 0 0 0 0 0
          0 0 0 0 0 0
          0 0 0 0 0 0
          0 0 0 0 0 0
          0 0 0 0 0 0
          0 0 0 0 0 0
          0 0 0 0 0 0
          0 0 0 0 0 0
          0 0 0 0 0 0
          0 0 0 0 0 0
          0 0 0 0 0 0
          0 0 0 0 0 0
          0 0 0 0 0 0
          0 0 0 0 0 0
          0 0 0 0 0 0
          0 0 0 0 0 0
          0 0 0 0 0 0
          0 0 0 0 0 0
          0 0 0 0 0 0
          0 0 0 0 0 0
          0 0 0 0 0 0
          0 0 0 0 0 0
          0 0 0 0 0 0
          0 0 0 0 0 0
          0 0 0 0 0 0
          0 0 0 0 0 0
          0 0 0 0 0 0
          0 0 0 0 0 0
          0 0 0 0 0 0
          0 0 0 0 0 0
          0 0 0 0 0 0
          0 0 0 0 0 0
          0 0 0 0 0 0
          0 0 0 0 0 0
          0 0 0 0 0 0
          0 0 0 0 0 0
          0 0 0 0 0 0
          0 0 0 0 0 0
          0 0 0 0 0 0
          0 0 0 0 0 0
          0 0 0 0 0 0
          0 0 0 0 0 0
          0 0 0 0 0 0
          0 0 0 0 0 0
          0 0 0 0 0 0
          0 0 0 0 0 0
          0 0 0 0 0 0
          0 0 0 0 0 0
          0 0 0 0 0 0
          0 0 0 0 0 0
          0 0 0 0 0 0
          0 0 0 0 0 0
          0 0 0 0 0 0
          0 0 0 0 0 0
          0 0 0 0 0 0
          0 0 0 0 0 0
          0 0 0 0 0 0
          0 0 0 0 0 0
          0 0 0 0 0 0
          0 0 0 0 0 0
          0 0 0 0 0 0
          0 0 0 0 0 0
          0 0 0 0 0 0
          0 0 0 0 0 0
          0 0 0 0 0 0
          0 0 0 0 0 0
          0 0 0 0 0 0
          0 0 0 0 0 0
          0 0 0 0 0 0
          0 0 0 0 0 0
          0 0 0 0 0 0
          0 0 0 0 0 0
          0 0 0 0 0 0
          0 0 0 0 0 0
          0 0 0 0 0 0
          0 0 0 0 0 0
          0 0 0 0 0 0
          0 0 0 0 0 0
          0 0 0 0 0 0
          0 0 0 0 0 0
          0 0 0 0 0 0
          0 0 0 0 0 0
          0 0 0 0 0 0
          0 0 0 0 0 0
          0 0 0 0 0 0
          0 0 0 0 0 0
          0 0 0 0 0 0
          0 0 0 0 0 0
          0 0 0 0 0 0
          0 0 0 0 0 0
          0 0 0 0 0 0
          0 0 0 0 0 0
          0 0 0 0 0 0
          0 0 0 0 0 0
          0 0 0 0 0 0
          0 0 0 0 0 0
          0 0 0 0 0 0
          0 0 0 0 0 0
          0 0 0 0 0 0
          0 0 0 0 0 0
          0 0 0 0 0 0
          0 0 0 0 0 0
          0 0 0 0 0 0
          0 0 0 0 0 0
          0 0 0 0 0 0
          0 0 0 0 0 0
          0 0 0 0 0 0
          0 0 0 0 0 0
          0 0 0 0 0 0
          0 0 0 0 0 0
          0 0 0 0 0 0
          0 0 0 0 0 0
          0 0 0 0 0 0
          0 0 0 0 0 0
          0 0 0 0 0 0
          0 0 0 0 0 0
          0 0 0 0 0 0
          0 0 0 0 0 0
          0 0 0 0 0 0
          0 0 0 0 0 0
          0 0 0 0 0 0
          0 0 0 0 0 0
          0 0 0 0 0 0
          0 0 0 0 0 0
          0 0 0 0 0 0
          0 0 0 0 0 0
          0 0 0 0 0 0
          0 0 0 0 0 0
          0 0 0 0 0 0
          0 0 0 0 0 0
          0 0 0 0 0 0
          0 0 0 0 0 0
          0 0 0 0 0 0
          0 0 0 0 0 0
          0 0 0 0 0 0
          0 0 0 0 0 0
          0 0 0 0 0 0
          0 0 0 0 0 0
          0 0 0 0 0 0
          0 0 0 0 0 0
          0 0 0 0 0 0
          0 0 0 0 0 0
          0 0 0 0 0 0
          0 0 0 0 0 0
          0 0 0 0 0 0
          0 0 0 0 0 0
          0 0 0 0 0 0
          0 0 0 0 0 0
          0 0 0 0 0 0
          0 0 0 0 0 0
          0 0 0 0 0 0
          0 0 0 0 0 0
          0 0 0 0 0 0
          0 0 0 0 0 0
          0 0 0 0 0
        </DataArray>
        <DataArray type="Float64" Name="gradient_error" format="ascii" RangeMin="8.21542872112353e-13" RangeMax="3.422250313109842e-8">
          1.4313932681171052e-10 6.742734342157122e-11 2.1567015135350215e-11 2.538783027023449e-9 4.74268412258464e-11 7.2924014364074495e-9
          1.9397650706893972e-11 2.2088528056217044e-11 2.932334470651189e-11 4.6516778508368035e-10 1.7050890645127154e-11 3.6288841663278766e-12
          3.093918348033938e-9 2.2480342488778946e-9 3.781304343737354e-9 8.02634443658768e-9 1.8402056470944726e-10 1.1898807871540327e-10
          6.803686968597057e-11 6.85072521153029e-11 5.5841677416726175e-9 6.347522532670062e-11 3.6042313697007804e-11 1.0860089173083806e-10
          4.022074304442677e-11 4.4441740239036534e-11 3.968722102632693e-11 8.56818040196396e-12 2.0230955399097045e-11 1.0472630013384033e-11
          4.030217705575913e-11 2.5903199410883463e-9 6.075170737586753e-10 1.1276742501582994e-9 1.5348363541224307e-9 3.059925254355193e-10
          3.175759237682906e-9 1.3994687873841998e-9 1.9015815912536305e-9 5.245672634155448e-11 1.7942381309485958e-11 3.4017553055516923e-11
          1.0746196883474914e-11 4.3177473080505445e-11 2.8074375274725443e-11 1.3622220510862075e-11 1.3972909367933717e-11 7.456729621285989e-12
          3.4656238583015856e-11 2.886150207101808e-11 7.30994668147316e-12 5.779484657896628e-12 7.624012421678139e-12 6.306783141939125e-12
          4.477169807939961e-12 4.027321393654957e-12 3.4324188638565138e-12 8.014821941936028e-12 4.816485017313432e-12 2.6176238971892235e-12
          1.668984994657412e-12 6.338780021790028e-11 5.82910435829456e-11 2.705223984441239e-11 3.6695115873130836e-11 3.279105426385262e-11
          5.979822756407557e-11 2.3677233913735087e-11 3.4534219631712737e-11 4.3042807879924943e-11 3.612596060671238e-11 5.155139612813715e-11
          2.6100631719068334e-11 3.196481959940759e-11 1.2158410480731496e-11 1.4413775404302399e-11 2.0842636856016567e-11 2.500303043541058e-11
          8.863702362699284e-12 3.782900747974686e-11 1.66691403278733e-11 2.916342401480459e-11 1.1998584595781923e-11 2.982272087285654e-11
          6.738532328569435e-12 1.0280011603629726e-11 4.895006553772949e-12 5.7925269176949895e-12 2.9364287408740684e-12 2.8026092286621385e-12
          6.69004728161703e-12 2.668789716450208e-12 6.503362423584181e-10 1.2086536233898744e-9 6.174101396415099e-10 1.8284233373672892e-9
          2.5074643630480252e-9 1.2630648761034576e-9 2.838271537358433e-9 4.113133546537074e-10 6.609809309672399e-10 1.365762522239777e-10
          8.045127798693917e-11 2.1364864860894294e-10 3.356173203144526e-10 3.651007273343697e-11 1.0100058175492827e-9 1.4828375663701536e-10
          5.075987628403291e-10 9.273155173995912e-11 5.875252231865047e-11 6.631724782898551e-11 4.4408026258943006e-11 4.474173967350038e-11
          2.5706369225591607e-11 2.4593191351185716e-11 1.1477653636041647e-10 8.999086513988265e-11 4.720426883817216e-11 1.3952826333668237e-9
          2.3062004292936517e-10 6.929341887894598e-10 9.390398836050494e-11 1.5853262443921265e-9 2.6999401547514264e-10 7.864951079463452e-10
          1.8644759957749695e-10 1.5082369729875537e-10 7.264189038959137e-11 5.697268499816565e-11 2.2117366980350103e-10 1.8082376133979643e-10
          8.51300462453886e-11 4.7583896439064696e-11 3.322692176656299e-11 3.371720508953852e-11 2.439226815593418e-11 3.644943777617485e-11
          2.384123118828436e-11 1.7183065087012206e-11 6.951655599258037e-11 5.258081440762527e-11 2.7248840430030966e-11 2.3504718407283926e-11
          1.753892297537929e-11 1.6056578646139217e-11 1.2339340963104944e-11 1.7894537520311728e-11 1.2127621670177405e-11 8.395942771052774e-12
          3.887825869369676e-11 2.808533525606985e-11 1.471765185731091e-11 1.1982985041035636e-10 9.307815004389497e-11 4.4102012829838983e-11
          3.347487204231225e-11 1.4506178640717304e-10 1.1370792409261482e-10 5.265654390210184e-11 7.059212512396766e-11 5.224659708361397e-11
          2.486651090765471e-11 1.8061881754251404e-11 8.698456978499315e-11 6.49076464220132e-11 3.017753256689104e-11 1.0716704757856861e-11
          8.490807281231337e-12 8.233058045468289e-12 5.679903094791692e-12 1.9817000561799678e-11 7.284635150438213e-12 3.77223004372696e-11
          1.2820054495515314e-11 4.722677770618634e-11 1.579546935828333e-11 1.505690857754396e-10 2.4663967890634027e-10 1.218684249217832e-10
          3.406902106728281e-10 4.2885352875712115e-10 2.092334139252157e-10 4.716726511150168e-10 5.936664052649922e-11 7.067275413354198e-11
          5.56883969283217e-11 7.577340323612958e-11 1.0445503867388773e-10 1.4284270325007506e-10 4.618923597745447e-11 2.8464251581376148e-11
          7.074483254604793e-11 8.282507220022875e-11 3.4616770366464866e-11 1.882434532813853e-10 2.5061186236077743e-11 9.661010416902278e-11
          2.923967037019496e-11 1.8860888304301354e-11 2.8888324561633746e-11 1.9772399879364505e-11 2.6510083431162385e-11 2.2162569627995577e-11
          1.5472807051902922e-11 1.7991517427607487e-11 1.3396050656098431e-11 1.1799282212632691e-11 2.385136565957207e-10 3.5220169499961245e-11
          1.1384663090526816e-10 1.2571755786582302e-11 2.6307378969901987e-10 3.994253037157723e-11 1.2452773007987592e-10 2.6180002449439637e-11
          1.9930245128705075e-11 8.899366388625904e-12 8.75238060759886e-12 3.001650562426022e-11 2.3042281817950214e-11 1.0027385132710988e-11
          4.250669544597907e-11 4.434584266762035e-11 2.0214951715040444e-11 1.3425112370248769e-11 3.3924401011191293e-11 4.106164877080018e-11
          2.1355583818268256e-11 4.755963296622333e-11 1.442361574842171e-11 4.3912503746222905e-11 1.2805278036934258e-11 8.717383223223695e-12
          1.1310979602115052e-11 8.6137376648146e-12 1.079882997416745e-11 1.3642285159016403e-11 9.349571519769271e-12 9.454755546836482e-12
          6.6584324155139155e-12 1.4774897396376152e-11 3.4866802697053244e-11 2.06798679877945e-11 2.5112620897657278e-11 1.488209539406496e-11
          1.4129518578544579e-11 1.1101662792442979e-11 7.900121692614956e-12 9.919581804206907e-12 7.232188509046642e-12 1.0205747328143063e-11
          1.7583897078503608e-11 1.0431700261029045e-11 1.2060957209043751e-11 8.283903672753502e-12 6.9805532382506434e-12 5.3875070261908014e-12
          5.553862668215628e-12 5.171022978103701e-12 4.6492160924283865e-12 4.999861457370489e-12 1.504033808890609e-11 1.1158776311278817e-11
          8.744236516385075e-12 6.328362806153465e-12 1.7522421947246466e-11 1.3097626932830353e-11 5.521405509002463e-12 8.120704138873677e-12
          5.780448745372962e-12 4.431353836795253e-12 3.741118778883748e-12 9.602414461597485e-12 6.8860906013683895e-12 2.8733208672737027e-12
          1.0651410490658785e-11 8.719484499241299e-12 7.688353894827036e-12 6.310126306246453e-12 5.1767316451285294e-12 6.675303149861705e-12
          4.860710905213751e-12 4.808397885798327e-12 3.4418331556835284e-12 7.425516811692538e-12 5.338964922119995e-12 4.410718965790557e-12
          4.052043620780046e-12 3.7706907081705015e-12 2.8855099253507737e-12 3.4494609753261982e-12 2.4103852509366793e-12 2.4022258860789986e-12
          3.1789888671156215e-12 3.669643951272026e-12 8.069540569839892e-12 6.719020327500883e-12 5.312748444712592e-12 4.435769885542963e-12
          4.760454802611069e-12 6.768234494871316e-12 4.483165509263175e-12 4.252034732611486e-12 2.8355171961095664e-12 4.747426061008971e-12
          4.0221707570177434e-12 2.738083449066142e-12 3.2870539403520833e-12 2.225331742503666e-12 4.827250626807317e-12 3.3091551368426528e-12
          3.8518551812642006e-12 1.650537483745714e-10 2.4377585134657785e-10 1.6204915935199915e-10 9.406220173597338e-11 1.341080249727343e-10
          8.460943348160905e-11 1.0875330960868405e-10 7.660661826825447e-11 3.596875018989475e-11 5.529430080091565e-11 4.408451038547273e-11
          5.4385678710269915e-11 2.142726546096354e-11 3.826692822239177e-11 3.671092126061331e-11 2.5532078447721697e-11 1.462704715300937e-11
          2.6487900202369204e-11 9.799270642311991e-12 1.7970914625616754e-11 1.0855452075673352e-11 1.7601492116999516e-11 1.1976931278575497e-11
          6.495372653154721e-12 1.1958419518925313e-11 4.879078957750209e-12 8.016832460492746e-12 3.5705307569001844e-11 4.4433241795522955e-11
          3.468818058791031e-11 2.906294483754327e-11 3.652509619152202e-11 1.7881434752749258e-11 2.2884063959849044e-11 2.1257254020151245e-11
          2.544763112357819e-11 1.2959696975998174e-11 1.13587485554702e-11 1.4482507623948509e-11 7.841402496635499e-12 1.0033290831283437e-11
          7.258881475081882e-12 8.173434250880065e-12 5.5307014823728776e-12 5.297805737877512e-12 7.0463929511598715e-12 3.631351703177949e-12
          4.959482164756209e-12 3.14174787174297e-12 3.785060836984577e-12 2.7280613003170436e-12 2.5598490274752415e-12 3.436029517277178e-12
          2.1450108426051992e-12 2.7931368605148297e-12 1.7135529949908325e-12 2.127647423156005e-12 1.9424471639111762e-12 2.9938988737303195e-12
          3.3701254316248597e-12 2.0512062939138425e-12 2.314602130645929e-12 1.8165575737416138e-12 1.711791181932126e-12 1.2096093719340363e-12
          3.7463519895193995e-12 2.5779979673780155e-12 1.607024790122638e-12 6.228614584559265e-11 8.274548726511098e-11 6.298203033540594e-11
          4.8284599158773214e-11 6.683472280853997e-11 2.804009667860358e-11 4.1281066918667215e-11 3.5239011310117175e-11 4.812914631749423e-11
          2.7082349377491053e-11 1.8689209534655838e-11 2.6393904073990935e-11 1.5581278184058288e-11 2.1149632662616374e-11 1.3398054406451991e-11
          1.816643954551908e-11 1.5444442635638566e-11 8.218202204604494e-11 5.998573265069855e-11 7.205518650069613e-11 5.621577312569008e-11
          1.0051353789325217e-10 4.846049729357648e-11 5.740350342671667e-11 3.980868091546051e-11 7.827775754134978e-11 4.188502457610124e-11
          5.019338943285618e-11 3.172662948021297e-11 3.883617760307468e-11 2.8947502556792744e-11 3.4518102116039647e-11 2.6292839436901614e-11
          6.919647104309898e-11 5.481991610543651e-11 4.702709654282502e-11 1.4948536307607659e-10 1.3466155489668354e-10 1.110144650382618e-10
          1.7515535734254337e-10 1.0187466804119606e-10 6.947939005339624e-11 1.2822808549496097e-10 9.143711437730467e-11 7.456236991454906e-11
          6.147897749920324e-11 4.896965896285462e-11 1.1697615272495096e-10 9.812587744594849e-11 7.773743413433886e-11 3.751382619535936e-11
          4.671371868832206e-11 3.992522336640003e-11 6.802831925150668e-11 2.7403579489731417e-11 3.442589827597614e-11 2.971384161384533e-11
          5.108257144882679e-11 2.5935133400601016e-11 3.199327337316993e-11 2.2029974937142573e-11 2.7230709749317163e-11 1.7617986183335167e-11
          2.145501686067766e-11 1.8100271263365973e-11 4.5868717635233075e-11 3.935323845210017e-11 3.024227840978679e-11 1.9090002844415014e-11
          2.353291600168755e-11 1.654760225191086e-11 2.0327697312453457e-11 1.2844234664591587e-11 1.5457152347174445e-11 1.4608779765105433e-11
          3.411788366393519e-11 2.957779394242551e-11 2.2016024644394445e-11 9.56140618237352e-11 8.359174880727696e-11 1.2975674788732718e-10
          7.338039739567476e-11 6.43460633239162e-11 1.0173429168354455e-10 6.348048894049234e-11 5.507348252909891e-11 4.125416962875191e-11
          3.548945141453335e-11 8.484050677717583e-11 7.440875992838109e-11 5.429041407837398e-11 4.8092540919888455e-11 4.198606425819007e-11
          3.076761553265376e-11 2.6656608659688957e-11 6.548895041491112e-11 5.756656618088519e-11 4.1253222646987535e-11 2.409580433184225e-10
          2.2150159724971122e-10 1.9017959568489367e-10 2.633508660455121e-10 1.5802979024699858e-10 1.0600979102668035e-10 1.831415054187768e-10
          1.4541287086664802e-10 1.241337156984768e-10 9.557224946141709e-11 7.913206181539394e-11 1.7084292984731223e-10 1.490243549556188e-10
          1.1164897284566516e-10 3.163008167657176e-10 2.9493067552981274e-10 2.5971868343685564e-10 3.082727731404934e-10 2.0225824671969365e-10
          1.3569120735774673e-10 2.1137722266545836e-10 1.8979382221657465e-10 1.6716041096040313e-10 1.2369091071150598e-10 1.0467078706528484e-10
          1.977582619799414e-10 1.7371842185878678e-10 1.287459699738811e-10 1.6876566254426816e-10 1.5087191658902137e-10 2.0684920998550282e-10
          1.3493958741387752e-10 1.2035186125026544e-10 1.679703071980364e-10 1.0877337800833328e-10 9.635161888614475e-11 6.855915214909274e-11
          6.017041290200328e-11 1.3193744237408992e-10 1.177877173416286e-10 8.216355652190101e-11 8.551507479933468e-11 7.575040173129389e-11
          5.299768398923013e-11 4.663166542188881e-11 1.0524536557165249e-10 9.380536637902533e-11 6.438295345930857e-11 2.342404112835718e-10
          2.121323223727598e-10 2.438853282357617e-10 1.9191820897030534e-10 1.7300941726019672e-10 2.0035026396112058e-10 1.4882520257289588e-10
          1.334812793258539e-10 9.209860966623038e-11 8.178922996367893e-11 1.5491621881618422e-10 1.3914477459946715e-10 9.572341240604662e-11
          1.1975323189294288e-10 1.0713837589798118e-10 7.277137890291416e-11 6.462516185085159e-11 1.2499312508229458e-10 1.1195802314325429e-10
          7.583902537797229e-11 2.0182846065368494e-11 2.555860344769542e-11 2.188631559585219e-11 3.849526279198743e-11 1.459136962797463e-11
          1.865777107607199e-11 1.5831610494469672e-11 2.8540685847469592e-11 1.4032638400996582e-11 1.7321829174436662e-11 1.1791251789908662e-11
          1.466989673785666e-11 1.1805474225804086e-11 1.4045654664020789e-11 1.1774431846490975e-11 2.5462958432863792e-11 2.1813052963445743e-11
          1.8191134967693236e-11 9.947832270842427e-12 1.2435418888952734e-11 8.367888420695665e-12 1.0507156807248986e-11 8.25737461417728e-12
          9.943070206947711e-12 8.379176360876345e-12 1.8641520184122428e-11 1.5871727742823277e-11 1.3181180269259133e-11 5.6229968055237865e-11
          4.891392816516805e-11 7.928728646587734e-11 4.2334418276457695e-11 3.64459166222122e-11 6.062665374047108e-11 3.649333499894437e-11
          3.156954926244698e-11 2.299719739608059e-11 1.977938561311899e-11 5.043372035126649e-11 4.3989581774511055e-11 3.140247343170331e-11