<?xml version="1.0"?>
<VTKFile type="UnstructuredGrid" version="0.1" byte_order="LittleEndian" header_type="UInt32" compressor="vtkZLibDataCompressor">
  <UnstructuredGrid>
    <Piece NumberOfPoints="549" NumberOfCells="277">
      <PointData>
        <DataArray type="Int32" Name="libmesh_node_id" format="ascii" RangeMin="146" RangeMax="4368">
          146 147 148 149 150 151
          152 153 161 162 163 164
          179 180 181 182 183 184
          185 186 194 195 196 197
          213 214 215 216 217 218
          219 227 228 229 230 268
          270 273 278 279 281 282
          283 284 285 286 287 288
          290 291 292 293 294 295
          296 297 298 299 300 301
          302 303 304 305 371 376
          388 395 396 397 398 399
          400 401 402 403 404 405
          406 407 408 427 428 429
          432 433 434 435 436 437
          438 439 440 441 442 461
          462 466 469 471 472 473
          474 475 476 477 478 479
          480 533 534 535 538 555
          556 559 561 563 564 565
          566 567 568 569 570 571
          572 573 575 577 578 579
          582 896 897 902 916 917
          918 919 920 922 923 924
          925 926 927 998 999 1000
          1001 1002 1003 1004 1005 1006
          1007 1121 1126 1128 1130 1143
          1144 1147 1148 1149 1150 1152
          1175 1176 1177 1180 1181 1182
          1183 1184 1185 1188 1189 1190
          1794 1795 1796 1825 1826 1827
          1828 1829 1830 1831 1832 1833
          1834 1843 1847 1880 1881 1882
          1885 1886 1887 1888 1889 1890
          1891 1892 1893 1894 1895 1896
          1897 1898 1899 1900 1901 1902
          1903 1904 1905 1906 1907 1908
          1909 1934 1935 1936 1937 1938
          1939 1940 1941 1942 1943 1944
          1945 1948 1949 1950 1951 1952
          1953 1995 1996 1997 1998 1999
          2000 2001 2002 2003 2004 3914
          3915 3916 3917 3918 3919 3920
          3921 3922 3923 3924 3925 3926
          3927 3928 3929 3930 3931 3932
          3933 3934 3935 3938 3939 3941
          3942 3943 3944 3945 3946 3947
          4088 4089 4090 4091 4092 4093
          4094 4095 4096 4097 4098 4099
          4100 4101 4102 4103 4104 4105
          4106 4107 4108 4109 4111 4112
          4113 4115 4116 4117 4118 4119
          4120 4121 4122 4123 4124 4125
          4126 4127 4128 4129 4130 4131
          4132 4133 4134 4135 4136 4137
          4138 4139 4140 4141 4142 4143
          4145 4146 4147 4149 4150 4151
          4152 4153 4154 4155 4219 4220
          4221 4222 4223 4224 4225 4226
          4227 4228 4236 4237 4238 4239
          4240 4241 4242 4318 4319 4320
          4321 4322 4323 4324 4325 4326
          4327 4328 4329 4330 4331 4332
          4333 4334 4335 4336 4337 4338
          4339 4340 4341 4342 4343 4344
          4345 4346 4347 4348 4349 4350
          4351 4352 4353 4354 4355 4356
          4357 4358 4359 4360 4361 4362
          4363 4364 4365 4366 4367 4368
          385 387 390 382 389 574
          576 580 581 914 915 882
          921 899 280 877 865 878
          1127 1122 879 1129 1131 1125
          1132 874 875 1145 1146 876
          1151 1186 1187 1792 1793 1808
          1806 1797 1813 1812 1814 1842
          1845 1844 1846 393 1848 1876
          1877 1878 1879 1883 1884 1791
          289 1134 1137 1139 1141 1946
          1947 870 871 860 1780 3879
          3880 3823 3851 3852 1788 3881
          3882 1781 3854 1789 894 3857
          1786 3893 3894 1790 3895 3896
          3901 3837 3867 3902 3903 1783
          3936 3869 3937 3871 3940 895
          3911 3912 3913 4032 4033 4035
          1817 4038 1818 4048 4110 4050
          4052 4114 1820 4066 4067 4069
          900 4072 1823 4082 4144 4084
          4086 4148 901 4018 4017 4213
          4212 4217 4216 4215 4230 4229
          4234 4233 4232
        </DataArray>
        <DataArray type="Float64" Name="bounds" format="ascii" RangeMin="0" RangeMax="0">
          0 0 0 0 0 0
          0 0 0 0 0 0
          0 0 0 0 0 0
          0 0 0 0 0 0
          0 0 0 0 0 0
          0 0 0 0 0 0
          0 0 0 0 0 0
          0 0 0 0 0 0
          0 0 0 0 0 0
          0 0 0 0 0 0
          0 0 0 0 0 0
          0 0 0 0 0 0
          0 0 0 0 0 0
          0 0 0 0 0 0
          0 0 0 0 0 0
          0 0 0 0 0 0
          0 0 0 0 0 0
          0 0 0 0 0 0
          0 0 0 0 0 0
          0 0 0 0 0 0
          0 0 0 0 0 0
          0 0 0 0 0 0
          0 0 0 0 0 0
          0 0 0 0 0 0
          0 0 0 0 0 0
          0 0 0 0 0 0
          0 0 0 0 0 0
          0 0 0 0 0 0
          0 0 0 0 0 0
          0 0 0 0 0 0
          0 0 0 0 0 0
          0 0 0 0 0 0
          0 0 0 0 0 0
          0 0 0 0 0 0
          0 0 0 0 0 0
          0 0 0 0 0 0
          0 0 0 0 0 0
          0 0 0 0 0 0
          0 0 0 0 0 0
          0 0 0 0 0 0
          0 0 0 0 0 0
          0 0 0 0 0 0
          0 0 0 0 0 0
          0 0 0 0 0 0
          0 0 0 0 0 0
          0 0 0 0 0 0
          0 0 0 0 0 0
          0 0 0 0 0 0
          0 0 0 0 0 0
          0 0 0 0 0 0
          0 0 0 0 0 0
          0 0 0 0 0 0
          0 0 0 0 0 0
          0 0 0 0 0 0
          0 0 0 0 0 0
          0 0 0 0 0 0
          0 0 0 0 0 0
          0 0 0 0 0 0
          0 0 0 0 0 0
          0 0 0 0 0 0
          0 0 0 0 0 0
          0 0 0 0 0 0
          0 0 0 0 0 0
          0 0 0 0 0 0
          0 0 0 0 0 0
          0 0 0 0 0 0
          0 0 0 0 0 0
          0 0 0 0 0 0
          0 0 0 0 0 0
          0 0 0 0 0 0
          0 0 0 0 0 0
          0 0 0 0 0 0
          0 0 0 0 0 0
          0 0 0 0 0 0
          0 0 0 0 0 0
          0 0 0 0 0 0
          0 0 0 0 0 0
          0 0 0 0 0 0
          0 0 0 0 0 0
          0 0 0 0 0 0
          0 0 0 0 0 0
          0 0 0 0 0 0
          0 0 0 0 0 0
          0 0 0 0 0 0
          0 0 0 0 0 0
          0 0 0 0 0 0
          0 0 0 0 0 0
          0 0 0 0 0 0
          0 0 0 0 0 0
          0 0 0 0 0 0
          0 0 0 0 0 0
          0 0 0
        </DataArray>
        <DataArray type="Float64" Name="gradient_error" format="ascii" RangeMin="2.341219040043307e-12" RangeMax="3.301501549431141e-9">
          2.1038771512919472e-10 3.802066030667303e-10 7.139895327070027e-11 1.0400054261798934e-10 5.556176353378077e-11 4.7264733584679057e-11
          4.8844164718139075e-11 4.210887000237744e-11 5.372968384584779e-10 1.3392305372239233e-10 3.8967703635577356e-11 3.5373575286615793e-11
          4.4590872262468766e-10 1.303613624478574e-9 3.15007783589957e-11 9.371926959346532e-11 5.099144831011568e-11 4.240809459742368e-11
          5.234695797424447e-11 4.113213513746209e-11 5.011834227823503e-10 1.118717934499844e-10 3.450830318753901e-11 2.991731230067971e-11
          6.632573077994719e-10 1.2309075025537224e-11 1.618523997223651e-11 1.789032044816498e-11 1.751819974952885e-11 2.98258907509028e-11
          2.152969172189314e-11 1.0905629049202976e-10 1.5717906516300058e-11 1.787209002339697e-11 1.3233492692883477e-11 1.1673594192290225e-9
          2.1328273055485997e-9 1.2933603982553095e-9 6.223049353651004e-11 2.3582930407720807e-10 2.2878782981210788e-10 3.5224693331633604e-11
          7.877028680031794e-12 2.441194088454898e-11 3.166936207270349e-10 2.5120036701768267e-10 3.662006960908467e-11 4.651390318339923e-11
          8.624920153518364e-12 8.699825714209281e-11 8.58714810378559e-12 6.966810719343966e-12 8.819879295901785e-12 7.775919465496547e-12
          4.379805288704907e-12 5.850840019873367e-12 4.804272230813909e-12 5.346473334902344e-12 6.731959635091308e-12 3.75770444175445e-12
          9.05261048801798e-12 8.585028211649125e-12 5.22873917292291e-12 8.117445935280272e-12 2.4331017647992856e-9 3.301501549431141e-9
          3.306314050846351e-10 6.185679517205798e-12 1.4550607892950064e-11 7.6997425939239e-12 1.0307048851004568e-11 9.016272428923638e-12
          9.008354033385571e-12 8.993600215423187e-12 2.3296697587975863e-11 1.877259916952985e-11 9.589170197263326e-12 1.3768300852313254e-11
          6.974475381116801e-12 8.79974916555467e-12 1.4201338522998103e-11 1.2375055273222777e-10 3.19644114757599e-10 3.336218470346034e-10
          3.475995793116079e-10 3.580376354542507e-11 4.526819947278324e-11 7.243617918338861e-11 8.541191993164719e-11 2.8734540139773572e-11
          2.0992325780042285e-11 3.323855417125252e-11 5.4732635400141407e-11 9.838766067990579e-11 4.5484782562462746e-11 4.151896820319349e-10
          3.9616399282513725e-10 1.297906144811342e-10 3.771383036183396e-10 1.0477833942825103e-10 9.592860439413535e-11 3.935918798539427e-11
          2.8575162762420534e-11 4.38711227733093e-11 3.602031324087498e-11 1.5410103352231483e-11 8.707886936001964e-11 1.77911375394468e-11
          2.8169503708440663e-11 4.1098214914087266e-10 2.4543622578414134e-10 5.45992684050682e-10 8.381084087281613e-10 1.9208657601887406e-9
          2.1847812735022687e-9 7.028114688281243e-10 2.4486967868157968e-9 9.293797695267057e-11 1.1796146299120174e-10 5.779165867039906e-11
          2.052548789303862e-10 3.262285382061816e-11 1.240961225452957e-11 4.830720463637646e-11 1.4298494902973292e-10 3.457356276432237e-10
          8.362191883120861e-11 2.6341891193490393e-10 8.772720436938466e-11 1.6315044165372765e-10 1.4710249945268133e-10 3.9391668055142256e-11
          1.31054557251635e-10 2.2668098722779425e-11 1.9768923531624607e-11 1.6659246126293537e-11 1.0120984530131434e-11 1.1339804030871366e-11
          5.578376761181173e-12 1.1706548448548554e-11 9.065188434755994e-12 1.0179593494488914e-11 4.88999539143363e-12 1.468002161297451e-11
          9.190816500495445e-12 1.1193339081572346e-11 6.751003125171958e-12 4.792951063866431e-12 8.938719413666996e-12 6.662441670867629e-12
          1.225164460665857e-11 4.970617979285863e-12 2.4118902744775222e-12 6.907855785920717e-12 1.3084487763467563e-11 1.7840847542449514e-11
          1.1403821297363912e-11 1.167326972511361e-10 3.236204631352967e-11 2.4301635511304434e-11 3.379968446243077e-11 3.5698377715295908e-12
          3.4350023250021507e-12 2.341219040043307e-12 3.283956281384125e-12 3.280467387233006e-12 3.3001668784747098e-12 3.276978493081886e-12
          1.3576206923672692e-10 7.155320807185412e-10 4.817318257776032e-10 2.4793157083666533e-10 6.156917506941181e-11 8.130081035949476e-11
          1.5956044821108968e-10 1.500688199597557e-10 2.9627811935277217e-11 1.010324456495777e-10 1.405771917084217e-10 5.996859800629221e-11
          1.3498350569012514e-10 9.478999167534439e-11 1.834785790450482e-11 2.376871023889871e-10 1.664145384305344e-10 3.885037489170695e-11
          2.7854319174111323e-11 5.7003346385207674e-11 1.4060245486465625e-11 2.8664922627162413e-10 2.01092637909957e-10 3.3301178675622176e-11
          6.784214685842048e-11 1.35859054183927e-11 1.5270608813424274e-11 3.891627928341389e-12 5.043489113315363e-12 4.930455309330019e-12
          4.817421505344674e-12 6.72296711486648e-12 8.469546942038856e-12 7.609461511683843e-12 1.0000016932701548e-11 1.043988122252331e-11
          8.306733316073576e-12 1.2613602233844108e-11 1.0573262410977076e-11 8.848068803224512e-12 6.870504028965661e-12 1.2044843863367356e-11
          9.526588519347551e-12 1.1896884488905107e-11 1.001036183321817e-11 1.8360560502476697e-11 1.6447073149219853e-11 1.124230874954523e-11
          7.952700991614824e-12 1.2450706405151188e-11 9.180519857474235e-12 5.7059079861637955e-12 1.4533585795963012e-11 4.6630932336844185e-12
          5.910333309797283e-12 5.838328380157685e-12 6.788273980565342e-12 3.940602002889487e-12 4.055427484311061e-12 5.184361415286896e-12
          6.157825915767033e-12 4.754692606718298e-12 7.738219580973e-12 4.170252965732635e-12 7.131290416247171e-12 7.89080640355885e-12
          9.603765053162953e-12 5.3368050630355095e-12 4.788193399485986e-12 7.2432276755711726e-12 1.1316723702767053e-11 1.524719064972625e-11
          9.69826195165636e-12 7.459536431553953e-12 8.23790688976183e-12 4.453995960772368e-12 4.194472713666527e-12 4.722381242099508e-12
          4.715802666151407e-12 3.180859957511771e-12 9.016277347969704e-12 3.934949466560686e-12 4.709224090203308e-12 2.0213667028082264e-10
          1.8489592364503553e-10 8.841179244083397e-11 8.109731515736384e-11 1.4094777058601534e-10 6.248242576876393e-11 3.1136963764137847e-10
          2.8483192852016655e-10 1.2371691669717568e-10 2.1619458555040188e-10 3.7293964941204444e-11 3.4364901232198164e-11 1.5157511189047244e-11
          1.3890023273608144e-11 2.6814474671893654e-11 1.2785325763790697e-11 5.617690665429981e-11 5.170028530202268e-11 2.0782168206566615e-11
          4.015072720594774e-11 9.048707171533782e-11 4.0861711875297335e-11 1.3655130308459467e-10 6.11000979082104e-11 1.7743427740206558e-11
          1.0788300047844146e-11 1.3293743659817688e-11 8.465693520654292e-12 2.6372910207334806e-11 1.2847287108119058e-11 1.6987739502777535e-11
          4.353781898074525e-10 3.988039919312646e-10 1.8783150653382694e-10 1.7217727089525195e-10 3.0240548087426944e-10 1.3150837096653487e-10
          5.521806513383367e-10 5.067899342138642e-10 2.180654310912438e-10 3.847053366322038e-10 7.7660487285533e-11 7.136474025315253e-11
          3.102202983602562e-11 2.8552435916763427e-11 5.5089352879185575e-11 2.2197318396067284e-11 9.785835144666856e-11 8.989383775631756e-11
          3.5785108685779005e-11 6.917945250665807e-11 1.8868440868128937e-10 8.378762992235231e-11 4.577280007853537e-11 2.3831607000909933e-10
          1.0516622501771418e-10 3.598201861528607e-11 1.4782885412633783e-11 2.025081724655605e-11 1.0376949209969218e-11 4.48697515469143e-11
          1.8439885802016096e-11 2.5163247925810476e-11 6.360294884270025e-10 5.84749970287791e-10 2.7356726522489173e-10 2.5123240760500126e-10
          4.445911280969775e-10 1.9178604316091624e-10 6.665423313668211e-10 6.132172186252948e-10 2.633543339948631e-10 4.665720536759433e-10
          1.1238006314544372e-10 1.0328952677310426e-10 4.4469694175308045e-11 4.09626075403488e-11 7.946315857832104e-11 3.184709208907624e-11
          1.176759739905776e-10 1.0817844326869307e-10 4.2848926263477045e-11 8.321322004195573e-11 2.745458164309165e-10 1.207453919214738e-10
          6.494064329819954e-11 2.878426188513617e-10 1.2645372717476452e-10 5.132600491486656e-11 2.09975881499739e-11 2.8552723947374123e-11
          1.4326802071371464e-11 5.369118453124662e-11 2.194034063404081e-11 2.9816342376938064e-11 8.979124574306775e-12 1.0283871736029273e-11
          6.199777430593909e-12 6.6257108041141045e-12 6.331090545320326e-12 6.920433671919532e-12 4.628526039589026e-12 1.2597819764055967e-11
          7.70002054124432e-12 8.179065822970001e-12 1.4207849852525741e-11 8.685381026434185e-12 9.234934884159047e-12 5.903381893123756e-12
          1.4808679074691325e-11 9.022365148014032e-12 9.621514920896831e-12 4.5576149556917535e-12 4.255638957647465e-12 5.960176531622647e-12
          5.507894535825552e-12 2.7764484744165403e-12 3.3971019180364713e-12 3.42249266201089e-12 3.953662959603177e-12 5.0556125400284584e-12
          3.447883405985309e-12 8.926947313674215e-12 8.201461927792325e-12 4.803024605147805e-12 7.054686706204819e-12 1.2072808372470464e-11
          1.1144100968364846e-11 6.683351521215933e-12 6.268782067982633e-12 8.742595694593038e-12 5.070980414090139e-12 1.5001462780993006e-11
          1.387333401239539e-11 7.668988424998912e-12 1.093066480318306e-11 4.987313371804107e-12 5.826563054515046e-12 3.2044700921325984e-12
          3.481800543957384e-12 3.762519708814629e-12 4.3833282841032405e-12 2.6758528744838233e-12 7.298525223951845e-12 4.173961100794169e-12
          5.480926085335344e-12 1.7105823014924176e-11 1.5805423263035547e-11 9.397401485404437e-12 8.714656516640133e-12 1.2426023153633293e-11
          6.870557230647957e-12 1.7863180693008376e-11 1.650960669642899e-11 9.091387958557338e-12 1.2972659091006182e-11 8.271336190246725e-12
          4.7495241161006535e-12 6.195649584373782e-12 3.7898453187812264e-12 8.611434669815744e-12 4.910257026395138e-12 6.433583857468729e-12
          4.2508398100936394e-11 2.1075377901238668e-11 7.983872165026646e-11 2.084914472439466e-10 3.0377985513984784e-10 2.820487201871747e-10
          8.936881348435977e-11 3.006785284394455e-10 9.10104225993349e-11 9.428232277760865e-12 1.1495892562862647e-11 1.4872291944298072e-11
          1.1226664613906032e-11 1.9425457074108428e-11 1.166694731588977e-11 3.168040724017005e-11 8.473460642658853e-11 3.832555479902529e-11
          4.0857282963514876e-11 1.0968924815718088e-10 1.322675195106226e-11 2.2426276838596137e-11 3.2197897236598397e-11 1.0609205401633643e-10
          2.3306952596734378e-11 1.1500823453584923e-11 1.3359238780587261e-11 8.13905237801606e-12 6.556699593954653e-12 1.113507094206809e-11
          4.974346809893247e-12 4.397497607170318e-11 5.1971787038997695e-11 2.119490061511682e-11 1.8229123092185298e-11 2.1702763545161463e-11
          2.146463310851024e-11 3.800835307811152e-11 1.8007397672298175e-11 3.109080820069322e-11 3.114256740881869e-11 2.6567386149100984e-11
          1.2610382387804222e-11 2.3914306898842257e-11 2.0299812634350422e-11 1.3383721902885765e-11 1.6069672709965346e-11 9.760657286301054e-12
          8.25388185922972e-12 7.114966819013873e-12 8.947788798285686e-12 6.74710643215839e-12 1.0794284143311638e-11 1.169222522617814e-11
          8.843164856543367e-11 2.1152573854372516e-11 1.869880935789406e-11 1.8858252158560357e-11 1.5963108539035413e-11 1.1841938771226648e-11
          1.3544564710476447e-11 1.4763619543527793e-11 2.3558246217450218e-11 5.346783470209921e-11 2.5941659129894904e-10 1.1953237432011788e-10
          1.0951274342742212e-10 2.370963645181188e-10 4.4267207702551e-10 4.043041378570978e-10 5.294484977847175e-11 4.8669948032968434e-11
          8.419250432850212e-11 1.8065007386322162e-10 3.0589299181404896e-10 3.783438485035146e-11 6.853710027499299e-10 6.267798188500065e-10
          4.731716312885845e-10 2.270029497950975e-11 2.0960504345030273e-11 1.2178545017126827e-11 1.0208422291734566e-11 1.6478255064371342e-11
          5.516627066087123e-11 1.1587850358764219e-10 1.9229280388174e-10 2.5215147125282056e-11 3.1612743946037434e-11 6.484964061968264e-11
          5.028496801695496e-11 1.042479170272494e-10 2.7508081273961428e-11 2.93155047219904e-10 7.406452651013323e-11 1.5486668880824457e-10
          1.1068220894276328e-11 6.758262595362066e-12 8.400645370360764e-12 9.598910140712422e-10 8.802535071489557e-10 6.655338925380159e-10
          1.2168460789196565e-9 1.119572600954033e-9 8.494291581386449e-10 4.0851512716758445e-10 1.0046849079111252e-10 2.116198673195577e-10
          5.187728049508025e-10 1.251753976112727e-10 2.651195044921451e-10 1.4001209109799694e-9 1.291644393815928e-9 9.832371236463325e-10
          1.466541537213346e-9 1.3543114019286345e-9 1.0323252378991792e-9 5.991907336437726e-10 1.430705129040023e-10 3.038362374015268e-10
          6.28744081369149e-10 1.4959349576692315e-10 3.180111536361481e-10 1.9440039731485438e-11 3.618765522712547e-11 2.2554367740289418e-11
          4.8314115252701405e-11 2.7940094408886924e-11 5.944883873800452e-11 1.4644688491819888e-11 3.167826883269525e-11 6.748937100355274e-11
          3.30878082009206e-11 7.045628495849556e-11 1.748598816786997e-11
        </DataArray>
        <DataArray type="Float64" Name="gradient_matprop_error" format="ascii" RangeMin="0" RangeMax="0">
          0 0 0 0 0 0
          0 0 0 0 0 0
          0 0 0 0 0 0
          0 0 0 0 0 0
          0 0 0 0 0 0
          0 0 0 0 0 0
          0 0 0 0 0 0
          0 0 0 0 0 0
          0 0 0 0 0 0
          0 0 0 0 0 0
          0 0 0 0 0 0
          0 0 0 0 0 0
          0 0 0 0 0 0
          0 0 0 0 0 0
          0 0 0 0 0 0
          0 0 0 0 0 0
          0 0 0 0 0 0
          0 0 0 0 0 0
          0 0 0 0 0 0
          0 0 0 0 0 0
          0 0 0 0 0 0
          0 0 0 0 0 0
          0 0 0 0 0 0
          0 0 0 0 0 0
          0 0 0 0 0 0
          0 0 0 0 0 0
          0 0 0 0 0 0
          0 0 0 0 0 0
          0 0 0 0 0 0
          0 0 0 0 0 0
          0 0 0 0 0 0
          0 0 0 0 0 0
          0 0 0 0 0 0
          0 0 0 0 0 0
          0 0 0 0 0 0
          0 0 0 0 0 0
          0 0 0 0 0 0
          0 0 0 0 0 0
          0 0 0 0 0 0
          0 0 0 0 0 0
          0 0 0 0 0 0
          0 0 0 0 0 0
          0 0 0 0 0 0
          0 0 0 0 0 0
          0 0 0 0 0 0
          0 0 0 0 0 0
          0 0 0 0 0 0
          0 0 0 0 0 0
          0 0 0 0 0 0
          0 0 0 0 0 0
          0 0 0 0 0 0
          0 0 0 0 0 0
          0 0 0 0 0 0
          0 0 0 0 0 0
          0 0 0 0 0 0
          0 0 0 0 0 0
          0 0 0 0 0 0
          0 0 0 0 0 0
          0 0 0 0 0 0
          0 0 0 0 0 0
          0 0 0 0 0 0
          0 0 0 0 0 0
          0 0 0 0 0 0
          0 0 0 0 0 0
          0 0 0 0 0 0
          0 0 0 0 0 0
          0 0 0 0 0 0
          0 0 0 0 0 0
          0 0 0 0 0 0
          0 0 0 0 0 0
          0 0 0 0 0 0
          0 0 0 0 0 0
          0 0 0 0 0 0
          0 0 0 0 0 0
          0 0 0 0 0 0
          0 0 0 0 0 0
          0 0 0 0 0 0
          0 0 0 0 0 0
          0 0 0 0 0 0
          0 0 0 0 0 0
          0 0 0 0 0 0
          0 0 0 0 0 0
          0 0 0 0 0 0
          0 0 0 0 0 0
          0 0 0 0 0 0
          0 0 0 0 0 0
          0 0 0 0 0 0
          0 0 0 0 0 0
          0 0 0 0 0 0
          0 0 0 0 0 0
          0 0 0 0 0 0
          0 0 0
        </DataArray>
        <DataArray type="Float64" Name="initial_marker" format="ascii" RangeMin="0" RangeMax="2">
          0 0 0 0 0 0
          0 0 0 0 0 0
          0 0 0 0 0 0
          0 0 0 0 0 0
          0 0 0 0 0 0
          0 0 0 0 0 0
          0 0 0 0 0 0
          0 0 0 0 0 2
          0 0 0 0 0 0
          0 0 0 0 0 0
          0 0 0 0 0 0
          0 0 0 0 0 0
          0 0 0 0 0 0
          0 0 0 0 0 0
          0 0 0 0 0 0
          0 0 0 0 0 0
          0 0 0 0 0 0
          0 0 0 0 0 0
          0 0 0 0 0 0
          0 0 0 0 0 0
          0 0 0 0 0 0
          0 0 0 0 0 0
          0 2 0.25 0.5 0 0
          0 0 0 0 0 0
          0 0 0 0 0 0
          0 0 0 0 0 0
          0 0 0 0 0 0
          0 0 0 0 0 0
          0 0 0 0 0 0
          0 0 0 0 0 0
          2 2 1.25 2 2 2
          2 2 0.5 2 2 2
          2 0 0 0 0 0
          0 0 0 0 0 0
          0 0 0 0 0 0
          0 0 0 0 0 0
          0 0 0 0 0 0
          0 0 0 0 0 0
          0 0 0 0 0 0
          0 0 0 0 0 0
          0 0 0 0 0 0
          0 0 0 0 0 2
          2 2 2 2 2 2
          2 2 2 2 2 1.5
          1.25 1.75 1 2 2 1.75
          2 2 2 2 2 1.25
          0.5 1 0 1.75 1 1.3333333333333333
          2 2 2 2 2 2
          2 2 2 2 2 2
          2 2 2 1.75 2 2
          2 2 2 2 2 2
          2 2 1.25 1.5 0.6666666666666666 2
          1.5 1.5 2 2 2 2
          2 2 2 2 2 2
          2 2 2 2 2 2
          2 2 2 2 2 2
          2 2 2 2 1.5 1.5
          0.6666666666666666 2 1.5 1.5 0.5 0.5
          0 0 0 0 0 0.5
          0 0 0.5 0 0 0
          0.5 0 0 0 0 0.5
          0.25 0 0 0 0 0
          0 1 0.75 0 0.3333333333333333 1
          1 0 0 0.75 0 1
          1 0 1 0 0.25 0
          0 0 0 0 0.5 0
          0 1 1 0 0 1
          0 1 1 0 1 0.5
          0 0 0 0.5 0 0
          0 0 0 0 0 0
          0 0 0 0 0 0
          0 0 0 0 0 0
          0 0 0 0 0 0
          0 0 0 0 0 0
          0 0 0 1 0 0
          0 1.75 0 0.25 0 0.5
          0 0 0.5 0 0 0
          0 0 0 0 0 0.25
          0 0 0 0 0 0
          0 0 0 0 2 2
          2 2 2 2 2 2
          2 2 2 2 2 2
          2 1.5 1.5 0.5 0.6666666666666666 1.25
          2 2 2 1.75 1.75 2
          2 2 2 2 2 2
          0.75 0 0.5 2 2 2
          2 2 2 2 2 2
          2 2 2 2 2 2
          2 2 2 2 2 2
          2 2 2 1.3333333333333333 1.75 1.5
          2 1.5 2 1 1.5 2
          1.5 2 0.6666666666666666
        </DataArray>
        <DataArray type="Float64" Name="markers_norefine" format="ascii" RangeMin="0" RangeMax="0">
          0 0 0 0 0 0
          0 0 0 0 0 0
          0 0 0 0 0 0
          0 0 0 0 0 0
          0 0 0 0 0 0
          0 0 0 0 0 0
          0 0 0 0 0 0
          0 0 0 0 0 0
          0 0 0 0 0 0
          0 0 0 0 0 0
          0 0 0 0 0 0
          0 0 0 0 0 0
          0 0 0 0 0 0
          0 0 0 0 0 0
          0 0 0 0 0 0
          0 0 0 0 0 0
          0 0 0 0 0 0
          0 0 0 0 0 0
          0 0 0 0 0 0
          0 0 0 0 0 0
          0 0 0 0 0 0
          0 0 0 0 0 0
          0 0 0 0 0 0
          0 0 0 0 0 0
          0 0 0 0 0 0
          0 0 0 0 0 0
          0 0 0 0 0 0
          0 0 0 0 0 0
          0 0 0 0 0 0
          0 0 0 0 0 0
          0 0 0 0 0 0
          0 0 0 0 0 0
          0 0 0 0 0 0
          0 0 0 0 0 0
          0 0 0 0 0 0
          0 0 0 0 0 0
          0 0 0 0 0 0
          0 0 0 0 0 0
          0 0 0 0 0 0
          0 0 0 0 0 0
          0 0 0 0 0 0
          0 0 0 0 0 0
          0 0 0 0 0 0
          0 0 0 0 0 0
          0 0 0 0 0 0
          0 0 0 0 0 0
          0 0 0 0 0 0
          0 0 0 0 0 0
          0 0 0 0 0 0
          0 0 0 0 0 0
          0 0 0 0 0 0
          0 0 0 0 0 0
          0 0 0 0 0 0
          0 0 0 0 0 0
          0 0 0 0 0 0
          0 0 0 0 0 0
          0 0 0 0 0 0
          0 0 0 0 0 0
          0 0 0 0 0 0
          0 0 0 0 0 0
          0 0 0 0 0 0
          0 0 0 0 0 0
          0 0 0 0 0 0
          0 0 0 0 0 0
          0 0 0 0 0 0
          0 0 0 0 0 0
          0 0 0 0 0 0
          0 0 0 0 0 0
          0 0 0 0 0 0
          0 0 0 0 0 0
          0 0 0 0 0 0
          0 0 0 0 0 0
          0 0 0 0 0 0
          0 0 0 0 0 0
          0 0 0 0 0 0
          0 0 0 0 0 0
          0 0 0 0 0 0
          0 0 0 0 0 0
          0 0 0 0 0 0
          0 0 0 0 0 0
          0 0 0 0 0 0
          0 0 0 0 0 0
          0 0 0 0 0 0
          0 0 0 0 0 0
          0 0 0 0 0 0
          0 0 0 0 0 0
          0 0 0 0 0 0
          0 0 0 0 0 0
          0 0 0 0 0 0
          0 0 0 0 0 0
          0 0 0 0 0 0
          0 0 0
        </DataArray>
        <DataArray type="Float64" Name="markers_mustrefine" format="ascii" RangeMin="0" RangeMax="2">
          0 0 0 0 0 0
          0 0 0 0 0 0
          0 0 0 0 0 0
          0 0 0 0 0 0
          0 0 0 0 0 0
          0 0 0 0 0 0
          0 0 0 0 0 0
          0 0 0 0 0 2
          0 0 0 0 0 0
          0 0 0 0 0 0
          0 0 0 0 0 0
          0 0 0 0 0 0
          0 0 0 0 0 0
          0 0 0 0 0 0
          0 0 0 0 0 0
          0 0 0 0 0 0
          0 0 0 0 0 0
          0 0 0 0 0 0
          0 0 0 0 0 0
          0 0 0 0 0 0
          0 0 0 0 0 0
          0 0 0 0 0 0
          0 2 0.25 0.5 0 0
          0 0 0 0 0 0
          0 0 0 0 0 0
          0 0 0 0 0 0
          0 0 0 0 0 0
          0 0 0 0 0 0
          0 0 0 0 0 0
          0 0 0 0 0 0
          2 2 1.25 2 2 2
          2 2 0.5 2 2 2
          2 0 0 0 0 0
          0 0 0 0 0 0
          0 0 0 0 0 0
          0 0 0 0 0 0
          0 0 0 0 0 0
          0 0 0 0 0 0
          0 0 0 0 0 0
          0 0 0 0 0 0
          0 0 0 0 0 0
          0 0 0 0 0 2
          2 2 2 2 2 2
          2 2 2 2 2 1.5
          1.25 1.75 1 2 2 1.75
          2 2 2 2 2 1.25
          0.5 1 0 1.75 1 1.3333333333333333
          2 2 2 2 2 2
          2 2 2 2 2 2
          2 2 2 1.75 2 2
          2 2 2 2 2 2
          2 2 1.25 1.5 0.6666666666666666 2
          1.5 1.5 2 2 2 2
          2 2 2 2 2 2
          2 2 2 2 2 2
          2 2 2 2 2 2
          2 2 2 2 1.5 1.5
          0.6666666666666666 2 1.5 1.5 0.5 0.5
          0 0 0 0 0 0.5
          0 0 0.5 0 0 0
          0.5 0 0 0 0 0.5
          0.25 0 0 0 0 0
          0 1 0.75 0 0.3333333333333333 1
          1 0 0 0.75 0 1
          1 0 1 0 0.25 0
          0 0 0 0 0.5 0
          0 1 1 0 0 1
          0 1 1 0 1 0.5
          0 0 0 0.5 0 0
          0 0 0 0 0 0
          0 0 0 0 0 0
          0 0 0 0 0 0
          0 0 0 0 0 0
          0 0 0 0 0 0
          0 0 0 1 0 0
          0 1.75 0 0.25 0 0.5
          0 0 0.5 0 0 0
          0 0 0 0 0 0.25
          0 0 0 0 0 0
          0 0 0 0 2 2
          2 2 2 2 2 2
          2 2 2 2 2 2
          2 1.5 1.5 0.5 0.6666666666666666 1.25
          2 2 2 1.75 1.75 2
          2 2 2 2 2 2
          0.75 0 0.5 2 2 2
          2 2 2 2 2 2
          2 2 2 2 2 2
          2 2 2 2 2 2
          2 2 2 1.3333333333333333 1.75 1.5
          2 1.5 2 1 1.5 2
          1.5 2 0.6666666666666666
        </DataArray>
        <DataArray type="Float64" Name="gradient_marker" format="ascii" RangeMin="0.5" RangeMax="1">
          1 1 1 1 1 1
          1 1 1 1 1 1
          1 1 1 1 1 1
          1 1 1 1 1 1
          1 1 1 1 1 1
          1 1 1 1 1 1
          0.875 1 1 1 1 1
          1 1 1 1 1 1
          1 1 1 1 1 1
          1 1 1 1 1 1
          1 1 1 1 0.625 0.75
          1 1 1 1 1 1
          1 1 1 1 1 1
          1 1 1 1 1 1
          1 1 1 1 1 1
          1 1 1 1 1 1
          1 1 1 1 1 1
          1 1 1 1 1 1
          1 1 0.75 0.875 1 1
          1 1 1 1 1 1
          1 1 1 1 1 1
          1 1 1 1 1 1
          1 1 1 1 1 1
          1 1 1 1 1 1
          1 1 1 1 1 1
          1 1 1 1 1 1
          1 1 1 1 1 1
          1 1 1 1 1 1
          0.5 0.5 0.5 0.5 1 1
          1 1 1 1 1 1
          1 1 1 1 1 1
          1 1 1 1 1 1
          1 1 1 1 1 1
          1 1 1 1 1 1
          1 1 1 1 1 1
          1 1 1 1 1 1
          1 1 1 1 1 1
          1 1 1 1 1 1
          1 1 1 1 1 1
          1 1 1 1 1 1
          1 1 1 1 1 1
          1 1 1 1 1 1
          1 1 1 1 1 1
          1 1 1 1 1 1
          1 1 1 1 1 1
          1 1 1 1 1 1
          1 1 1 1 1 1
          1 1 1 1 1 1
          1 1 1 1 1 1
          1 1 1 1 1 1
          1 1 1 1 1 1
          1 1 1 1 1 1
          1 1 1 1 1 1
          1 1 1 1 1 1
          1 1 1 1 1 1
          1 1 1 1 1 1
          1 1 1 1 1 1
          1 1 1 1 1 1
          1 1 1 1 1 1
          1 1 1 1 1 1
          1 1 1 1 1 1
          1 1 1 1 1 1
          1 1 1 1 1 1
          1 1 1 1 1 1
          1 1 1 1 1 1
          1 1 1 1 1 1
          1 1 1 1 1 1
          1 1 1 1 1 1
          1 1 1 1 1 1