<?xml version="1.0"?>
<VTKFile type="UnstructuredGrid" version="0.1" byte_order="LittleEndian" header_type="UInt32" compressor="vtkZLibDataCompressor">
  <UnstructuredGrid>
    <Piece NumberOfPoints="465" NumberOfCells="269">
      <PointData>
        <DataArray type="Int32" Name="libmesh_node_id" format="ascii" RangeMin="232" RangeMax="4073">
          232 407 408 884 887 901
          902 905 907 1547 1548 1549
          1550 1551 1552 1553 1554 1555
          1556 1567 1568 1569 1570 1571
          1572 1573 1574 1575 1576 1655
          1656 1657 1658 1659 1660 1661
          1662 1663 1673 1675 1687 1689
          1690 1691 1692 1694 1695 1696
          1697 1755 1760 1765 1785 1786
          1789 1790 2011 2831 2832 2833
          2836 2837 2838 2839 2840 2841
          2842 2843 2844 2845 2846 2847
          2848 2849 2850 2851 2852 2853
          2854 2855 2856 2857 2858 2859
          2860 2861 2862 2863 2864 2865
          2866 2867 2868 2869 2870 2871
          2872 2873 2874 2895 2896 2897
          2898 2899 2900 2901 2902 2903
          2904 2905 2906 2907 2908 2909
          2910 2911 2912 2913 2914 3296
          3297 3298 3299 3300 3301 3302
          3303 3304 3305 3306 3307 3308
          3309 3310 3311 3312 3313 3314
          3315 3316 3317 3318 3319 3320
          3321 3322 3323 3324 3325 3326
          3327 3328 3329 3330 3331 3332
          3333 3334 3335 3336 3337 3338
          3339 3340 3341 3342 3343 3344
          3345 3346 3347 3348 3349 3350
          3351 3352 3353 3354 3355 3357
          3358 3359 3360 3361 3362 3363
          3426 3427 3428 3429 3433 3434
          3435 3436 3437 3438 3439 3440
          3441 3442 3443 3444 3445 3446
          3527 3528 3530 3533 3543 3547
          3549 3550 3551 3552 3553 3554
          3555 3556 3557 3558 3559 3560
          3561 3562 3563 3564 3565 3566
          3567 3568 3569 3570 3573 3574
          3576 3577 3578 3579 3580 3581
          3582 3583 3584 3585 3586 3587
          3588 3589 3590 3591 3592 3593
          3594 3595 3596 3597 3598 3599
          3600 3601 3602 3603 3604 3607
          3608 3610 3611 3612 3613 3614
          3615 3616 3797 3798 3799 3800
          3804 3805 3807 3808 3810 3811
          3812 3815 3816 3818 3820 3821
          3822 3825 3827 3828 3830 3845
          3847 3848 3849 3851 3862 3863
          3866 3868 3869 3871 3882 3886
          3961 3962 3963 3964 3965 3966
          3967 3968 3969 3970 4015 4016
          4019 4021 4022 4024 4035 4039
          4049 4050 4053 4055 4056 4058
          4069 4073 876 879 406 882
          878 881 883 1176 1174 1177
          1175 888 921 919 1543 880
          1544 1545 1546 1533 1535 1538
          1559 1560 1563 1565 1672 1674
          1993 1988 1668 1994 1989 1995
          1996 2827 2828 2829 2830 2834
          2835 2802 2803 885 2808 2805
          1541 2819 2820 2823 2825 886
          2887 2888 2891 2893 3240 3241
          3243 1647 3246 1648 3256 3258
          3260 1650 3274 3275 3277 899
          3280 1653 3290 3292 3294 3356
          900 1664 3372 3374 3430 3376
          3431 3432 1666 3390 3391 3394
          3447 3396 3448 3449 3450 3406
          3451 3454 3410 3455 3497 1681
          3499 3498 3525 3526 1682 3500
          3529 3531 3532 3534 3513 3512
          3542 1684 3514 3545 3544 3546
          906 3548 3493 3494 3496 3509
          3571 3511 3572 3575 1693 3605
          3606 3609 1698
        </DataArray>
        <DataArray type="Float64" Name="bounds" format="ascii" RangeMin="0" RangeMax="0">
          0 0 0 0 0 0
          0 0 0 0 0 0
          0 0 0 0 0 0
          0 0 0 0 0 0
          0 0 0 0 0 0
          0 0 0 0 0 0
          0 0 0 0 0 0
          0 0 0 0 0 0
          0 0 0 0 0 0
          0 0 0 0 0 0
          0 0 0 0 0 0
          0 0 0 0 0 0
          0 0 0 0 0 0
          0 0 0 0 0 0
          0 0 0 0 0 0
          0 0 0 0 0 0
          0 0 0 0 0 0
          0 0 0 0 0 0
          0 0 0 0 0 0
          0 0 0 0 0 0
          0 0 0 0 0 0
          0 0 0 0 0 0
          0 0 0 0 0 0
          0 0 0 0 0 0
          0 0 0 0 0 0
          0 0 0 0 0 0
          0 0 0 0 0 0
          0 0 0 0 0 0
          0 0 0 0 0 0
          0 0 0 0 0 0
          0 0 0 0 0 0
          0 0 0 0 0 0
          0 0 0 0 0 0
          0 0 0 0 0 0
          0 0 0 0 0 0
          0 0 0 0 0 0
          0 0 0 0 0 0
          0 0 0 0 0 0
          0 0 0 0 0 0
          0 0 0 0 0 0
          0 0 0 0 0 0
          0 0 0 0 0 0
          0 0 0 0 0 0
          0 0 0 0 0 0
          0 0 0 0 0 0
          0 0 0 0 0 0
          0 0 0 0 0 0
          0 0 0 0 0 0
          0 0 0 0 0 0
          0 0 0 0 0 0
          0 0 0 0 0 0
          0 0 0 0 0 0
          0 0 0 0 0 0
          0 0 0 0 0 0
          0 0 0 0 0 0
          0 0 0 0 0 0
          0 0 0 0 0 0
          0 0 0 0 0 0
          0 0 0 0 0 0
          0 0 0 0 0 0
          0 0 0 0 0 0
          0 0 0 0 0 0
          0 0 0 0 0 0
          0 0 0 0 0 0
          0 0 0 0 0 0
          0 0 0 0 0 0
          0 0 0 0 0 0
          0 0 0 0 0 0
          0 0 0 0 0 0
          0 0 0 0 0 0
          0 0 0 0 0 0
          0 0 0 0 0 0
          0 0 0 0 0 0
          0 0 0 0 0 0
          0 0 0 0 0 0
          0 0 0 0 0 0
          0 0 0 0 0 0
          0 0 0
        </DataArray>
        <DataArray type="Float64" Name="gradient_error" format="ascii" RangeMin="8.87077042130169e-12" RangeMax="4.4111728668915336e-8">
          7.86827970641665e-9 1.4391462041542019e-10 1.0576147890261126e-10 1.058226284264285e-10 5.309945348687997e-11 3.174997364096465e-9
          7.62495546594259e-10 3.3625235277502556e-8 2.066221023023842e-9 5.732759241718348e-11 4.7039167952782596e-11 3.944124814203934e-11
          9.998903044571819e-11 6.636970292560077e-11 3.0818218213305674e-11 4.3122690831590464e-10 3.2135452709099805e-10 1.0767387267216432e-10
          1.411694246444376e-10 5.895378802797793e-11 6.173827102275742e-11 2.3471708973439956e-11 3.055780608503408e-11 4.5581810470399866e-11
          7.865181606968848e-11 3.163264357942039e-11 9.023564486038843e-11 6.347579891284945e-11 1.1496904952094888e-10 2.594962242245174e-9
          1.85615755902199e-9 8.63801170956708e-10 6.146491311856678e-10 6.859056065154066e-10 2.2923885527311823e-10 8.986747416580887e-9
          6.650893113030408e-9 2.269046576273969e-9 8.666772107168517e-11 7.731259264447874e-11 3.409460295861514e-8 1.6229081402847472e-8
          1.3433950397653569e-8 6.4360531510699996e-9 4.873868631056894e-9 1.6078939603054267e-9 1.854031961089153e-8 1.6562751307032414e-8
          6.212514711634319e-9 2.1690337438024348e-11 2.6328977286962944e-11 6.545515101312384e-11 2.888725838750181e-11 3.4265891275126186e-11
          2.831834473255296e-11 3.417763812419365e-11 1.8198758425785785e-11 7.456287172086466e-11 1.5474633474407398e-10 1.448716748855178e-10
          1.1922151951466512e-10 7.010154495621366e-10 6.511892572340992e-10 4.004033352307981e-10 5.23075850020363e-10 4.6544410334532314e-11
          4.3883970576511734e-11 9.126104871076113e-11 8.548387688904913e-11 2.554504829351003e-11 5.199194255957896e-11 4.871906096295507e-11
          3.694699736434282e-11 7.050254803173552e-11 4.031131550360355e-11 2.5434542960356926e-10 2.362165700253814e-10 1.337557546020761e-10
          1.8972425212756784e-10 7.683128442262824e-11 1.422902258662677e-10 4.7277522866263147e-11 8.729103445561866e-11 5.2330195772413105e-11
          9.395025955377188e-11 5.7759923323513456e-11 3.6715955135793574e-10 2.2544942146182564e-10 2.3020639092011942e-10 2.8342323374310846e-11
          5.178798751797593e-11 1.6845080848662172e-11 2.961428655960597e-11 2.0020234466094198e-11 3.416765379110615e-11 2.2305150395588236e-11
          1.3349869974328765e-10 7.595529499043291e-11 8.365658513064359e-11 3.4220388553137314e-11 5.716634194627491e-11 2.1601043641956733e-11
          3.547105882110503e-11 2.7425392141391486e-11 4.210923270768593e-11 2.6558315904051867e-11 1.32081227186959e-10 8.135685019759033e-11
          8.316499704845841e-11 1.3172689081296929e-11 2.075126073780746e-11 1.0400836004126845e-11 1.519879104952667e-11 1.0319092068832666e-11
          1.5444797933220534e-11 1.1586373868960632e-11 4.796115811027039e-11 3.2380613842069076e-11 3.4245751637886773e-11 1.805220528729746e-9
          1.66764591290199e-9 1.1161091293790895e-9 1.0299752637261573e-9 1.3131232907190653e-9 8.091804598786963e-10 4.144796704167877e-9
          3.8268959844666185e-9 2.3899985000133968e-9 2.9890798210257145e-9 6.579339137260589e-10 6.069380340780848e-10 3.704025059792103e-10
          3.4180284673180865e-10 4.766943441793257e-10 2.688899443739375e-10 1.5372145623877635e-9 1.4136669049592288e-9 7.938826597079999e-10
          1.0948071304302825e-9 8.867914066453683e-10 5.454393726548751e-10 5.267015953503393e-10 3.236130191966133e-10 1.966023458551058e-9
          1.21403102704182e-9 1.1148244422901014e-9 3.219297780425385e-10 1.8247096188773556e-10 1.9174219801015138e-10 1.0932675610535069e-10
          7.15176400239021e-10 4.02596413113131e-10 4.047199120169786e-10 8.18220147007661e-9 7.600501460760719e-9 5.237275440643585e-9
          4.842185905354449e-9 5.9819764834029e-9 3.769728192774526e-9 1.357540972768737e-8 1.2792515069186736e-8 8.39638238054432e-9
          1.0330545722499929e-8 3.1476804735194813e-9 2.8999502022871653e-9 1.7802414415270875e-9 1.6364257928723098e-9 2.240622359430397e-9
          1.2593477489870496e-9 5.528841462558998e-9 5.132219644607615e-9 2.933060392485192e-9 4.008612707587718e-9 3.901434069756845e-9
          2.4303723466536343e-9 2.1435881037641787e-9 1.3240565568642646e-9 6.809220210638296e-9 4.297378311445875e-9 1.4357077075118363e-9
          8.062667127700884e-10 7.809114678611999e-10 4.405030068418315e-10 2.55692499135742e-9 1.4381875839000283e-9 1.354448793883356e-9
          2.857790286273779e-10 1.7530544805975514e-10 1.4340049071694952e-10 1.0238694779897477e-10 1.0358024931362769e-10 5.91273467259612e-11
          7.008912476348867e-11 3.996640375322414e-11 2.0707523604624709e-10 1.1792385823171915e-10 1.1589429700121345e-10 4.868581777139802e-11
          6.879102990758766e-11 3.776561158460793e-11 5.2135490630391264e-11 3.443692462719417e-11 4.6343473862193565e-11 3.659830056759086e-11
          3.3516255216215e-8 3.4734526722115606e-8 3.259048378173215e-8 3.5499473383856255e-8 2.3592255031573536e-8 2.489571790395041e-8
          1.8976484186418346e-8 1.82746878596012e-8 1.3031161547697613e-8 1.2394036626085703e-8 1.5360257804423268e-8 1.0134197453929896e-8
          2.3159068878211592e-8 2.2800580788911603e-8 1.5791248059493912e-8 1.995454302584446e-8 8.285478562486927e-9 7.790905010999639e-9
          4.862249485533244e-9 4.534805858423041e-9 6.2215839923653016e-9 3.5620219692123305e-9 1.0701972738540305e-8 1.0232769687261848e-8
          6.0771422847230125e-9 8.408520380571367e-9 1.0382224011446564e-8 6.655467154916648e-9 1.3880537182392415e-8 9.031038646539524e-9
          3.999843135732112e-9 2.2605630897582637e-9 2.0897552311099813e-9 1.1764952880274556e-9 5.484359464001543e-9 3.1182573387095016e-9
          2.852275482362619e-9 2.5604610482596265e-8 2.568684902925151e-8 1.801245645221184e-8 1.7888704192622665e-8 2.316266267388099e-8
          1.5742632669415163e-8 2.6351692911406728e-8 2.6667610688695953e-8 1.856891990306327e-8 2.432843008450057e-8 1.2211927763552487e-8
          1.1860378901329728e-8 7.501585791175763e-9 7.162339305547297e-9 9.999058202705904e-9 5.851702040862382e-9 1.2697270727475631e-8
          1.2413682466882675e-8 7.546958497744753e-9 1.0576646954627116e-8 1.6427250074605622e-8 1.0798590492250121e-8 1.7357267486339296e-8
          1.1451248466017443e-8 6.610351273189341e-9 3.7766472660312886e-9 3.437380782428238e-9 1.940568014258156e-9 7.030978329930753e-9
          4.024286291739113e-9 3.6576928851480657e-9 1.606741425442221e-11 1.5102634675499353e-11 2.8363408933082914e-11 2.6595619294585565e-11
          1.270689884648908e-11 2.208477595434984e-11 7.813096510087505e-11 7.270666172312059e-11 5.872669130579401e-11 1.0073356508851677e-11
          1.633657102329795e-11 8.87077042130169e-12 1.3331419793984437e-11 4.147618228076582e-11 3.091633612840849e-11 1.998356202925168e-10
          1.8458756038103213e-10 1.4569568213123448e-10 4.615209241099931e-10 4.242591826021654e-10 3.291773399747958e-10 9.943356757538033e-11
          5.992753018998024e-11 3.1711265759916753e-11 2.1699205860238981e-10 1.2484614839728212e-10 9.512266797323849e-10 8.734016992052151e-10
          6.71612451797346e-10 1.7091353254865633e-9 1.5739049910267686e-9 1.211238160833833e-9 4.3164589187604914e-10 7.675280248194587e-10
          2.11652038861541e-11 3.263989487098344e-11 1.1504187604140979e-11 1.757909314434433e-11 1.514407997770222e-11 2.2240000719845558e-11
          1.2224119094078242e-11 6.499985676671339e-11 3.4618592979427e-11 3.678085427066478e-11 2.653122508626013e-9 2.4598603738488114e-9
          1.9113049462386474e-9 3.5694542734126797e-9 3.3398254058487793e-9 2.6335903165745516e-9 1.2065146057476254e-9 1.6675097352832692e-9
          4.217873404167481e-9 3.9792560630371185e-9 3.1806707344474822e-9 4.448292853028312e-9 4.210907514456359e-9 3.3845652649136816e-9
          2.023813908792866e-9 2.15840373154982e-9 1.8629853177272597e-10 7.498349818555138e-11 1.2936464609598721e-10 3.0720036869685116e-10
          2.858630730367942e-10 6.940925976089841e-11 5.192455184832122e-10 8.11865851414634e-11 2.4844008632727337e-10 1.1346999862790742e-10
          4.788351093111341e-10 4.3613551092571205e-10 1.1561548057675211e-10 5.53749240562969e-10 1.6985190506126872e-10 8.102940232107921e-11
          1.4875210018357457e-10 1.2449708177163791e-10 1.056050952915619e-10 1.8069549379138684e-10 1.9602481675684855e-10 1.5949828339116184e-10
          1.451158061925956e-10 1.5897634247001907e-10 2.1030308052567158e-10 1.7394834592709723e-10 1.8662362410437752e-10 1.383700594337985e-10
          8.258502186933357e-11 2.195317024314172e-10 2.913492770473806e-10 1.2052697916533752e-10 3.04748571877592e-10 3.324631609204146e-11
          4.904352123752157e-11 1.3224178568557692e-10 1.2414822437609192e-10 2.53741440354164e-10 2.373762938196621e-10 1.0303611266596016e-10
          1.9495726554750786e-10 4.006802055887582e-10 3.749990719729656e-10 1.0926212323158203e-9 1.016007745002053e-9 3.0836340094892113e-10
          8.18332631781793e-10 1.2295297554366926e-10 2.2540515958830507e-10 1.4903883320450743e-10 5.764959101323963e-10 3.630239888525782e-10
          5.4023727474352575e-11 9.031277094910546e-11 6.594933112513712e-11 2.084374699555577e-10 2.7804902032712117e-9 2.5733022190287404e-9
          2.035558153949545e-9 6.257679529483067e-9 5.796740013220501e-9 4.565517799690409e-9 1.3824297765013772e-9 8.258401487974347e-10
          3.0337129218001874e-9 1.7366571549668744e-9 1.1981605397299081e-8 1.1196520956003068e-8 8.940736119597226e-9 1.9194064969004028e-8
          1.8235559555091865e-8 1.5029092132415292e-8 5.9309849404466434e-9 3.309141549036355e-9 1.0157017009560671e-8 3.6866269905364905e-9
          5.627504815258407e-9 2.2921576612015295e-9 4.4983953070331636e-10 2.2834088307173448e-10 5.714497489082502e-10 8.955530616608876e-10
          3.510735214790278e-10 2.733587819356782e-10 4.326079705728114e-10 7.845302121243038e-11 1.1124649178713543e-10 7.366746113249858e-11
          1.244923766239341e-10 1.9906906374804414e-10 8.708833135182727e-11 7.840034242885741e-11 1.045901454599821e-9 1.6326914605328887e-9
          6.436092503364672e-10 1.735261497859142e-9 2.694927712658883e-9 1.0695926119721101e-9 3.8728936727044465e-8 3.165934045037634e-8
          3.1618949651361944e-8 4.008754177061375e-8 3.743911835920387e-8 4.1437961348358374e-8 2.8242728382583808e-8 3.7727069465312245e-8
          4.2607395875439556e-8 3.6073534578914686e-8 4.120732096109665e-8 4.4111728668915336e-8 2.0043488901743298e-8 2.755984077614166e-8
          3.231389086178029e-8 1.1298308346219827e-8 1.5923188116282592e-8 1.3382240408130617e-8 1.8754009824144502e-8 3.4061069810522454e-8
          1.4151273197094018e-8 1.9802898900809417e-8 2.644371008649134e-8 2.5637466764421456e-8 2.1910535191425764e-8 1.5188975274873732e-8
          5.620728791689438e-9 8.476503938012107e-9 3.5227778845724395e-9 7.577734373163462e-9 4.786439721581616e-9 9.047694495595162e-9
          5.747974389486633e-9 9.594211902313018e-9 6.1082683435954635e-9
        </DataArray>
        <DataArray type="Float64" Name="gradient_matprop_error" format="ascii" RangeMin="0" RangeMax="0">
          0 0 0 0 0 0
          0 0 0 0 0 0
          0 0 0 0 0 0
          0 0 0 0 0 0
          0 0 0 0 0 0
          0 0 0 0 0 0
          0 0 0 0 0 0
          0 0 0 0 0 0
          0 0 0 0 0 0
          0 0 0 0 0 0
          0 0 0 0 0 0
          0 0 0 0 0 0
          0 0 0 0 0 0
          0 0 0 0 0 0
          0 0 0 0 0 0
          0 0 0 0 0 0
          0 0 0 0 0 0
          0 0 0 0 0 0
          0 0 0 0 0 0
          0 0 0 0 0 0
          0 0 0 0 0 0
          0 0 0 0 0 0
          0 0 0 0 0 0
          0 0 0 0 0 0
          0 0 0 0 0 0
          0 0 0 0 0 0
          0 0 0 0 0 0
          0 0 0 0 0 0
          0 0 0 0 0 0
          0 0 0 0 0 0
          0 0 0 0 0 0
          0 0 0 0 0 0
          0 0 0 0 0 0
          0 0 0 0 0 0
          0 0 0 0 0 0
          0 0 0 0 0 0
          0 0 0 0 0 0
          0 0 0 0 0 0
          0 0 0 0 0 0
          0 0 0 0 0 0
          0 0 0 0 0 0
          0 0 0 0 0 0
          0 0 0 0 0 0
          0 0 0 0 0 0
          0 0 0 0 0 0
          0 0 0 0 0 0
          0 0 0 0 0 0
          0 0 0 0 0 0
          0 0 0 0 0 0
          0 0 0 0 0 0
          0 0 0 0 0 0
          0 0 0 0 0 0
          0 0 0 0 0 0
          0 0 0 0 0 0
          0 0 0 0 0 0
          0 0 0 0 0 0
          0 0 0 0 0 0
          0 0 0 0 0 0
          0 0 0 0 0 0
          0 0 0 0 0 0
          0 0 0 0 0 0
          0 0 0 0 0 0
          0 0 0 0 0 0
          0 0 0 0 0 0
          0 0 0 0 0 0
          0 0 0 0 0 0
          0 0 0 0 0 0
          0 0 0 0 0 0
          0 0 0 0 0 0
          0 0 0 0 0 0
          0 0 0 0 0 0
          0 0 0 0 0 0
          0 0 0 0 0 0
          0 0 0 0 0 0
          0 0 0 0 0 0
          0 0 0 0 0 0
          0 0 0 0 0 0
          0 0 0
        </DataArray>
        <DataArray type="Float64" Name="initial_marker" format="ascii" RangeMin="0" RangeMax="2">
          2 2 0 0 1.25 2
          2 2 2 0 0.5 0.25
          0 0 0 2 2 2
          2 0 0 0 0 0
          0 0 0.5 0 0 2
          2 2 2 2 2 2
          2 2 1.25 0 2 2
          2 2 2 2 2 2
          2 0 0.25 2 0 0.25
          0 0 0 2 2 2
          2 2 2 2 2 2
          2 2 2 1 1.5 1.5
          1.5 1.75 1.25 2 2 2
          2 1.5 1.75 1 1.5 0.5
          1.25 1 2 2 2 0.5
          1.25 0 0.75 0 0.75 0.3333333333333333
          2 1.75 1.75 0 0.5 0
          0.5 0 0 0 1.5 1.5
          0.6666666666666666 0 0.25 0 0 0
          0 0 1 0.6666666666666666 0.5 2
          2 2 2 2 2 2
          2 2 2 2 2 2
          2 2 2 2 2 2
          2 2 2 2 2 2
          2 2 2 2 2 2
          2 2 2 2 2 2
          2 2 2 2 2 2
          2 2 2 2 2 2
          2 2 2 2 2 2
          2 2 2 2 2 2
          2 2 2 2 2 2
          2 2 1.5 1.6666666666666667 1.75 1.5
          1.5 1 2 2 2 0
          0.5 0 0.5 0 0 0
          2 2 2 2 2 2
          2 2 2 2 2 2
          2 2 2 2 2 2
          2 2 2 2 2 2
          2 2 2 2 2 2
          2 2 2 2 2 2
          2 2 2 2 2 2
          2 2 2 2 2 2
          2 2 2 2 2 2
          2 2 2 2 2 2
          2 2 2 2 2 2
          2 2 0 0 1 1
          0 0.75 2 2 1.75 0
          0.25 0 0 1.25 1 2
          2 2 2 2 2 2
          1.75 1.25 2 2 2 2
          2 2 2 2 2 2
          0.5 1 0 0.5 0 0.5
          0 1.75 1.25 1 2 2
          2 2 2 2 2 2
          2 2 2 2 2 2
          2 2 0 0 0 0
          0 0 0 0 0 0
          0 0 0 0 0 0
          0 1 1 0 1 0.5
          0 0 0 0.5 1.75 0
          0 0 0.25 0 0 0
          0 2 2 2 2 2
          2 2 2 2 2 2
          2 2 2 1.5 2 2
          0 0.5 0 1.5 2 2
          2 2 2 2 2 2
          2 2 2 2 2 2
          2 2 2 2 2 2
          2 2 2 1.5 2 2
          2 2 2 0 0.5 0
          1 1.25 1 0 2 2
          2 2 2 2 2 2
          2 2 2 2 2 2
          2 2 2 2 2 2
          2 2 2 2 2 2
          2 2 2 2 2 2
          2 2 2 2 2 2
          2 2 2
        </DataArray>
        <DataArray type="Float64" Name="markers_norefine" format="ascii" RangeMin="0" RangeMax="1">
          0 0 0 0 0 0
          0 0 0 0 0 0
          0 0 0 0 0 0
          0 0 0 0 0 0
          0 0 0 0 0 0
          0 0 0 0 0 0
          0 0 0 0 0 0
          0 0 0 0 0 0
          0 0 0 0 0 0
          0 0 0 0 0 0
          0 0 0 0 0 0
          0 0 0 0 0 0
          0 0 0 0 0 0
          0 0 0 0 0 0
          0 0 0 0 0 0
          0 0 0 0 0 0
          0 0 0 0 0 0
          0 0 0 0 0 0
          0 0 0 0 0 0
          0 0 0 0 0 0
          0 0 0 0 0 0
          0 0 0 0 0 0
          0 0 0 0 0 0
          0 0 0 0 0 0
          0 0 0 0 0 0
          0 0 0 0 0 0
          0 0 0 0 0 0
          0 0 0 0 0 0
          0 0 0 0 0 0
          0 0 0 0 0 0
          0 0 0 0 0 0
          0 0 0 0 0 0
          0 0 0 0 0 0
          0 0 0 0 0 0
          0 0 0 0 0 0
          0 0 0 0 0 0
          0 0 0 0 0 0
          0 0 0 0 0 0
          0 0 0 0 0 0
          0 0 0 0 0 0
          0 0 0 0 0 0
          0 0 0 0 0 0
          0 0 0 0 0 0
          0 0 0 0 0 0
          0 0 0 0 0 0
          0 0 0 0 0 0
          0 0 0 0 0 0
          0 0 0 0 0 0
          0 0 0 0 0 0
          0 0 0 0 0 0
          0 0 0 0 0 0
          0 0 0 0 0 0
          0 0 0 0 0 0
          0 0 0 0 0 0
          0 0 0 0 0 0
          0 0 0 0 0 0
          0 0 0 0 0 0
          0 0 0 0 0 0
          0 0 0 0 0 0
          0 0 0 0 0 0
          0 0 0 0 0 0
          0 0 0 0 0 0
          0 0 0 0 0 0
          0 0 0 0 0 0
          0 0 0 0 0 0
          0 0 0 0 0 0
          0 0 0 0 0 0
          0 0 0 0 0 0
          0 0 0 0 0 0
          0 0 0 0 0 0
          0 0 0 0 0 0
          0 0 0 0 0.5 0
          0 0.25 1 0.5 0 0
          0 1 0.5 0 0 0
          0 0 0 0 0 0
          0 0 0 0 0 0
          0 0 0 0 0 0
          0 0 0
        </DataArray>
        <DataArray type="Float64" Name="markers_mustrefine" format="ascii" RangeMin="0" RangeMax="2">
          2 2 0 0 1.25 2
          2 2 2 0 0.5 0.25
          0 0 0 2 2 2
          2 0 0 0 0 0
          0 0 0.5 0 0 2
          2 2 2 2 2 2
          2 2 1.25 0 2 2
          2 2 2 2 2 2
          2 0 0.25 2 0 0.25
          0 0 0 2 2 2
          2 2 2 2 2 2
          2 2 2 1 1.5 1.5
          1.5 1.75 1.25 2 2 2
          2 1.5 1.75 1 1.5 0.5
          1.25 1 2 2 2 0.5
          1.25 0 0.75 0 0.75 0.3333333333333333
          2 1.75 1.75 0 0.5 0
          0.5 0 0 0 1.5 1.5
          0.6666666666666666 0 0.25 0 0 0
          0 0 1 0.6666666666666666 0.5 2
          2 2 2 2 2 2
          2 2 2 2 2 2
          2 2 2 2 2 2
          2 2 2 2 2 2
          2 2 2 2 2 2
          2 2 2 2 2 2
          2 2 2 2 2 2
          2 2 2 2 2 2
          2 2 2 2 2 2
          2 2 2 2 2 2
          2 2 2 2 2 2
          2 2 1.5 1.6666666666666667 1.75 1.5
          1.5 1 2 2 2 0
          0.5 0 0.5 0 0 0
          2 2 2 2 2 2
          2 2 2 2 2 2
          2 2 2 2 2 2
          2 2 2 2 2 2
          2 2 2 2 2 2
          2 2 2 2 2 2
          2 2 2 2 2 2
          2 2 2 2 2 2
          2 2 2 2 2 2
          2 2 2 2 2 2
          2 2 2 2 2 2
          2 2 0 0 1 1
          0 0.75 2 2 1.75 0
          0.25 0 0 1.25 1 2
          2 2 2 2 2 2
          1.75 1.25 2 2 2 2
          2 2 2 2 2 2
          0.5 1 0 0.5 0 0.5
          0 1.75 1.25 1 2 2
          2 2 2 2 2 2
          2 2 2 2 2 2
          2 2 0 0 0 0
          0 0 0 0 0 0
          0 0 0 0 0 0
          0 1 1 0 1 0.5
          0 0 0 0.5 1.75 0
          0 0 0.25 0 0 0
          0 2 2 2 2 2
          2 2 2 2 2 2
          2 2 2 1.5 2 2
          0 0.5 0 1.5 2 2
          2 2 2 2 2 2
          2 2 2 2 2 2
          2 2 2 2 2 2
          2 2 2 1.5 2 2
          2 2 2 0 0.5 0
          1 1.25 1 0 2 2
          2 2 2 2 2 2
          2 2 2 2 2 2
          2 2 2 2 2 2
          2 2 2 2 2 2
          2 2 2 2 2 2
          2 2 2 2 2 2
          2 2 2
        </DataArray>
        <DataArray type="Float64" Name="gradient_marker" format="ascii" RangeMin="1" RangeMax="1">
          1 1 1 1 1 1
          1 1 1 1 1 1
          1 1 1 1 1 1
          1 1 1 1 1 1
          1 1 1 1 1 1
          1 1 1 1 1 1
          1 1 1 1 1 1
          1 1 1 1 1 1
          1 1 1 1 1 1
          1 1 1 1 1 1
          1 1 1 1 1 1
          1 1 1 1 1 1
          1 1 1 1 1 1
          1 1 1 1 1 1
          1 1 1 1 1 1
          1 1 1 1 1 1
          1 1 1 1 1 1
          1 1 1 1 1 1
          1 1 1 1 1 1
          1 1 1 1 1 1
          1 1 1 1 1 1
          1 1 1 1 1 1
          1 1 1 1 1 1
          1 1 1 1 1 1
          1 1 1 1 1 1
          1 1 1 1 1 1
          1 1 1 1 1 1
          1 1 1 1 1 1
          1 1 1 1 1 1
          1 1 1 1 1 1
          1 1 1 1 1 1
          1 1 1 1 1 1
          1 1 1 1 1 1
          1 1 1 1 1 1
          1 1 1 1 1 1
          1 1 1 1 1 1
          1 1 1 1 1 1
          1 1 1 1 1 1
          1 1 1 1 1 1
          1 1 1 1 1 1
          1 1 1 1 1 1
          1 1 1 1 1 1
          1 1 1 1 1 1
          1 1 1 1 1 1
          1 1 1 1 1 1
          1 1 1 1 1 1
          1 1 1 1 1 1
          1 1 1 1 1 1
          1 1 1 1 1 1
          1 1 1 1 1 1
          1 1 1 1 1 1
          1 1 1 1 1 1
          1 1 1 1 1 1
          1 1 1 1 1 1
          1 1 1 1 1 1
          1 1 1 1 1 1
          1 1 1 1 1 1
          1 1 1 1 1 1
          1 1 1 1 1 1
          1 1 1 1 1 1
          1 1 1 1 1 1
          1 1 1 1 1 1
          1 1 1 1 1 1
          1 1 1 1 1 1
          1 1 1 1 1 1
          1 1 1 1 1 1
          1 1 1 1 1 1
          1 1 1 1 1 1
          1 1 1 1 1 1
          1 1 1 1 1 1
          1 1 1 1 1 1
          1 1 1 1 1 1
          1 1 1 1 1 1
          1 1 1 1 1 1
          1 1 1 1 1 1
          1 1 1 1 1 1
          1 1 1 1 1 1
          1 1 1
        </DataArray>
        <DataArray type="Float64" Name="gradient_matprop_marker" format="ascii" RangeMin="0" RangeMax="0">
          0 0 0 0 0 0
          0 0 0 0 0 0
          0 0 0 0 0 0
          0 0 0 0 0 0
          0 0 0 0 0 0
          0 0 0 0 0 0
          0 0 0 0 0 0
          0 0 0 0 0 0
          0 0 0 0 0 0
          0 0 0 0 0 0
          0 0 0 0 0 0
          0 0 0 0 0 0
          0 0 0 0 0 0
          0 0 0 0 0 0
          0 0 0 0 0 0
          0 0 0 0 0 0
          0 0 0 0 0 0
          0 0 0 0 0 0
          0 0 0 0 0 0
          0 0 0 0 0 0
          0 0 0 0 0 0
          0 0 0 0 0 0
          0 0 0 0 0 0
          0 0 0 0 0 0
          0 0 0 0 0 0
          0 0 0 0 0 0
          0 0 0 0 0 0
          0 0 0 0 0 0
          0 0 0 0 0 0
          0 0 0 0 0 0
          0 0 0 0 0 0
          0 0 0 0 0 0
          0 0 0 0 0 0
          0 0 0 0 0 0
          0 0 0 0 0 0
          0 0 0 0 0 0
          0 0 0 0 0 0
          0 0 0 0 0 0
          0 0 0 0 0 0
          0 0 0 0 0 0
          0 0 0 0 0 0
          0 0 0 0 0 0
          0 0 0 0 0 0
          0 0 0 0 0 0
          0 0 0 0 0 0
          0 0 0 0 0 0
          0 0 0 0 0 0
          0 0 0 0 0 0
          0 0 0 0 0 0
          0 0 0 0 0 0
          0 0 0 0 0 0
          0 0 0 0 0 0
          0 0 0 0 0 0
          0 0 0 0 0 0
          0 0 0 0 0 0
          0 0 0 0 0 0
          0 0 0 0 0 0
          0 0 0 0 0 0
          0 0 0 0 0 0
          0 0 0 0 0 0
          0 0 0 0 0 0
          0 0 0 0 0 0
          0 0 0 0 0 0
          0 0 0 0 0 0
          0 0 0 0 0 0
          0 0 0 0 0 0
          0 0 0 0 0 0
          0 0 0 0 0 0
          0 0 0 0 0 0
          0 0 0 0 0 0
          0 0 0 0 0 0
          0 0 0 0 0 0
          0 0 0 0 0 0
          0 0 0 0 0 0
          0 0 0 0 0 0
          0 0 0 0 0 0
          0 0 0 0 0 0
          0 0 0
        </DataArray>
        <DataArray type="Float64" Name="combo" format="ascii" RangeMin="1" RangeMax="1.5">
          1 1 1 1 1 1
          1 1 1 1 1 1
          1 1 1 1 1 1
          1 1 1 1 1 1
          1 1 1 1 1 1
          1 1 1 1 1 1
          1 1 1 1 1 1
          1 1 1 1 1 1
          1 1 1 1 1 1
          1 1 1 1 1 1
          1 1 1 1 1 1
          1 1 1 1 1 1
          1 1 1 1 1 1
          1 1 1 1 1 1
          1 1 1 1 1 1
          1 1 1 1 1 1
          1 1 1 1 1 1
          1 1 1 1 1 1
          1 1 1 1 1 1
          1 1 1 1 1 1
          1 1 1 1 1 1
          1 1 1 1 1 1
          1 1 1 1 1 1
          1 1 1 1 1 1
          1 1 1 1 1 1
          1 1 1 1 1 1
          1 1 1 1 1 1
          1 1 1 1 1 1
          1 1 1 1 1 1
          1 1 1 1 1 1
          1 1 1 1 1 1
          1 1 1 1 1 1
          1 1 1 1 1 1
          1 1 1 1 1 1
          1 1 1 1 1 1
          1 1 1 1 1 1
          1 1 1 1 1 1
          1 1 1 1 1 1
          1 1 1 1 1 1
          1 1 1 1 1 1
          1 1 1 1 1 1
          1 1 1 1 1 1
          1 1 1 1 1 1
          1 1 1 1 1 1
          1 1 1 1 1 1
          1 1 1 1 1 1
          1 1 1 1 1 1
          1 1 1 1 1 1
          1 1 1 1 1 1
          1 1 1 1 1 1
          1 1 1 1 1 1
          1 1 1 1 1 1
          1 1 1 1 1 1
          1 1 1 1 1 1
          1 1 1 1 1 1
          1 1 1 1 1 1
          1 1 1 1 1 1
          1 1 1 1 1 1
          1 1 1 1 1 1
          1 1 1 1 1 1
          1 1 1 1 1 1
          1 1 1 1 1 1
          1 1 1 1 1 1
          1 1 1 1 1 1
          1 1 1 1 1 1
          1 1 1 1 1 1
          1 1 1 1 1 1
          1 1 1 1 1 1
          1 1 1 1 1 1
          1 1 1 1 1 1
          1 1 1 1 1 1
          1 1 1 1 1.25 1
          1 1.125 1.5 1.25 1 1
          1 1.5 1.25 1 1 1
          1 1 1 1 1 1
          1 1 1 1 1 1
          1 1 1 1 1 1
          1 1 1
        </DataArray>
        <DataArray type="Float64" Name="dHdT" format="ascii" RangeMin="25.811908313419153" RangeMax="50.351909751173025">
          27.935138518485637 25.8353463863878 25.813742750213898 25.812451290863287 25.81931788290486 26.452716572201343