<?xml version="1.0"?>
<VTKFile type="UnstructuredGrid" version="0.1" byte_order="LittleEndian" header_type="UInt32" compressor="vtkZLibDataCompressor">
  <UnstructuredGrid>
    <Piece NumberOfPoints="514" NumberOfCells="270">
      <PointData>
        <DataArray type="Int32" Name="libmesh_node_id" format="ascii" RangeMin="114" RangeMax="4717">
          152 154 156 188 189 190
          191 192 193 208 209 210
          224 225 226 227 229 244
          245 246 252 253 254 255
          256 257 258 259 260 261
          262 263 264 265 266 267
          268 269 270 313 314 315
          316 317 318 319 320 321
          322 323 324 325 326 327
          328 329 330 331 332 333
          334 335 336 337 338 339
          340 341 342 343 344 345
          346 347 348 349 350 352
          353 354 355 356 357 358
          359 432 433 436 442 479
          481 486 489 504 505 508
          514 604 605 606 607 608
          609 610 611 612 613 614
          615 616 617 618 619 620
          621 622 623 624 625 626
          627 628 629 630 631 632
          633 634 635 636 637 638
          639 640 641 642 643 644
          645 646 647 648 649 650
          651 652 653 654 655 656
          657 658 659 660 661 662
          663 664 665 666 667 668
          672 673 674 675 676 678
          681 682 685 691 967 968
          969 970 971 972 973 974
          975 976 977 978 979 980
          981 982 983 984 985 986
          997 998 999 1000 1001 1002
          1003 1004 1005 1006 1007 1008
          1009 1010 1011 1012 1013 1014
          1015 1016 1017 1018 1019 1020
          1021 1022 1023 1024 1025 1026
          1027 1028 1029 1030 1031 1032
          1033 1034 1035 1036 1037 1038
          1039 1040 1057 1058 1059 1060
          1061 1062 1063 1064 1065 1066
          1067 1068 1069 1070 1071 1072
          1073 1074 1075 1076 1077 1078
          1079 1080 1081 1082 1083 1084
          1085 1086 1087 1088 1089 1090
          1091 1092 1093 1094 1095 1096
          1097 1098 1099 1100 1101 1102
          1103 1104 1105 1106 1107 1108
          1109 1110 1111 1112 1113 1114
          1115 1116 1117 1118 1119 1120
          1853 1854 1855 1856 1857 1858
          1859 1860 1861 1862 1863 1864
          1865 1866 1867 1868 1869 1870
          1871 1872 1938 1939 1940 1941
          1942 1943 1944 1945 1946 1947
          1948 1949 1950 1951 4248 4249
          4250 4251 4252 4253 4254 4255
          4256 4257 4305 4306 4307 4308
          4309 4310 4311 4312 4313 4314
          4315 4316 4317 4318 4319 4320
          4321 4322 4323 4324 4325 4326
          4327 4328 4329 4330 4331 4332
          4333 4334 4335 4336 4337 4338
          4339 4340 4341 4342 4343 4344
          4345 4346 4347 4348 4349 4350
          4351 4352 4353 4354 4355 4356
          4357 4358 4359 4360 4361 4362
          4363 4364 4365 4400 4401 4402
          4403 4404 4405 4440 4441 4442
          4443 4444 4445 4667 4668 4669
          4672 4675 4677 4678 4679 4680
          4681 4682 4683 4684 4685 4688
          4689 4691 4694 4696 4697 4698
          4699 4700 4701 4704 4705 4706
          4708 4710 4712 4713 4714 4715
          4716 4717 114 116 117 115
          150 153 151 118 119 155
          120 121 157 172 171 187
          207 173 174 351 669 670
          671 228 677 4295 4297 4300
          4394 4395 4396 4399 186 4432
          4433 4436 223 4438 243 4663
          4664 4665 4666 4670 4671 4673
          4674 4676 4686 4687 4690 4692
          4693 4695 4702 4703 4655 4656
          4707 4659 4709 4711
        </DataArray>
        <DataArray type="Float64" Name="bounds" format="ascii" RangeMin="0" RangeMax="0">
          0 0 0 0 0 0
          0 0 0 0 0 0
          0 0 0 0 0 0
          0 0 0 0 0 0
          0 0 0 0 0 0
          0 0 0 0 0 0
          0 0 0 0 0 0
          0 0 0 0 0 0
          0 0 0 0 0 0
          0 0 0 0 0 0
          0 0 0 0 0 0
          0 0 0 0 0 0
          0 0 0 0 0 0
          0 0 0 0 0 0
          0 0 0 0 0 0
          0 0 0 0 0 0
          0 0 0 0 0 0
          0 0 0 0 0 0
          0 0 0 0 0 0
          0 0 0 0 0 0
          0 0 0 0 0 0
          0 0 0 0 0 0
          0 0 0 0 0 0
          0 0 0 0 0 0
          0 0 0 0 0 0
          0 0 0 0 0 0
          0 0 0 0 0 0
          0 0 0 0 0 0
          0 0 0 0 0 0
          0 0 0 0 0 0
          0 0 0 0 0 0
          0 0 0 0 0 0
          0 0 0 0 0 0
          0 0 0 0 0 0
          0 0 0 0 0 0
          0 0 0 0 0 0
          0 0 0 0 0 0
          0 0 0 0 0 0
          0 0 0 0 0 0
          0 0 0 0 0 0
          0 0 0 0 0 0
          0 0 0 0 0 0
          0 0 0 0 0 0
          0 0 0 0 0 0
          0 0 0 0 0 0
          0 0 0 0 0 0
          0 0 0 0 0 0
          0 0 0 0 0 0
          0 0 0 0 0 0
          0 0 0 0 0 0
          0 0 0 0 0 0
          0 0 0 0 0 0
          0 0 0 0 0 0
          0 0 0 0 0 0
          0 0 0 0 0 0
          0 0 0 0 0 0
          0 0 0 0 0 0
          0 0 0 0 0 0
          0 0 0 0 0 0
          0 0 0 0 0 0
          0 0 0 0 0 0
          0 0 0 0 0 0
          0 0 0 0 0 0
          0 0 0 0 0 0
          0 0 0 0 0 0
          0 0 0 0 0 0
          0 0 0 0 0 0
          0 0 0 0 0 0
          0 0 0 0 0 0
          0 0 0 0 0 0
          0 0 0 0 0 0
          0 0 0 0 0 0
          0 0 0 0 0 0
          0 0 0 0 0 0
          0 0 0 0 0 0
          0 0 0 0 0 0
          0 0 0 0 0 0
          0 0 0 0 0 0
          0 0 0 0 0 0
          0 0 0 0 0 0
          0 0 0 0 0 0
          0 0 0 0 0 0
          0 0 0 0 0 0
          0 0 0 0 0 0
          0 0 0 0 0 0
          0 0 0 0
        </DataArray>
        <DataArray type="Float64" Name="gradient_error" format="ascii" RangeMin="1.744270176078301e-9" RangeMax="0.0000019823499491713203">
          1.7093168483244076e-8 2.582996296150356e-8 4.609470624887384e-9 1.8153067668753077e-7 1.548460061346127e-7 5.192502888291523e-7
          8.951100292210931e-8 1.5809182252600516e-8 2.209252132026137e-8 1.2138541961798008e-8 1.0695169968672998e-8 4.792591232188148e-9
          0.0000012786871059499748 2.3291634762830202e-7 1.570144426269647e-7 7.334955351954304e-7 1.45874783719489e-8 2.5619113413226038e-8
          5.494906602363449e-8 2.0438227833948676e-9 5.414281286304908e-8 6.892082562965662e-8 3.2930407347477374e-7 9.878451462493247e-7
          2.6752988498227406e-7 4.1354052891104756e-7 8.946223117999667e-7 2.3490713665370095e-8 2.0558086380253394e-7 2.0931898595202416e-7
          6.219179906318268e-8 7.459068869459107e-8 4.2786960520695405e-7 2.277760917690178e-8 2.0909765545534972e-7 3.646936607805854e-7
          0.0000012357898928643891 2.90095950688e-7 7.183555036097405e-8 5.558566202159944e-7 3.777243747909421e-7 2.1408033353669795e-7
          9.592620200998617e-7 0.0000013397790897022461 9.336801978753894e-7 5.658636248365202e-7 1.618193273831386e-7 4.7477526869087936e-7
          2.2056187749848394e-7 0.0000015718506562005434 0.0000015960412798888033 0.0000010622780610537209 7.739137083495843e-7 2.6818391862759025e-7
          4.676552003127671e-7 8.368538692045524e-7 6.850584064420142e-7 3.1566959334067054e-7 5.226574580488726e-7 9.332421944892952e-7
          4.531139998902787e-7 3.555366148571941e-7 5.3732867479898e-7 5.30494482420391e-7 5.2831740859215e-7 8.99498251324849e-7
          5.1560595549995e-7 1.7854411912433427e-7 3.2629373935724356e-7 7.277665531407482e-7 3.691588555516225e-7 3.5949847164558e-7
          2.409674454004474e-7 4.2100195003766624e-7 4.037474165403122e-7 5.542903136106392e-7 2.663237336320789e-7 4.668684840917726e-7
          4.6328205666741347e-7 4.789366566215425e-7 3.1761226890956575e-7 2.518859067879851e-7 4.221396850986913e-7 4.879890494272249e-7
          3.338781840202706e-7 2.312555327965102e-9 8.051120904068787e-9 7.218065699260505e-9 6.385010494452221e-9 4.764191610856103e-9
          6.257389132258971e-9 1.744270176078301e-9 7.75058665366184e-9 1.3345768757383172e-8 1.1398915359954052e-7 7.749743482271103e-8
          4.100571604588153e-8 0.0000018470176473352057 0.0000015458196441049603 0.000001079682236380552 0.0000016639409050820693 0.0000013999949768566609
          0.0000015052926435819098 0.0000016026505056787288 0.0000012446216408747147 0.0000016134857950230174 0.0000011500968502575736 9.335657926258168e-7
          0.0000014678584414099162 0.0000017188373146110644 0.0000019823499491713203 2.9778375646548773e-7 2.923532476266363e-7 2.82456823254255e-7
          2.236518444513018e-7 2.3430249930437016e-7 2.7364011816861574e-7 2.5866717890816375e-7 3.1196541821500296e-7 2.4808406203509067e-7
          2.9060580667568105e-7 2.8060345102812555e-7 3.0187684375471523e-7 2.889116851177666e-7 3.216205819659872e-7 1.65172126671653e-7
          2.3430572428525562e-7 2.2348890715565478e-7 2.4847419355032135e-7 3.085131736715946e-7 3.347813212164496e-7 3.3041417160239077e-7
          2.6585162428527617e-7 3.1128016165575053e-7 3.494015308898722e-7 2.8670664307732426e-7 3.344872624979436e-7 3.166913631849072e-7
          3.409882625916086e-7 3.612399302393265e-7 1.9260725083211916e-7 2.666526124202043e-7 2.8806857800804537e-7 3.466267903721081e-7
          3.7841216494791e-7 3.70249281002334e-7 3.107786322700659e-7 3.6092824343225825e-7 3.9323554005419477e-7 3.3872121150689237e-7
          3.912122280918722e-7 3.4834139655236473e-7 3.83573153363502e-7 4.0824616988730094e-7 2.2861818019211423e-7 3.1288509581924025e-7
          3.418034915999596e-7 3.9421876008394747e-7 4.318209199069993e-7 4.1858747661787485e-7 3.714490256447023e-7 4.260385825679547e-7
          3.8544483995909225e-7 4.3548635219843e-7 4.648100749524206e-7 2.801397920164492e-7 3.757930653676629e-7 4.532545076552033e-7
          1.8838766081761e-7 3.104668700357683e-7 2.8306956196594007e-7 2.241117687913751e-7 1.7679322540578997e-8 1.1012120217239508e-8
          2.345492726545376e-8 1.210856335078471e-7 5.167813624464316e-8 3.295016906653636e-8 7.284503984028072e-8 4.344917893900021e-9
          1.422220188842958e-8 2.4604446172714332e-8 1.0579494057382428e-8 1.811822059706315e-8 3.805507599741238e-8 8.657563690138399e-8
          3.1691400998533675e-9 1.2811644715350426e-8 3.0048826594196283e-8 6.553065793744233e-8 1.5503305320570483e-7 2.2454149330847484e-8
          8.501918206007735e-8 6.84064608703836e-8 1.0677177134018791e-7 2.1945355297410694e-7 2.038333944564476e-7 1.5632919288695274e-7
          1.7097954737961082e-7 2.201473958633671e-8 1.733202690283307e-7 1.2781435737408758e-7 5.1793739680689864e-8 1.088249913174579e-7
          1.225055417851147e-7 8.230844571984448e-8 1.652585018181847e-8 1.407378592140763e-8 1.446564432315341e-7 1.0135027583953681e-7
          1.1621721660996788e-8 5.8044108447539514e-8 1.5440682247020507e-7 1.7248389290160877e-7 2.2965250584258404e-7 2.4984768276778135e-7
          1.200617912313505e-7 1.8904712146197188e-7 7.124977215705584e-8 1.0397013812665859e-7 1.591702930411558e-7 3.117180555282454e-8
          3.04898189214963e-7 3.27211472633954e-7 2.5803245169259326e-7 1.3669050409626134e-7 8.968461090371189e-8 1.5209564808023655e-7
          6.628202836418101e-8 1.2019471405987186e-7 1.2683577935616194e-8 1.2726848860593314e-8 1.200818034980544e-8 2.1450668525676118e-7
          1.741073997555627e-7 1.2770119785570436e-8 2.1087581423656392e-7 2.0145632315966445e-7 2.038869251613974e-7 2.637177060689283e-7
          2.7067122946551495e-7 2.531884777365746e-7 2.475401708951813e-7 2.0130994907478586e-7 2.7889275335018344e-7 2.596035319333442e-7
          1.9203683208276498e-7 2.3570572600763435e-7 2.3136263572143417e-7 2.403143105165049e-7 2.5596352672203233e-7 2.502902851106078e-7
          2.775111332157367e-7 2.701637124792225e-7 2.62044317531047e-7 2.859382994896234e-7 2.1394700786600683e-7 2.2975444027448104e-7
          2.302138123427419e-7 2.316646204191567e-7 2.990587397094411e-7 2.9003713984783707e-7 3.098322814481997e-7 2.4556187268295525e-7
          2.1064392268624238e-7 2.0055172593257268e-7 2.872645841170224e-7 2.6603944844598225e-7 1.9860404612931372e-7 2.9554308568723497e-7
          2.7222708082695926e-7 1.9045952917890295e-7 2.448143127749421e-7 2.4891107596668356e-7 2.06045556751179e-7 1.9490855776575825e-7
          3.03464568646111e-7 2.778997056166306e-7 1.8377155878033746e-7 2.5233484258715035e-7 2.6801876018315657e-7 2.944729761257054e-7
          2.7357179870005536e-7 3.028037521245372e-7 2.1518612482273489e-7 2.3287750011885745e-7 2.328184091513245e-7 3.2092719206825437e-7
          3.3203570554901895e-7 2.5056887541498e-7 2.783608311082504e-7 3.1059162207891444e-7 2.432005345054281e-7 3.1773783284908823e-7
          2.110952089967248e-7 2.3083867925217594e-7 2.258707784273552e-7 3.4282241304957844e-7 3.526644626110007e-7 2.505821495076271e-7
          2.2715479595031985e-7 2.1377813216168604e-7 2.211870423870155e-7 2.584634939776133e-7 2.5964471847210395e-7 2.427550576814913e-7
          2.404333054142175e-7 2.0040146837305226e-7 2.2586539689087873e-7 2.2240311685082173e-7 2.433064137586231e-7 2.389468063294052e-7
          2.641546890222332e-7 2.613253706072227e-7 2.1864795200843933e-7 2.375334275678974e-7 2.432807125911969e-7 2.850029642858432e-7
          2.8370393488504017e-7 2.564189031273555e-7 2.6323870323711907e-7 2.610421027173867e-7 2.389824625775097e-7 2.2536691825692818e-7
          2.220373291422469e-7 2.4161021163585596e-7 2.3237200405241697e-7 2.588455021976543e-7 2.6118309412946503e-7 2.3937708984790575e-7
          1.8083595504737473e-7 2.2217832055432524e-7 2.2576154552732425e-7 2.635206860612758e-7 4.087521795216507e-8 2.4491418431065984e-8
          1.5168060486971014e-8 9.981186194539517e-8 1.3770885944278917e-7 8.470048151456196e-8 6.682012160154722e-8 8.1076189099669e-9
          3.1692103586334735e-8 3.382838125769927e-8 1.3821701183532239e-7 2.2614029608848493e-7 8.974585075104113e-7 6.002008473730445e-7
          2.3530117176875004e-7 2.2287024937958496e-7 0.0000010576720725375853 9.862206685175344e-7 1.7076092290499725e-7 2.2149197847200615e-8
          2.1234538551883658e-8 9.412024517180098e-8 6.286812123418303e-8 5.342629307499866e-9 2.8911932334130608e-8 1.4835040718434876e-8
          1.6609129249640133e-7 1.0450170391648242e-7 5.248123536076135e-8 2.0799542469658135e-7 1.6558216839912693e-7 1.5290214283370087e-7
          2.9586623893312816e-7 2.771801035025365e-7 2.2935575452454158e-7 2.4731917463970786e-7 1.7363881053462452e-7 2.6731305350768104e-7
          2.1987906309174677e-7 1.231689121016725e-7 1.815314055465467e-7 1.9877211034628756e-7 1.724450726758125e-7 9.903542819108488e-7
          8.486271021827609e-7 8.312776030181202e-7 5.763581497448197e-7 0.0000013960603602552327 0.0000015229987681541437 0.000001485067161373965
          0.000001374994302553409 9.224852384468121e-7 9.023534747317899e-7 0.0000014116537547950812 0.0000015660094590323652 0.0000014291696055162928
          0.0000011003802017721052 2.4024531822017055e-7 2.584418817095318e-7 3.177247882302308e-7 3.3605904532019003e-7 2.3053008271068655e-7
          3.0780228258348363e-7 1.6521603211522756e-7 2.376146541606242e-7 2.2133938602838597e-7 2.480342269450229e-7 3.95204258240291e-7
          4.1367620893084833e-7 3.850744824562807e-7 3.1001327620602084e-7 1.0301492375069854e-8 7.934085622417813e-9 5.996686729043126e-8
          4.6797666967673335e-8 5.566678869765771e-9 3.362846664491541e-8 1.8543025824079632e-8 3.5660107581863547e-8 3.97317018567847e-9
          1.293539759542453e-8 5.2777189339647454e-8 2.1897625005170592e-8 1.4447004488461487e-7 3.259524307874361e-7 2.76680985593698e-7
          2.2740954039995974e-7 7.932921319298799e-7 1.7360376426593866e-7 1.4641397423464243e-7 3.122382430705213e-7 2.631540430480677e-7
          1.1922418420334618e-7 2.140698430256141e-7 9.283412950401235e-7 8.128565131054446e-7 5.942894430692226e-7 0.0000011837430037241937
          0.000001190792384871676 8.573658936520002e-7 0.0000012038924321863738 0.0000012837393164396584 0.0000012776532290234648 8.80596615908588e-7
          0.000001161668764674173 0.0000013094875436975335 0.000001024216818137283 2.8753124016390387e-7 3.638140294158961e-7 1.6912340663313713e-7
          2.1073803754695032e-7 4.4009681866788837e-7 2.7417378008187476e-7 3.5140488022057527e-7 1.6022269329761285e-7 2.1318367023124627e-7
          4.2863598035927584e-7 2.6614464716487967e-7 8.250113022119833e-9 6.859728311709622e-9 4.74564248872526e-9 5.747206600224789e-9
          1.2799403202777273e-8 1.0663096622276131e-8 1.0523563101891251e-8 7.425223153054319e-9 4.504237289616552e-9 9.478669027801478e-9
          4.059458239509435e-9 2.4687747493205317e-9 4.491244090014333e-9 1.2269387017089189e-8 1.2468087397126834e-8 2.0693359273653027e-7
          1.2677683944480125e-8 9.42072289487031e-9 4.790840575596442e-9 4.629312633135493e-7 4.4588706944658027e-7 4.10627621396372e-7
          4.65321442015196e-7 3.148965347857114e-7 4.166202082515017e-7 2.460058063166235e-7 6.243676686923377e-7 2.440328368704156e-7
          8.17005300644699e-9 4.011652154903425e-8 3.602205528758682e-8 3.1927589026139395e-8 1.1658860731586173e-7 1.5310259467299255e-8
          2.995080116121561e-8 2.1480720062659685e-8 1.5381812684022152e-7 4.459134285513197e-8 3.720496501981148e-8 1.6446184695227666e-7
          1.456911933911476e-7 3.37092011636953e-7 2.8800995028771817e-7 1.2692053983001851e-7 2.389278889384833e-7 8.66790254539693e-7
          7.728488030489671e-7 5.953777423625671e-7 0.0000010942837336293654 0.0000011127239148479068 8.331037266710203e-7 9.647091345009744e-7
          0.000001110078930782168 9.486084588216641e-7 2.987209653021781e-7 3.7354066944364816e-7 3.0796635880553897e-7 3.8093748494213405e-7
          2.1203798161170355e-7 2.1579108553024265e-7 4.4836037358511824e-7 2.5495255659027e-7
        </DataArray>
        <DataArray type="Float64" Name="gradient_matprop_error" format="ascii" RangeMin="0" RangeMax="0">
          0 0 0 0 0 0
          0 0 0 0 0 0
          0 0 0 0 0 0
          0 0 0 0 0 0
          0 0 0 0 0 0
          0 0 0 0 0 0
          0 0 0 0 0 0
          0 0 0 0 0 0
          0 0 0 0 0 0
          0 0 0 0 0 0
          0 0 0 0 0 0
          0 0 0 0 0 0
          0 0 0 0 0 0
          0 0 0 0 0 0
          0 0 0 0 0 0
          0 0 0 0 0 0
          0 0 0 0 0 0
          0 0 0 0 0 0
          0 0 0 0 0 0
          0 0 0 0 0 0
          0 0 0 0 0 0
          0 0 0 0 0 0
          0 0 0 0 0 0
          0 0 0 0 0 0
          0 0 0 0 0 0
          0 0 0 0 0 0
          0 0 0 0 0 0
          0 0 0 0 0 0
          0 0 0 0 0 0
          0 0 0 0 0 0
          0 0 0 0 0 0
          0 0 0 0 0 0
          0 0 0 0 0 0
          0 0 0 0 0 0
          0 0 0 0 0 0
          0 0 0 0 0 0
          0 0 0 0 0 0
          0 0 0 0 0 0
          0 0 0 0 0 0
          0 0 0 0 0 0
          0 0 0 0 0 0
          0 0 0 0 0 0
          0 0 0 0 0 0
          0 0 0 0 0 0
          0 0 0 0 0 0
          0 0 0 0 0 0
          0 0 0 0 0 0
          0 0 0 0 0 0
          0 0 0 0 0 0
          0 0 0 0 0 0
          0 0 0 0 0 0
          0 0 0 0 0 0
          0 0 0 0 0 0
          0 0 0 0 0 0
          0 0 0 0 0 0
          0 0 0 0 0 0
          0 0 0 0 0 0
          0 0 0 0 0 0
          0 0 0 0 0 0
          0 0 0 0 0 0
          0 0 0 0 0 0
          0 0 0 0 0 0
          0 0 0 0 0 0
          0 0 0 0 0 0
          0 0 0 0 0 0
          0 0 0 0 0 0
          0 0 0 0 0 0
          0 0 0 0 0 0
          0 0 0 0 0 0
          0 0 0 0 0 0
          0 0 0 0 0 0
          0 0 0 0 0 0
          0 0 0 0 0 0
          0 0 0 0 0 0
          0 0 0 0 0 0
          0 0 0 0 0 0
          0 0 0 0 0 0
          0 0 0 0 0 0
          0 0 0 0 0 0
          0 0 0 0 0 0
          0 0 0 0 0 0
          0 0 0 0 0 0
          0 0 0 0 0 0
          0 0 0 0 0 0
          0 0 0 0 0 0
          0 0 0 0
        </DataArray>
        <DataArray type="Float64" Name="initial_marker" format="ascii" RangeMin="0" RangeMax="2">
          0 0 0 0 0 0
          0 0 0 0 0 0
          0 0 0 0 0 0
          0 0 0 0 0 0
          0 0 0 0 0 0
          0 0 0 0 2 0
          0 0 0 0 0 0
          0 0 0 0 0 0
          0 0 0 0 0 0
          0 0 0 0.5 0 0
          0 1 0 0 0 0
          0 2 0 0 1 0
          0 0 1 0.5 0 0.5
          0 0 0 2 1 1
          0 0 0 0 0 0
          0 0 0 0 0 0
          0 0 0 0 0 0
          0 0 0 0 0 0
          0 0 0 0 0 0
          0 0.5 0.25 0 0.25 1.5
          0.75 0 0 0 0 1
          0.5 0 1 0 1 0.5
          2 1.25 0.5 2 1.5 0
          0.25 0.5 2 1.5 2 0.5
          1 0.75 2 1.75 1 2
          2 0.3333333333333333 0.75 1 2 2
          2 1 1 1 2 2
          0.6666666666666666 1 1 2 2 1
          0 0.5 0.25 0 0 0
          0 0 0 0 0 0
          0 0 0 0 0 0
          0 0 0 0 0 0
          0 0 0 0 0 0
          0 0 0 0 0 0
          0 0 0 0 0 0
          0 0 0 0 0 0
          0 0 0 0 0 0
          0 0 0 0 0 0
          0 0 0 0 0 0
          0 0 0 0 0 0
          0 0 0 0 0 0
          0 0 0 0 0 0
          0 0 0 0 0 0
          0 0 0 0 0 0
          0 0 0 0 0 0
          0 0 0 0 0 0
          0 0 0 0 0 0
          0 0 0 0 0 0
          0 0 0 0 0 0
          0 0 0 0 0 0
          0 0 0 0 0 0
          0 0 0 0 0 0
          0 0 0 0 0 0
          0 0 0 0 0 0
          0 0 0 0 0 0
          0 0 0 0 0 0
          0 0 0 0 0 0
          0 0 0 0 0 0
          0 0 0 0 0 0
          0 0 0 0 0 0
          0 0 0 0 0 0
          0 0 0 0 0 0
          0 0 0 0 0 0
          0 0 0 0 0 0
          0 0 0 0 0 0
          0 0 0 0 0 0
          0 0 0 0 0 0
          0 0 0 0 0 0
          0 0 0 0 0 0
          0 0 0 0 0 0
          0 0 0 0 0 0
          0 0 0 0 0 0
          0 0 0 0 0 0
          0 0 0 0 0 0
          0 0 0 0 0 0
          0 0 0 0 0 0
          0 0 0 0 0 0
          0 0 0 0 0 0
          0 0 0 1.5 1.25 2
          2 2 2 0 0 0
          0 0 0 0 0 0
          0 0 0 0 0 0
          0 0 0 0 0 0
          0 0 0 0 0 0
          0 0 0 0 0 0
          0 0 0 0
        </DataArray>
        <DataArray type="Float64" Name="markers_norefine" format="ascii" RangeMin="0" RangeMax="0">
          0 0 0 0 0 0
          0 0 0 0 0 0
          0 0 0 0 0 0
          0 0 0 0 0 0
          0 0 0 0 0 0
          0 0 0 0 0 0
          0 0 0 0 0 0
          0 0 0 0 0 0
          0 0 0 0 0 0
          0 0 0 0 0 0
          0 0 0 0 0 0
          0 0 0 0 0 0
          0 0 0 0 0 0
          0 0 0 0 0 0
          0 0 0 0 0 0
          0 0 0 0 0 0
          0 0 0 0 0 0
          0 0 0 0 0 0
          0 0 0 0 0 0
          0 0 0 0 0 0
          0 0 0 0 0 0
          0 0 0 0 0 0
          0 0 0 0 0 0
          0 0 0 0 0 0
          0 0 0 0 0 0
          0 0 0 0 0 0
          0 0 0 0 0 0
          0 0 0 0 0 0
          0 0 0 0 0 0
          0 0 0 0 0 0
          0 0 0 0 0 0
          0 0 0 0 0 0
          0 0 0 0 0 0
          0 0 0 0 0 0
          0 0 0 0 0 0
          0 0 0 0 0 0
          0 0 0 0 0 0
          0 0 0 0 0 0
          0 0 0 0 0 0
          0 0 0 0 0 0
          0 0 0 0 0 0
          0 0 0 0 0 0
          0 0 0 0 0 0
          0 0 0 0 0 0
          0 0 0 0 0 0
          0 0 0 0 0 0
          0 0 0 0 0 0
          0 0 0 0 0 0
          0 0 0 0 0 0
          0 0 0 0 0 0
          0 0 0 0 0 0
          0 0 0 0 0 0
          0 0 0 0 0 0
          0 0 0 0 0 0
          0 0 0 0 0 0
          0 0 0 0 0 0
          0 0 0 0 0 0
          0 0 0 0 0 0
          0 0 0 0 0 0
          0 0 0 0 0 0
          0 0 0 0 0 0
          0 0 0 0 0 0
          0 0 0 0 0 0
          0 0 0 0 0 0
          0 0 0 0 0 0
          0 0 0 0 0 0
          0 0 0 0 0 0
          0 0 0 0 0 0
          0 0 0 0 0 0
          0 0 0 0 0 0
          0 0 0 0 0 0
          0 0 0 0 0 0
          0 0 0 0 0 0
          0 0 0 0 0 0
          0 0 0 0 0 0
          0 0 0 0 0 0
          0 0 0 0 0 0
          0 0 0 0 0 0
          0 0 0 0 0 0
          0 0 0 0 0 0
          0 0 0 0 0 0
          0 0 0 0 0 0
          0 0 0 0 0 0
          0 0 0 0 0 0
          0 0 0 0 0 0
          0 0 0 0
        </DataArray>
        <DataArray type="Float64" Name="markers_mustrefine" format="ascii" RangeMin="0" RangeMax="2">
          0 0 0 0 0 0
          0 0 0 0 0 0
          0 0 0 0 0 0
          0 0 0 0 0 0
          0 0 0 0 0 0
          0 0 0 0 2 0
          0 0 0 0 0 0
          0 0 0 0 0 0
          0 0 0 0 0 0
          0 0 0 0.5 0 0
          0 1 0 0 0 0
          0 2 0 0 1 0
          0 0 1 0.5 0 0.5
          0 0 0 2 1 1
          0 0 0 0 0 0
          0 0 0 0 0 0
          0 0 0 0 0 0
          0 0 0 0 0 0
          0 0 0 0 0 0
          0 0.5 0.25 0 0.25 1.5
          0.75 0 0 0 0 1
          0.5 0 1 0 1 0.5
          2 1.25 0.5 2 1.5 0
          0.25 0.5 2 1.5 2 0.5
          1 0.75 2 1.75 1 2
          2 0.3333333333333333 0.75 1 2 2
          2 1 1 1 2 2
          0.6666666666666666 1 1 2 2 1
          0 0.5 0.25 0 0 0
          0 0 0 0 0 0
          0 0 0 0 0 0
          0 0 0 0 0 0
          0 0 0 0 0 0
          0 0 0 0 0 0
          0 0 0 0 0 0
          0 0 0 0 0 0
          0 0 0 0 0 0
          0 0 0 0 0 0
          0 0 0 0 0 0
          0 0 0 0 0 0
          0 0 0 0 0 0
          0 0 0 0 0 0
          0 0 0 0 0 0
          0 0 0 0 0 0
          0 0 0 0 0 0
          0 0 0 0 0 0
          0 0 0 0 0 0
          0 0 0 0 0 0
          0 0 0 0 0 0
          0 0 0 0 0 0
          0 0 0 0 0 0
          0 0 0 0 0 0
          0 0 0 0 0 0
          0 0 0 0 0 0
          0 0 0 0 0 0
          0 0 0 0 0 0
          0 0 0 0 0 0
          0 0 0 0 0 0
          0 0 0 0 0 0
          0 0 0 0 0 0
          0 0 0 0 0 0
          0 0 0 0 0 0
          0 0 0 0 0 0
          0 0 0 0 0 0
          0 0 0 0 0 0
          0 0 0 0 0 0
          0 0 0 0 0 0
          0 0 0 0 0 0
          0 0 0 0 0 0
          0 0 0 0 0 0
          0 0 0 0 0 0
          0 0 0 0 0 0
          0 0 0 0 0 0
          0 0 0 0 0 0
          0 0 0 0 0 0
          0 0 0 0 0 0
          0 0 0 0 0 0
          0 0 0 0 0 0
          0 0 0 1.5 1.25 2
          2 2 2 0 0 0
          0 0 0 0 0 0
          0 0 0 0 0 0
          0 0 0 0 0 0
          0 0 0 0 0 0
          0 0 0 0 0 0
          0 0 0 0
        </DataArray>
        <DataArray type="Float64" Name="gradient_marker" format="ascii" RangeMin="0.8333333333333334" RangeMax="1">
          1 1 1 1 1 1
          1 1 1 1 1 1
          1 1 1 1 1 1
          1 1 1 1 1 1
          1 1 1 1 1 0.875
          1 1 1 1 1 1
          1 1 1 1 1 1
          1 1 1 1 1 1
          1 1 1 1 1 1
          1 1 1 1 1 1
          1 1 1 1 1 1
          1 1 1 1 1 1
          1 1 1 1 0.875 1
          1 1 1 1 1 1
          1 1 1 1 1 1
          1 1 1 1 1 1
          1 1 1 1 1 1
          1 1 1 1 1 1
          1 1 1 1 1 1
          1 1 1 1 1 1
          1 1 1 1 1 1
          1 1 1 1 1 1
          1 1 1 1 1 1
          1 1 1 1 1 1
          1 1 1 1 1 1
          1 1 1 1 1 1
          1 1 1 1 1 1
          1 1 1 1 1 1
          1 1 1 0.8333333333333334 1 1
          1 1 1 1 1 1
          1 1 1 1 1 1
          1 1 1 1 1 1
          1 1 1 1 1 1
          1 1 1 1 1 1
          1 1 1 1 1 1
          1 1 1 1 1 1
          1 1 1 1 1 1
          1 1 1 1 1 1
          1 1 1 1 1 1
          1 1 1 1 1 1
          1 1 1 1 1 1
          1 1 1 1 1 1
          1 1 1 1 1 1
          1 1 1 1 1 1
          1 1 1 1 1 1
          1 1 1 1 1 1
          1 1 1 1 1 1
          1 1 1 1 1 1
          1 1 1 1 1 1
          1 1 1 1 1 1
          1 1 1 1 1 1
          1 1 1 1 1 1
          1 1 1 1 1 1
          1 1 1 1 1 1
          1 1 1 1 1 1
          1 1 1 1 1 1
          1 1 1 1 1 1
          1 1 1 1 1 1
          1 1 1 1 1 1
          1 1 1 1 1 1
          1 1 1 1 1 1
          1 1 1 1 1 1
          1 1 1 1 1 1
          1 1 1 1 1 1
          1 1 1 1 1 1
          1 1 1 1 1 1
          1 1 1 1 1 1
          1 1 1 1 1 1
          1 1 1 1 1 1
          1 1 1 1 1 1
          1 1 1 1 1 1
          1 1 1 1 1 1
          1 1 1 1 1 1
          1 1 1 1 1 1
          1 1 1 1 1 1
          1 1 1 1 1 1
          1 1 1 1 1 1
          1 1 1 1 1 1
          1 1 1 1 1 1
          1 1 1 1 1 1
          1 1 1 1 1 1
          1 1 1 1 1 1
          1 1 1 1 1 1
          1 1 1 1 1 1
          1 1 1 1 1 1
          1 1 1 1
        </DataArray>
        <DataArray type="Float64" Name="gradient_matprop_marker" format="ascii" RangeMin="0" RangeMax="0">
          0 0 0 0 0 0
          0 0 0 0 0 0
          0 0 0 0 0 0
          0 0 0 0 0 0
          0 0 0 0 0 0
          0 0 0 0 0 0
          0 0 0 0 0 0
          0 0 0 0 0 0
          0 0 0 0 0 0
          0 0 0 0 0 0
          0 0 0 0 0 0
          0 0 0 0 0 0
          0 0 0 0 0 0
          0 0 0 0 0 0
          0 0 0 0 0 0
          0 0 0 0 0 0
          0 0 0 0 0 0
          0 0 0 0 0 0
          0 0 0 0 0 0
          0 0 0 0 0 0
          0 0 0 0 0 0
          0 0 0 0 0 0
          0 0 0 0 0 0
          0 0 0 0 0 0
          0 0 0 0 0 0
          0 0 0 0 0 0
          0 0 0 0 0 0
          0 0 0 0 0 0
          0 0 0 0 0 0
          0 0 0 0 0 0
          0 0 0 0 0 0
          0 0 0 0 0 0
          0 0 0 0 0 0
          0 0 0 0 0 0
          0 0 0 0 0 0
          0 0 0 0 0 0
          0 0 0 0 0 0
          0 0 0 0 0 0
          0 0 0 0 0 0
          0 0 0 0 0 0
          0 0 0 0 0 0
          0 0 0 0 0 0
          0 0 0 0 0 0
          0 0 0 0 0 0
          0 0 0 0 0 0
          0 0 0 0 0 0
          0 0 0 0 0 0
          0 0 0 0 0 0
          0 0 0 0 0 0
          0 0 0 0 0 0
          0 0 0 0 0 0
          0 0 0 0 0 0
          0 0 0 0 0 0
          0 0 0 0 0 0
          0 0 0 0 0 0
          0 0 0 0 0 0
          0 0 0 0 0 0
          0 0 0 0 0 0
          0 0 0 0 0 0
          0 0 0 0 0 0
          0 0 0 0 0 0
          0 0 0 0 0 0
          0 0 0 0 0 0
          0 0 0 0 0 0
          0 0 0 0 0 0
          0 0 0 0 0 0
          0 0 0 0 0 0
          0 0 0 0 0 0
          0 0 0 0 0 0
          0 0 0 0 0 0
          0 0 0 0 0 0
          0 0 0 0 0 0
          0 0 0 0 0 0
          0 0 0 0 0 0
          0 0 0 0 0 0
          0 0 0 0 0 0
          0 0 0 0 0 0
          0 0 0 0 0 0
          0 0 0 0 0 0
          0 0 0 0 0 0
          0 0 0 0 0 0
          0 0 0 0 0 0
          0 0 0 0 0 0
          0 0 0 0 0 0
          0 0 0 0 0 0
          0 0 0 0
        </DataArray>