<?xml version="1.0"?>
<VTKFile type="UnstructuredGrid" version="0.1" byte_order="LittleEndian" header_type="UInt32" compressor="vtkZLibDataCompressor">
  <UnstructuredGrid>
    <Piece NumberOfPoints="476" NumberOfCells="255">
      <PointData>
        <DataArray type="Int32" Name="libmesh_node_id" format="ascii" RangeMin="254" RangeMax="4284">
          256 302 303 304 305 339
          340 341 342 343 344 345
          350 351 352 353 354 355
          356 357 358 365 366 368
          411 412 413 414 415 416
          417 418 419 420 421 422
          423 424 425 426 427 428
          429 430 431 432 433 434
          435 436 437 438 439 440
          441 442 443 444 445 446
          447 451 452 454 455 457
          590 591 592 593 594 595
          596 597 598 599 600 601
          602 603 692 693 694 695
          696 697 698 699 700 701
          702 703 704 705 706 707
          708 709 710 711 712 713
          714 715 716 717 718 719
          720 721 722 723 724 725
          726 727 728 729 730 731
          732 733 734 735 736 737
          738 739 740 741 742 743
          744 745 746 747 748 749
          750 751 752 753 754 755
          756 757 758 759 760 761
          762 763 764 765 766 767
          768 769 770 774 775 777
          778 780 1075 1076 1077 1078
          1079 1080 1081 1082 1083 1084
          1085 1086 1087 1088 1089 1090
          1091 1092 1093 1094 1095 1096
          1097 1098 1099 1100 1101 1102
          1103 1104 1105 1106 1107 1108
          1109 1110 1111 1112 1113 1114
          1115 1116 1117 1118 1119 1120
          1121 1122 1123 1124 1125 1126
          1127 1128 1129 1130 1131 1132
          1133 1134 1135 1136 1137 1138
          1139 1140 1141 1142 1143 1144
          1145 1146 1147 1148 1149 1150
          1151 1152 1153 1154 1155 1156
          1157 1158 1159 1160 1161 1162
          1163 1164 1165 1166 1167 1168
          1169 1170 1171 1172 1173 1174
          1175 1176 1177 1178 1179 1180
          1181 1182 1183 1184 1185 1186
          1187 1188 1189 1190 1191 1192
          1193 1194 1195 1196 1197 1198
          1199 1200 1201 1202 1203 1204
          1205 1206 1207 1208 1209 1210
          1211 1212 1213 1214 1215 1216
          1220 1221 1223 1224 1225 1226
          1227 1228 1229 1230 1231 1232
          1233 1234 1237 1238 1240 1242
          1275 1276 1277 1278 1279 1280
          1281 1282 1283 1284 1285 1286
          1287 1288 1998 1999 2000 2001
          2002 2003 2004 2005 2006 2007
          2008 2009 2010 2011 2012 2013
          2014 2015 2016 2017 2018 2019
          2020 2021 2024 2025 2026 4252
          4253 4254 4255 4256 4257 4258
          4259 4260 4275 4276 4277 4278
          4279 4280 4281 4282 4283 4284
          254 336 337 338 346 255
          347 348 257 349 362 363
          359 259 361 364 552 553
          556 557 559 560 449 771
          772 773 450 776 306 779
          456 1039 1043 1044 1040 1048
          1046 1051 1052 531 534 258
          1054 540 1057 1058 1065 1066
          1060 1067 1070 1073 569 307
          577 606 607 610 616 360
          448 629 453 631 636 367
          639 1217 1218 1219 1222 1235
          1236 1239 1241 2022 2023 2027
          4211 565 4216 4236 4242 4243
          4246 562 4250 563 4265 4266
          4270 4273
        </DataArray>
        <DataArray type="Float64" Name="bounds" format="ascii" RangeMin="0" RangeMax="0">
          0 0 0 0 0 0
          0 0 0 0 0 0
          0 0 0 0 0 0
          0 0 0 0 0 0
          0 0 0 0 0 0
          0 0 0 0 0 0
          0 0 0 0 0 0
          0 0 0 0 0 0
          0 0 0 0 0 0
          0 0 0 0 0 0
          0 0 0 0 0 0
          0 0 0 0 0 0
          0 0 0 0 0 0
          0 0 0 0 0 0
          0 0 0 0 0 0
          0 0 0 0 0 0
          0 0 0 0 0 0
          0 0 0 0 0 0
          0 0 0 0 0 0
          0 0 0 0 0 0
          0 0 0 0 0 0
          0 0 0 0 0 0
          0 0 0 0 0 0
          0 0 0 0 0 0
          0 0 0 0 0 0
          0 0 0 0 0 0
          0 0 0 0 0 0
          0 0 0 0 0 0
          0 0 0 0 0 0
          0 0 0 0 0 0
          0 0 0 0 0 0
          0 0 0 0 0 0
          0 0 0 0 0 0
          0 0 0 0 0 0
          0 0 0 0 0 0
          0 0 0 0 0 0
          0 0 0 0 0 0
          0 0 0 0 0 0
          0 0 0 0 0 0
          0 0 0 0 0 0
          0 0 0 0 0 0
          0 0 0 0 0 0
          0 0 0 0 0 0
          0 0 0 0 0 0
          0 0 0 0 0 0
          0 0 0 0 0 0
          0 0 0 0 0 0
          0 0 0 0 0 0
          0 0 0 0 0 0
          0 0 0 0 0 0
          0 0 0 0 0 0
          0 0 0 0 0 0
          0 0 0 0 0 0
          0 0 0 0 0 0
          0 0 0 0 0 0
          0 0 0 0 0 0
          0 0 0 0 0 0
          0 0 0 0 0 0
          0 0 0 0 0 0
          0 0 0 0 0 0
          0 0 0 0 0 0
          0 0 0 0 0 0
          0 0 0 0 0 0
          0 0 0 0 0 0
          0 0 0 0 0 0
          0 0 0 0 0 0
          0 0 0 0 0 0
          0 0 0 0 0 0
          0 0 0 0 0 0
          0 0 0 0 0 0
          0 0 0 0 0 0
          0 0 0 0 0 0
          0 0 0 0 0 0
          0 0 0 0 0 0
          0 0 0 0 0 0
          0 0 0 0 0 0
          0 0 0 0 0 0
          0 0 0 0 0 0
          0 0 0 0 0 0
          0 0
        </DataArray>
        <DataArray type="Float64" Name="gradient_error" format="ascii" RangeMin="1.356023584444725e-9" RangeMax="0.0000020830313698040155">
          2.8569344041900926e-8 0.0000016811112857309414 8.995816314715483e-7 2.1304219081920673e-7 8.271042237545691e-8 0.0000012465482839166908
          6.92150562945379e-7 7.786700440150877e-7 9.239590488692102e-7 3.342123647688089e-8 1.5649505617039366e-7 3.4996349061713873e-7
          1.6379825073423243e-7 0.0000013870821233803126 0.0000017574096282390523 4.484466281256721e-7 8.53813265950905e-7 1.237013694379726e-8
          1.0296402207682327e-8 1.1541768713969651e-7 2.867139537087967e-7 3.0463685233266194e-7 3.848246711426751e-7 1.4122911736345039e-8
          1.6197484481379165e-7 3.663740208464707e-7 7.282034240742562e-7 6.430242140499542e-7 3.1346716284149615e-7 4.942823289059794e-7
          9.011961759762342e-7 3.490495555432613e-7 3.4687468283404896e-7 5.034154564789863e-7 4.7290672260437086e-7 5.429041032662438e-7
          9.097547313812032e-7 5.339966786955457e-7 1.850367415032054e-7 3.300047321120042e-7 7.592774208602274e-7 3.688875844504327e-7
          4.311914916346353e-7 1.3654019049161809e-7 3.252627647346034e-7 3.849683324790907e-7 5.15123280497577e-7 3.001288833462415e-7
          4.2956645493638116e-7 5.23609364385262e-7 4.106342767615685e-7 4.998404797276967e-7 4.52169149129724e-7 2.5093689559894516e-7
          4.167527824483346e-7 4.7545968320969435e-7 4.235150604647235e-7 9.118179871650992e-8 1.767979390405259e-7 4.807007385465617e-7
          4.4734552106022023e-7 2.0596748462848748e-7 3.057225435567503e-7 3.873919249418552e-7 5.473721350783345e-7 3.366461064205611e-7
          0.0000016840376363190126 0.0000014247077346167192 0.0000013964773640864242 0.0000016607210686033223 0.0000013500669565835007 0.0000014851237687236387
          0.0000016090505809494126 0.0000011653778329144262 0.0000016242046013592209 0.0000011785259972794641 9.938363251919494e-7 0.0000015479713480085553
          0.0000018216237978124015 0.0000020830313698040155 2.959528702653398e-7 2.8743407752108413e-7 2.8460868906779383e-7 2.3692651753667082e-7
          2.4668367647347175e-7 2.8162295964036336e-7 2.684404688253762e-7 3.0569933210923464e-7 2.591972594449395e-7 2.9672424532945094e-7
          2.783813734036328e-7 3.0969218153654724e-7 2.976131158295789e-7 3.2723736810938636e-7 1.7210867872438855e-7 2.3742914300961228e-7
          2.2788853759007947e-7 2.5026882316302705e-7 3.1554014858463674e-7 3.2984703285440217e-7 3.2122503848110267e-7 2.75568254343274e-7
          3.1531083230708924e-7 3.364991862108647e-7 2.9447144625002493e-7 3.3586655631640164e-7 3.1097611458260894e-7 3.4485572788499844e-7
          3.631529956636386e-7 1.9806400080435873e-7 2.6660084898638366e-7 2.8564707996476625e-7 3.4836576631718656e-7 3.65167011854141e-7
          3.5290026722815484e-7 3.158897847305602e-7 3.589297086205567e-7 3.705791706194989e-7 3.402745678330399e-7 3.849105727509287e-7
          3.3705371541671585e-7 3.831773145770662e-7 4.0505634772125743e-7 2.304920513926927e-7 3.074196499882524e-7 3.3243854584748324e-7
          3.9161157041258004e-7 4.064156562124842e-7 3.896115031147797e-7 3.682359621522958e-7 4.142810583662016e-7 4.1005871883455087e-7
          4.0058627096105235e-7 4.476318576899972e-7 3.6635143353868236e-7 4.2893607211790584e-7 4.549738245778123e-7 2.7522446907748473e-7
          3.6139520887231733e-7 3.9523206496061064e-7 4.4460916369833064e-7 4.543927328078408e-7 4.319258029170554e-7 4.3843217543027573e-7
          4.856790170157236e-7 4.5468535478973655e-7 4.836797934915218e-7 5.284038709162075e-7 3.988194392497161e-7 4.832842798899581e-7
          5.130070675258988e-7 3.411378510274358e-7 4.352590178387141e-7 4.836840151875519e-7 5.095625076554362e-7 5.083920628119204e-7
          4.780816520686915e-7 5.370242458519436e-7 5.763503324199875e-7 3.694009028602394e-7 5.44184965583636e-7 4.441475572489217e-7
          5.413297936443028e-7 5.89201991067996e-7 3.353927819639765e-8 2.7827003634994884e-8 4.2242738724417655e-8 9.670924310355995e-8
          9.380079262087931e-8 6.819348732775657e-8 7.358130523088711e-8 1.299429886743454e-8 8.457133369950783e-8 5.562312030246135e-8
          2.211472907359212e-8 4.258618203463381e-8 5.045336735821427e-8 2.6674906905414854e-8 1.7164079776385497e-7 1.9170962750827415e-7
          2.7611075752309874e-7 2.9659132309370743e-7 1.354286485256388e-7 2.346075674629723e-7 7.294692497178305e-8 1.2043735940311472e-7
          1.8425680167181304e-7 3.536963268893518e-8 3.805807172823425e-7 4.014730186791407e-7 3.337864864003058e-7 1.6792779383444637e-7
          1.7641374846547007e-8 1.1540140929969488e-8 6.984740700747071e-8 4.182535831144117e-8 1.0096727207763502e-8 5.47990760079539e-8
          3.339359058908864e-8 5.4389070133919715e-9 1.3803309615411623e-8 1.1988105170223386e-8 1.2300443577842879e-8 8.026498121128593e-9
          3.762416505565783e-8 2.5598229166230946e-8 3.752552664414309e-9 1.3572293276804072e-8 1.0582572395908533e-7 1.9690016902998137e-7
          7.987139885364301e-8 1.637422647425448e-7 8.462567574643307e-9 1.1282916580567564e-8 9.761785853798707e-9 2.879746141008774e-7
          2.476131306314466e-7 1.4103265586491822e-8 5.893994947256829e-8 1.3091756742926023e-7 3.1995237468681715e-9 1.2094587935295793e-8
          2.0289518538595215e-7 2.0989652123723416e-8 1.6330687507223467e-7 1.6121391264503775e-7 1.6646783083277918e-7 2.3173196543927044e-7
          2.3496421644942486e-7 2.1982158698972423e-7 2.173434137776868e-7 1.5833974407507152e-7 2.3884140504072757e-7 2.2262604191438198e-7
          1.591209502178408e-7 2.0467895753002357e-7 2.0295486211610313e-7 2.0641067878803637e-7 2.6550001348303693e-7 2.5932934506288043e-7
          2.9073576966246015e-7 2.830791480164882e-7 2.7200608188224785e-7 2.9980216255706067e-7 2.2327777143385338e-7 2.468134938258279e-7
          2.459347910281659e-7 2.505600001696226e-7 3.159715258418834e-7 3.068289509700959e-7 3.275982432318736e-7 2.7034921621780234e-7
          1.558902970389886e-7 1.5495010694717777e-7 2.424684013394215e-7 2.2515543707531314e-7 1.5065530582184138e-7 2.4567568335294425e-7
          2.2721552370323249e-7 1.540099168553669e-7 2.0784247281120484e-7 2.0875536405352072e-7 1.449500766182359e-7 1.4518371888810433e-7
          2.482669669080487e-7 2.2861990862878882e-7 1.3841744007923543e-7 2.500923232153615e-7 2.2925161366447667e-7 1.4541736115797275e-7
          2.0897285034952895e-7 2.0841090411359182e-7 2.784639033841575e-7 3.0913659998052526e-7 2.846738524874983e-7 3.185243080224571e-7
          2.2703370572250469e-7 2.5388820331747144e-7 2.564824982712168e-7 3.3980929657689303e-7 3.523747635574159e-7 2.807427009124382e-7
          2.9036876886461254e-7 3.277161094915734e-7 2.9539612923288943e-7 3.3655143846047745e-7 2.2729793714732816e-7 2.578862293274425e-7
          2.5783267218427237e-7 3.6506345011853414e-7 3.7770674768806553e-7 2.8847452150755684e-7 1.2895715786546705e-7 1.3027114053606655e-7
          2.5100806182401644e-7 2.2901186508872207e-7 1.1912627958286919e-7 2.504247629757411e-7 2.276866312587396e-7 1.3158512320666603e-7
          2.0701566835342759e-7 1.8013109094770956e-7 1.092272616332499e-7 1.0443773863676733e-7 2.4805522640106264e-7 2.24615085789239e-7
          8.788364180695229e-8 1.6375875371407745e-7 2.9958516422072517e-7 3.4483142690743024e-7 2.4763152512178235e-7 3.5225598060415756e-7
          2.2162975674484167e-7 2.5602015263611614e-7 2.516257744974105e-7 3.9007768959413537e-7 4.016298294581809e-7 2.904105485273906e-7
          2.2012666376926295e-7 3.583343851693958e-7 1.4922276314350956e-7 2.43975258159551e-7 4.12043228046452e-7 2.8419450399659587e-7
          2.8138185338718617e-7 2.759226533296232e-7 2.526553669894736e-7 2.384434563243219e-7 2.3531330943255722e-7 2.5271449462088784e-7
          2.4395693633945097e-7 2.704634532720602e-7 2.701156798092184e-7 2.494704163545801e-7 1.8924476547792827e-7 2.295063359121525e-7
          2.352585056894283e-7 2.697679063463767e-7 1.8920439692229012e-7 1.8106892855519793e-7 1.917563085401242e-7 2.2935678402863116e-7
          2.2992573161520736e-7 2.1506015366312586e-7 2.1379878781108e-7 1.7293346018810575e-7 2.0019457571104434e-7 1.9824079159352882e-7
          2.509077990368535e-7 2.4539560740093305e-7 2.772192914383264e-7 2.745598857639865e-7 2.2450204741646553e-7 2.516164626108134e-7
          2.561892642673994e-7 3.035307838397994e-7 3.0372416412703995e-7 2.787308778051613e-7 5.753927379682159e-8 6.928838508098365e-8
          9.658352952150388e-8 1.0320934847303117e-7 3.895947962002337e-8 6.682449679226821e-8 7.592242318641002e-8 0.0000015787336840613667
          0.0000013537598294564795 0.0000015474311289362112 0.0000015096894480031069 7.357394557814616e-7 9.611626876247114e-7 0.000001516128573811056
          0.0000016656190665497336 0.0000011865859194679614 2.586000179694077e-7 3.6237669911277517e-7 2.502017344698978e-7 3.532499835612393e-7
          1.745070992274849e-7 2.743757900461293e-7 2.8568216187509224e-7 4.6615338025614266e-7 4.5629823265258083e-7 3.7424448086477373e-7
          5.090565763576845e-7 2.4938225844297897e-7 1.656712661902602e-7 3.252436883898684e-7 6.258332047296848e-8 7.821809558978358e-8
          4.475353021650783e-7 4.870038037713892e-7 2.3640776538981895e-8 5.415046403974702e-8 1.0335571202376784e-8 1.0186325379257322e-8
          3.760338347411718e-9 2.648659243383819e-9 3.2966651352210545e-8 3.5977190722879266e-9 3.6907235571867016e-7 2.736997105343408e-7
          0.0000010498856609209797 5.918623539586836e-7 1.3440721348967597e-7 1.778714454671286e-7 5.378909121572381e-7 5.024749467608645e-7
          5.951205807217103e-7 6.305695982391584e-7 3.8229580746860135e-7 5.785960589560079e-7 5.05012953748523e-7 6.048309706772751e-7
          6.352915773045946e-7 6.552324810330525e-8 2.522776235074593e-8 1.719616196032719e-8 4.171605663317252e-8 9.164561569908449e-9
          1.7908865163039792e-8 5.285247202619575e-9 4.508513167438173e-9 2.6684807468341185e-9 2.012252165639422e-9 5.216074871495243e-9
          3.73177913225677e-9 1.356023584444725e-9 9.054851922308753e-8 9.739702026486943e-8 1.737222617004601e-7 1.8405816608457067e-7
          3.7674278294146134e-8 7.19237638388444e-8 4.006786220523184e-9 6.774567930700532e-9 1.4238748895331804e-9 1.2088972146081828e-8
          2.3472274429786995e-9 4.427422497570964e-9 1.8599767779625516e-8 1.408823293514217e-8 9.576698090658823e-9 6.438587002803446e-8
          4.640496004362679e-8 4.291290929754757e-8 1.589854903678095e-7 9.761342614772313e-8 1.2493288559349167e-8 2.8021594695938426e-7
          1.5231394299789865e-7 9.007510253687213e-8 2.4413496319568304e-7 2.193583851287798e-7 1.5587597552216085e-7 2.1638502528611682e-7
          3.6241056516459053e-7 2.3364762817377178e-7 4.21188742684364e-7 4.192831975516907e-8 8.553299134129281e-8 5.3895838700140536e-8
          6.189870381074844e-8 2.708105043274498e-7 1.1272992426168492e-7 9.280724505763102e-7 0.0000014441858997494915 0.0000014157103505459376
          9.44683408553086e-7 0.0000013785278532834214 0.0000015264009825065332 0.000001149072637320539 2.746392979285639e-7 3.792343538235976e-7
          2.5633669188340676e-7 4.838294097186313e-7
        </DataArray>
        <DataArray type="Float64" Name="gradient_matprop_error" format="ascii" RangeMin="0" RangeMax="0">
          0 0 0 0 0 0
          0 0 0 0 0 0
          0 0 0 0 0 0
          0 0 0 0 0 0
          0 0 0 0 0 0
          0 0 0 0 0 0
          0 0 0 0 0 0
          0 0 0 0 0 0
          0 0 0 0 0 0
          0 0 0 0 0 0
          0 0 0 0 0 0
          0 0 0 0 0 0
          0 0 0 0 0 0
          0 0 0 0 0 0
          0 0 0 0 0 0
          0 0 0 0 0 0
          0 0 0 0 0 0
          0 0 0 0 0 0
          0 0 0 0 0 0
          0 0 0 0 0 0
          0 0 0 0 0 0
          0 0 0 0 0 0
          0 0 0 0 0 0
          0 0 0 0 0 0
          0 0 0 0 0 0
          0 0 0 0 0 0
          0 0 0 0 0 0
          0 0 0 0 0 0
          0 0 0 0 0 0
          0 0 0 0 0 0
          0 0 0 0 0 0
          0 0 0 0 0 0
          0 0 0 0 0 0
          0 0 0 0 0 0
          0 0 0 0 0 0
          0 0 0 0 0 0
          0 0 0 0 0 0
          0 0 0 0 0 0
          0 0 0 0 0 0
          0 0 0 0 0 0
          0 0 0 0 0 0
          0 0 0 0 0 0
          0 0 0 0 0 0
          0 0 0 0 0 0
          0 0 0 0 0 0
          0 0 0 0 0 0
          0 0 0 0 0 0
          0 0 0 0 0 0
          0 0 0 0 0 0
          0 0 0 0 0 0
          0 0 0 0 0 0
          0 0 0 0 0 0
          0 0 0 0 0 0
          0 0 0 0 0 0
          0 0 0 0 0 0
          0 0 0 0 0 0
          0 0 0 0 0 0
          0 0 0 0 0 0
          0 0 0 0 0 0
          0 0 0 0 0 0
          0 0 0 0 0 0
          0 0 0 0 0 0
          0 0 0 0 0 0
          0 0 0 0 0 0
          0 0 0 0 0 0
          0 0 0 0 0 0
          0 0 0 0 0 0
          0 0 0 0 0 0
          0 0 0 0 0 0
          0 0 0 0 0 0
          0 0 0 0 0 0
          0 0 0 0 0 0
          0 0 0 0 0 0
          0 0 0 0 0 0
          0 0 0 0 0 0
          0 0 0 0 0 0
          0 0 0 0 0 0
          0 0 0 0 0 0
          0 0 0 0 0 0
          0 0
        </DataArray>
        <DataArray type="Float64" Name="initial_marker" format="ascii" RangeMin="0" RangeMax="2">
          0 0 0 2 0 0
          0 0 0 0 0 0
          1 0 0 0 0 0
          0 0 0 2 0 0
          0 0 0 0 0 0
          0 0 1 0 0 0
          0 0 2 0 0 1
          0 0 0 1 0.25 0
          1 0.5 0 0 0 2
          1 1 0 0 0 1
          0.5 0 0 2 1 0
          0 0 0 0 0 0
          0 0 0 0 0 0
          0 0 0 0 0 0.5
          1 0.5 0.25 0 1 0.5
          0 0 0 0 2 1
          0.5 1 0 0.5 0.25 1.5
          1 0.5 2 1.5 0 0.25
          0.5 2 1.5 2 0.5 1
          0.5 2 1.5 0.75 2 1.75
          0 0.5 0.75 2 2 2
          1 1 1 2 2 1
          2 2 0.6666666666666666 1 1 2
          2 2 1 1 1 2
          2 1 2 2 0.6666666666666666 1
          1 2 2 2 1 1
          1 2 2 0.5 1 2
          2 1 0 0 0 0
          0 0 0 0 0 0
          0 0 0 0 0 0
          0 0 0 0 0 0
          0 0 0 0 0 0
          0 0 0 0 0 0
          0 0 0 0 0 0
          0 0 0 0 0 0
          0 0 0 0 0 0
          0 0 0 0 0 0
          0 0 0 0 0 0
          0 0 0 0 0 0
          0 0 0 0 0 0
          0 0 0 0 0 0
          0 0 0 0 0 0
          0 0 0 0 0 0
          0 0 0 0 0 0
          0 0 0 0 0 0
          0 0 0 0 0 0
          0 0 0 0 0 0
          0 0 0 0 0 0
          0 0 0 0 0 0
          0 0 0 0 0 0
          0 0 0 0 0 0
          0 0 0 0 0 0
          0 0 0 0 0 0
          0 0 0 0 0 0
          0 0 0 0 0 0
          0 0 0 0 0 0
          0 0 0 0 0 0
          0 0 0 0 0 0
          0 0 0 0 0 0
          0 0 0 0 0 0
          0 0 0 0 0 0
          0 0 0 0 0 0
          0 0 0 0 0 0
          0 0 0 0 0 0
          0 0 0 0 0 0
          0 0 0 0 0 0
          0 0 0 0 0 0
          0 0 0 0 1 1
          2 2 0.5 1 2 2
          1 0 0 0 0 0
          0 0 0 0 0 0
          0 0 0 0 0 0
          0 0 0 0 0 0
          0 0 0 0 0 0
          0 0 0 0 0 0
          0 0 0 0 0 0
          0 0 0 0 0 0
          0 0 0 0 0 0
          0 0 0 0 0 0
          0 0
        </DataArray>
        <DataArray type="Float64" Name="markers_norefine" format="ascii" RangeMin="0" RangeMax="0">
          0 0 0 0 0 0
          0 0 0 0 0 0
          0 0 0 0 0 0
          0 0 0 0 0 0
          0 0 0 0 0 0
          0 0 0 0 0 0
          0 0 0 0 0 0
          0 0 0 0 0 0
          0 0 0 0 0 0
          0 0 0 0 0 0
          0 0 0 0 0 0
          0 0 0 0 0 0
          0 0 0 0 0 0
          0 0 0 0 0 0
          0 0 0 0 0 0
          0 0 0 0 0 0
          0 0 0 0 0 0
          0 0 0 0 0 0
          0 0 0 0 0 0
          0 0 0 0 0 0
          0 0 0 0 0 0
          0 0 0 0 0 0
          0 0 0 0 0 0
          0 0 0 0 0 0
          0 0 0 0 0 0
          0 0 0 0 0 0
          0 0 0 0 0 0
          0 0 0 0 0 0
          0 0 0 0 0 0
          0 0 0 0 0 0
          0 0 0 0 0 0
          0 0 0 0 0 0
          0 0 0 0 0 0
          0 0 0 0 0 0
          0 0 0 0 0 0
          0 0 0 0 0 0
          0 0 0 0 0 0
          0 0 0 0 0 0
          0 0 0 0 0 0
          0 0 0 0 0 0
          0 0 0 0 0 0
          0 0 0 0 0 0
          0 0 0 0 0 0
          0 0 0 0 0 0
          0 0 0 0 0 0
          0 0 0 0 0 0
          0 0 0 0 0 0
          0 0 0 0 0 0
          0 0 0 0 0 0
          0 0 0 0 0 0
          0 0 0 0 0 0
          0 0 0 0 0 0
          0 0 0 0 0 0
          0 0 0 0 0 0
          0 0 0 0 0 0
          0 0 0 0 0 0
          0 0 0 0 0 0
          0 0 0 0 0 0
          0 0 0 0 0 0
          0 0 0 0 0 0
          0 0 0 0 0 0
          0 0 0 0 0 0
          0 0 0 0 0 0
          0 0 0 0 0 0
          0 0 0 0 0 0
          0 0 0 0 0 0
          0 0 0 0 0 0
          0 0 0 0 0 0
          0 0 0 0 0 0
          0 0 0 0 0 0
          0 0 0 0 0 0
          0 0 0 0 0 0
          0 0 0 0 0 0
          0 0 0 0 0 0
          0 0 0 0 0 0
          0 0 0 0 0 0
          0 0 0 0 0 0
          0 0 0 0 0 0
          0 0 0 0 0 0
          0 0
        </DataArray>
        <DataArray type="Float64" Name="markers_mustrefine" format="ascii" RangeMin="0" RangeMax="2">
          0 0 0 2 0 0
          0 0 0 0 0 0
          1 0 0 0 0 0
          0 0 0 2 0 0
          0 0 0 0 0 0
          0 0 1 0 0 0
          0 0 2 0 0 1
          0 0 0 1 0.25 0
          1 0.5 0 0 0 2
          1 1 0 0 0 1
          0.5 0 0 2 1 0
          0 0 0 0 0 0
          0 0 0 0 0 0
          0 0 0 0 0 0.5
          1 0.5 0.25 0 1 0.5
          0 0 0 0 2 1
          0.5 1 0 0.5 0.25 1.5
          1 0.5 2 1.5 0 0.25
          0.5 2 1.5 2 0.5 1
          0.5 2 1.5 0.75 2 1.75
          0 0.5 0.75 2 2 2
          1 1 1 2 2 1
          2 2 0.6666666666666666 1 1 2
          2 2 1 1 1 2
          2 1 2 2 0.6666666666666666 1
          1 2 2 2 1 1
          1 2 2 0.5 1 2
          2 1 0 0 0 0
          0 0 0 0 0 0
          0 0 0 0 0 0
          0 0 0 0 0 0
          0 0 0 0 0 0
          0 0 0 0 0 0
          0 0 0 0 0 0
          0 0 0 0 0 0
          0 0 0 0 0 0
          0 0 0 0 0 0
          0 0 0 0 0 0
          0 0 0 0 0 0
          0 0 0 0 0 0
          0 0 0 0 0 0
          0 0 0 0 0 0
          0 0 0 0 0 0
          0 0 0 0 0 0
          0 0 0 0 0 0
          0 0 0 0 0 0
          0 0 0 0 0 0
          0 0 0 0 0 0
          0 0 0 0 0 0
          0 0 0 0 0 0
          0 0 0 0 0 0
          0 0 0 0 0 0
          0 0 0 0 0 0
          0 0 0 0 0 0
          0 0 0 0 0 0
          0 0 0 0 0 0
          0 0 0 0 0 0
          0 0 0 0 0 0
          0 0 0 0 0 0
          0 0 0 0 0 0
          0 0 0 0 0 0
          0 0 0 0 0 0
          0 0 0 0 0 0
          0 0 0 0 0 0
          0 0 0 0 0 0
          0 0 0 0 0 0
          0 0 0 0 0 0
          0 0 0 0 1 1
          2 2 0.5 1 2 2
          1 0 0 0 0 0
          0 0 0 0 0 0
          0 0 0 0 0 0
          0 0 0 0 0 0
          0 0 0 0 0 0
          0 0 0 0 0 0
          0 0 0 0 0 0
          0 0 0 0 0 0
          0 0 0 0 0 0
          0 0 0 0 0 0
          0 0
        </DataArray>
        <DataArray type="Float64" Name="gradient_marker" format="ascii" RangeMin="0" RangeMax="1">
          1 1 1 1 1 1
          1 1 1 1 1 1
          1 1 1 1 1 1
          1 1 1 1 1 1
          1 1 1 1 1 1
          1 1 1 1 1 1
          1 1 1 1 1 1
          1 1 1 1 1 1
          1 1 1 1 1 1
          1 1 1 0.75 0.75 1
          1 0.8333333333333334 0.875 1 1 1
          1 1 1 1 1 1
          1 1 1 1 1 1
          1 1 1 1 1 1
          1 1 1 1 1 1
          1 1 1 1 1 1
          1 1 1 1 1 1
          1 1 1 1 1 1
          1 1 1 1 1 1
          1 1 1 1 1 1
          1 1 1 1 1 1
          1 1 1 1 1 1
          1 1 1 1 1 1
          1 1 1 1 1 1
          1 1 1 1 1 1
          1 1 1 1 1 1
          1 1 1 1 1 1
          1 1 1 1 1 1
          1 1 1 1 1 1
          1 1 1 1 1 1
          1 1 1 1 1 1
          1 1 1 1 1 1
          1 1 1 1 1 1
          1 1 1 1 1 1
          1 1 1 1 1 1
          1 1 1 1 1 1
          1 1 1 1 1 1
          1 1 1 1 1 1
          1 1 1 1 1 1
          1 1 1 1 1 1
          1 1 1 1 1 1
          1 1 1 1 1 1
          1 1 1 1 1 1
          1 1 1 1 1 1
          1 1 1 1 1 1
          1 1 1 1 1 1
          1 1 1 1 1 1
          1 1 1 1 1 1
          1 1 1 1 1 1
          1 1 0.5 0.75 0.75 1
          1 0.6666666666666666 0 0 0.5 0.5
          0 0.5 1 1 0.8333333333333334 1
          1 1 1 1 1 1
          0.75 1 0.5 1 1 1
          1 1 1 1 1 1
          1 1 1 1 1 1
          1 1 1 1 1 1
          1 1 1 1 1 1
          1 1 1 1 1 1
          1 1 1 1 0 0
          0.25 0.25 0 0 0 1
          1 1 1 1 1 1
          1 1 1 1 1 1
          1 1 1 1 1 1
          1 1 1 1 1 1
          1 1 1 1 1 1
          1 1 0.75 1 1 1
          1 1 1 1 1 1
          1 1 1 1 1 1
          1 1 1 1 1 1
          1 1 1 1 1 1
          1 1 1 1 1 1
          1 1 1 1 1 1
          1 1 1 1 1 0.5
          0.5 1 0.75 1 1 1
          1 0 0.5 0.5 0.5 0.75
          1 1 1 0 0.25 0
          1 1 1 1 1 1
          1 1 1 1 1 1
          1 1
        </DataArray>
        <DataArray type="Float64" Name="gradient_matprop_marker" format="ascii" RangeMin="0" RangeMax="0">
          0 0 0 0 0 0
          0 0 0 0 0 0
          0 0 0 0 0 0
          0 0 0 0 0 0
          0 0 0 0 0 0
          0 0 0 0 0 0
          0 0 0 0 0 0
          0 0 0 0 0 0
          0 0 0 0 0 0
          0 0 0 0 0 0
          0 0 0 0 0 0
          0 0 0 0 0 0
          0 0 0 0 0 0
          0 0 0 0 0 0
          0 0 0 0 0 0
          0 0 0 0 0 0
          0 0 0 0 0 0
          0 0 0 0 0 0
          0 0 0 0 0 0
          0 0 0 0 0 0
          0 0 0 0 0 0
          0 0 0 0 0 0
          0 0 0 0 0 0
          0 0 0 0 0 0
          0 0 0 0 0 0
          0 0 0 0 0 0
          0 0 0 0 0 0
          0 0 0 0 0 0
          0 0 0 0 0 0
          0 0 0 0 0 0
          0 0 0 0 0 0
          0 0 0 0 0 0
          0 0 0 0 0 0
          0 0 0 0 0 0
          0 0 0 0 0 0
          0 0 0 0 0 0
          0 0 0 0 0 0
          0 0 0 0 0 0
          0 0 0 0 0 0
          0 0 0 0 0 0
          0 0 0 0 0 0
          0 0 0 0 0 0
          0 0 0 0 0 0
          0 0 0 0 0 0
          0 0 0 0 0 0
          0 0 0 0 0 0
          0 0 0 0 0 0
          0 0 0 0 0 0
          0 0 0 0 0 0
          0 0 0 0 0 0
          0 0 0 0 0 0
          0 0 0 0 0 0
          0 0 0 0 0 0
          0 0 0 0 0 0
          0 0 0 0 0 0
          0 0 0 0 0 0
          0 0 0 0 0 0
          0 0 0 0 0 0
          0 0 0 0 0 0
          0 0 0 0 0 0
          0 0 0 0 0 0
          0 0 0 0 0 0
          0 0 0 0 0 0
          0 0 0 0 0 0
          0 0 0 0 0 0
          0 0 0 0 0 0
          0 0 0 0 0 0
          0 0 0 0 0 0
          0 0 0 0 0 0
          0 0 0 0 0 0
          0 0 0 0 0 0
          0 0 0 0 0 0
          0 0 0 0 0 0
          0 0 0 0 0 0
          0 0 0 0 0 0
          0 0 0 0 0 0
          0 0 0 0 0 0
          0 0 0 0 0 0
          0 0 0 0 0 0
          0 0
        </DataArray>
        <DataArray type="Float64" Name="combo" format="ascii" RangeMin="0" RangeMax="1">
          1 1 1 1 1 1
          1 1 1 1 1 1
          1 1 1 1 1 1
          1 1 1 1 1 1
          1 1 1 1 1 1
          1 1 1 1 1 1
          1 1 1 1 1 1
          1 1 1 1 1 1
          1 1 1 1 1 1
          1 1 1 0.75 0.75 1
          1 0.8333333333333334 0.875 1 1 1
          1 1 1 1 1 1
          1 1 1 1 1 1
          1 1 1 1 1 1
          1 1 1 1 1 1
          1 1 1 1 1 1
          1 1 1 1 1 1
          1 1 1 1 1 1
          1 1 1 1 1 1
          1 1 1 1 1 1
          1 1 1 1 1 1
          1 1 1 1 1 1
          1 1 1 1 1 1
          1 1 1 1 1 1
          1 1 1 1 1 1
          1 1 1 1 1 1
          1 1 1 1 1 1
          1 1 1 1 1 1
          1 1 1 1 1 1
          1 1 1 1 1 1
          1 1 1 1 1 1
          1 1 1 1 1 1
          1 1 1 1 1 1
          1 1 1 1 1 1
          1 1 1 1 1 1
          1 1 1 1 1 1
          1 1 1 1 1 1
          1 1 1 1 1 1
          1 1 1 1 1 1
          1 1 1 1 1 1
          1 1 1 1 1 1
          1 1 1 1 1 1
          1 1 1 1 1 1
          1 1 1 1 1 1
          1 1 1 1 1 1
          1 1 1 1 1 1
          1 1 1 1 1 1
          1 1 1 1 1 1
          1 1 1 1 1 1
          1 1 0.5 0.75 0.75 1
          1 0.6666666666666666 0 0 0.5 0.5
          0 0.5 1 1 0.8333333333333334 1
          1 1 1 1 1 1
          0.75 1 0.5 1 1 1
          1 1 1 1 1 1
          1 1 1 1 1 1
          1 1 1 1 1 1
          1 1 1 1 1 1
          1 1 1 1 1 1
          1 1 1 1 0 0
          0.25 0.25 0 0 0 1
          1 1 1 1 1 1
          1 1 1 1 1 1
          1 1 1 1 1 1
          1 1 1 1 1 1
          1 1 1 1 1 1
          1 1 0.75 1 1 1
          1 1 1 1 1 1
          1 1 1 1 1 1
          1 1 1 1 1 1
          1 1 1 1 1 1
          1 1 1 1 1 1
          1 1 1 1 1 1
          1 1 1 1 1 0.5
          0.5 1 0.75 1 1 1
          1 0 0.5 0.5 0.5 0.75
          1 1 1 0 0.25 0
          1 1 1 1 1 1
          1 1 1 1 1 1
          1 1
        </DataArray>