<?xml version="1.0"?>
<VTKFile type="UnstructuredGrid" version="0.1" byte_order="LittleEndian" header_type="UInt32" compressor="vtkZLibDataCompressor">
  <UnstructuredGrid>
    <Piece NumberOfPoints="1446" NumberOfCells="988">
      <PointData>
        <DataArray type="Int32" Name="libmesh_node_id" format="ascii" RangeMin="1872" RangeMax="8751">
          1872 2195 2202 2224 2225 2226
          2227 2234 2235 2866 2900 2901
          2903 2906 2956 2957 2958 2959
          2960 2961 2962 2963 2964 2965
          2966 2967 2968 2969 2970 2971
          2972 2973 2977 2978 2980 2981
          2983 2984 2985 2986 2987 2991
          2994 2995 3004 3005 3006 3007
          3008 3009 3010 3011 3012 3013
          3014 3015 3018 3024 3028 3878
          3883 3884 3885 3966 3967 3969
          3972 3981 3982 3983 3984 3985
          3986 3987 3998 3999 4000 4001
          4002 4003 4004 4005 4006 4007
          4015 4016 4017 4018 4019 4020
          4021 4062 4063 4064 4065 4066
          4067 4068 4069 4070 4071 4072
          4073 4074 4075 4076 4077 4078
          4079 4080 4081 4082 4083 4084
          4085 4086 4087 4088 4089 4090
          4091 4092 4093 4094 4095 4096
          4097 4098 4099 4100 4101 4102
          4103 4104 4105 4106 4107 4108
          4109 4110 4111 4112 4113 4128
          4129 4130 4131 4132 4133 4134
          4135 4136 4137 4148 4149 4150
          4151 4152 4153 4154 4155 4156
          4157 4159 4160 4176 4177 4178
          4179 4183 4184 4216 4217 4218
          4219 4220 4221 4222 4223 4224
          4225 4226 4227 4228 4229 4230
          4231 4232 4233 4234 4235 4236
          4237 4238 4239 4240 4241 4242
          4243 4244 4245 4246 4247 4248
          4249 4250 4251 4252 4253 4254
          4255 4256 4257 4258 4259 4260
          4261 4262 4263 4264 4265 4266
          4267 4268 4269 4270 4271 4272
          4273 4274 4275 4276 4277 4278
          4279 4280 4281 4282 4283 4284
          4285 4286 4287 4288 4289 4290
          4291 4292 4293 4304 4305 4306
          4307 4308 4309 4310 4318 4319
          4322 4324 4325 4327 4338 4340
          4342 4344 4352 4354 4355 4356
          4357 4361 4374 4375 4376 4377
          4378 4379 4380 5545 5546 5547
          5550 5551 5553 5554 5556 5557
          5560 5561 5566 5588 5589 5590
          5591 5592 5593 5594 5595 5596
          5597 5598 5599 5600 5601 5602
          5603 5604 5605 5606 5607 5608
          5609 5610 5611 5612 5613 5614
          5615 5616 5617 5618 5619 5620
          5621 5632 5633 5634 5635 5636
          5637 5638 6895 6897 6898 6899
          6900 6902 6904 6905 6906 6913
          6914 6915 6916 6917 6918 6989
          6990 6992 6995 6997 6998 6999
          7000 7001 7002 7003 7004 7005
          7006 7008 7010 7012 7014 7015
          7016 7017 7018 7019 7020 7021
          7022 7023 7024 7025 7026 7027
          7028 7029 7030 7031 7032 7033
          7034 7035 7036 7037 7038 7039
          7040 7041 7042 7043 7044 7045
          7046 7047 7048 7049 7050 7051
          7052 7053 7054 7103 7104 7105
          7106 7107 7108 7109 7110 7111
          7112 7113 7114 7115 7116 7117
          7118 7119 7120 7121 7122 7123
          7124 7125 7126 7127 7128 7129
          7130 7131 7132 7133 7134 7135
          7136 7137 7138 7139 7140 7141
          7142 7143 7144 7145 7146 7147
          7148 7149 7150 7151 7152 7153
          7154 7155 7156 7157 7158 7159
          7160 7161 7162 7163 7164 7165
          7166 7167 7168 7169 7170 7171
          7172 7173 7174 7175 7176 7177
          7178 7179 7180 7181 7182 7183
          7184 7185 7186 7187 7188 7189
          7190 7191 7192 7193 7194 7195
          7196 7197 7198 7199 7200 7201
          7202 7203 7204 7205 7206 7207
          7208 7209 7210 7211 7212 7213
          7214 7215 7216 7217 7218 7219
          7220 7221 7222 7223 7224 7225
          7226 7227 7228 7229 7230 7231
          7232 7233 7234 7235 7236 7237
          7238 7239 7240 7241 7242 7243
          7244 7245 7246 7247 7248 7249
          7250 7251 7252 7253 7254 7255
          7256 7257 7258 7259 7260 7261
          7262 7263 7264 7265 7266 7267
          7268 7269 7270 7271 7272 7273
          7274 7275 7276 7277 7278 7279
          7280 7281 7282 7283 7284 7285
          7286 7287 7288 7289 7290 7291
          7292 7293 7294 7295 7296 7297
          7298 7299 7300 7301 7302 7303
          7304 7305 7306 7307 7308 7309
          7310 7311 7312 7313 7314 7315
          7316 7317 7318 7319 7320 7321
          7322 7323 7324 7325 7326 7327
          7328 7329 7330 7331 7332 7333
          7334 7335 7336 7337 7420 7421
          7422 7423 7424 7425 7426 7427
          7428 7429 7430 7431 7432 7433
          7434 7435 7436 7437 7438 7439
          7440 7441 7442 7443 7444 7445
          7446 7447 7448 7449 7450 7451
          7452 7453 7454 7455 7456 7457
          7458 7459 7460 7461 7462 7463
          7464 7465 7466 7467 7468 7469
          7470 7471 7472 7473 7474 7475
          7476 7477 7478 7479 7480 7481
          7482 7483 7484 7485 7486 7487
          7542 7543 7544 7545 7546 7547
          7548 7549 7550 7551 7552 7553
          7554 7555 7584 7585 7586 7587
          7588 7589 7590 7591 7592 7593
          7594 7595 7596 7597 7598 7599
          7600 7601 7602 7603 7704 7705
          7706 7707 7708 7709 7710 7711
          7712 7713 7714 7715 7716 7717
          7718 7719 7720 7721 7722 7723
          7724 7725 7726 7727 7728 7729
          7730 7731 7732 7733 7734 7735
          7736 7737 7738 7739 7740 7741
          7742 7743 7744 7745 7746 7747
          7748 7749 7750 7751 7752 7753
          7754 7755 7756 7757 7758 7759
          7760 7761 7762 7763 7764 7765
          7766 7767 7768 7769 7770 7771
          7772 7773 7774 7775 7776 7777
          7778 7779 7780 7781 7782 7783
          7784 7785 7786 7787 7788 7789
          7790 7791 7792 7793 7794 7795
          7796 7797 7798 7799 7800 7801
          7802 7803 7804 7805 7806 7807
          7808 7809 7810 7811 7812 7813
          7814 7815 7816 7817 7818 7819
          7820 7821 7822 7823 7824 7825
          7826 7827 7828 7829 7830 7831
          7832 7833 7834 7835 7836 7837
          7838 7839 7840 7841 7842 7843
          7844 7845 7846 7847 7848 7849
          7850 7851 7852 7853 7854 7855
          7856 7857 7858 7859 7860 7861
          7862 7863 7864 7865 7866 7867
          7868 7869 7870 7871 7872 7873
          7874 7875 7876 7877 7878 7879
          7880 7881 7882 7883 7884 7885
          7886 7887 7888 7889 7890 7891
          7892 7893 7894 7895 7896 7897
          7898 7899 7900 7901 7902 7903
          7904 7905 7906 7907 7908 7909
          7910 7911 7912 7913 7914 7915
          7916 7917 7918 7919 7920 7921
          7922 7923 7924 7925 7926 7927
          7928 7929 7930 7931 7932 7933
          7934 7935 7936 7937 7938 7939
          7940 7941 7942 7943 7944 7945
          7946 7947 7948 7949 7950 7951
          7952 7953 7954 7955 7956 7957
          7958 7959 7960 7961 7962 7963
          7964 7965 7966 7967 7968 7969
          7970 7971 7972 7973 7974 7975
          7976 7977 7978 7979 7980 7981
          7982 7983 7984 7985 7986 7987
          7988 7989 7990 7991 7992 7993
          7994 7995 7996 7997 7998 7999
          8000 8001 8002 8003 8004 8005
          8006 8007 8008 8009 8010 8011
          8012 8013 8014 8015 8016 8017
          8018 8019 8020 8021 8022 8023
          8024 8025 8026 8027 8028 8029
          8030 8031 8032 8033 8034 8035
          8036 8037 8038 8039 8040 8041
          8042 8043 8044 8045 8046 8047
          8048 8049 8050 8051 8052 8053
          8054 8055 8056 8057 8058 8059
          8060 8061 8062 8063 8064 8065
          8066 8067 8068 8069 8070 8071
          8072 8073 8074 8075 8076 8077
          8078 8079 8080 8081 8082 8083
          8084 8085 8086 8087 8088 8089
          8090 8091 8092 8093 8094 8095
          8096 8097 8098 8099 8100 8101
          8102 8103 8104 8105 8106 8107
          8108 8109 8110 8111 8112 8113
          8114 8115 8116 8117 8118 8187
          8188 8189 8190 8191 8192 8193
          8194 8195 8196 8197 8198 8199
          8200 8201 8202 8203 8204 8205
          8206 8207 8208 8209 8210 8211
          8212 8213 8214 8215 8216 8217
          8218 8219 8220 8221 8222 8223
          8224 8225 8226 8227 8228 8229
          8230 8231 8232 8233 8234 8235
          8236 8237 8238 8239 8240 8241
          8242 8299 8300 8301 8302 8303
          8304 8305 8306 8307 8308 8309
          8310 8311 8312 8313 8314 8315
          8316 8318 8319 8320 8321 8322
          8323 8324 8325 8326 8327 8328
          8329 8330 8332 8333 8334 8335
          8336 8337 8338 8339 8340 8341
          8342 8343 8344 8347 8349 8350
          8352 8353 8354 8355 8356 8357
          8358 8359 8360 8362 8364 8366
          8435 8436 8437 8438 8439 8440
          8441 8442 8443 8444 8445 8446
          8448 8449 8450 8451 8452 8453
          8454 8455 8456 8457 8458 8459
          8460 8462 8463 8464 8465 8466
          8467 8468 8469 8470 8472 8474
          8476 8477 8478 8479 8480 8481
          8482 8483 8484 8486 8488 8490
          8547 8548 8549 8550 8551 8552
          8554 8555 8556 8567 8568 8569
          8570 8571 8572 8574 8575 8576
          8711 8712 8715 8716 8718 8719
          8722 8723 8739 8740 8743 8744
          8746 8747 8750 8751 2856 2859
          2860 2857 2864 2865 2863 2862
          2196 2867 2886 2885 2902 2916
          2915 1982 2858 2194 2880 2881
          3876 3877 3964 3965 3879 3968
          3970 3971 3973 3881 3959 3975
          3977 2899 3979 4009 4011 4045
          4043 4055 4049 4046 4056 2907
          4059 4053 4060 4058 2920 6893
          6894 6987 6988 6896 6991 6993
          6994 6996 6901 7007 6903 7009
          7011 7013 3990 6937 6965 6966
          3991 6968 2904 6971 3996 6951
          6981 3993 6983 6985 2905 6911
          6949 7063 7065 7067 7083 7085
          7087 4013 7073 7097 7099 7101
        </DataArray>
        <DataArray type="Float64" Name="bounds" format="ascii" RangeMin="0" RangeMax="0">
          0 0 0 0 0 0
          0 0 0 0 0 0
          0 0 0 0 0 0
          0 0 0 0 0 0
          0 0 0 0 0 0
          0 0 0 0 0 0
          0 0 0 0 0 0
          0 0 0 0 0 0
          0 0 0 0 0 0
          0 0 0 0 0 0
          0 0 0 0 0 0
          0 0 0 0 0 0
          0 0 0 0 0 0
          0 0 0 0 0 0
          0 0 0 0 0 0
          0 0 0 0 0 0
          0 0 0 0 0 0
          0 0 0 0 0 0
          0 0 0 0 0 0
          0 0 0 0 0 0
          0 0 0 0 0 0
          0 0 0 0 0 0
          0 0 0 0 0 0
          0 0 0 0 0 0
          0 0 0 0 0 0
          0 0 0 0 0 0
          0 0 0 0 0 0
          0 0 0 0 0 0
          0 0 0 0 0 0
          0 0 0 0 0 0
          0 0 0 0 0 0
          0 0 0 0 0 0
          0 0 0 0 0 0
          0 0 0 0 0 0
          0 0 0 0 0 0
          0 0 0 0 0 0
          0 0 0 0 0 0
          0 0 0 0 0 0
          0 0 0 0 0 0
          0 0 0 0 0 0
          0 0 0 0 0 0
          0 0 0 0 0 0
          0 0 0 0 0 0
          0 0 0 0 0 0
          0 0 0 0 0 0
          0 0 0 0 0 0
          0 0 0 0 0 0
          0 0 0 0 0 0
          0 0 0 0 0 0
          0 0 0 0 0 0
          0 0 0 0 0 0
          0 0 0 0 0 0
          0 0 0 0 0 0
          0 0 0 0 0 0
          0 0 0 0 0 0
          0 0 0 0 0 0
          0 0 0 0 0 0
          0 0 0 0 0 0
          0 0 0 0 0 0
          0 0 0 0 0 0
          0 0 0 0 0 0
          0 0 0 0 0 0
          0 0 0 0 0 0
          0 0 0 0 0 0
          0 0 0 0 0 0
          0 0 0 0 0 0
          0 0 0 0 0 0
          0 0 0 0 0 0
          0 0 0 0 0 0
          0 0 0 0 0 0
          0 0 0 0 0 0
          0 0 0 0 0 0
          0 0 0 0 0 0
          0 0 0 0 0 0
          0 0 0 0 0 0
          0 0 0 0 0 0
          0 0 0 0 0 0
          0 0 0 0 0 0
          0 0 0 0 0 0
          0 0 0 0 0 0
          0 0 0 0 0 0
          0 0 0 0 0 0
          0 0 0 0 0 0
          0 0 0 0 0 0
          0 0 0 0 0 0
          0 0 0 0 0 0
          0 0 0 0 0 0
          0 0 0 0 0 0
          0 0 0 0 0 0
          0 0 0 0 0 0
          0 0 0 0 0 0
          0 0 0 0 0 0
          0 0 0 0 0 0
          0 0 0 0 0 0
          0 0 0 0 0 0
          0 0 0 0 0 0
          0 0 0 0 0 0
          0 0 0 0 0 0
          0 0 0 0 0 0
          0 0 0 0 0 0
          0 0 0 0 0 0
          0 0 0 0 0 0
          0 0 0 0 0 0
          0 0 0 0 0 0
          0 0 0 0 0 0
          0 0 0 0 0 0
          0 0 0 0 0 0
          0 0 0 0 0 0
          0 0 0 0 0 0
          0 0 0 0 0 0
          0 0 0 0 0 0
          0 0 0 0 0 0
          0 0 0 0 0 0
          0 0 0 0 0 0
          0 0 0 0 0 0
          0 0 0 0 0 0
          0 0 0 0 0 0
          0 0 0 0 0 0
          0 0 0 0 0 0
          0 0 0 0 0 0
          0 0 0 0 0 0
          0 0 0 0 0 0
          0 0 0 0 0 0
          0 0 0 0 0 0
          0 0 0 0 0 0
          0 0 0 0 0 0
          0 0 0 0 0 0
          0 0 0 0 0 0
          0 0 0 0 0 0
          0 0 0 0 0 0
          0 0 0 0 0 0
          0 0 0 0 0 0
          0 0 0 0 0 0
          0 0 0 0 0 0
          0 0 0 0 0 0
          0 0 0 0 0 0
          0 0 0 0 0 0
          0 0 0 0 0 0
          0 0 0 0 0 0
          0 0 0 0 0 0
          0 0 0 0 0 0
          0 0 0 0 0 0
          0 0 0 0 0 0
          0 0 0 0 0 0
          0 0 0 0 0 0
          0 0 0 0 0 0
          0 0 0 0 0 0
          0 0 0 0 0 0
          0 0 0 0 0 0
          0 0 0 0 0 0
          0 0 0 0 0 0
          0 0 0 0 0 0
          0 0 0 0 0 0
          0 0 0 0 0 0
          0 0 0 0 0 0
          0 0 0 0 0 0
          0 0 0 0 0 0
          0 0 0 0 0 0
          0 0 0 0 0 0
          0 0 0 0 0 0
          0 0 0 0 0 0
          0 0 0 0 0 0
          0 0 0 0 0 0
          0 0 0 0 0 0
          0 0 0 0 0 0
          0 0 0 0 0 0
          0 0 0 0 0 0
          0 0 0 0 0 0
          0 0 0 0 0 0
          0 0 0 0 0 0
          0 0 0 0 0 0
          0 0 0 0 0 0
          0 0 0 0 0 0
          0 0 0 0 0 0
          0 0 0 0 0 0
          0 0 0 0 0 0
          0 0 0 0 0 0
          0 0 0 0 0 0
          0 0 0 0 0 0
          0 0 0 0 0 0
          0 0 0 0 0 0
          0 0 0 0 0 0
          0 0 0 0 0 0
          0 0 0 0 0 0
          0 0 0 0 0 0
          0 0 0 0 0 0
          0 0 0 0 0 0
          0 0 0 0 0 0
          0 0 0 0 0 0
          0 0 0 0 0 0
          0 0 0 0 0 0
          0 0 0 0 0 0
          0 0 0 0 0 0
          0 0 0 0 0 0
          0 0 0 0 0 0
          0 0 0 0 0 0
          0 0 0 0 0 0
          0 0 0 0 0 0
          0 0 0 0 0 0
          0 0 0 0 0 0
          0 0 0 0 0 0
          0 0 0 0 0 0
          0 0 0 0 0 0
          0 0 0 0 0 0
          0 0 0 0 0 0
          0 0 0 0 0 0
          0 0 0 0 0 0
          0 0 0 0 0 0
          0 0 0 0 0 0
          0 0 0 0 0 0
          0 0 0 0 0 0
          0 0 0 0 0 0
          0 0 0 0 0 0
          0 0 0 0 0 0
          0 0 0 0 0 0
          0 0 0 0 0 0
          0 0 0 0 0 0
          0 0 0 0 0 0
          0 0 0 0 0 0
          0 0 0 0 0 0
          0 0 0 0 0 0
          0 0 0 0 0 0
          0 0 0 0 0 0
          0 0 0 0 0 0
          0 0 0 0 0 0
          0 0 0 0 0 0
          0 0 0 0 0 0
          0 0 0 0 0 0
          0 0 0 0 0 0
          0 0 0 0 0 0
          0 0 0 0 0 0
          0 0 0 0 0 0
          0 0 0 0 0 0
          0 0 0 0 0 0
          0 0 0 0 0 0
          0 0 0 0 0 0
          0 0 0 0 0 0
          0 0 0 0 0 0
          0 0 0 0 0 0
          0 0 0 0 0 0
          0 0 0 0 0 0
        </DataArray>
        <DataArray type="Float64" Name="gradient_error" format="ascii" RangeMin="3.685646355248933e-11" RangeMax="4.422276928198871e-8">
          1.6293150271615081e-9 2.6525194343166534e-8 1.3163905438160432e-8 1.6762753444104345e-10 4.734305672987375e-10 6.937653770462512e-10
          3.274972126077101e-10 1.9879161696353742e-9 2.768955938240055e-9 2.3210436294846234e-8 1.6366610727816936e-8 1.4146188501066183e-8
          3.1229091536391694e-8 2.8313100243893155e-9 1.2597657831537852e-9 1.1345865760708844e-9 1.0110385271027042e-8 8.890016665245389e-9
          1.4892216193060403e-10 2.5087229357321645e-10 2.1420585285459137e-10 1.253032880538635e-9 6.007272731592511e-9 4.2894075359218717e-10
          1.517084564082184e-8 1.3124470978168192e-8 5.749521209414149e-10 1.5223198818760285e-8 7.96543799471572e-11 6.89729300420228e-11
          1.0903251910018398e-10 9.220486142101977e-11 1.8107894583593445e-10 2.2098683214708854e-10 4.1978932587551665e-10 3.4128908282202965e-10
          1.829030351868454e-10 1.3589132918804903e-9 3.2163789646361165e-9 6.958037954234445e-10 4.825209610288593e-10 1.3536583117917869e-8
          3.1360673230965363e-10 2.153229197170816e-10 1.4967399152311965e-8 1.249089160170471e-8 3.706474252015749e-9 2.9918360937289244e-9
          2.2117485145520625e-8 1.6004864973500974e-9 1.8501296391246793e-9 2.8783063701964404e-9 2.6626113420124774e-9 1.7965435954425156e-8
          2.855145336628817e-9 2.2674168210579953e-9 1.1574145578069232e-9 2.0257096366790483e-8 1.951592193924574e-8 1.4068033408403154e-8
          1.1667102399072754e-8 1.0675615290278064e-8 1.069775924953363e-8 2.1501519872025056e-8 2.064294450580044e-8 1.8265205870256858e-8
          1.582495574148707e-8 1.5712675893694102e-8 1.4739438077335616e-8 1.3687252618067987e-8 1.273283355373334e-8 1.7644612307598134e-8
          1.7046753951420584e-8 2.101585860455102e-8 3.82085388460782e-9 3.768102533727109e-9 4.058610870084484e-9 3.964850695418982e-9
          3.6125761011543144e-9 3.820685281559104e-9 1.4912063131682487e-9 2.0376223250693642e-9 2.1527808544240084e-9 2.715994520426043e-9
          9.53587792962924e-9 9.580651608571996e-9 1.828408330814517e-8 1.7922922290977257e-8 2.971489741347616e-9 3.097328837921325e-9
          1.3366707089211309e-8 1.5737342502391385e-9 3.4488417245802186e-9 3.3108430922080453e-9 2.9664843628422293e-9 1.3237329571132062e-8
          1.2685726272645781e-8 8.79274002551874e-9 1.123518578401158e-8 9.88084436031083e-10 9.480674606463234e-10 1.9019455761273234e-9
          1.8256067236821518e-9 2.410709889113131e-10 2.5146009683279953e-10 2.4027648023659207e-10 8.422723749722042e-10 1.6325387481184828e-9
          2.0945040053003113e-10 4.192654208529693e-9 4.016385032730092e-9 6.619144977844166e-10 3.560213045858257e-9 1.1239037160937513e-9
          2.4208554861458986e-9 1.7642319069231382e-9 9.559665906274968e-9 6.549544239667856e-9 8.783083218686276e-9 6.75494724643083e-10
          1.3301988938354095e-9 1.6929163308275358e-10 1.663286877949699e-10 6.709096096094028e-10 1.0326587418118515e-9 2.2384404730324973e-10
          2.959013171454901e-9 4.5484226829099934e-10 2.3416480370044316e-9 1.619403004227488e-10 1.5548457822596427e-10 1.8097674942735308e-10
          1.7250864135641681e-10 1.0474264921828964e-10 1.3176107321776203e-10 1.254110303335892e-10 1.375479265498117e-10 1.493620973698338e-10
          1.0801828333923396e-10 5.43496678605635e-10 5.17192301677025e-10 3.9862901714374377e-10 4.4554735929583025e-10 1.0845878657777183e-10
          1.170716228221147e-10 1.0255284306027693e-10 1.1052605347937842e-10 1.6926058752607635e-10 1.5051219569287263e-10 1.3429706069625447e-10
          3.4728608114571583e-10 2.633322104426101e-10 2.444545900231212e-10 9.548640826580724e-10 1.245671673494868e-9 8.492244721025544e-10
          3.1548332127495537e-9 7.335526096088902e-10 7.903963839789943e-10 4.1658557625976587e-10 2.5823094333149297e-10 4.876510401910908e-10
          5.328096459699722e-10 1.7262925900276502e-9 2.1489175124477466e-10 2.705194898499009e-10 1.6987688229352453e-10 1.870056991217631e-10
          1.1797017614878372e-10 1.5561752102245747e-10 1.1464049855885984e-10 2.0133415518186883e-8 1.928203205757149e-8 1.8409434944063575e-8
          1.760322077784741e-8 1.6959396498299438e-8 1.5402412589562774e-8 1.586099319492356e-8 1.5277464060671138e-8 1.4321027767059033e-8
          1.3462447431962959e-8 9.743139024191424e-9 9.304820847737229e-9 1.6938360794874331e-9 1.6127892847895863e-9 8.107148691568401e-9
          1.3940956306030227e-9 9.095237498415862e-9 8.691454377861197e-9 3.505430697118616e-9 7.524918089481604e-9 1.3551563496086049e-8
          1.2234947564181412e-8 1.1614982592529324e-8 9.374071266800882e-9 1.618961662715942e-8 1.5194498441200308e-8 1.9366555679846697e-8
          6.425575359422919e-9 1.0942510964132414e-9 4.7465196006241294e-9 7.795235386392092e-10 8.583907018098485e-9 2.2952424790082066e-9
          8.679296719665746e-9 4.178341849498245e-9 4.100311175928781e-9 4.268925672365771e-9 4.236577246872528e-9 3.996613699542141e-9
          4.123030483528538e-9 1.7554462047581402e-9 2.2443444678350177e-9 2.307537207947277e-9 2.898062556595936e-9 4.3716358123374236e-9
          4.309716021493023e-9 4.344218623803401e-9 4.298875807252431e-9 4.18749137964106e-9 4.132431733999003e-9 1.9300332613816876e-9
          2.3400543598688294e-9 2.3164064724897827e-9 2.7786189787639987e-9 9.453888821020626e-9 1.203559906985199e-8 1.7247513041417863e-8
          1.9378862697709403e-8 3.2022319492739726e-9 9.227912923835828e-9 1.2681077778078205e-8 9.185132275535414e-9 3.5777552739626886e-9
          1.2338766520040891e-8 2.586370046041091e-9 9.169647909043993e-9 3.1527098921517066e-9 1.3281574391124388e-8 1.4203042130093125e-9
          1.3505417089431388e-9 1.1723760695193294e-9 1.1124670507011556e-9 1.1608599715106838e-9 9.495941513652714e-10 3.280113223873325e-9
          3.112033674479528e-9 2.697178770446022e-9 2.6426637448351806e-9 9.002278159865696e-10 7.271664128848894e-10 6.272445910534989e-10
          4.975694774711934e-10 2.0017042979812148e-9 1.7087603099558696e-9 1.374302314780405e-9 4.234303973899162e-9 4.170861422884529e-9
          3.945659528543773e-9 1.953208151987363e-9 2.1531726747759424e-9 2.5743518282996885e-9 3.316159247794851e-9 2.296353399153148e-9
          3.022947394104807e-9 2.479165607821938e-9 6.1152715753746605e-9 1.4568565353524053e-8 1.157324632894846e-8 1.1524480581785813e-8
          3.373740959830223e-9 5.73850931750561e-9 1.6292951435882615e-8 1.530169260539317e-8 1.2842450673931988e-8 9.852080608824365e-9
          1.8017337518241177e-8 1.6972193712154584e-8 1.4160420766078164e-8 3.530328105901254e-10 3.2195641346535854e-10 2.9088001634059166e-10
          2.667904802126869e-10 2.4815860590019537e-10 1.342440168553562e-10 1.268832966232771e-10 2.295267315877039e-10 1.1952257639119802e-10
          6.2062095983216e-11 5.691670292467074e-11 5.1771309866125477e-11 2.7661039606305906e-10 3.833683972003588e-10 3.683150222894803e-10
          3.350109443413657e-10 2.1032453791613267e-10 2.019794343548937e-10 3.4627171926493065e-10 3.3287372897482355e-10 1.0710026114362757e-10
          2.5364042766276346e-10 2.438461790792003e-10 1.8432058633080654e-10 3.0104624387632635e-10 2.1872716691054763e-10 2.269702718062774e-10
          2.8844712075690915e-10 2.6013400020968857e-10 1.7386031903220461e-10 2.5690347172095507e-10 1.0105328326378135e-10 1.841486669713815e-10
          1.7271379619645093e-10 2.3119019437397384e-10 1.6489493061730501e-10 7.590205572540843e-11 7.280108291512652e-11 1.6450637047328503e-10
          1.58074281522338e-10 4.8709475591910355e-11 1.095816724425219e-10 1.054419395098394e-10 6.640360034411858e-11 1.412051874072766e-10
          9.364285180546881e-11 6.737592377970472e-11 1.182490722444943e-10 4.400006838885683e-11 7.67508204317948e-11 7.164475697601688e-11
          1.0572996224582639e-10 6.751814382980889e-11 4.148167915319873e-9 4.278197675227754e-9 4.270832980092626e-9 4.398044070781503e-9
          4.290738538339995e-9 4.193746682424774e-9 4.320675330742309e-9 4.4307124821150435e-9 4.241318313555826e-9 3.914235163479918e-9
          3.951928526279119e-9 3.762774988177278e-9 3.961692596582364e-9 3.944668840595588e-9 3.764090435815204e-9 4.120394830411449e-9
          4.102286711924195e-9 4.059789597243107e-9 3.81220020616963e-9 4.243920799810418e-9 4.225462879467557e-9 4.354531971673262e-9
          4.335753559201988e-9 4.177400549179972e-9 4.285550142220166e-9 3.950635385375538e-9 3.9353883828517285e-9 4.035244637400637e-9
          3.876099717031513e-9 4.003663296088302e-9 3.966846006074238e-9 3.682926942705499e-9 4.117865840775875e-9 4.223457900613416e-9
          4.07216424684609e-9 4.159822863053601e-9 3.784501211833846e-9 3.877938217235736e-9 3.7188499934498783e-9 2.4418356425702226e-9
          2.523319294706532e-9 2.528370047668071e-9 2.615069177881005e-9 2.707635628947627e-9 2.804394901217407e-9 1.4572244473522613e-9
          1.6141559024390862e-9 1.662143451951269e-9 1.973243939929048e-9 2.6201132416259665e-9 2.705630787318797e-9 2.714166194021425e-9
          2.7930011411540827e-9 2.8929340817421646e-9 2.971718920299025e-9 1.548599636893937e-9 1.7205775877766242e-9 1.788976055129366e-9
          2.0977312894412533e-9 2.8937549529965993e-9 2.985865926453349e-9 3.0068068306822383e-9 3.0881711683220076e-9 2.3510845746640513e-9
          2.419457877247529e-9 2.6465676886997454e-9 3.067529918152059e-9 3.1375979733055964e-9 3.156057001815757e-9 3.2155972013753225e-9
          2.4811137634458687e-9 2.5355228312515106e-9 2.7774241968681133e-9 3.817232476881879e-9 3.901049269890694e-9 3.778099220595566e-9
          3.840332518760248e-9 3.5039852283667154e-9 3.6213545786207858e-9 3.5106210079531322e-9 3.973895982517008e-9 4.023691492379501e-9
          3.891399013658337e-9 3.920527922169017e-9 3.735984247028319e-9 3.8367803227880675e-9 3.730897859527229e-9 3.5270362163727985e-9
          3.5765930349048386e-9 3.584336812355428e-9 3.620642491473465e-9 3.6527243041393606e-9 3.5910171585441762e-9 3.0400585926158504e-9
          3.1225474728597353e-9 3.1285713161874077e-9 3.2240749841634427e-9 2.7923765187821106e-9 2.8525558019801685e-9 2.887922846952045e-9
          3.192915037849832e-9 3.25481810474536e-9 3.314462721267744e-9 3.391708737560099e-9 2.8999609500946798e-9 2.9387897080780017e-9
          3.0419324489953805e-9 3.392693652349769e-9 3.4477798400333767e-9 3.5717897911327314e-9 3.580872679381146e-9 3.2583510883267386e-9
          3.3189666451619152e-9 3.559242769910035e-9 3.494063306289432e-9 3.5283796471433856e-9 3.5732572479429446e-9 3.5553778202065333e-9
          3.3674841211053997e-9 3.404034990147411e-9 3.5554973373417138e-9 1.8289748719242554e-10 2.1431835851155236e-10 2.1200586461637008e-10
          2.05740825721313e-10 3.5111411359427693e-10 1.5195421845058619e-10 1.503211338138413e-10 1.8862415830674246e-10 1.8659102380444793e-10
          1.0491576567337296e-10 1.4662747301122864e-10 1.450169613604243e-10 1.4565334715217097e-10 1.8085833381013505e-10 1.4027113365286416e-10
          3.143859206344468e-10 3.1091028938042855e-10 2.4862977359260547e-10 3.0106201600739905e-10 1.6807450524984916e-10 1.953614146748534e-10
          1.8147420806444755e-10 3.2229390291832245e-10 1.3808376869367072e-10 1.7151039959619073e-10 9.621211318244537e-11 1.3269958077047594e-10
          1.2786823053705168e-10 1.590245967499812e-10 1.2264359455295452e-10 2.848668845721922e-10 2.2694109617605547e-10 2.636014563316316e-10
          5.274240827856327e-10 5.215507779083137e-10 5.057394612995297e-10 8.559677862263036e-10 4.910890201978841e-10 4.855832915835534e-10
          4.2325924290272486e-10 4.1838463589915285e-10 4.700708999809115e-10 4.0402456302343656e-10 8.013138319821991e-10 7.918750477063581e-10
          6.856883030222695e-10 7.65748814498398e-10 4.786354439094972e-10 4.432674947915233e-10 7.831663071231461e-10 4.44415870129235e-10
          3.8118335310195455e-10 4.109034254570438e-10 3.5135826619828004e-10 7.233268361066304e-10 6.241693133012246e-10 6.684339889543284e-10
          1.4047013290581913e-10 1.6445186401554562e-10 1.4567749173433307e-10 2.7044900186180517e-10 1.153294995330027e-10 1.4388835315937848e-10
          8.021783316140971e-11 1.1065804617306696e-10 1.0217028416601329e-10 1.273827097712545e-10 9.782382213616813e-11 2.3846673265184206e-10
          1.889136138182644e-10 2.1084675686088488e-10 1.0831086807297139e-10 1.2463729707464328e-10 1.1280947121108518e-10 2.0669593014416162e-10
          9.108839625168836e-11 1.0963117596510463e-10 6.571353023036143e-11 8.450983434641761e-11 8.6307654423348e-11 1.000864660807596e-10
          7.766427160556743e-11 1.8122877036538794e-10 1.4168446821417592e-10 1.708828225809655e-10 4.019553301651561e-10 3.5667974812742985e-10
          6.579274008732463e-10 3.717188296506979e-10 3.1645536888020074e-10 3.2894745364593333e-10 2.784945619722205e-10 6.049416955906903e-10
          5.173753946104543e-10 5.351466116727352e-10 3.129618938841886e-10 2.6913684143184907e-10 5.085587252976269e-10 2.866277791328345e-10
          2.399410371544165e-10 2.446364997776051e-10 2.0207195739121155e-10 4.638477690586769e-10 3.904950184125517e-10 3.932377902987453e-10
          8.510124245053203e-11 8.414750691823715e-11 1.1958340109226921e-10 1.1822402781408297e-10 6.996833273388861e-11 1.0030613743044198e-10
          9.914639146852079e-11 8.137608292987225e-11 1.1424866311513392e-10 9.574652435123154e-11 2.1214233689203026e-10 2.0966835373717146e-10
          1.7882229347369507e-10 2.0241588836557572e-10 5.92606965582411e-11 5.859309043632861e-11 8.461010458457103e-11 8.362341826966433e-11
          4.901326062852501e-11 7.126163983155667e-11 7.042595232360488e-11 5.6590728097001366e-11 8.070733609179306e-11 6.793608528720118e-11
          1.546638672862162e-10 1.5279209069954887e-10 1.3014458605780827e-10 1.473089596526123e-10 7.700620192259424e-11 1.0793045334705402e-10
          6.390289066655249e-11 9.034388865094512e-11 7.11779165280529e-11 9.959696418774701e-11 8.327373220769667e-11 1.9086816628758472e-10
          1.6246959885154914e-10 1.75785064408469e-10 5.3354161105795954e-11 7.605180681837421e-11 4.4508542180314234e-11 6.393860527119329e-11
          4.943717903575814e-11 7.007497517347343e-11 5.892981454544286e-11 1.386002841231206e-10 1.1789733116107307e-10 1.2719058114864962e-10
          3.6617605535941135e-10 3.618169643135819e-10 3.182874185434029e-10 3.144133138206096e-10 3.490489261592376e-10 3.0306892730121066e-10