<?xml version="1.0"?>
<VTKFile type="UnstructuredGrid" version="0.1" byte_order="LittleEndian" header_type="UInt32" compressor="vtkZLibDataCompressor">
  <UnstructuredGrid>
    <Piece NumberOfPoints="1500" NumberOfCells="980">
      <PointData>
        <DataArray type="Int32" Name="libmesh_node_id" format="ascii" RangeMin="60" RangeMax="13002">
          60 61 62 63 64 65
          66 67 68 69 70 71
          72 73 74 75 76 77
          78 79 80 81 82 83
          84 85 86 87 88 89
          90 91 92 93 94 95
          96 97 98 99 100 101
          102 103 104 105 106 107
          138 139 140 141 142 143
          144 145 146 147 148 149
          150 151 152 153 154 155
          156 157 158 159 160 161
          192 193 194 195 196 197
          198 199 200 201 202 203
          204 205 206 207 208 209
          210 211 212 213 214 215
          246 247 248 249 250 251
          252 253 254 255 256 257
          258 259 260 261 262 263
          264 265 266 267 268 269
          285 286 287 288 289 290
          291 292 293 294 295 296
          312 313 314 315 316 317
          318 319 320 321 322 323
          354 355 356 357 358 359
          360 361 362 363 364 365
          366 367 368 369 370 371
          372 373 374 375 376 377
          393 394 395 396 397 398
          399 400 401 402 403 404
          420 421 422 423 424 425
          426 427 428 429 430 431
          462 463 464 465 466 467
          468 469 470 471 472 473
          474 475 476 477 478 479
          480 481 482 483 484 485
          501 502 503 504 505 506
          507 508 509 510 511 512
          528 529 530 531 532 533
          534 535 536 537 538 539
          570 571 572 573 574 575
          576 577 578 579 580 581
          582 583 584 585 586 587
          588 589 590 591 592 593
          609 610 611 612 613 614
          615 616 617 618 619 620
          636 637 638 639 640 641
          642 643 644 645 646 647
          678 679 680 681 682 683
          684 685 686 687 688 689
          690 691 692 693 694 695
          696 697 698 699 700 701
          717 718 719 720 721 722
          723 724 725 726 727 728
          744 745 746 747 748 749
          750 751 752 753 754 755
          786 787 788 789 790 791
          792 793 794 795 796 797
          798 799 800 801 802 803
          804 805 806 807 808 809
          825 826 827 828 829 830
          831 832 833 834 835 836
          852 853 854 855 856 857
          858 859 860 861 862 863
          894 895 896 897 898 899
          900 901 902 903 904 905
          906 907 908 909 910 911
          912 913 914 915 916 917
          933 934 935 936 937 938
          939 940 941 942 943 944
          960 961 962 963 964 965
          966 967 968 969 970 971
          1002 1003 1004 1005 1006 1007
          1008 1009 1010 1011 1012 1013
          1014 1015 1016 1017 1018 1019
          1020 1021 1022 1023 1024 1025
          1041 1042 1043 1044 1045 1046
          1047 1048 1049 1050 1051 1052
          1068 1069 1070 1071 1072 1073
          1074 1075 1076 1077 1078 1079
          1112 1113 1114 1115 1116 1117
          1118 1119 1120 1121 1122 1123
          1124 1125 1126 1127 1128 1129
          1130 1131 1132 1133 1150 1151
          1152 1153 1154 1155 1156 1157
          1158 1159 1160 1177 1178 1179
          1180 1181 1182 1183 1184 1185
          1186 1187 1220 1221 1222 1223
          1224 1225 1226 1227 1228 1229
          1230 1231 1232 1233 1234 1235
          1236 1237 1238 1239 1240 1241
          1258 1259 1260 1261 1262 1263
          1264 1265 1266 1267 1268 1285
          1286 1287 1288 1289 1290 1291
          1292 1293 1294 1295 1328 1329
          1330 1331 1332 1333 1334 1335
          1336 1337 1338 1339 1340 1341
          1342 1343 1344 1345 1346 1347
          1348 1349 1366 1367 1368 1369
          1370 1371 1372 1373 1374 1375
          1376 1393 1394 1395 1396 1397
          1398 1399 1400 1401 1402 1403
          1438 1439 1440 1441 1442 1443
          1444 1445 1446 1447 1448 1449
          1450 1451 1452 1453 1454 1455
          1456 1457 1475 1476 1477 1478
          1479 1480 1481 1482 1483 1484
          1502 1503 1504 1505 1506 1507
          1508 1509 1510 1511 1546 1547
          1554 1555 1556 1557 1558 1559
          1560 1561 1562 1563 1564 1565
          1583 1584 1585 1586 1587 1588
          1589 1590 1591 1592 1610 1611
          1612 1613 1614 1615 1616 1617
          1618 1619 1664 1665 1666 1667
          1668 1669 1670 1671 1672 1673
          1696 1697 1698 1699 1700 1723
          1724 1725 1726 1727 1774 1775
          1776 1777 1778 1779 1780 1781
          1804 1805 1806 1807 1808 1831
          1832 1833 1834 1835 1874 1882
          1883 1884 1885 1886 1887 1888
          1889 1912 1913 1914 1915 1916
          1939 1940 1941 1942 1943 3062
          3096 3097 3098 3099 3102 3103
          3104 4506 4507 4508 4514 4516
          4517 4518 4519 4523 4524 4526
          4527 4529 4540 4541 4547 4680
          4681 4686 4688 4689 4690 4691
          4692 4693 4694 4695 4696 4697
          4705 4706 4709 4710 4714 4715
          4717 4720 4722 4723 4724 4725
          4726 4727 4728 4729 4730 4731
          4739 4740 4743 4744 9426 9427
          9428 9429 9430 9431 9432 9433
          9434 9435 9436 9437 9438 9439
          9450 9451 9452 9453 9457 9458
          9460 9461 9462 9463 9464 9465
          9466 9467 9468 9469 9470 9471
          9472 9473 9474 9475 9476 9477
          9481 9482 9484 9485 9487 9488
          9489 9490 9491 9492 9493 9494
          9495 9496 9497 9498 9499 9502
          9503 9505 9507 9548 9549 9550
          9551 9552 9553 9554 9555 9556
          9557 9558 9559 9562 9563 9565
          9567 10264 10265 10266 10267 10268
          10269 10270 10271 10272 10273 10281
          10282 10285 10286 10298 10299 10300
          10301 10302 10303 10304 10305 10306
          10307 10315 10316 10318 10319 10320
          10322 10323 10324 10325 10326 10327
          10328 10329 10330 10331 10332 10333
          10334 10335 10336 10337 10338 10339
          10340 10341 10342 10343 10344 10345
          10346 10347 10348 10349 10350 10351
          10352 10353 10354 10355 10356 10357
          10358 10359 10360 10361 10362 10363
          10364 10365 10366 10367 10368 10369
          10370 10371 10372 10373 10374 10375
          10376 10377 10378 10379 10380 10381
          10382 10383 10384 10385 10386 10387
          10388 10389 10426 10430 10446 10447
          10448 10449 10450 10451 10452 10453
          10454 10455 10456 10457 10458 10459
          10474 10475 10476 10477 10478 10479
          10480 10481 10482 10483 10484 10485
          10486 10487 10512 10513 10514 10515
          10516 10517 10518 10519 10520 10521
          10529 10530 10532 10533 10534 10546
          10547 10548 10549 10550 10551 10552
          10553 10554 10555 10563 10564 10566
          10567 10568 10570 10571 10572 10573
          10574 10575 10576 10577 10578 10579
          10580 10581 10582 10583 10584 10585
          10586 10587 10588 10589 10590 10591
          10592 10593 10594 10595 10596 10597
          10598 10599 10600 10601 10602 10603
          10604 10605 10606 10607 10608 10609
          10610 10611 10612 10613 10614 10615
          10616 10617 10618 10619 10620 10621
          10622 10623 10624 10625 10626 10627
          10628 10629 10630 10631 10632 10633
          10634 10635 10636 10637 10646 10650
          10674 10678 10694 10695 10696 10697
          10698 10699 10700 10701 10702 10703
          10704 10705 10706 10707 10722 10723
          10724 10725 10726 10727 10728 10729
          10730 10731 10732 10733 10734 10735
          12593 12594 12597 12599 12600 12602
          12613 12615 12617 12619 12698 12700
          12702 12704 12726 12728 12730 12732
          12819 12820 12823 12825 12826 12828
          12839 12841 12843 12845 12853 12854
          12857 12859 12860 12862 12873 12875
          12877 12879 12955 12957 12959 12961
          12983 12985 12987 12989 1548 1549
          1550 1551 1552 1553 1660 1662
          1663 1661 1657 1659 1693 1692
          1694 1695 1720 1719 1721 1722
          1770 1772 1773 1771 1803 1830
          1880 1881 1879 1911 1938 3052
          1996 3056 3053 3054 3057 3058
          3055 2242 3059 3061 3060 4502
          4503 4504 4505 4509 4511 4510
          4520 4521 4522 4525 4532 4533
          4542 4543 4544 4545 4536 4546
          9416 9417 9418 9421 4512 9424
          4513 9442 9443 9454 9455 9446
          9456 9448 9459 4515 3063 9478
          9479 9480 9483 2243 9486 4528
          9500 9501 9504 9506 3064 9520
          9521 9524 9526 4538 9560 9561
          9564 9566 4548 9568 9540 9569
          9541 9570 9571 9575 9546 9576
          9578 9579 9580 9581 9585 9586
          10256 10257 10259 4678 10262 4679
          10275 10283 10277 10284 10279 10287
          4682 4683 10290 10291 10293 4684
          10296 4685 10309 10317 10311 10313
          10321 4687 10402 10401 10425 4699
          10403 10428 10427 10429 4703 10431
          10398 10400 10460 10412 10461 10464
          10416 10465 10467 10468 10471 10472
          10488 10440 10489 10492 10444 10493
          10495 10496 10499 10500 10504 10505
          10507 4712 10510 4713 10523 10531
          10525 10527 10535 4716 10538 10539
          10541 4718 10544 4719 10557 10565
          10559 10561 10569 4721 10645 10648
          10647 10649 4733 10651 10673 10676
          10675 10677 4737 10679 10708 10660
          10709 10712 10664 10713 10715 10716
          10719 10720 10736 10688 10737 10740
          10692 10741 10743 10744 10747 10748
          12433 12434 12559 12560 12436 12563
          12565 12566 12568 12458 12579 12460
          12581 12583 12585 5082 12567 12595
          12596 5083 12598 5088 12601 5089
          12584 12614 5086 12616 12618 5091
          12516 5047 12517 12582 12699 12518
          5069 12701 12703 5102 12536 12712
          12537 12713 12716 12717 12727 12729
          12731 5106 12740 12741 12744 12745
          12821 12822 12824 5116 12827 5117
          12840 12842 12844 5120 12855 12856
          12858 5122 12861 5123 12874 12876
          12878 5125 12956 12958 12960 5136
          12969 12970 12973 12974 12984 12986
          12988 5140 12997 12998 13001 13002
        </DataArray>
        <DataArray type="Float64" Name="bounds" format="ascii" RangeMin="0" RangeMax="0">
          0 0 0 0 0 0
          0 0 0 0 0 0
          0 0 0 0 0 0
          0 0 0 0 0 0
          0 0 0 0 0 0
          0 0 0 0 0 0
          0 0 0 0 0 0
          0 0 0 0 0 0
          0 0 0 0 0 0
          0 0 0 0 0 0
          0 0 0 0 0 0
          0 0 0 0 0 0
          0 0 0 0 0 0
          0 0 0 0 0 0
          0 0 0 0 0 0
          0 0 0 0 0 0
          0 0 0 0 0 0
          0 0 0 0 0 0
          0 0 0 0 0 0
          0 0 0 0 0 0
          0 0 0 0 0 0
          0 0 0 0 0 0
          0 0 0 0 0 0
          0 0 0 0 0 0
          0 0 0 0 0 0
          0 0 0 0 0 0
          0 0 0 0 0 0
          0 0 0 0 0 0
          0 0 0 0 0 0
          0 0 0 0 0 0
          0 0 0 0 0 0
          0 0 0 0 0 0
          0 0 0 0 0 0
          0 0 0 0 0 0
          0 0 0 0 0 0
          0 0 0 0 0 0
          0 0 0 0 0 0
          0 0 0 0 0 0
          0 0 0 0 0 0
          0 0 0 0 0 0
          0 0 0 0 0 0
          0 0 0 0 0 0
          0 0 0 0 0 0
          0 0 0 0 0 0
          0 0 0 0 0 0
          0 0 0 0 0 0
          0 0 0 0 0 0
          0 0 0 0 0 0
          0 0 0 0 0 0
          0 0 0 0 0 0
          0 0 0 0 0 0
          0 0 0 0 0 0
          0 0 0 0 0 0
          0 0 0 0 0 0
          0 0 0 0 0 0
          0 0 0 0 0 0
          0 0 0 0 0 0
          0 0 0 0 0 0
          0 0 0 0 0 0
          0 0 0 0 0 0
          0 0 0 0 0 0
          0 0 0 0 0 0
          0 0 0 0 0 0
          0 0 0 0 0 0
          0 0 0 0 0 0
          0 0 0 0 0 0
          0 0 0 0 0 0
          0 0 0 0 0 0
          0 0 0 0 0 0
          0 0 0 0 0 0
          0 0 0 0 0 0
          0 0 0 0 0 0
          0 0 0 0 0 0
          0 0 0 0 0 0
          0 0 0 0 0 0
          0 0 0 0 0 0
          0 0 0 0 0 0
          0 0 0 0 0 0
          0 0 0 0 0 0
          0 0 0 0 0 0
          0 0 0 0 0 0
          0 0 0 0 0 0
          0 0 0 0 0 0
          0 0 0 0 0 0
          0 0 0 0 0 0
          0 0 0 0 0 0
          0 0 0 0 0 0
          0 0 0 0 0 0
          0 0 0 0 0 0
          0 0 0 0 0 0
          0 0 0 0 0 0
          0 0 0 0 0 0
          0 0 0 0 0 0
          0 0 0 0 0 0
          0 0 0 0 0 0
          0 0 0 0 0 0
          0 0 0 0 0 0
          0 0 0 0 0 0
          0 0 0 0 0 0
          0 0 0 0 0 0
          0 0 0 0 0 0
          0 0 0 0 0 0
          0 0 0 0 0 0
          0 0 0 0 0 0
          0 0 0 0 0 0
          0 0 0 0 0 0
          0 0 0 0 0 0
          0 0 0 0 0 0
          0 0 0 0 0 0
          0 0 0 0 0 0
          0 0 0 0 0 0
          0 0 0 0 0 0
          0 0 0 0 0 0
          0 0 0 0 0 0
          0 0 0 0 0 0
          0 0 0 0 0 0
          0 0 0 0 0 0
          0 0 0 0 0 0
          0 0 0 0 0 0
          0 0 0 0 0 0
          0 0 0 0 0 0
          0 0 0 0 0 0
          0 0 0 0 0 0
          0 0 0 0 0 0
          0 0 0 0 0 0
          0 0 0 0 0 0
          0 0 0 0 0 0
          0 0 0 0 0 0
          0 0 0 0 0 0
          0 0 0 0 0 0
          0 0 0 0 0 0
          0 0 0 0 0 0
          0 0 0 0 0 0
          0 0 0 0 0 0
          0 0 0 0 0 0
          0 0 0 0 0 0
          0 0 0 0 0 0
          0 0 0 0 0 0
          0 0 0 0 0 0
          0 0 0 0 0 0
          0 0 0 0 0 0
          0 0 0 0 0 0
          0 0 0 0 0 0
          0 0 0 0 0 0
          0 0 0 0 0 0
          0 0 0 0 0 0
          0 0 0 0 0 0
          0 0 0 0 0 0
          0 0 0 0 0 0
          0 0 0 0 0 0
          0 0 0 0 0 0
          0 0 0 0 0 0
          0 0 0 0 0 0
          0 0 0 0 0 0
          0 0 0 0 0 0
          0 0 0 0 0 0
          0 0 0 0 0 0
          0 0 0 0 0 0
          0 0 0 0 0 0
          0 0 0 0 0 0
          0 0 0 0 0 0
          0 0 0 0 0 0
          0 0 0 0 0 0
          0 0 0 0 0 0
          0 0 0 0 0 0
          0 0 0 0 0 0
          0 0 0 0 0 0
          0 0 0 0 0 0
          0 0 0 0 0 0
          0 0 0 0 0 0
          0 0 0 0 0 0
          0 0 0 0 0 0
          0 0 0 0 0 0
          0 0 0 0 0 0
          0 0 0 0 0 0
          0 0 0 0 0 0
          0 0 0 0 0 0
          0 0 0 0 0 0
          0 0 0 0 0 0
          0 0 0 0 0 0
          0 0 0 0 0 0
          0 0 0 0 0 0
          0 0 0 0 0 0
          0 0 0 0 0 0
          0 0 0 0 0 0
          0 0 0 0 0 0
          0 0 0 0 0 0
          0 0 0 0 0 0
          0 0 0 0 0 0
          0 0 0 0 0 0
          0 0 0 0 0 0
          0 0 0 0 0 0
          0 0 0 0 0 0
          0 0 0 0 0 0
          0 0 0 0 0 0
          0 0 0 0 0 0
          0 0 0 0 0 0
          0 0 0 0 0 0
          0 0 0 0 0 0
          0 0 0 0 0 0
          0 0 0 0 0 0
          0 0 0 0 0 0
          0 0 0 0 0 0
          0 0 0 0 0 0
          0 0 0 0 0 0
          0 0 0 0 0 0
          0 0 0 0 0 0
          0 0 0 0 0 0
          0 0 0 0 0 0
          0 0 0 0 0 0
          0 0 0 0 0 0
          0 0 0 0 0 0
          0 0 0 0 0 0
          0 0 0 0 0 0
          0 0 0 0 0 0
          0 0 0 0 0 0
          0 0 0 0 0 0
          0 0 0 0 0 0
          0 0 0 0 0 0
          0 0 0 0 0 0
          0 0 0 0 0 0
          0 0 0 0 0 0
          0 0 0 0 0 0
          0 0 0 0 0 0
          0 0 0 0 0 0
          0 0 0 0 0 0
          0 0 0 0 0 0
          0 0 0 0 0 0
          0 0 0 0 0 0
          0 0 0 0 0 0
          0 0 0 0 0 0
          0 0 0 0 0 0
          0 0 0 0 0 0
          0 0 0 0 0 0
          0 0 0 0 0 0
          0 0 0 0 0 0
          0 0 0 0 0 0
          0 0 0 0 0 0
          0 0 0 0 0 0
          0 0 0 0 0 0
          0 0 0 0 0 0
          0 0 0 0 0 0
          0 0 0 0 0 0
          0 0 0 0 0 0
          0 0 0 0 0 0
          0 0 0 0 0 0
          0 0 0 0 0 0
          0 0 0 0 0 0
          0 0 0 0 0 0
          0 0 0 0 0 0
        </DataArray>
        <DataArray type="Float64" Name="gradient_error" format="ascii" RangeMin="1.517652521149957e-15" RangeMax="9.322237976271155e-10">
          2.4167163995361997e-15 2.4166559338568128e-15 2.4166069040400866e-15 2.416776123130842e-15 2.416022216646536e-15 2.4162666840800114e-15
          2.4181345051283994e-15 2.417619131520241e-15 2.4165976591263637e-15 2.41665985115447e-15 2.416932133454111e-15 2.4167922015372264e-15
          2.4168632220834923e-15 2.416810150093268e-15 2.416356880010663e-15 2.4164643135958053e-15 2.4166789147879335e-15 2.416681949669645e-15
          2.4167308086774337e-15 2.416725893443448e-15 2.416693931379355e-15 2.4166955497018666e-15 2.416705255836863e-15 2.416701848780495e-15
          2.4166970422267103e-15 2.416697106435732e-15 2.416698747042191e-15 2.4166985583464587e-15 2.416697372444233e-15 2.416697452377882e-15
          2.4166975703127696e-15 2.4166976187971157e-15 2.4166976240386385e-15 2.416697641073679e-15 2.416697655487928e-15 2.4166976450048322e-15
          2.4166975506569046e-15 2.4166975912789246e-15 2.4166975807958195e-15 2.4166976063483803e-15 2.4166974222389116e-15 2.416697524449155e-15
          2.416697520517984e-15 2.4166975670367435e-15 2.4166975323114864e-15 2.4166975768646696e-15 2.416697579485429e-15 2.4166975873477487e-15
          2.4166641950207862e-15 2.4167793979315948e-15 2.416633736404713e-15 2.4168368898007777e-15 2.4167088815419986e-15 2.416675734785472e-15
          2.416718733333344e-15 2.4166523618595506e-15 2.4166922425455183e-15 2.4167077981827877e-15 2.4166976135558817e-15 2.416697899221857e-15
          2.416697515276597e-15 2.4166979968446857e-15 2.41669757817509e-15 2.4166976613846986e-15 2.416697641073682e-15 2.4166976377977015e-15
          2.416697710524215e-15 2.4166976515567583e-15 2.4166976436944427e-15 2.4166976194522493e-15 2.4166975768646696e-15 2.416697587347742e-15
          2.4167329218641473e-15 2.4166134536415924e-15 2.416756321295939e-15 2.4165700216894736e-15 2.4166957199014208e-15 2.416699199950602e-15
          2.416680388563645e-15 2.416732976538154e-15 2.4166995005396807e-15 2.4166946181561135e-15 2.4166980590873853e-15 2.4166973567195863e-15
          2.416697859908439e-15 2.4166976240386464e-15 2.4166976240386488e-15 2.4166976554879354e-15 2.4166976240386444e-15 2.4166976410736673e-15
          2.416697789147485e-15 2.416697671212576e-15 2.416697660729486e-15 2.4166976253489957e-15 2.4166975323114864e-15 2.4166975794854154e-15
          2.4174110415873808e-15 2.416519389328689e-15 2.4113596885165954e-15 2.4132576832641397e-15 2.4157626565398324e-15 2.416313726830848e-15
          2.4179359389485805e-15 2.417555722156131e-15 2.4166010300365973e-15 2.4166130654455686e-15 2.416670758473957e-15 2.4166829962120326e-15
          2.4166926170667463e-15 2.4166937937964968e-15 2.4166975074149624e-15 2.4166974117565034e-15 2.416697790457886e-15 2.416697762284548e-15
          2.4166976502463747e-15 2.416697657453511e-15 2.416697566381552e-15 2.416697557864024e-15 2.416697503482931e-15 2.4166974864478766e-15
          2.41634950946079e-15 2.4161805152851106e-15 2.4167856171254658e-15 2.4168716721007223e-15 2.4166657792119976e-15 2.4166972335730237e-15
          2.416696607844489e-15 2.4166975604850974e-15 2.41669771904175e-15 2.4166976338665335e-15 2.4166975519672748e-15 2.416697513966013e-15
          2.4170712818515838e-15 2.4172053525585383e-15 2.416706437129068e-15 2.416567838837763e-15 2.4167064575694557e-15 2.4166992331959395e-15
          2.4166982451627293e-15 2.4166978048721513e-15 2.41669770397229e-15 2.416697603072419e-15 2.4166975545880525e-15 2.416697558519203e-15
          2.4138905023762796e-15 2.4179158991999984e-15 2.4388189416312486e-15 2.431229312914374e-15 2.4213418368688163e-15 2.4189219641340914e-15
          2.412004623834154e-15 2.413441350870589e-15 2.416980149647147e-15 2.4169564927611023e-15 2.4167940476991866e-15 2.4167493901616386e-15
          2.4167191330259065e-15 2.4167141928763366e-15 2.4166996210823717e-15 2.416699799949675e-15 2.416697410445903e-15 2.4166976541778543e-15
          2.4166975441049955e-15 2.4166976030724464e-15 2.4166976109347292e-15 2.4166976613846836e-15 2.4166976109347178e-15 2.4166976712125865e-15
          2.4184995498821215e-15 2.4191638357375034e-15 2.4165834903006243e-15 2.4160441418876118e-15 2.4168040873583093e-15 2.4166989153046457e-15
          2.4167025748385087e-15 2.416698724115007e-15 2.416697831079973e-15 2.416697779319597e-15 2.4166978212519917e-15 2.416697827148729e-15
          2.415057803740527e-15 2.414687987277508e-15 2.4166648892018814e-15 2.4172102058682002e-15 2.4166753388415606e-15 2.4166930979852016e-15
          2.4166958969502507e-15 2.4166974694130367e-15 2.41669776425014e-15 2.416697896599295e-15 2.416697930669346e-15 2.4166979228070018e-15
          2.458097149298935e-15 2.428304164864946e-15 2.345608597963718e-15 2.3716297443715594e-15 2.406240297251104e-15 2.414330750294789e-15
          2.4353531744854693e-15 2.43009833033156e-15 2.4159646303491513e-15 2.415973477705887e-15 2.416364244693127e-15 2.416527456308278e-15
          2.4166098332710264e-15 2.4166320796529442e-15 2.4166854153408406e-15 2.416686358176348e-15 2.416696765742911e-15 2.4166964807320833e-15
          2.4166977013516895e-15 2.416697641073808e-15 2.4166976463152382e-15 2.4166976921788346e-15 2.416697697420371e-15 2.4166978048721963e-15
          2.4119890037814223e-15 2.4122078235376375e-15 2.4201112867995502e-15 2.419825406605712e-15 2.416361318819798e-15 2.416699255498643e-15
          2.4166791324278806e-15 2.4166931563764397e-15 2.4166971758887367e-15 2.41669786842601e-15 2.4166979437732763e-15 2.4166980119134334e-15
          2.425466827131888e-15 2.426764756295874e-15 2.4178013702606267e-15 2.4148073270337733e-15 2.4167403125769737e-15 2.4167078430738582e-15
          2.416703938820899e-15 2.4166990117410217e-15 2.416698156056218e-15 2.4166981560560926e-15 2.4166981495041228e-15 2.416698111502846e-15
          2.852234325236103e-15 2.7217955267050497e-15 2.899071862663558e-15 2.76560246224389e-15 2.575963605611997e-15 2.5239876276601465e-15
          2.3558707737814746e-15 2.377510325800307e-15 2.4182457276103646e-15 2.4184977471383824e-15 2.417787753064795e-15 2.4172006629251568e-15
          2.4170358850308637e-15 2.416942601063105e-15 2.416754404313217e-15 2.416747377623212e-15 2.416703323037337e-15 2.4167044001621125e-15
          2.4166963123451e-15 2.4166973278940132e-15 2.4166959611569867e-15 2.4166966281444664e-15 2.416696098747437e-15 2.41669671200917e-15
          2.4956435144875246e-15 2.5172769720531757e-15 2.4477002067061577e-15 2.4122232392104443e-15 2.4177241954317702e-15 2.416653142146776e-15
          2.416765481228574e-15 2.4167178173242516e-15 2.416701889399424e-15 2.4166985367245165e-15 2.4166979503256646e-15 2.4166979372218255e-15
          2.399930300801053e-15 2.402420882282129e-15 2.4233887637040182e-15 2.4252966006017486e-15 2.4166986241971418e-15 2.4166927115080336e-15
          2.416681645361802e-15 2.4166952837152967e-15 2.416698301511961e-15 2.4166987300061072e-15 2.416698605519384e-15 2.416698549172748e-15
          6.58806267645105e-15 4.9743232875940856e-15 4.737657234861668e-15 4.237702255973258e-15 3.837573460050055e-15 3.5149449895453516e-15
          2.744553281785175e-15 2.687974630036248e-15 2.417444159157533e-15 2.4148763520207305e-15 2.4135341247355238e-15 2.4155691516660258e-15
          2.415451460407957e-15 2.415836084885293e-15 2.4164399891826e-15 2.416486638441319e-15 2.4166518459950636e-15 2.41665649672813e-15
          2.4166898272896998e-15 2.416691100342351e-15 2.4166952496184722e-15 2.4166967886722743e-15 2.4166956951501605e-15 2.4166973737588722e-15
          3.102653213597014e-15 3.292413224080905e-15 2.8716684185718323e-15 2.517264898680415e-15 2.4142291754492543e-15 2.41710289478744e-15
          2.416482381642647e-15 2.41662234682521e-15 2.4166822535849035e-15 2.416697335799088e-15 2.4167002146811708e-15 2.4167005448971494e-15
          2.844722528456906e-15 2.8470791710769607e-15 2.551020318103016e-15 2.403133819073509e-15 2.416149806014581e-15 2.416601610978352e-15
          2.4167440539226637e-15 2.416711405950383e-15 2.4167033597086115e-15 2.416702298203175e-15 2.4167021016362648e-15 2.416702037426715e-15
          2.6249590955016324e-14 1.8443995247777296e-14 1.666478564909995e-14 1.3835422238038347e-14 9.937966612352012e-15 8.350080844499838e-15
          3.561291856428884e-15 3.5280786917107377e-15 2.4106754809184277e-15 2.418175120532176e-15 2.4253262247190778e-15 2.4180635013419733e-15
          2.4208849407889807e-15 2.4193923429484533e-15 2.417683440559627e-15 2.417472879994398e-15 2.4168805902851218e-15 2.4168638826265653e-15
          2.4167081045615994e-15 2.416716900304851e-15 2.4166758638814532e-15 2.416687048055477e-15 2.416671303665212e-15 2.4166825468549445e-15
          8.149053410525846e-15 8.229831459643333e-15 5.24289743431491e-15 3.073374224044669e-15 2.42328187691107e-15 2.4141902622461965e-15
          2.417277690164831e-15 2.4169793321023504e-15 2.4167802721380443e-15 2.4167203623601266e-15 2.416706364429752e-15 2.4167040214768072e-15
          5.6597072805134225e-15 5.45360409230992e-15 3.7235997919821574e-15 2.6518829210967465e-15 2.420888993676215e-15 2.417579746527525e-15
          2.416655635221736e-15 2.416696344775531e-15 2.41671336930808e-15 2.41671502867215e-15 2.4167144966300037e-15 2.416714252908938e-15
          1.1376117431346027e-13 8.053304125191533e-14 6.654047667866991e-14 5.55788736336962e-14 3.7071593985648175e-14 3.053352677768146e-14
          9.855995841572716e-15 8.9766816858375e-15 2.7082004341998545e-15 2.5868762164056214e-15 2.42155126206475e-15 2.4398137128512776e-15
          2.4045075894150763e-15 2.4099807873379877e-15 2.4131192858979874e-15 2.414117021208164e-15 2.415799223542558e-15 2.415986086837512e-15
          2.4164752738293527e-15 2.4165256507661857e-15 2.4166248144611068e-15 2.416654123591909e-15 2.4166492474309495e-15 2.416676032925097e-15
          3.454318431743194e-14 3.1783378409748064e-14 1.669223659570858e-14 5.840233550952673e-15 2.431340985767395e-15 2.4350129403531588e-15
          2.4160374465664567e-15 2.4159445366506366e-15 2.4164684647706224e-15 2.4166719721354085e-15 2.416727589925828e-15 2.416737800896908e-15
          2.1781460444493505e-14 1.894948623077364e-14 9.389013621702423e-15 3.583099571803062e-15 2.397129972923401e-15 2.4119497170685125e-15
          2.416620907872013e-15 2.416774316782932e-15 2.416763979408779e-15 2.4167679165677975e-15 2.4167717471289444e-15 2.4167727833745713e-15
          4.972729946998474e-13 3.5757527020288885e-13 2.7154535470854704e-13 2.2919370362566305e-13 1.4205587480230842e-13 1.1712497569641636e-13
          3.274902444828128e-14 2.902381172757243e-14 3.677840032668324e-15 3.1022067333627e-15 2.5510297360271024e-15 2.466855772014901e-15
          2.446720372884766e-15 2.4263384513671506e-15 2.4265404091636218e-15 2.4228823731539543e-15 2.4192580429204547e-15 2.4186915707465562e-15
          2.417061680464802e-15 2.4170980759680346e-15 2.416499919570438e-15 2.4166506861134103e-15 2.416397753431686e-15 2.416565700608961e-15
          1.5644448673655786e-13 1.3218289919814852e-13 6.32699064130852e-14 1.6807187207908266e-14 2.524593804535912e-15 2.4118896084239513e-15
          2.412329899420945e-15 2.4181881191888178e-15 2.4175790088951063e-15 2.4170661710253625e-15 2.4168907756177017e-15 2.416854403007215e-15
          9.501142776718545e-14 7.752374585351804e-14 3.4345736235646085e-14 8.315775408952948e-15 2.522614175014747e-15 2.4410974088452017e-15
          2.4187032689923547e-15 2.4171519012333492e-15 2.417032919217555e-15 2.4169978705794562e-15 2.416980098579022e-15 2.4169751582281933e-15
          1.1212828262478182e-12 9.589563665013722e-13 5.463951192526158e-13 4.548883083658724e-13 1.1927505804333337e-13 1.0337213335800096e-13
          1.2477112134765231e-14 8.895739043591675e-15 4.035120702477042e-15 4.0267181724068994e-15 2.479126111301036e-15 2.5134483504573817e-15
          2.400140217371775e-15 2.4128216279990225e-15 2.408519473471944e-15 2.411847809947772e-15 2.413315141668016e-15 2.414445872179165e-15
          2.41484344188123e-15 2.4155001098768106e-15 2.4151556356701756e-15 2.415733433521815e-15 5.59754379115081e-13 2.493994133280726e-13
          5.6306446215630545e-14 3.863663301068752e-15 3.1784039428417446e-15 2.4788675861775654e-15 2.4213079560649116e-15 2.4164508160014675e-15
          2.416692383640439e-15 2.417001304286396e-15 2.4170842806043363e-15 3.22878851475236e-13 1.3541732917701634e-13 2.5143683758592546e-14
          2.412960649719385e-15 2.3384922433467312e-15 2.409964582741404e-15 2.417112873503553e-15 2.4177254855793363e-15 2.4178081645905635e-15
          2.4178458307004e-15 2.4178573298352183e-15 4.705091808288716e-12 4.083216258478313e-12 2.12332601704543e-12 1.7908035404542318e-12
          4.274034513327202e-13 3.636234695667308e-13 5.001545660138279e-14 3.365826381586e-14 1.0390217077476697e-14 1.0338472471983244e-14
          2.9479782930518967e-15 2.819245926716386e-15 2.4000959083493114e-15 2.362626456385833e-15 2.4153951589832587e-15 2.4091491804772505e-15
          2.416782211265659e-15 2.4169361048581037e-15 2.4155850903040187e-15 2.417193965154268e-15 2.4151808693766947e-15 2.4170471518573945e-15
          2.4036270941499904e-12 9.989015924379466e-13 1.9186335456845167e-13 1.1000075776985093e-14 6.567665229524662e-15 2.5790481912423545e-15
          2.3743870583047537e-15 2.41200260043965e-15 2.4193244276086558e-15 2.4202715010543354e-15 2.420342392141373e-15 1.345913479632071e-12
          5.395221210128591e-13 8.388322133616205e-14 4.699080523632977e-15 2.848602592559532e-15 2.4675828221038337e-15 2.423617112187152e-15
          2.4211019989080582e-15 2.421558856766762e-15 2.4217401621041545e-15 2.4217713499446524e-15 2.0079344432859103e-11 1.7721564581412944e-11