<?xml version="1.0"?>
<VTKFile type="UnstructuredGrid" version="0.1" byte_order="LittleEndian" header_type="UInt32" compressor="vtkZLibDataCompressor">
  <UnstructuredGrid>
    <Piece NumberOfPoints="1466" NumberOfCells="952">
      <PointData>
        <DataArray type="Int32" Name="libmesh_node_id" format="ascii" RangeMin="1979" RangeMax="7102">
          1979 1980 1982 1983 1985 1986
          1987 1988 1989 1990 2176 2177
          2178 2179 2180 2181 2182 2183
          2184 2185 2186 2187 2188 2189
          2190 2191 2192 2193 2194 2196
          2197 2198 2199 2200 2201 2203
          2204 2205 2206 2207 2208 2209
          2210 2211 2212 2213 2214 2215
          2216 2217 2218 2219 2220 2221
          2222 2223 2410 2411 2413 2414
          2416 2417 2420 2421 2423 2424
          2426 2427 2758 2759 2760 2761
          2762 2763 2764 2765 2766 2767
          2768 2769 2770 2771 2772 2773
          2774 2775 2776 2777 2778 2779
          2780 2781 2782 2783 2784 2785
          2786 2787 2788 2789 2792 2793
          2794 2796 2797 2798 2799 2800
          2801 2802 2803 2804 2805 2806
          2807 2808 2809 2810 2811 2812
          2813 2814 2815 2816 2817 2818
          2819 2820 2821 2822 2823 2824
          2825 2826 2827 2829 2830 2831
          2833 2834 2835 2836 2837 2838
          2839 2840 2841 2842 2843 2844
          2845 2846 2847 2848 2849 2850
          2851 2852 2853 2854 2855 2856
          2857 2858 2859 2860 2861 2862
          2863 2864 2865 2867 2868 2869
          2870 2871 2872 2873 2874 2875
          2876 2877 2878 2879 2880 2881
          2882 2883 2884 2885 2886 2887
          2888 2889 2890 2891 2892 2893
          2894 2895 2896 2897 2898 2899
          2902 2904 2905 2907 2908 2909
          2910 2911 2912 2913 2914 2915
          2916 2917 2918 2919 2920 2921
          2924 2925 2928 2930 2932 2933
          2934 2935 2936 2937 2938 2939
          2940 2941 2942 2943 2944 2945
          2946 2947 2948 2949 2950 2951
          3676 3678 3679 3680 3681 3682
          3683 3684 3685 3686 3687 3688
          3689 3690 3691 3692 3693 3694
          3695 3696 3697 3698 3699 3702
          3703 3705 3708 3710 3711 3712
          3713 3714 3715 3716 3717 3718
          3719 3720 3721 3723 3725 3726
          3727 3728 3729 3730 3731 3734
          3735 3737 3740 3742 3743 3744
          3745 3746 3747 3748 3749 3750
          3751 3753 3755 3757 3759 3760
          3761 3762 3763 3764 3765 3766
          3767 3768 3769 3770 3771 3772
          3773 3774 3775 3776 3777 3778
          3779 3780 3781 3782 3783 3784
          3785 3786 3787 3788 3789 3790
          3791 3792 3793 3794 3795 3796
          3797 3798 3799 3800 3801 3802
          3803 3804 3805 3806 3807 3808
          3809 3810 3811 3812 3813 3814
          3815 3816 3817 3818 3819 3820
          3821 3822 3823 3824 3825 3826
          3827 3828 3829 3830 3831 3832
          3833 3834 3835 3836 3837 3838
          3839 3840 3841 3842 3843 3844
          3845 3846 3847 3848 3849 3850
          3851 3852 3853 3854 3855 3856
          3857 3858 3859 3860 3861 3862
          3863 3864 3865 3866 3867 3868
          3869 3870 3871 3872 3873 3874
          3875 3876 3877 3879 3880 3881
          3882 3886 3887 3888 3889 3890
          3891 3892 3893 3894 3895 3896
          3897 3898 3899 3900 3901 3902
          3903 3904 3905 3906 3907 3908
          3909 3910 3911 3912 3913 3914
          3915 3916 3917 3918 3919 3920
          3921 3922 3923 3924 3925 3926
          3927 3928 3929 3930 3931 3932
          3933 3934 3935 3936 3937 3938
          3939 3940 3941 3942 3943 3944
          3945 3946 3947 3948 3949 3950
          3951 3952 3953 3954 3955 3956
          3957 3958 3959 3960 3961 3962
          3963 3964 3965 3968 3970 3971
          3973 3974 3975 3976 3977 3978
          3979 3980 3988 3989 3990 3991
          3992 3993 3994 3995 3996 3997
          4008 4009 4010 4011 4012 4013
          4014 4022 4023 4024 4025 4026
          4027 4028 4029 4030 4031 4032
          4033 4034 4035 4036 4037 4038
          4039 4040 4041 4042 4043 4044
          4045 4046 4047 4048 4049 4050
          4051 4052 4053 4054 4055 4056
          4057 4058 4059 4060 4061 6069
          6075 6077 6078 6079 6080 6081
          6082 6083 6084 6085 6086 6087
          6088 6089 6090 6091 6092 6093
          6094 6107 6108 6110 6113 6123
          6125 6127 6141 6142 6144 6147
          6157 6159 6161 6163 6164 6165
          6166 6167 6168 6169 6170 6171
          6172 6173 6174 6175 6176 6177
          6178 6179 6180 6181 6182 6183
          6184 6185 6186 6187 6188 6189
          6190 6191 6192 6193 6194 6195
          6196 6197 6198 6199 6200 6201
          6202 6203 6204 6205 6206 6207
          6208 6209 6210 6211 6212 6213
          6214 6215 6216 6217 6218 6219
          6220 6221 6222 6223 6224 6225
          6226 6227 6228 6229 6230 6235
          6245 6247 6249 6251 6252 6253
          6254 6255 6256 6257 6258 6259
          6260 6261 6262 6263 6264 6265
          6266 6267 6268 6269 6270 6271
          6272 6273 6274 6275 6276 6277
          6278 6279 6280 6281 6282 6283
          6284 6285 6286 6287 6288 6289
          6290 6291 6292 6293 6294 6295
          6296 6297 6298 6299 6300 6301
          6302 6303 6304 6305 6306 6307
          6308 6309 6310 6311 6312 6313
          6314 6315 6316 6317 6318 6319
          6320 6321 6322 6323 6324 6325
          6326 6327 6328 6329 6330 6331
          6332 6333 6334 6335 6336 6337
          6338 6339 6340 6341 6342 6343
          6344 6345 6346 6347 6348 6349
          6350 6351 6352 6353 6354 6355
          6356 6357 6358 6359 6360 6361
          6362 6363 6364 6365 6366 6367
          6368 6369 6370 6371 6372 6373
          6374 6375 6376 6377 6378 6379
          6380 6381 6382 6383 6384 6385
          6386 6387 6388 6389 6390 6391
          6392 6393 6394 6395 6396 6397
          6398 6399 6400 6401 6402 6403
          6404 6405 6406 6407 6408 6409
          6410 6411 6412 6413 6414 6415
          6416 6417 6418 6419 6420 6421
          6422 6423 6424 6425 6426 6427
          6428 6429 6430 6431 6432 6433
          6434 6435 6436 6437 6438 6439
          6440 6441 6442 6443 6444 6445
          6446 6447 6448 6449 6450 6451
          6452 6453 6454 6455 6456 6457
          6458 6459 6460 6461 6462 6463
          6464 6465 6466 6467 6468 6469
          6470 6471 6472 6473 6474 6475
          6476 6477 6478 6479 6480 6481
          6482 6483 6484 6485 6486 6487
          6488 6489 6490 6491 6492 6493
          6494 6495 6496 6497 6498 6499
          6500 6501 6502 6503 6504 6505
          6506 6507 6508 6509 6510 6511
          6512 6513 6514 6515 6516 6517
          6518 6519 6520 6521 6522 6523
          6524 6525 6526 6527 6528 6529
          6530 6531 6532 6533 6534 6535
          6536 6537 6538 6539 6540 6541
          6542 6543 6544 6545 6546 6547
          6548 6549 6550 6551 6552 6553
          6554 6555 6556 6557 6558 6559
          6560 6561 6562 6563 6564 6565
          6566 6567 6568 6569 6570 6571
          6572 6573 6574 6575 6576 6577
          6578 6579 6580 6581 6582 6583
          6584 6585 6586 6587 6588 6589
          6590 6591 6592 6593 6594 6595
          6596 6597 6598 6599 6600 6601
          6602 6603 6604 6605 6606 6607
          6608 6609 6610 6611 6612 6613
          6614 6615 6616 6617 6618 6619
          6620 6621 6622 6623 6624 6625
          6626 6627 6628 6629 6630 6631
          6632 6633 6634 6635 6636 6637
          6638 6639 6640 6641 6642 6643
          6644 6645 6646 6647 6648 6649
          6650 6651 6652 6653 6654 6655
          6656 6657 6658 6659 6660 6661
          6662 6663 6664 6665 6666 6667
          6668 6669 6670 6671 6672 6673
          6674 6675 6676 6677 6678 6679
          6680 6681 6682 6683 6684 6685
          6686 6687 6688 6689 6690 6691
          6692 6693 6694 6695 6696 6697
          6698 6699 6700 6701 6702 6703
          6704 6705 6706 6707 6708 6709
          6710 6711 6712 6713 6714 6715
          6716 6717 6718 6719 6720 6721
          6722 6723 6724 6725 6726 6727
          6728 6729 6730 6731 6732 6733
          6734 6735 6736 6737 6738 6739
          6740 6741 6742 6743 6744 6745
          6746 6747 6748 6749 6750 6751
          6752 6753 6754 6755 6756 6757
          6758 6759 6760 6761 6762 6763
          6764 6765 6766 6767 6768 6769
          6770 6771 6772 6773 6774 6775
          6776 6777 6778 6779 6780 6781
          6782 6783 6784 6785 6786 6787
          6788 6789 6790 6791 6792 6793
          6794 6795 6796 6797 6798 6799
          6800 6801 6802 6803 6804 6805
          6806 6807 6808 6809 6810 6811
          6812 6813 6814 6815 6816 6817
          6818 6819 6820 6821 6822 6823
          6824 6825 6826 6827 6828 6829
          6830 6831 6832 6833 6834 6835
          6836 6837 6838 6839 6840 6841
          6842 6843 6844 6845 6846 6847
          6848 6849 6850 6851 6852 6853
          6854 6855 6856 6857 6858 6859
          6860 6861 6862 6863 6864 6865
          6866 6867 6868 6869 6870 6871
          6872 6873 6874 6875 6876 6877
          6878 6879 6880 6881 6882 6883
          6884 6885 6886 6887 6888 6889
          6890 6891 6892 6893 6894 6896
          6901 6903 6907 6908 6909 6910
          6911 6912 6919 6920 6921 6922
          6923 6924 6925 6926 6927 6928
          6929 6930 6931 6932 6933 6934
          6935 6936 6937 6938 6939 6940
          6941 6942 6943 6944 6945 6946
          6947 6948 6949 6950 6951 6952
          6953 6954 6955 6956 6957 6958
          6959 6960 6961 6962 6963 6964
          6965 6966 6967 6968 6969 6970
          6971 6972 6973 6974 6975 6976
          6977 6978 6979 6980 6981 6982
          6983 6984 6985 6986 6987 6988
          6991 6993 6994 6996 7007 7009
          7011 7013 7055 7056 7057 7058
          7059 7060 7061 7062 7063 7064
          7065 7066 7067 7068 7069 7070
          7071 7072 7073 7074 7075 7076
          7077 7078 7079 7080 7081 7082
          7083 7084 7085 7086 7087 7088
          7089 7090 7091 7092 7093 7094
          7095 7096 7097 7098 7099 7100
          7101 7102
        </DataArray>
        <DataArray type="Float64" Name="bounds" format="ascii" RangeMin="0" RangeMax="0">
          0 0 0 0 0 0
          0 0 0 0 0 0
          0 0 0 0 0 0
          0 0 0 0 0 0
          0 0 0 0 0 0
          0 0 0 0 0 0
          0 0 0 0 0 0
          0 0 0 0 0 0
          0 0 0 0 0 0
          0 0 0 0 0 0
          0 0 0 0 0 0
          0 0 0 0 0 0
          0 0 0 0 0 0
          0 0 0 0 0 0
          0 0 0 0 0 0
          0 0 0 0 0 0
          0 0 0 0 0 0
          0 0 0 0 0 0
          0 0 0 0 0 0
          0 0 0 0 0 0
          0 0 0 0 0 0
          0 0 0 0 0 0
          0 0 0 0 0 0
          0 0 0 0 0 0
          0 0 0 0 0 0
          0 0 0 0 0 0
          0 0 0 0 0 0
          0 0 0 0 0 0
          0 0 0 0 0 0
          0 0 0 0 0 0
          0 0 0 0 0 0
          0 0 0 0 0 0
          0 0 0 0 0 0
          0 0 0 0 0 0
          0 0 0 0 0 0
          0 0 0 0 0 0
          0 0 0 0 0 0
          0 0 0 0 0 0
          0 0 0 0 0 0
          0 0 0 0 0 0
          0 0 0 0 0 0
          0 0 0 0 0 0
          0 0 0 0 0 0
          0 0 0 0 0 0
          0 0 0 0 0 0
          0 0 0 0 0 0
          0 0 0 0 0 0
          0 0 0 0 0 0
          0 0 0 0 0 0
          0 0 0 0 0 0
          0 0 0 0 0 0
          0 0 0 0 0 0
          0 0 0 0 0 0
          0 0 0 0 0 0
          0 0 0 0 0 0
          0 0 0 0 0 0
          0 0 0 0 0 0
          0 0 0 0 0 0
          0 0 0 0 0 0
          0 0 0 0 0 0
          0 0 0 0 0 0
          0 0 0 0 0 0
          0 0 0 0 0 0
          0 0 0 0 0 0
          0 0 0 0 0 0
          0 0 0 0 0 0
          0 0 0 0 0 0
          0 0 0 0 0 0
          0 0 0 0 0 0
          0 0 0 0 0 0
          0 0 0 0 0 0
          0 0 0 0 0 0
          0 0 0 0 0 0
          0 0 0 0 0 0
          0 0 0 0 0 0
          0 0 0 0 0 0
          0 0 0 0 0 0
          0 0 0 0 0 0
          0 0 0 0 0 0
          0 0 0 0 0 0
          0 0 0 0 0 0
          0 0 0 0 0 0
          0 0 0 0 0 0
          0 0 0 0 0 0
          0 0 0 0 0 0
          0 0 0 0 0 0
          0 0 0 0 0 0
          0 0 0 0 0 0
          0 0 0 0 0 0
          0 0 0 0 0 0
          0 0 0 0 0 0
          0 0 0 0 0 0
          0 0 0 0 0 0
          0 0 0 0 0 0
          0 0 0 0 0 0
          0 0 0 0 0 0
          0 0 0 0 0 0
          0 0 0 0 0 0
          0 0 0 0 0 0
          0 0 0 0 0 0
          0 0 0 0 0 0
          0 0 0 0 0 0
          0 0 0 0 0 0
          0 0 0 0 0 0
          0 0 0 0 0 0
          0 0 0 0 0 0
          0 0 0 0 0 0
          0 0 0 0 0 0
          0 0 0 0 0 0
          0 0 0 0 0 0
          0 0 0 0 0 0
          0 0 0 0 0 0
          0 0 0 0 0 0
          0 0 0 0 0 0
          0 0 0 0 0 0
          0 0 0 0 0 0
          0 0 0 0 0 0
          0 0 0 0 0 0
          0 0 0 0 0 0
          0 0 0 0 0 0
          0 0 0 0 0 0
          0 0 0 0 0 0
          0 0 0 0 0 0
          0 0 0 0 0 0
          0 0 0 0 0 0
          0 0 0 0 0 0
          0 0 0 0 0 0
          0 0 0 0 0 0
          0 0 0 0 0 0
          0 0 0 0 0 0
          0 0 0 0 0 0
          0 0 0 0 0 0
          0 0 0 0 0 0
          0 0 0 0 0 0
          0 0 0 0 0 0
          0 0 0 0 0 0
          0 0 0 0 0 0
          0 0 0 0 0 0
          0 0 0 0 0 0
          0 0 0 0 0 0
          0 0 0 0 0 0
          0 0 0 0 0 0
          0 0 0 0 0 0
          0 0 0 0 0 0
          0 0 0 0 0 0
          0 0 0 0 0 0
          0 0 0 0 0 0
          0 0 0 0 0 0
          0 0 0 0 0 0
          0 0 0 0 0 0
          0 0 0 0 0 0
          0 0 0 0 0 0
          0 0 0 0 0 0
          0 0 0 0 0 0
          0 0 0 0 0 0
          0 0 0 0 0 0
          0 0 0 0 0 0
          0 0 0 0 0 0
          0 0 0 0 0 0
          0 0 0 0 0 0
          0 0 0 0 0 0
          0 0 0 0 0 0
          0 0 0 0 0 0
          0 0 0 0 0 0
          0 0 0 0 0 0
          0 0 0 0 0 0
          0 0 0 0 0 0
          0 0 0 0 0 0
          0 0 0 0 0 0
          0 0 0 0 0 0
          0 0 0 0 0 0
          0 0 0 0 0 0
          0 0 0 0 0 0
          0 0 0 0 0 0
          0 0 0 0 0 0
          0 0 0 0 0 0
          0 0 0 0 0 0
          0 0 0 0 0 0
          0 0 0 0 0 0
          0 0 0 0 0 0
          0 0 0 0 0 0
          0 0 0 0 0 0
          0 0 0 0 0 0
          0 0 0 0 0 0
          0 0 0 0 0 0
          0 0 0 0 0 0
          0 0 0 0 0 0
          0 0 0 0 0 0
          0 0 0 0 0 0
          0 0 0 0 0 0
          0 0 0 0 0 0
          0 0 0 0 0 0
          0 0 0 0 0 0
          0 0 0 0 0 0
          0 0 0 0 0 0
          0 0 0 0 0 0
          0 0 0 0 0 0
          0 0 0 0 0 0
          0 0 0 0 0 0
          0 0 0 0 0 0
          0 0 0 0 0 0
          0 0 0 0 0 0
          0 0 0 0 0 0
          0 0 0 0 0 0
          0 0 0 0 0 0
          0 0 0 0 0 0
          0 0 0 0 0 0
          0 0 0 0 0 0
          0 0 0 0 0 0
          0 0 0 0 0 0
          0 0 0 0 0 0
          0 0 0 0 0 0
          0 0 0 0 0 0
          0 0 0 0 0 0
          0 0 0 0 0 0
          0 0 0 0 0 0
          0 0 0 0 0 0
          0 0 0 0 0 0
          0 0 0 0 0 0
          0 0 0 0 0 0
          0 0 0 0 0 0
          0 0 0 0 0 0
          0 0 0 0 0 0
          0 0 0 0 0 0
          0 0 0 0 0 0
          0 0 0 0 0 0
          0 0 0 0 0 0
          0 0 0 0 0 0
          0 0 0 0 0 0
          0 0 0 0 0 0
          0 0 0 0 0 0
          0 0 0 0 0 0
          0 0 0 0 0 0
          0 0 0 0 0 0
          0 0 0 0 0 0
          0 0 0 0 0 0
          0 0 0 0 0 0
          0 0 0 0 0 0
          0 0 0 0 0 0
          0 0 0 0 0 0
          0 0 0 0 0 0
          0 0 0 0 0 0
          0 0 0 0 0 0
          0 0 0 0 0 0
          0 0
        </DataArray>
        <DataArray type="Float64" Name="gradient_error" format="ascii" RangeMin="2.167433401169391e-10" RangeMax="7.803107905831078e-8">
          1.780351053512414e-8 1.3581679097457218e-8 4.006547309352972e-9 3.3243048684736054e-9 1.0429555767154823e-9 2.524091880897751e-10
          7.793368304272736e-10 4.4568359715506423e-8 4.249246313313e-8 3.9724401705372655e-9 2.7499476950978355e-8 2.0984938098257353e-8
          4.46985695095651e-8 5.04297819996849e-8 1.326617087898222e-8 4.44260233067904e-8 4.877921363331098e-8 2.0599009416299678e-8
          3.6188854787731225e-8 2.8994772545914425e-8 4.070082792425991e-10 3.596221132547725e-8 1.0550102889619963e-8 4.6538490631359135e-8
          9.803516203374666e-9 7.172212921898822e-9 3.824190530644162e-8 4.187167900715427e-8 2.9841131839706965e-9 2.975975413779338e-8
          8.095528718588425e-9 2.7515655547680594e-8 1.9175065363093205e-8 1.1967843547504455e-9 1.2806372259816565e-8 5.097760075817828e-8
          1.541440666852876e-8 1.980874720625466e-8 1.036449969070448e-8 1.3267359233631954e-8 2.261664533197071e-9 4.915504203204398e-9
          2.6944971297646973e-9 1.2375678182478077e-8 8.319693328444383e-9 7.201536005220034e-9 6.371037168320892e-9 1.5512886127526592e-8
          2.5025480861881906e-9 1.0957689929230636e-8 6.529594211216466e-10 1.3146255855713524e-9 5.723128580177832e-10 1.9899976626149295e-8
          1.768454080446009e-8 1.9489065632212957e-9 1.4665368351841804e-8 1.1863909721336701e-8 8.554046019611481e-9 6.90309345196034e-9
          5.636267661776771e-9 3.1652034531278963e-9 4.288106478613698e-9 3.4791114399939237e-9 1.4078275322621378e-9 1.2752605202366146e-9
          1.5875179262415506e-9 7.049508650060507e-10 2.9736986684604618e-8 2.7488762333994573e-8 5.1401539112814566e-8 4.770164483400969e-8
          2.4558620431993304e-8 5.042992474973123e-8 4.6495597492831055e-8 2.1625720844820717e-8 3.784518477047859e-8 3.615470189693892e-8
          4.344232244052924e-8 5.082441505253421e-8 4.1289329235921786e-8 6.022176897526316e-8 2.3096848470138784e-8 2.1161786070379136e-8
          4.8360950797157976e-8 4.4288698758563754e-8 1.748624595233005e-8 4.503618993488483e-8 4.096282818349624e-8 1.6258929435320017e-8
          3.373693691342873e-8 3.0536775738681494e-8 4.513658705131552e-8 4.132864300485455e-8 4.026076845783484e-8 5.01185064573943e-8
          1.4735984935723271e-8 2.5257148743951393e-8 1.278721430183259e-8 2.337807719798698e-8 1.7008020838026997e-8 5.01923523488426e-8
          5.0099161246091783e-8 1.0724572001550673e-8 2.1112504901019058e-8 8.664412021039608e-9 1.8471875540325356e-8 8.1580088030808e-9
          1.4967582695150213e-8 1.2759666035395392e-8 4.9072920632726385e-8 4.713949516693478e-8 2.930472428712599e-8 7.795398642096683e-9
          2.0834445763547156e-8 8.813651157953273e-9 8.796594627524411e-9 6.021113405399171e-8 4.210953029546284e-8 2.167433401169391e-10
          7.990596160762901e-10 7.270029227567998e-10 5.382574969021303e-8 1.0120395933843542e-8 1.0047765847468542e-8 2.3368294397904744e-9
          1.1426214901016016e-8 3.337885666243984e-8 3.506221208864878e-8 5.862524880690022e-10 9.961524488486736e-10 1.3691327393145072e-9
          9.251285177979333e-9 7.131873560190823e-8 6.297139943793841e-8 4.065686567444651e-8 7.803107905831078e-8 6.005370258639353e-8
          5.29688040825196e-8 5.2968938069567924e-8 3.957806191112643e-8 3.757722876486092e-8 3.976632954023871e-8 4.058650606435725e-8
          4.60876156851737e-8 1.5145003161182722e-8 1.376693720947635e-8 4.042226254789051e-8 3.652560396688937e-8 1.0267452181688278e-8
          3.47178439350623e-8 3.117161263251041e-8 1.038039248998489e-8 2.6623398978269212e-8 2.2208621272495583e-8 4.219543504049478e-8
          3.783425032835556e-8 3.3990645790488786e-8 4.6096058781734784e-8 7.965440904220483e-9 7.191256632338028e-9 2.8329037714206558e-8
          2.526357639430847e-8 3.267375200532578e-9 2.1802646600095192e-8 1.9304735281735157e-8 5.370621963945041e-9 1.7578837493285098e-8
          1.309571563122924e-8 3.2804181378032725e-8 2.8966002017033598e-8 3.628018173647368e-8 6.718353356918929e-9 1.5547075112232393e-8
          4.9721641315797184e-9 1.2515315072894043e-8 5.064792991638059e-9 1.0476297653814577e-8 8.23876893075543e-9 4.4133726584934916e-8
          3.985418593755814e-8 2.350169532404381e-8 3.493571295090188e-9 9.56004807958744e-9 2.2997192049630975e-9 6.883090920479052e-9
          2.662971022745868e-9 6.160536247015076e-9 3.4461865768348237e-9 3.438898435155156e-8 2.8218918131533857e-8 2.0945539388708114e-8
          2.8174872196705513e-9 1.2843776390314894e-8 3.335441834160972e-9 1.4014277377983028e-8 3.612097122282386e-8 3.604410974575739e-8
          9.842053680301892e-10 1.773000194933568e-9 2.1899628063664045e-9 1.1775253472795602e-8 1.637968674107577e-8 1.4577061851787624e-8
          3.449955764275928e-8 1.4128280583651995e-9 2.5678770291816175e-9 1.3353794413296171e-8 5.186229727642737e-8 4.906462232113048e-8
          3.4571502140289984e-8 3.788881554837215e-8 4.068730008122678e-8 3.953315582785473e-8 4.18343624525098e-8 4.422276928198871e-8
          3.788151237783959e-8 4.4625899748708856e-8 2.7432306466701974e-8 3.651245830210277e-8 3.210086474953814e-8 5.7018822191285754e-8
          1.4819718887739922e-8 1.7464857973403767e-8 1.0239611296832422e-8 2.0109997059067606e-8 1.3166935403662745e-8 1.571896110293876e-8
          1.1359300208481949e-8 1.3774420225407974e-8 8.214642378180381e-9 9.06231327291319e-9 8.219672119841679e-9 1.8270986802214774e-8
          1.6189540242333996e-8 9.909984167645997e-9 9.423829272422181e-9 1.1677431736586026e-8 8.430608215671392e-9 1.0593891179026955e-8
          6.5295699327389e-9 8.052065299183158e-9 8.18186810723654e-9 1.3931034200749872e-8 1.2757174142382515e-8 9.574560665627415e-9
          1.3630611757711136e-8 1.4515929969151943e-8 1.4278383600366438e-8 1.494082293430792e-8 1.3595463147918944e-8 1.222076408166803e-8
          1.2463242714637494e-8 1.2921832765746237e-8 1.1776396365018032e-8 1.5938302747243533e-8 1.561747440092602e-8 1.628206056919134e-8
          1.4710661262034787e-8 1.733213444481162e-8 1.6903740163848776e-8 1.743747354708023e-8 1.5711261702882294e-8 1.3319425034153449e-8
          1.3669233463788767e-8 1.2514173598845836e-8 1.3976111468450434e-8 1.4202454994765419e-8 1.3005045414022218e-8 1.3947991336596605e-8
          1.3808724148292102e-8 1.3609009349365768e-8 7.785667707869548e-9 1.4764113463777321e-8 1.4615743371732123e-8 1.564920134241334e-8
          1.5477878325930647e-8 1.4143756364654797e-8 1.4916073801335248e-8 8.279737026415838e-9 8.30372805444831e-9 8.864083529514171e-9
          9.700540662597501e-9 1.2809238735696355e-8 1.2130363343270602e-8 1.3257181914923658e-8 1.3142363821123491e-8 1.3805825170305194e-8
          1.2464588192624307e-8 1.308605804738785e-8 1.2373551238979975e-8 1.1637656375668086e-8 1.3671663810407418e-8 6.019354364906084e-10
          7.761187793039204e-10 4.237438433467549e-9 2.892339074083146e-10 6.429735568409855e-10 7.657982074372477e-10 7.67604331216249e-10
          8.416823147453386e-10 2.801463821708253e-9 1.2714041210690047e-9 3.187257280613826e-10 3.9826069641906424e-10 5.167940843630107e-10
          7.117789095148159e-10 1.0304261831903498e-8 1.3234565733941865e-8 7.411714072106626e-9 9.442398844790413e-9 8.480722582643555e-9
          1.4254207724830872e-8 1.479263093151132e-8 7.923978572196867e-9 8.330651887545855e-9 1.4317867849077485e-8 1.6600708192104892e-8
          1.639682809275263e-8 1.760287135410287e-8 1.736073107217115e-8 1.5733599251380517e-8 1.6570952784608453e-8 9.42001042308747e-9
          9.468998235878128e-9 1.014057531007772e-8 9.402639840245863e-9 1.4111982969296126e-8 1.6079320300359422e-8 1.030968656927399e-8
          1.4639711121102439e-8 1.740444281638635e-8 1.820765763150309e-8 6.353543980198281e-9 8.612977228483826e-9 6.986998447028137e-9
          1.0723428648699594e-8 1.4460437787789917e-8 1.509576014363904e-8 1.3646625066219169e-8 1.41682055083006e-8 1.2385616977775157e-8
          1.3180964383905913e-8 1.5038173757692916e-8 1.569031546601434e-8 1.6224625070919105e-8 1.462219039327946e-8 1.4997824309351596e-8
          1.400420232348428e-8 1.4824271497825272e-8 1.7033729296925353e-8 9.431063346392715e-10 9.867683126077121e-10 1.1374813177879478e-9
          1.1793521996611038e-9 1.3048725960984528e-9 1.400813598677336e-9 4.957174387717461e-10 6.307977326957443e-10 7.511412875691355e-10
          8.378564660121583e-10 1.3632786800633023e-9 1.4034156788839364e-9 1.6300150681240324e-9 1.6588132710314488e-9 1.5557329974016682e-9
          1.7614421401975999e-9 6.807699313786177e-10 8.794042250514583e-10 1.015085936677602e-9 1.1797660757446178e-9 7.191535145048154e-9
          5.870778256560002e-9 1.3560525377223614e-8 1.279312813162165e-8 5.075984138722508e-9 1.6407233039478555e-9 1.1967757767329536e-8
          6.2752860314089504e-9 6.704689554303432e-9 1.3667587958903647e-8 1.4535139753674445e-8 1.6743045281973183e-9 1.7658129072950388e-9
          9.910213057066781e-9 1.2759334334320704e-8 1.3416171201920608e-8 1.2862801989565564e-8 1.4073008069520511e-8 1.3272676189645954e-8
          1.4119911638893627e-8 1.2500629761150445e-8 1.4756906240168323e-8 1.53380401067885e-8 1.3466725847393372e-8 1.3836451711402814e-8
          1.4641616186547429e-8 1.3063225246125386e-8 1.3515292306748713e-8 1.4400227233159672e-8 1.5163320734201238e-8 1.3625820731100323e-8
          1.5392046407760656e-8 1.6098913265591667e-8 1.401795705909292e-8 1.4485582131408652e-8 1.6027186575352994e-8 1.6859786424394835e-8
          1.456918827079247e-8 1.841435647908612e-8 1.7832386792403635e-8 1.803856363049725e-8 1.631836549789933e-8 1.8725623147075407e-8
          1.8015165387124443e-8 1.767960841058998e-8 1.6254723984182795e-8 1.4310143359196699e-8 1.4274993691716599e-8 1.323397282831589e-8
          1.4085442583432256e-8 1.3729597296152844e-8 1.2966144825672397e-8 1.7714558389921607e-8 1.7061141089401507e-8 1.6279323083778494e-8
          1.5348682076313197e-8 1.5928170258136927e-8 1.529490792701908e-8 1.3649045572256554e-8 1.3205955683279345e-8 1.2513004174315958e-8
          1.2122271002813696e-8 1.0625192173345371e-8 1.523474353276756e-8 1.0842317892736688e-8 1.5725679091276676e-8 1.8947004222415293e-8
          1.9569688398505042e-8 2.5642933633108067e-9 7.493463592980602e-9 8.013451715737209e-9 1.2144393021563693e-8 1.0929394008343549e-8
          1.606423641522838e-8 1.0838498335513927e-8 1.6188925005851025e-8 2.0019726281368915e-8 2.024467948148846e-8 3.082088878740296e-9
          8.51662775086706e-9 8.97253754630105e-9 1.3482103572720253e-8 1.667241269418787e-8 1.6999112172532447e-8 1.5279821053136806e-8
          1.5443306427455785e-8 1.5628701221897434e-8 1.6379095584988738e-8 1.884548066635767e-8 1.716961633070027e-8 1.7147856477717073e-8
          1.5464408509160626e-8 1.531374972670381e-8 1.7029346920925853e-8 1.75349616689557e-8 2.0375404893399893e-8 1.916731181681306e-9
          1.9421444365530296e-9 2.227264468790621e-9 2.248033452097641e-9 2.003556461570716e-9 2.2669358610709307e-9 8.807289175351127e-10
          1.157435490988615e-9 1.3056350775139724e-9 1.566989124167024e-9 2.560632899265238e-9 2.5698140093499176e-9 2.913146124899121e-9
          2.898468508642335e-9 2.5470700842695758e-9 2.833982601275474e-9 1.089762268481797e-9 1.457736675199997e-9 1.6109037431252997e-9
          1.982575116613432e-9 7.1674662066358525e-9 7.658633647002295e-9 1.5393708201689865e-8 1.6213371583431543e-8 1.9069497281658636e-9
          2.064094217908056e-9 1.1170390859227562e-8 8.146379633494877e-9 8.61232729237978e-9 1.696314885854059e-8 1.7600081438827605e-8
          2.2375408668448077e-9 2.4264633224260056e-9 1.2334847496945791e-8 1.6942683350202298e-8 1.9255497684912455e-8 2.292931930079959e-8
          2.2138960500635926e-8 2.021132565797121e-8 1.9892906627734216e-8 9.83046523794441e-9 1.2502111036428886e-8 1.5936221332165683e-8
          1.4394187400407171e-8 2.2429058562723493e-8 2.1598041127157058e-8 1.9252561430455417e-8 1.6547281270542604e-8 1.602785796584624e-8
          1.4512482457356048e-8 1.6911689337610173e-8 1.643814012288754e-8 1.4977496763646003e-8 1.4439068690778913e-8 1.7842858344774095e-8
          1.790058282379707e-8 2.125458498128697e-8 3.25696164067936e-9 3.2146152391354367e-9 3.547269994141586e-9 3.507156407640383e-9
          3.115296277036852e-9 3.3783958732622364e-9 1.303602870524531e-9 1.7613861398591318e-9 1.905260865763916e-9 2.3877996239371704e-9
          9.026708000680679e-9 9.34386157857027e-9 1.8068202761863157e-8 1.8314581563038193e-8 2.6160697293860706e-9 2.799002121883404e-9
          1.3156560939652657e-8 1.5851618504248315e-8 1.6270813061578287e-8 1.4119613549000644e-8 1.6559685982049916e-8 1.6699698031891505e-8
          1.4303190827817237e-8 1.6743553810051298e-8 1.7299838439362995e-8 1.4869520402954687e-8 1.513902116261026e-8 1.763548911585428e-8
          1.8328863817147697e-8 1.561942725690873e-8 1.7730330163460805e-8 1.8010543186771736e-8 1.5260402169788765e-8 1.524055664159121e-8
          1.8900974344871698e-8 1.932138834165197e-8 1.6217613511760296e-8 1.6680362730130063e-8 1.6471931856119395e-8 1.3951986717476949e-8
          1.605466186215621e-8 1.5413099804903668e-8 1.3024232237661483e-8 1.8122496922493803e-8 1.8031405547991963e-8 1.5094239369789435e-8
          1.4787730835775998e-8 1.9564631114857544e-8 1.959087923986453e-8 1.623649202210192e-8 1.771412893693854e-8 1.7140742565275638e-8
          1.430141907425404e-8 1.3642238862624465e-8 1.9373596011720874e-8 1.8868385325647608e-8 1.5578605910846593e-8 1.5288048761542745e-9
          1.6232467680784301e-9 1.5321739907651994e-9 1.551437007667366e-9 1.5722343230589578e-9 1.6191289360139333e-9 1.5535277957320444e-9
          1.5857369560962043e-9 1.5932832872073014e-9 1.6860855846109116e-9 1.6721392106140236e-9 1.7241552762536184e-9 1.6767205737697138e-9
          1.779001505721707e-9 1.8324046731094936e-9 1.828976227406663e-9 1.7820625207390433e-9 1.8372725081030098e-9 1.9281256821434924e-9
          1.8203705200746483e-9 1.1676389823168278e-9 1.204710794799712e-9 1.3191375872999506e-9 6.424868191693765e-10 1.4743029606482396e-9
          1.552113353979174e-9 1.0274039090320682e-9 2.9935209974931103e-10 3.1969097125722053e-10 3.9384758414114027e-10 2.350250176208377e-10