<?xml version="1.0"?>
<VTKFile type="UnstructuredGrid" version="0.1" byte_order="LittleEndian" header_type="UInt32" compressor="vtkZLibDataCompressor">
  <UnstructuredGrid>
    <Piece NumberOfPoints="1655" NumberOfCells="995">
      <PointData>
        <DataArray type="Int32" Name="libmesh_node_id" format="ascii" RangeMin="1548" RangeMax="14692">
          1548 1549 1550 1551 1552 1553
          1656 1657 1658 1659 1660 1661
          1662 1663 1692 1693 1694 1695
          1719 1720 1721 1722 1764 1765
          1766 1767 1768 1769 1770 1771
          1772 1773 1800 1801 1802 1803
          1827 1828 1829 1830 1876 1877
          1878 1879 1880 1881 1908 1909
          1910 1911 1935 1936 1937 1938
          1981 1991 1992 1995 1996 1998
          2005 2006 2007 2008 2009 2010
          2011 2012 2013 2014 2015 2016
          2017 2018 2033 2034 2035 2036
          2037 2038 2039 2040 2041 2042
          2043 2044 2045 2046 2063 2064
          2067 2069 2071 2072 2073 2074
          2075 2076 2077 2078 2079 2080
          2081 2082 2083 2084 2085 2086
          2087 2088 2089 2090 2272 2276
          2277 2278 2281 2284 2286 2287
          2288 2289 2290 2291 2292 2293
          2294 2295 2296 2297 2298 2299
          2300 2302 2303 2304 2306 2308
          2328 2329 2330 2333 2334 2335
          2336 2337 2338 2339 2340 2341
          2342 2343 2344 2345 2346 2347
          2348 2349 2350 2351 2352 2353
          2422 2428 2429 2430 2431 2432
          2433 2434 2435 2438 2439 2440
          2441 2442 2443 2444 2445 2448
          2449 2450 2451 2452 2453 2454
          2455 2456 2457 2458 2459 2460
          2461 2462 2463 2464 2465 2466
          2467 3188 3189 3190 3191 3192
          3193 3196 3197 3208 3209 3210
          3211 3212 3213 3214 3215 3216
          3217 3218 3219 3220 3221 3222
          3223 3224 3225 3226 3227 3228
          3229 3230 3231 3232 3233 3234
          3235 3236 3237 3238 3239 3240
          3241 3301 3305 3306 3308 3310
          3311 3312 3313 3315 3317 3318
          3319 3320 3321 3322 3323 3324
          3325 3326 3327 3328 3329 3330
          3331 3332 3333 3334 3335 3336
          3337 3338 3339 3340 3341 3342
          3343 3348 3353 3358 3360 3362
          3363 3364 3367 3368 3370 3372
          3373 3374 3377 3521 3522 3523
          3524 3525 3526 3527 3528 3529
          3530 3538 3539 3540 3541 3542
          3543 3544 3545 3546 3547 3548
          3549 3550 3551 3552 3553 3554
          3555 3556 3557 3558 3559 3560
          3561 3562 3563 3564 3565 3566
          3567 3568 3569 3570 3571 3572
          3573 3574 3575 3576 3577 3578
          5164 5165 5166 5167 5168 5169
          5170 5171 5172 5173 5174 5175
          5176 5177 5184 5188 5189 5190
          5191 5192 5193 5194 5195 5196
          5197 5208 5209 5210 5211 5212
          5213 5214 5215 5216 5217 5221
          5225 5226 5227 5228 5229 5230
          5231 5300 5301 5302 5303 5304
          5305 5306 5307 5308 5309 5310
          5311 5312 5313 5314 5315 5316
          5317 5318 5319 5320 5321 5322
          5323 5324 5325 5326 5327 5328
          5329 5330 5331 5332 5333 5334
          5335 5336 5337 5338 5339 5340
          5341 5342 5343 5344 5345 5346
          5347 5348 5349 5350 5351 5352
          5353 5354 5355 5356 5357 5358
          5359 5360 5361 5362 5363 5364
          5365 5366 5367 5368 5369 5370
          5371 5372 5373 5374 5375 5376
          5377 5378 5379 5380 5381 5382
          5383 5384 5385 5386 5387 5388
          5389 5390 5391 5392 5393 5394
          5395 5396 5397 5398 5399 5400
          5401 5402 5403 5404 5405 5406
          5407 5408 5409 5410 5411 5412
          5413 5414 5415 5416 5417 5418
          5419 5420 5421 5422 5423 5424
          5425 5426 5427 5428 5429 5430
          5431 5432 5433 5434 5435 5463
          5464 5465 5466 5467 5468 5469
          5510 5511 5512 5513 5514 5515
          5516 5517 5518 5519 5520 5521
          5522 5523 5524 5525 5526 5527
          5529 5531 5532 5533 5544 5548
          5549 5552 5555 5558 5559 5562
          5565 5568 5569 5572 5575 5577
          5578 5579 5580 5581 5582 5583
          5584 5585 5586 5587 5755 5756
          5757 5758 5759 5760 5761 5762
          5763 5764 5765 5766 5767 5768
          5769 5770 5771 5772 5773 5774
          5775 5776 5777 5778 5779 5780
          5781 5782 5783 5784 5785 5786
          5787 5788 5789 5790 5791 5792
          5793 5794 5795 5796 5797 5798
          5799 5800 5801 5802 5803 5804
          5805 5855 5856 5857 5860 5861
          5862 5863 5864 5865 5866 5867
          5868 5869 5870 5873 5874 5875
          5876 5877 5878 5879 5880 5881
          5882 5883 5884 5906 5907 5908
          5909 5910 5911 5912 5913 5914
          5915 5916 5917 5918 5919 5920
          5921 5922 5923 5924 5925 5926
          5927 5928 5929 5930 5931 5932
          5933 5934 5935 5936 5937 5938
          5939 5940 5941 5942 5943 5944
          5945 5946 13153 13154 13155 13158
          13161 13163 13164 13165 13166 13167
          13168 13169 13170 13171 13172 13173
          13174 13175 13176 13179 13180 13183
          13185 13187 13188 13189 13190 13191
          13192 13193 13194 13195 13196 13199
          13200 13202 13205 13207 13208 13209
          13210 13211 13212 13213 13214 13215
          13216 13218 13220 13222 13224 13225
          13226 13227 13228 13229 13230 13295
          13307 13310 13312 13314 13316 13317
          13318 13319 13320 13321 13322 13323
          13324 13325 13328 13329 13330 13331
          13332 13334 13335 13336 13337 13338
          13339 13340 13341 13342 13343 13344
          13345 13416 13417 13419 13422 13424
          13425 13426 13427 13428 13429 13430
          13431 13432 13433 13435 13437 13439
          13441 13442 13443 13444 13445 13446
          13447 13450 13451 13453 13456 13458
          13459 13460 13461 13462 13463 13464
          13465 13466 13467 13469 13471 13473
          13475 13476 13477 13478 13479 13480
          13481 13506 13534 13539 13541 13543
          13545 13546 13547 13548 13549 13550
          13551 13553 13554 13555 13557 13558
          13559 13560 13561 13562 13563 13564
          13565 13567 13569 13571 13573 13574
          13575 13576 13577 13578 13579 13581
          13582 13583 13585 13586 13587 13588
          13589 13590 13591 13592 13593 14050
          14053 14054 14057 14060 14061 14062
          14063 14064 14066 14067 14068 14069
          14070 14071 14072 14073 14074 14075
          14076 14077 14078 14079 14080 14081
          14082 14083 14084 14085 14086 14087
          14088 14089 14090 14091 14092 14093
          14094 14095 14096 14097 14098 14099
          14100 14101 14102 14103 14104 14105
          14106 14107 14108 14109 14110 14111
          14112 14113 14114 14115 14116 14117
          14118 14119 14120 14121 14122 14123
          14124 14125 14126 14127 14130 14131
          14134 14136 14137 14138 14140 14141
          14142 14143 14144 14145 14146 14147
          14148 14149 14150 14151 14152 14153
          14154 14155 14158 14159 14162 14164
          14165 14166 14168 14169 14170 14171
          14172 14173 14174 14175 14176 14177
          14178 14179 14180 14181 14182 14183
          14184 14185 14186 14187 14188 14189
          14190 14191 14192 14193 14194 14195
          14196 14197 14198 14199 14200 14201
          14202 14203 14204 14205 14206 14207
          14208 14209 14210 14211 14212 14213
          14214 14215 14216 14217 14218 14219
          14220 14221 14222 14223 14224 14225
          14226 14227 14228 14229 14230 14231
          14232 14233 14234 14235 14236 14237
          14238 14239 14240 14241 14242 14243
          14244 14245 14246 14247 14248 14249
          14250 14251 14252 14253 14254 14255
          14256 14257 14258 14259 14260 14261
          14262 14263 14264 14265 14266 14267
          14268 14269 14270 14271 14272 14273
          14274 14275 14276 14277 14278 14279
          14280 14281 14282 14283 14284 14285
          14286 14287 14288 14289 14290 14291
          14292 14293 14294 14295 14296 14297
          14298 14299 14300 14301 14302 14303
          14304 14305 14306 14307 14308 14309
          14310 14311 14312 14313 14314 14315
          14316 14317 14318 14319 14320 14321
          14322 14323 14324 14325 14326 14327
          14328 14329 14330 14331 14332 14333
          14334 14335 14336 14337 14338 14339
          14340 14341 14342 14343 14344 14345
          14346 14347 14348 14349 14350 14351
          14352 14353 14354 14355 14356 14357
          14358 14359 14360 14361 14362 14363
          14364 14365 14366 14367 14368 14369
          14370 14371 14372 14373 14374 14375
          14376 14377 14378 14379 14380 14381
          14382 14383 14384 14385 14386 14387
          14388 14389 14390 14391 14392 14393
          14394 14395 14396 14397 14398 14399
          14400 14401 14402 14403 14404 14405
          14406 14407 14408 14409 14410 14411
          14412 14413 14414 14415 14416 14417
          14418 14419 14420 14421 14422 14423
          14424 14425 14426 14427 14428 14429
          14430 14431 14432 14433 14434 14435
          14436 14437 14438 14439 14440 14441
          14442 14443 14444 14445 14446 14447
          14448 14449 14450 14451 14452 14453
          14454 14455 14456 14457 14458 14459
          14460 14461 14462 14463 14464 14465
          14466 14467 14468 14469 14470 14471
          14472 14473 14474 14475 14476 14477
          14478 14479 14480 14481 14482 14483
          14484 14485 14486 14487 14488 14489
          14490 14491 14492 14493 14494 14495
          14496 14497 14498 14499 14500 14501
          14502 14503 14504 14505 14506 14507
          14508 14509 14510 14511 14512 14513
          14514 14515 14516 14517 14518 14519
          14520 14521 14522 14523 14524 14525
          14526 14527 14528 14529 14530 14531
          14532 14533 14534 14535 14536 14537
          14538 14539 14540 14541 14542 14543
          14544 14545 14546 14547 14548 14549
          14550 14551 14552 14553 14554 14555
          14556 14557 14558 14559 14560 14561
          14562 14563 14564 14565 14566 14567
          14568 14569 14570 14571 14572 14573
          14574 14575 14576 14577 14578 14579
          14580 14581 14582 14583 14584 14585
          14586 14587 14588 14589 14590 14591
          14592 14593 14594 14595 14596 14597
          14598 14599 14600 14601 14602 14603
          14604 14605 14606 14607 14608 14609
          14610 14611 14612 14613 14614 14615
          14616 14617 14618 14619 14620 14621
          14622 14623 14624 14625 14626 14627
          14628 14629 14630 14631 14632 14633
          14634 14635 14636 14637 14638 14639
          14640 14641 14642 14643 14644 14645
          14646 14647 14648 14649 14650 14651
          14652 14653 14654 14655 14656 14657
          14658 14659 14660 14661 14662 14663
          14664 14665 14666 14667 14668 14669
          14670 14671 14672 14673 14674 14675
          14676 14677 14678 14679 14680 14681
          14682 14683 14684 14685 14686 14687
          14688 14689 14690 14691 14692 1986
          1999 2000 1875 2279 2280 2301
          2264 2265 2305 2268 2307 2309
          2423 2424 2436 2427 2437 2194
          2225 2231 1983 2228 1994 2446
          2447 2238 2242 2239 2245 1997
          2273 3307 3302 3309 2216 2252
          2256 2254 3314 3316 2262 2266
          2220 2257 3359 3349 2258 3361
          3356 3365 3366 2267 3369 3371
          3375 3376 3533 3169 3534 3537
          3200 3244 3204 3245 3248 3250
          5244 5245 5248 5264 5265 5268
          5270 3535 3506 3082 3536 5528
          3507 5530 3510 3152 3242 3246
          5545 5550 5551 5546 5553 5554
          5556 5547 5557 5560 5561 5563
          5564 5566 5567 5570 5571 5573
          5574 5576 3039 3042 3045 5894
          5078 5895 5898 5448 5296 5449
          5452 2285 5454 13700 13712 13724
          13726 5250 13728 3201 13796 13797
          13800 13802 13880 13892 13894 5280
          13896 5282 13908 13920 13922 5284
          13924 3206 13990 13992 13994 5294
          14005 14006 14009 14011 14021 14023
          14025 5298 14035 14037 14039
        </DataArray>
        <DataArray type="Float64" Name="bounds" format="ascii" RangeMin="0" RangeMax="0">
          0 0 0 0 0 0
          0 0 0 0 0 0
          0 0 0 0 0 0
          0 0 0 0 0 0
          0 0 0 0 0 0
          0 0 0 0 0 0
          0 0 0 0 0 0
          0 0 0 0 0 0
          0 0 0 0 0 0
          0 0 0 0 0 0
          0 0 0 0 0 0
          0 0 0 0 0 0
          0 0 0 0 0 0
          0 0 0 0 0 0
          0 0 0 0 0 0
          0 0 0 0 0 0
          0 0 0 0 0 0
          0 0 0 0 0 0
          0 0 0 0 0 0
          0 0 0 0 0 0
          0 0 0 0 0 0
          0 0 0 0 0 0
          0 0 0 0 0 0
          0 0 0 0 0 0
          0 0 0 0 0 0
          0 0 0 0 0 0
          0 0 0 0 0 0
          0 0 0 0 0 0
          0 0 0 0 0 0
          0 0 0 0 0 0
          0 0 0 0 0 0
          0 0 0 0 0 0
          0 0 0 0 0 0
          0 0 0 0 0 0
          0 0 0 0 0 0
          0 0 0 0 0 0
          0 0 0 0 0 0
          0 0 0 0 0 0
          0 0 0 0 0 0
          0 0 0 0 0 0
          0 0 0 0 0 0
          0 0 0 0 0 0
          0 0 0 0 0 0
          0 0 0 0 0 0
          0 0 0 0 0 0
          0 0 0 0 0 0
          0 0 0 0 0 0
          0 0 0 0 0 0
          0 0 0 0 0 0
          0 0 0 0 0 0
          0 0 0 0 0 0
          0 0 0 0 0 0
          0 0 0 0 0 0
          0 0 0 0 0 0
          0 0 0 0 0 0
          0 0 0 0 0 0
          0 0 0 0 0 0
          0 0 0 0 0 0
          0 0 0 0 0 0
          0 0 0 0 0 0
          0 0 0 0 0 0
          0 0 0 0 0 0
          0 0 0 0 0 0
          0 0 0 0 0 0
          0 0 0 0 0 0
          0 0 0 0 0 0
          0 0 0 0 0 0
          0 0 0 0 0 0
          0 0 0 0 0 0
          0 0 0 0 0 0
          0 0 0 0 0 0
          0 0 0 0 0 0
          0 0 0 0 0 0
          0 0 0 0 0 0
          0 0 0 0 0 0
          0 0 0 0 0 0
          0 0 0 0 0 0
          0 0 0 0 0 0
          0 0 0 0 0 0
          0 0 0 0 0 0
          0 0 0 0 0 0
          0 0 0 0 0 0
          0 0 0 0 0 0
          0 0 0 0 0 0
          0 0 0 0 0 0
          0 0 0 0 0 0
          0 0 0 0 0 0
          0 0 0 0 0 0
          0 0 0 0 0 0
          0 0 0 0 0 0
          0 0 0 0 0 0
          0 0 0 0 0 0
          0 0 0 0 0 0
          0 0 0 0 0 0
          0 0 0 0 0 0
          0 0 0 0 0 0
          0 0 0 0 0 0
          0 0 0 0 0 0
          0 0 0 0 0 0
          0 0 0 0 0 0
          0 0 0 0 0 0
          0 0 0 0 0 0
          0 0 0 0 0 0
          0 0 0 0 0 0
          0 0 0 0 0 0
          0 0 0 0 0 0
          0 0 0 0 0 0
          0 0 0 0 0 0
          0 0 0 0 0 0
          0 0 0 0 0 0
          0 0 0 0 0 0
          0 0 0 0 0 0
          0 0 0 0 0 0
          0 0 0 0 0 0
          0 0 0 0 0 0
          0 0 0 0 0 0
          0 0 0 0 0 0
          0 0 0 0 0 0
          0 0 0 0 0 0
          0 0 0 0 0 0
          0 0 0 0 0 0
          0 0 0 0 0 0
          0 0 0 0 0 0
          0 0 0 0 0 0
          0 0 0 0 0 0
          0 0 0 0 0 0
          0 0 0 0 0 0
          0 0 0 0 0 0
          0 0 0 0 0 0
          0 0 0 0 0 0
          0 0 0 0 0 0
          0 0 0 0 0 0
          0 0 0 0 0 0
          0 0 0 0 0 0
          0 0 0 0 0 0
          0 0 0 0 0 0
          0 0 0 0 0 0
          0 0 0 0 0 0
          0 0 0 0 0 0
          0 0 0 0 0 0
          0 0 0 0 0 0
          0 0 0 0 0 0
          0 0 0 0 0 0
          0 0 0 0 0 0
          0 0 0 0 0 0
          0 0 0 0 0 0
          0 0 0 0 0 0
          0 0 0 0 0 0
          0 0 0 0 0 0
          0 0 0 0 0 0
          0 0 0 0 0 0
          0 0 0 0 0 0
          0 0 0 0 0 0
          0 0 0 0 0 0
          0 0 0 0 0 0
          0 0 0 0 0 0
          0 0 0 0 0 0
          0 0 0 0 0 0
          0 0 0 0 0 0
          0 0 0 0 0 0
          0 0 0 0 0 0
          0 0 0 0 0 0
          0 0 0 0 0 0
          0 0 0 0 0 0
          0 0 0 0 0 0
          0 0 0 0 0 0
          0 0 0 0 0 0
          0 0 0 0 0 0
          0 0 0 0 0 0
          0 0 0 0 0 0
          0 0 0 0 0 0
          0 0 0 0 0 0
          0 0 0 0 0 0
          0 0 0 0 0 0
          0 0 0 0 0 0
          0 0 0 0 0 0
          0 0 0 0 0 0
          0 0 0 0 0 0
          0 0 0 0 0 0
          0 0 0 0 0 0
          0 0 0 0 0 0
          0 0 0 0 0 0
          0 0 0 0 0 0
          0 0 0 0 0 0
          0 0 0 0 0 0
          0 0 0 0 0 0
          0 0 0 0 0 0
          0 0 0 0 0 0
          0 0 0 0 0 0
          0 0 0 0 0 0
          0 0 0 0 0 0
          0 0 0 0 0 0
          0 0 0 0 0 0
          0 0 0 0 0 0
          0 0 0 0 0 0
          0 0 0 0 0 0
          0 0 0 0 0 0
          0 0 0 0 0 0
          0 0 0 0 0 0
          0 0 0 0 0 0
          0 0 0 0 0 0
          0 0 0 0 0 0
          0 0 0 0 0 0
          0 0 0 0 0 0
          0 0 0 0 0 0
          0 0 0 0 0 0
          0 0 0 0 0 0
          0 0 0 0 0 0
          0 0 0 0 0 0
          0 0 0 0 0 0
          0 0 0 0 0 0
          0 0 0 0 0 0
          0 0 0 0 0 0
          0 0 0 0 0 0
          0 0 0 0 0 0
          0 0 0 0 0 0
          0 0 0 0 0 0
          0 0 0 0 0 0
          0 0 0 0 0 0
          0 0 0 0 0 0
          0 0 0 0 0 0
          0 0 0 0 0 0
          0 0 0 0 0 0
          0 0 0 0 0 0
          0 0 0 0 0 0
          0 0 0 0 0 0
          0 0 0 0 0 0
          0 0 0 0 0 0
          0 0 0 0 0 0
          0 0 0 0 0 0
          0 0 0 0 0 0
          0 0 0 0 0 0
          0 0 0 0 0 0
          0 0 0 0 0 0
          0 0 0 0 0 0
          0 0 0 0 0 0
          0 0 0 0 0 0
          0 0 0 0 0 0
          0 0 0 0 0 0
          0 0 0 0 0 0
          0 0 0 0 0 0
          0 0 0 0 0 0
          0 0 0 0 0 0
          0 0 0 0 0 0
          0 0 0 0 0 0
          0 0 0 0 0 0
          0 0 0 0 0 0
          0 0 0 0 0 0
          0 0 0 0 0 0
          0 0 0 0 0 0
          0 0 0 0 0 0
          0 0 0 0 0 0
          0 0 0 0 0 0
          0 0 0 0 0 0
          0 0 0 0 0 0
          0 0 0 0 0 0
          0 0 0 0 0 0
          0 0 0 0 0 0
          0 0 0 0 0 0
          0 0 0 0 0 0
          0 0 0 0 0 0
          0 0 0 0 0 0
          0 0 0 0 0 0
          0 0 0 0 0 0
          0 0 0 0 0 0
          0 0 0 0 0 0
          0 0 0 0 0 0
          0 0 0 0 0 0
          0 0 0 0 0 0
          0 0 0 0 0 0
          0 0 0 0 0 0
          0 0 0 0 0 0
          0 0 0 0 0 0
          0 0 0 0 0 0
          0 0 0 0 0 0
          0 0 0 0 0
        </DataArray>
        <DataArray type="Float64" Name="gradient_error" format="ascii" RangeMin="5.744817166182006e-15" RangeMax="3.3243048684736054e-9">
          1.5575110536384632e-11 1.1855430093496519e-11 3.8779678483523825e-12 3.1048369810931653e-12 3.1837274537016036e-13 2.4775010499506254e-13
          2.158510565827889e-11 2.780885363723921e-11 4.007910024077027e-12 6.156206914970566e-12 2.704183058597828e-13 3.4268298618937237e-13
          6.615611878139957e-14 6.499746864524898e-14 2.6870969619418802e-11 4.768099236256603e-12 3.471211095796007e-13 5.3421203349894186e-14
          1.357069075847168e-11 9.603426585516786e-13 2.80294418794037e-13 4.3003588190689975e-14 9.387158015674374e-11 5.1940559430376105e-11
          2.620373253202303e-12 6.0472590330519866e-12 6.324876502206145e-14 2.876931570545243e-13 3.4037990314528677e-14 6.371374617998752e-14
          1.1989492401601974e-14 1.7828057814686474e-14 3.3846477885731164e-11 5.0099246926256986e-12 5.544394898692467e-13 9.618681103202199e-14
          2.917239187427634e-11 2.8926168111462685e-12 7.09786279402663e-13 9.982120532667736e-14 1.4400441464544838e-13 1.1695948867845694e-13
          1.6724793362717927e-14 5.971612337293656e-14 1.119837239839053e-14 1.8781912872103748e-14 2.912211353124509e-11 2.8876832146724076e-12
          6.07553107219598e-13 1.2406878511817066e-13 3.607246755028115e-11 4.2068304482516415e-12 1.0155858502121179e-12 1.4440082614023888e-13
          1.0492052769700335e-10 1.6802035098185607e-11 1.1963002347168101e-11 2.4263567259948486e-12 9.185510113857339e-12 1.298748815833127e-11
          2.2812373976495333e-13 2.6242869277245006e-13 3.0450852006120894e-13 2.5791834393798137e-13 1.166557255777382e-13 3.049612956750547e-14
          7.019755752200823e-14 4.974368136055783e-13 5.751441531338463e-13 1.5471719254479186e-13 1.4046430989312832e-12 2.379607282010243e-13
          4.0878573597356164e-14 5.854349942313709e-13 2.1201972847216763e-14 1.9438335229025336e-14 1.62810816178986e-14 1.8143386617055938e-14
          7.5098079095597e-15 1.1033209368104673e-14 1.1355649319710809e-14 1.7674697610833908e-14 2.0378082700298122e-14 1.1678089271316945e-14
          2.2340694173564454e-14 1.8806741817592463e-14 1.520149072986192e-14 2.3081467789762332e-14 4.5470720792190486e-11 3.099731496923207e-11
          1.5407672728197517e-11 3.784413714657564e-11 1.2165419386539383e-11 9.170622534495459e-12 4.315952461721638e-12 2.8859314367121586e-12
          3.5989130261681133e-12 6.249783303435613e-12 1.3650647708302126e-12 7.576971812487873e-12 1.3673343130121028e-12 8.900653580703111e-12
          5.864184089062812e-13 6.318478092088645e-13 2.0278048636453522e-13 2.2083484815583425e-13 2.6532008140791836e-13 3.252329423402561e-13
          2.0055296315319082e-13 6.772772095114478e-13 2.388892099471333e-13 3.851458032725938e-13 1.7435144708948039e-12 2.4619834789657084e-13
          1.3811606226113594e-13 1.5254272277720094e-13 1.7697176063516504e-13 4.3369870515772524e-13 6.157252498285143e-14 5.4262019949192047e-14
          6.671661421298781e-14 6.186825511770105e-14 2.7723318878843113e-14 6.190490039130148e-14 4.40629216219287e-14 5.428411108529764e-14
          4.73211820589525e-14 3.3759990649607746e-14 1.0922646340134555e-13 1.3705431313734387e-13 8.341800895047253e-14 9.070381407135714e-14
          5.358833725693048e-13 2.4219313788756536e-13 1.8247174946836852e-13 4.732240810731425e-13 1.7011570936761004e-13 1.269434960924912e-13
          1.3395864466358001e-11 5.178651385936111e-11 3.5517189457178236e-11 1.9247865054995365e-11 4.276165854210077e-12 4.014148408245155e-12
          1.1054563111013447e-11 1.0337169005640035e-11 1.371332177952656e-12 2.7687171352993146e-12 2.3561460209457995e-12 3.7521309622802335e-12
          9.619774900266624e-12 1.943574906592285e-12 1.5395317382901435e-13 1.5198649440273692e-13 2.1414111495379604e-13 2.2593673078036096e-13
          8.977459817577661e-14 9.137880005207588e-14 1.1027314464061913e-13 1.5001981497645952e-13 2.377323466069259e-13 1.2916748922916239e-13
          1.3254789693433441e-10 3.56157555526858e-11 4.5876016973238906e-11 4.0222915849930355e-11 2.0845901262508684e-10 1.260136053805026e-11
          1.1398326824900365e-11 4.7106422020890817e-11 5.409326161152882e-11 4.811438305174837e-12 4.288445448428095e-12 5.7327549678360075e-12
          1.2922566006562036e-11 1.4836575960377507e-12 4.524826258374791e-12 4.494851194721687e-12 3.256474442744789e-12 4.0600291930179056e-13
          4.706857348558576e-13 1.466900068330819e-12 1.3044934843463196e-12 1.734329165844601e-13 3.51015545795414e-13 3.015940230063412e-13
          5.191325068825165e-13 9.038079279253455e-13 2.4928563715160217e-13 5.889832375064263e-14 4.998065417666126e-14 3.7649383896466796e-14
          3.943584573998024e-14 4.774941660903455e-14 4.7273553761021e-14 3.205854924153206e-14 4.2637620110972334e-14 4.1222307583493686e-14
          4.6797690913007467e-14 1.5489703776501103e-13 4.254145805680537e-13 3.081098234286893e-13 3.07329612484899e-13 5.86060241095015e-13
          1.3977262801128854e-13 1.0707766152684934e-12 2.069046393101073e-12 2.3979301976576185e-13 2.087560747644727e-13 1.278631714666518e-13
          1.9725053411473093e-13 2.806093856956165e-13 3.321277130502034e-13 1.7755575481401585e-13 4.2406209166175953e-13 2.564123167429456e-13
          3.118179032461735e-13 9.751256568887605e-14 8.471891389456387e-14 1.0750758137254489e-13 7.891369023947307e-14 6.278969237961113e-14
          8.03216476808708e-14 8.266046713865685e-14 7.671681911933282e-14 9.266522382303848e-14 9.432938753876412e-14 2.6195304780907286e-13
          1.9683462211400743e-13 8.18018347095747e-14 1.2457708362975123e-13 8.458903678642245e-14 1.3059654076710504e-13 6.056880538781546e-14
          1.0313348453627912e-13 7.398239145477356e-14 1.0551693182784765e-13 7.199877350361844e-14 1.7567467604856454e-13 1.312991586901e-13
          1.192453033841611e-13 8.442112983598081e-11 1.5959437055227204e-10 3.040895686504001e-11 3.921569412443299e-12 8.767668900814365e-12
          5.121041303901685e-11 1.0871493767287167e-11 2.1159669809377183e-12 1.1204359721208215e-12 1.4844376680672112e-12 3.551895821938675e-12
          1.1777469706784357e-12 6.311080387348792e-14 5.514919815331811e-14 7.630758548940787e-14 6.695505810515395e-14 2.7225508398744716e-14
          2.6853792724196973e-14 2.853379419122595e-14 4.7187592433148304e-14 5.760253072090003e-14 3.0213795658254926e-14 8.456346035474898e-15
          7.501092814067687e-15 4.717154502253985e-14 3.3256982901481625e-14 5.744817166182006e-15 1.7470103119335717e-14 1.3193372871179942e-14
          6.545839592660477e-15 1.9342420780423412e-14 8.916642623024165e-15 8.58867440096048e-14 5.901287298889558e-14 2.0641928576177878e-14
          3.2139001968186343e-14 1.7191932350372024e-11 3.2196286780640275e-11 7.183795836027999e-12 4.453884889681497e-12 6.661187280762063e-12
          1.4439374736242856e-11 4.852143914236298e-12 2.2217562191723648e-11 2.4261599847928994e-12 1.4440740264980597e-12 1.561442771860237e-12
          1.6338624678966845e-12 8.151541638901885e-13 1.7062821639331323e-12 2.813340767944384e-13 2.555141173811492e-13 1.9487540912085603e-13
          1.7524705699486963e-13 8.171818073953928e-14 1.0086103295871436e-13 9.299969971881967e-14 1.8906607572765222e-13 1.6498568841608392e-13
          1.097391817562447e-13 1.186105648308919e-13 1.905811578586327e-13 4.541262124002451e-14 1.0058396137350669e-13 8.878313617433941e-14
          2.0842782114193126e-13 6.691476567616432e-14 2.5131632515043532e-14 2.3089473299178843e-14 7.651100783641278e-14 6.959218530778716e-14
          1.7404227613230424e-14 4.358199359565e-14 3.8448874705456835e-14 1.9550537934870376e-14 5.132687926824611e-14 2.582728828201525e-14
          8.415786766533077e-14 7.293362049857707e-14 9.092593450099286e-14 7.576860494779077e-14 3.813376313852339e-14 9.46033705302047e-14
          7.857332132277432e-14 4.8757733929620136e-14 6.870374271051743e-14 4.74960964663056e-14 1.1430164726217633e-13 9.133246241846119e-14
          1.1901287950702525e-13 9.213262576781184e-14 2.726652718340818e-13 2.5387637996876625e-13 9.296687285909405e-14 1.4254226315259477e-13
          1.0437366927922065e-13 1.3981264884162572e-13 4.883576464628541e-14 2.401325534134307e-13 1.9211765344609547e-13 1.7525162840403082e-13
          1.2336927869139917e-13 1.1611178690356715e-13 2.090730631073095e-13 1.9461599219009493e-13 1.143668420589208e-13 1.346123427784458e-13
          1.260551831134276e-13 1.363639766271372e-13 1.8973826773030084e-13 1.4071695496577763e-13 9.58348696788097e-13 8.842509291976178e-13
          3.923869278909021e-13 6.950393753025666e-13 3.0421751060482276e-13 1.959319107239622e-13 2.2362269279905138e-13 1.6366901747025836e-13
          1.397901060842231e-13 2.3294926645791773e-13 1.9969196384491376e-13 1.1777507211718887e-13 4.665600227186391e-13 2.0629020078005364e-13
          2.6848224690871116e-13 2.7684349570878814e-12 2.5511431374589622e-12 1.2410941892148505e-12 1.1431550324788896e-12 1.994727509886854e-12
          8.927096277997192e-13 3.06702550155256e-12 2.879319040211618e-12 1.315588894836941e-12 2.356510188450337e-12 1.602503673081845e-12
          1.3214350942675484e-12 5.903867233224115e-13 7.41864026080879e-13 3.301583107386479e-13 1.6453530790865059e-12 7.431403125467716e-13
          9.650168897140334e-13 3.3664502300631033e-13 3.556072818685017e-13 3.015384389196498e-13 2.469913128500856e-13 3.225136009346913e-13
          3.211948590613839e-13 2.209825116863789e-13 6.165272178608557e-13 2.921463022671153e-13 3.211065719340871e-13 1.8569514466029296e-13
          1.4616944851165354e-13 8.499384138142882e-14 1.2141465858341562e-13 1.0163415702041773e-13 1.3342413558393867e-13 1.0734949589605032e-13
          1.575201952021014e-13 1.5899939647770865e-13 1.5760578922976155e-13 2.0485638896243678e-13 2.6386365088428756e-13 1.0384498747448352e-13
          1.9384828027537545e-13 1.4176276974694442e-13 2.3703933628387374e-13 1.160560000727518e-13 2.886621886405095e-13 2.606729837738219e-13
          2.989149214700597e-13 1.601250220371367e-12 7.672337777195462e-13 6.598407421228386e-13 3.135189819241552e-13 2.1193746922799956e-12
          1.0214403193962637e-12 8.854707286822905e-13 3.534590570596318e-13 1.8942521299443925e-13 2.306922333628461e-13 2.3838347970913097e-13
          4.73447293141974e-13 2.1083682440961152e-13 3.052830868655812e-13 2.859886962497275e-13 2.3372518254434596e-13 2.8136058367154005e-13
          2.8410472487257473e-13 3.1517603787691114e-13 2.3045587514029835e-13 2.7759671552483064e-13 1.611791332779372e-13 2.5207877234184654e-13
          1.3761784738109107e-13 2.212943215083972e-13 1.3868663015068783e-13 2.4445823847570774e-13 1.2029278452587426e-13 3.1550357021398686e-13
          2.763979165234348e-13 2.9679929675372717e-13 1.573481159453773e-13 1.4873129533908787e-13 1.0539110989859277e-13 9.916521696908091e-14
          6.332852934840557e-14 8.374744512275857e-14 7.826143183104093e-14 1.2645731344880319e-13 8.31852077320977e-14 6.419795939586717e-14
          1.813836843270001e-13 1.6729692495232016e-13 9.943331474659521e-14 1.311766286464018e-13 9.523546352831655e-14 8.172578209614977e-14
          4.1777605525137783e-14 6.704056734147783e-14 6.350053584435702e-14 9.792951399238959e-14 7.431109758447796e-14 1.0376569165947061e-13
          7.156293461352613e-14 1.0153009142278803e-13 5.355114401953426e-13 4.93038609925416e-13 2.217429656244187e-13 2.0403814770229418e-13