<?xml version="1.0"?>
<VTKFile type="UnstructuredGrid" version="0.1" byte_order="LittleEndian" header_type="UInt32" compressor="vtkZLibDataCompressor">
  <UnstructuredGrid>
    <Piece NumberOfPoints="2297" NumberOfCells="1518">
      <PointData>
        <DataArray type="Int32" Name="libmesh_node_id" format="ascii" RangeMin="202" RangeMax="10121">
          202 203 204 205 206 207
          292 293 294 295 296 297
          298 299 318 319 384 385
          386 387 388 389 390 391
          408 409 410 476 477 478
          479 480 481 499 500 567
          568 569 570 571 589 590
          691 692 695 696 698 705
          706 707 708 709 710 711
          712 713 714 716 717 718
          790 791 792 795 796 821
          822 823 824 825 826 827
          828 829 830 831 832 833
          834 835 836 837 838 839
          840 889 890 891 892 893
          894 895 896 897 898 1050
          1051 1052 1055 1060 1061 1062
          1063 1064 1065 1066 1067 1068
          1069 1070 1072 1086 1094 1095
          1096 1097 1098 1099 1100 1101
          1102 1103 1104 1105 1106 1108
          1111 1113 1458 1459 1462 1464
          1476 1477 1478 1479 1480 1481
          1482 1483 1484 1485 1486 1487
          1488 1489 1520 1522 1526 1527
          1528 1529 1530 1531 1532 1533
          1534 1535 1536 1537 1538 1539
          1540 1541 1542 1543 1672 1673
          1674 1675 1676 1677 1678 1679
          1680 1681 1682 1683 1684 1685
          1688 1689 1692 1694 1804 1805
          1809 1811 1813 1818 1819 1823
          1887 1888 1889 1890 1892 1893
          1894 1895 1896 1897 1898 1899
          1900 1901 1904 1906 1907 1908
          1909 1910 1911 1912 1913 1914
          1915 1916 1917 1918 1947 1955
          1956 1957 1958 2019 2020 2021
          2022 2023 2024 2025 2026 2027
          2028 2029 2030 2031 2032 2033
          2034 2035 2036 2038 2039 2040
          2041 2043 2044 2045 2046 2047
          2048 2049 2050 2051 2052 2056
          2059 3661 3662 3665 3666 3667
          3668 3669 3670 3671 3672 3673
          3674 3675 3676 3677 3678 3679
          3680 3681 3682 3683 3684 3685
          3686 3687 3688 3689 3707 3708
          3709 3710 3711 3712 3713 3714
          3715 3716 3745 3746 3747 3750
          3751 3752 3753 3754 3755 3756
          3757 3758 3759 3760 3761 3762
          3763 3764 3765 3766 3767 3768
          3769 3770 3781 3782 3783 3784
          3785 3786 3787 3788 3789 3790
          3791 3792 3793 3794 3795 3796
          3797 3798 3799 3800 3801 3802
          3803 3804 3805 3806 3807 3808
          3809 3810 3811 3812 3813 3814
          3815 3816 3817 3818 3819 3820
          3821 3822 3823 3824 3825 3826
          3827 3828 3829 3830 3831 3832
          3833 3834 3835 3836 3837 3838
          3839 3840 3841 3845 4071 4122
          4123 4124 4125 4126 4127 4128
          4129 4130 4131 4132 4133 4134
          4135 4136 4137 4138 4139 4140
          4141 4142 4143 4144 4145 4146
          4147 4148 4149 4150 4151 4152
          4153 4154 4155 4156 4157 4158
          4159 4160 4161 4162 4163 4164
          4165 4166 4167 4168 4169 4170
          4171 4172 4173 4174 4175 4176
          4177 4178 4179 4180 4181 4182
          4183 4184 4185 4186 4187 4188
          4189 4190 4191 4192 4193 4194
          4195 4196 4197 4198 4199 4200
          4201 4202 4203 4204 4205 4206
          4207 4208 4209 4210 4211 4213
          4214 4215 4216 4217 4218 4219
          4220 4221 4222 4223 4224 4227
          4228 4234 4235 4236 4237 4238
          4239 4240 4241 4242 4244 4245
          4246 4247 4248 4249 4250 4251
          4252 4253 4254 4255 4261 4262
          4268 4269 4270 4271 4278 4279
          4280 4281 4282 4283 4286 4321
          4500 4501 4502 4503 4504 4505
          4506 4507 4508 4509 4510 4511
          4512 4513 4514 4515 4516 4517
          4518 4519 4520 4521 4522 4523
          4524 4525 4526 4527 4528 4529
          4530 4531 4532 4533 4534 4535
          4536 4537 4538 4539 4540 4541
          4542 4543 4544 4545 4546 4547
          4548 4549 4550 4551 4552 4553
          4554 4555 4556 4557 4558 4559
          4560 4561 4562 4563 4564 4565
          4566 4567 4568 4569 4571 4575
          4576 4577 4578 4579 4580 4581
          4582 4583 4584 4585 4586 4587
          4588 4589 4590 4591 4592 4593
          4595 4596 4597 4598 4599 4600
          4601 4602 4603 4604 4612 4613
          4617 4619 4620 4621 4622 4623
          4624 4625 4626 4627 4628 4629
          4630 4631 4632 4633 4635 4636
          4637 4639 4650 4652 4654 4688
          4738 4739 4740 4741 4742 4743
          4744 7160 7161 7162 7163 7164
          7165 7166 7187 7188 7191 7192
          7193 7194 7195 7196 7306 7307
          7308 7309 7310 7311 7312 7313
          7314 7315 7316 7317 7318 7319
          7320 7321 7322 7323 7324 7325
          7326 7327 7328 7329 7330 7331
          7332 7333 7334 7335 7336 7337
          7338 7339 7340 7341 7342 7343
          7506 7507 7508 7509 7510 7511
          7512 7513 7514 7515 7516 7517
          7518 7519 7520 7521 7522 7523
          7524 7525 7526 7527 7528 7529
          7530 7531 7532 7533 7534 7535
          7536 7537 7538 7539 7540 7541
          7542 7543 7613 7614 7615 7616
          7617 7618 7619 7620 7621 7622
          7623 7624 7625 7626 7627 7628
          7629 7630 7631 7632 7633 7634
          7635 7636 7637 7638 7639 7640
          7641 7642 7643 7644 7645 7646
          7647 7648 7649 7650 7651 7652
          7653 7654 7655 7656 7657 7658
          7659 7660 7661 7662 7663 7664
          7665 7666 7667 7668 7669 7670
          7671 7672 7673 7674 7675 7676
          7677 7678 7679 7680 7681 7682
          7683 7684 7685 7686 7687 7688
          7689 7690 7691 7692 7693 7694
          7695 7696 7697 7698 7699 7700
          7701 7702 7703 7704 7705 7706
          7707 7708 7709 7710 7711 7712
          7713 7714 7715 7716 7717 7718
          7719 7720 7721 7722 7723 7724
          7725 7726 7727 7728 7729 7730
          7731 7732 7733 7734 7735 7736
          7737 7738 7739 7740 7741 7742
          7743 7744 7745 7746 7747 7748
          7749 7750 7751 7752 7753 7754
          7755 7756 7757 7758 7759 7760
          7761 7762 7763 7764 7765 7766
          7767 7768 7769 7770 7771 7772
          7773 7774 7775 7776 7777 7778
          7779 7780 7781 7782 7783 7784
          7785 7786 7787 7788 7789 7790
          7791 7792 7793 7794 7795 7796
          7797 7798 7799 7800 7801 7802
          7803 7804 7805 7806 7807 7808
          7809 7810 7811 7812 7813 7814
          7815 7816 7817 7818 7819 7820
          7821 7822 7823 7824 7825 7826
          7827 7828 7829 7830 7831 7832
          7833 7834 7835 7836 7837 7838
          7839 7840 7841 7842 7843 7844
          7845 7846 7847 7848 7849 7850
          7851 7852 7853 7854 7855 7856
          7857 7858 7859 7860 7861 7862
          7863 7864 7865 7866 7868 7869
          7870 7871 7872 7873 7874 7875
          7876 7877 7878 7879 7880 7881
          7882 7883 7884 7885 7886 7887
          7888 7889 7890 7891 7892 7893
          7894 7895 7896 7897 7898 7899
          7900 7901 7902 7903 7904 7905
          7906 7907 7908 7909 7910 7911
          7912 7913 7914 7915 7916 7917
          7918 7919 7920 7921 7922 7923
          7924 7925 7926 7927 7928 7929
          7930 7931 7932 7933 7934 7935
          7936 7937 7938 7939 7940 7941
          7942 7943 7944 7945 7946 7947
          7948 7949 7950 7951 7952 7953
          7954 7955 7956 7957 7958 7959
          7960 7962 7963 7964 7965 7966
          7969 7970 7971 7972 7973 7974
          7975 7976 7977 7978 7979 7980
          7981 7982 7983 7984 7986 7987
          7988 7990 7991 7992 7993 7994
          7995 7997 7998 7999 8000 8001
          8002 8004 8005 8006 8007 8008
          8009 8011 8012 8018 8019 8025
          8026 8027 8028 8029 8030 8031
          8032 8033 8034 8036 8039 8040
          8041 8042 8043 8044 8045 8046
          8047 8048 8049 8050 8051 8052
          8053 8054 8055 8056 8057 8058
          8059 8060 8061 8062 8063 8064
          8065 8066 8067 8068 8069 8070
          8071 8072 8073 8074 8075 8076
          8077 8078 8083 8084 8085 8086
          8087 8088 8091 8093 8094 8100
          8101 8105 8107 8109 8119 8120
          8123 8124 8126 8127 8130 8131
          8188 8189 8192 8196 8197 8198
          8199 8200 8201 8202 8812 8813
          8814 8815 8816 8817 8818 8819
          8820 8821 8822 8823 8824 8825
          8826 8827 8828 8829 8830 8831
          8832 8833 8834 8835 8836 8837
          8838 8839 8840 8841 8842 8843
          8844 8845 8846 8847 8848 8849
          8850 8851 8852 8853 8854 8855
          8856 8857 8858 8859 8860 8861
          8862 8863 8864 8865 8866 8867
          8868 8869 8870 8871 8872 8873
          8874 8875 8876 8877 8878 8879
          8880 8881 8882 8883 8884 8885
          8886 8887 8888 8889 8890 8891
          8892 8893 8894 8895 8896 8897
          8898 8899 8900 8901 8902 8903
          8904 8905 8906 8907 8908 8909
          8910 8911 8912 8913 8914 8915
          8916 8917 8918 8919 8920 8921
          8922 8923 8924 8925 8926 8927
          8928 8929 8930 8931 8932 8933
          8934 8935 8936 8937 8938 8939
          8940 8941 8942 8943 8944 8945
          8946 8947 8948 8949 8950 8951
          8952 8953 8954 8955 8956 8957
          8958 8959 8960 8961 8962 8963
          8964 8965 8966 8967 8968 8969
          8970 8971 8972 8973 8974 8975
          8976 8977 8978 8979 8980 8981
          8982 8983 8984 8985 8986 8987
          8988 8989 8990 8991 8992 8993
          8994 8995 8996 8997 8998 8999
          9000 9001 9002 9003 9004 9005
          9006 9007 9008 9009 9010 9011
          9012 9013 9014 9015 9016 9017
          9018 9019 9020 9021 9022 9023
          9024 9025 9026 9027 9028 9029
          9030 9031 9032 9033 9034 9035
          9036 9037 9038 9039 9040 9041
          9042 9043 9044 9045 9046 9047
          9048 9049 9050 9051 9052 9053
          9054 9055 9056 9057 9058 9059
          9060 9061 9062 9063 9064 9065
          9066 9067 9068 9069 9070 9071
          9072 9073 9074 9075 9076 9077
          9078 9079 9080 9081 9082 9083
          9084 9085 9086 9087 9088 9089
          9090 9091 9092 9093 9094 9095
          9096 9097 9098 9099 9100 9101
          9102 9103 9104 9105 9106 9107
          9108 9109 9110 9111 9112 9113
          9114 9115 9116 9117 9118 9119
          9120 9121 9122 9123 9124 9125
          9126 9127 9128 9129 9130 9131
          9132 9133 9134 9136 9137 9138
          9139 9140 9141 9142 9143 9144
          9145 9146 9147 9148 9150 9151
          9152 9153 9154 9155 9157 9158
          9164 9165 9166 9167 9171 9172
          9173 9174 9175 9176 9177 9178
          9179 9180 9181 9182 9183 9184
          9185 9186 9187 9188 9189 9190
          9191 9192 9193 9194 9195 9196
          9197 9198 9199 9200 9201 9202
          9203 9204 9205 9206 9207 9208
          9209 9210 9211 9212 9213 9214
          9215 9216 9217 9218 9219 9220
          9221 9222 9223 9224 9225 9226
          9227 9228 9229 9230 9231 9232
          9233 9234 9235 9236 9237 9238
          9239 9240 9241 9242 9243 9244
          9245 9246 9247 9248 9249 9250
          9251 9252 9253 9256 9257 9259
          9260 9262 9263 9264 9266 9267
          9268 9269 9270 9271 9272 9273
          9274 9275 9276 9277 9278 9279
          9280 9281 9282 9283 9284 9285
          9286 9287 9288 9289 9290 9291
          9292 9293 9294 9295 9296 9297
          9298 9299 9300 9301 9302 9303
          9304 9305 9306 9307 9308 9309
          9310 9311 9312 9313 9314 9315
          9316 9317 9318 9319 9320 9321
          9322 9323 9324 9325 9326 9327
          9328 9329 9330 9331 9332 9333
          9334 9335 9338 9339 9341 9342
          9345 9346 9390 9391 9392 9393
          9394 9395 9396 9397 9398 9399
          9400 9401 9402 9403 9404 9405
          9406 9407 9408 9409 9410 9414
          9415 9418 9419 9421 9422 9423
          9424 9425 9426 9427 9435 9436
          9437 9438 9439 9440 9441 9442
          9443 9444 9445 9446 9447 9448
          9449 9450 9451 9452 9453 9454
          9455 9456 9457 9458 9459 9460
          9461 9462 9463 9464 9465 9466
          9467 9468 9469 9470 9471 9472
          9473 9474 9475 9486 9487 9488
          9489 9490 9491 9492 9551 9552
          9553 9554 9555 9556 9557 9568
          9569 9570 9571 9572 9573 9578
          9579 9580 9581 9582 9583 9588
          9589 9595 9596 9598 9636 9637
          9638 9639 9640 9641 9646 9647
          9648 9649 9650 9651 9656 9657
          9658 9659 9663 9664 9665 9666
          9760 9761 9764 9765 9767 9768
          9769 9770 9771 9772 9773 9781
          9782 9783 9784 9785 9786 10064
          10065 10066 10067 10068 10069 10074
          10075 10076 10077 10098 10099 10100
          10101 10102 10103 10104 10105 10106
          10107 10115 10117 10119 1058 1071
          1073 694 1107 699 700 1523
          1521 475 881 1110 1116 1686
          1112 1687 1690 1691 1117 1693
          1695 693 1902 1903 1891 1905
          1945 1948 1946 1950 1949 1951
          1084 1953 1952 2053 2055 2054
          2057 2061 2058 2060 2063 2062
          2078 2080 2082 2081 1665 1660
          697 1667 1669 1919 1975 1967
          1979 1977 1109 2065 3843 3842
          2088 3844 2090 3462 3464 3466
          4212 4243 4256 4225 4257 4258
          4226 4259 4260 1959 4272 4229
          4273 4274 4275 4230 1961 4276
          4277 1962 4289 4288 4319 4323
          4320 4322 4325 4324 4615 4614
          4570 4634 4638 4640 4641 4642
          4653 4651 4644 4655 4646 4656
          4728 4730 4731 4729 4733 4732
          4690 4737 4746 4745 4747 2079
          7189 7190 4067 4068 2085 4074
          2037 4311 4658 4773 4775 2072
          7544 4777 7545 7546 7867 7985
          7961 7989 4263 7996 4264 8003
          4265 8010 4266 8013 7967 8014
          8015 7968 8016 8017 4267 8020
          8021 8022 8023 8024 1960 8079
          8080 8035 4284 8081 8082 4285
          8089 8090 8092 8095 8037 8096
          8097 8038 8098 8099 4287 8102
          8103 8104 8106 1963 8121 8108
          8122 8125 4295 8128 8129 8132
          4296 8147 8113 8148 8149 8114
          8150 8154 8155 8156 8157 8186
          8187 8190 8191 8194 8193 8195
          8203 8204 8205 8325 8327 8328
          8326 8330 8329 8343 8342 8345
          8344 9135 9149 4572 9156 4573
          9159 9160 9161 9162 9163 4574
          9168 9169 9170 9254 9255 9258
          4594 9261 9265 9336 9337 9340
          4605 9343 9344 9347 4606 9362
          9363 9364 9365 9369 9370 9371
          9372 9374 9373 9356 9358 9411
          9360 9412 9413 4608 9416 9417
          9420 4610 4616 9428 9384 9429
          9431 9433 4618 9476 9477 9478
          9480 9482 9493 9484 9494 9495
          9504 9506 9558 9508 9559 9560
          4369 9574 9575 8333 4660 9576
          9577 4370 4661 9584 9585 4662
          9586 9587 4663 9590 9591 9592
          8347 9593 9594 4372 4664 9597
          9599 9600 9601 4665 9642 9643
          4670 9644 9645 4671 9652 9653
          4672 9654 9655 4673 9660 9661
          9662 4674 9667 9668 9669 4675
          9712 9711 9716 9715 9762 9714
          9763 9766 4681 4687 9775 9777
          9779 9787 4689 9632 9692 9788
          9740 9693 9789 9790 9742 9791
          9699 9795 9700 9796 9797 9798
          9809 9803 9810 9811 9805 9812
          10070 10071 10072 10073 10078 10079
          10080 10093 10108 10094 10109 10110
          10111 10116 10118 10120 10121
        </DataArray>
        <DataArray type="Float64" Name="bounds" format="ascii" RangeMin="0" RangeMax="0">
          0 0 0 0 0 0
          0 0 0 0 0 0
          0 0 0 0 0 0
          0 0 0 0 0 0
          0 0 0 0 0 0
          0 0 0 0 0 0
          0 0 0 0 0 0
          0 0 0 0 0 0
          0 0 0 0 0 0
          0 0 0 0 0 0
          0 0 0 0 0 0
          0 0 0 0 0 0
          0 0 0 0 0 0
          0 0 0 0 0 0
          0 0 0 0 0 0
          0 0 0 0 0 0
          0 0 0 0 0 0
          0 0 0 0 0 0
          0 0 0 0 0 0
          0 0 0 0 0 0
          0 0 0 0 0 0
          0 0 0 0 0 0
          0 0 0 0 0 0
          0 0 0 0 0 0
          0 0 0 0 0 0
          0 0 0 0 0 0
          0 0 0 0 0 0
          0 0 0 0 0 0
          0 0 0 0 0 0
          0 0 0 0 0 0
          0 0 0 0 0 0
          0 0 0 0 0 0
          0 0 0 0 0 0
          0 0 0 0 0 0
          0 0 0 0 0 0
          0 0 0 0 0 0
          0 0 0 0 0 0
          0 0 0 0 0 0
          0 0 0 0 0 0
          0 0 0 0 0 0
          0 0 0 0 0 0
          0 0 0 0 0 0
          0 0 0 0 0 0
          0 0 0 0 0 0
          0 0 0 0 0 0
          0 0 0 0 0 0
          0 0 0 0 0 0
          0 0 0 0 0 0
          0 0 0 0 0 0
          0 0 0 0 0 0
          0 0 0 0 0 0
          0 0 0 0 0 0
          0 0 0 0 0 0
          0 0 0 0 0 0
          0 0 0 0 0 0
          0 0 0 0 0 0
          0 0 0 0 0 0
          0 0 0 0 0 0
          0 0 0 0 0 0
          0 0 0 0 0 0
          0 0 0 0 0 0
          0 0 0 0 0 0
          0 0 0 0 0 0
          0 0 0 0 0 0
          0 0 0 0 0 0
          0 0 0 0 0 0
          0 0 0 0 0 0
          0 0 0 0 0 0
          0 0 0 0 0 0
          0 0 0 0 0 0
          0 0 0 0 0 0
          0 0 0 0 0 0
          0 0 0 0 0 0
          0 0 0 0 0 0
          0 0 0 0 0 0
          0 0 0 0 0 0
          0 0 0 0 0 0
          0 0 0 0 0 0
          0 0 0 0 0 0
          0 0 0 0 0 0
          0 0 0 0 0 0
          0 0 0 0 0 0
          0 0 0 0 0 0
          0 0 0 0 0 0
          0 0 0 0 0 0
          0 0 0 0 0 0
          0 0 0 0 0 0
          0 0 0 0 0 0
          0 0 0 0 0 0
          0 0 0 0 0 0
          0 0 0 0 0 0
          0 0 0 0 0 0
          0 0 0 0 0 0
          0 0 0 0 0 0
          0 0 0 0 0 0
          0 0 0 0 0 0
          0 0 0 0 0 0
          0 0 0 0 0 0
          0 0 0 0 0 0
          0 0 0 0 0 0
          0 0 0 0 0 0
          0 0 0 0 0 0
          0 0 0 0 0 0
          0 0 0 0 0 0
          0 0 0 0 0 0
          0 0 0 0 0 0
          0 0 0 0 0 0
          0 0 0 0 0 0
          0 0 0 0 0 0
          0 0 0 0 0 0
          0 0 0 0 0 0
          0 0 0 0 0 0
          0 0 0 0 0 0
          0 0 0 0 0 0
          0 0 0 0 0 0
          0 0 0 0 0 0
          0 0 0 0 0 0
          0 0 0 0 0 0
          0 0 0 0 0 0
          0 0 0 0 0 0
          0 0 0 0 0 0
          0 0 0 0 0 0
          0 0 0 0 0 0
          0 0 0 0 0 0
          0 0 0 0 0 0
          0 0 0 0 0 0
          0 0 0 0 0 0
          0 0 0 0 0 0
          0 0 0 0 0 0
          0 0 0 0 0 0
          0 0 0 0 0 0
          0 0 0 0 0 0
          0 0 0 0 0 0
          0 0 0 0 0 0
          0 0 0 0 0 0
          0 0 0 0 0 0
          0 0 0 0 0 0
          0 0 0 0 0 0
          0 0 0 0 0 0
          0 0 0 0 0 0
          0 0 0 0 0 0
          0 0 0 0 0 0
          0 0 0 0 0 0
          0 0 0 0 0 0
          0 0 0 0 0 0
          0 0 0 0 0 0
          0 0 0 0 0 0
          0 0 0 0 0 0
          0 0 0 0 0 0
          0 0 0 0 0 0
          0 0 0 0 0 0
          0 0 0 0 0 0
          0 0 0 0 0 0
          0 0 0 0 0 0
          0 0 0 0 0 0
          0 0 0 0 0 0
          0 0 0 0 0 0
          0 0 0 0 0 0
          0 0 0 0 0 0
          0 0 0 0 0 0
          0 0 0 0 0 0
          0 0 0 0 0 0
          0 0 0 0 0 0
          0 0 0 0 0 0
          0 0 0 0 0 0
          0 0 0 0 0 0
          0 0 0 0 0 0
          0 0 0 0 0 0
          0 0 0 0 0 0
          0 0 0 0 0 0
          0 0 0 0 0 0
          0 0 0 0 0 0
          0 0 0 0 0 0
          0 0 0 0 0 0
          0 0 0 0 0 0
          0 0 0 0 0 0
          0 0 0 0 0 0
          0 0 0 0 0 0
          0 0 0 0 0 0
          0 0 0 0 0 0
          0 0 0 0 0 0
          0 0 0 0 0 0
          0 0 0 0 0 0
          0 0 0 0 0 0
          0 0 0 0 0 0
          0 0 0 0 0 0
          0 0 0 0 0 0
          0 0 0 0 0 0
          0 0 0 0 0 0
          0 0 0 0 0 0
          0 0 0 0 0 0
          0 0 0 0 0 0
          0 0 0 0 0 0
          0 0 0 0 0 0
          0 0 0 0 0 0
          0 0 0 0 0 0
          0 0 0 0 0 0
          0 0 0 0 0 0
          0 0 0 0 0 0
          0 0 0 0 0 0
          0 0 0 0 0 0
          0 0 0 0 0 0
          0 0 0 0 0 0
          0 0 0 0 0 0
          0 0 0 0 0 0
          0 0 0 0 0 0
          0 0 0 0 0 0
          0 0 0 0 0 0
          0 0 0 0 0 0
          0 0 0 0 0 0
          0 0 0 0 0 0
          0 0 0 0 0 0
          0 0 0 0 0 0
          0 0 0 0 0 0
          0 0 0 0 0 0
          0 0 0 0 0 0
          0 0 0 0 0 0
          0 0 0 0 0 0
          0 0 0 0 0 0
          0 0 0 0 0 0
          0 0 0 0 0 0
          0 0 0 0 0 0
          0 0 0 0 0 0
          0 0 0 0 0 0
          0 0 0 0 0 0
          0 0 0 0 0 0
          0 0 0 0 0 0
          0 0 0 0 0 0
          0 0 0 0 0 0
          0 0 0 0 0 0
          0 0 0 0 0 0
          0 0 0 0 0 0
          0 0 0 0 0 0
          0 0 0 0 0 0
          0 0 0 0 0 0
          0 0 0 0 0 0
          0 0 0 0 0 0
          0 0 0 0 0 0
          0 0 0 0 0 0
          0 0 0 0 0 0
          0 0 0 0 0 0
          0 0 0 0 0 0
          0 0 0 0 0 0
          0 0 0 0 0 0
          0 0 0 0 0 0
          0 0 0 0 0 0
          0 0 0 0 0 0
          0 0 0 0 0 0
          0 0 0 0 0 0
          0 0 0 0 0 0
          0 0 0 0 0 0
          0 0 0 0 0 0
          0 0 0 0 0 0
          0 0 0 0 0 0
          0 0 0 0 0 0
          0 0 0 0 0 0
          0 0 0 0 0 0
          0 0 0 0 0 0
          0 0 0 0 0 0
          0 0 0 0 0 0
          0 0 0 0 0 0
          0 0 0 0 0 0
          0 0 0 0 0 0
          0 0 0 0 0 0
          0 0 0 0 0 0
          0 0 0 0 0 0
          0 0 0 0 0 0
          0 0 0 0 0 0
          0 0 0 0 0 0
          0 0 0 0 0 0
          0 0 0 0 0 0
          0 0 0 0 0 0
          0 0 0 0 0 0
          0 0 0 0 0 0
          0 0 0 0 0 0
          0 0 0 0 0 0
          0 0 0 0 0 0
          0 0 0 0 0 0
          0 0 0 0 0 0
          0 0 0 0 0 0
          0 0 0 0 0 0
          0 0 0 0 0 0
          0 0 0 0 0 0
          0 0 0 0 0 0
          0 0 0 0 0 0
          0 0 0 0 0 0
          0 0 0 0 0 0
          0 0 0 0 0 0
          0 0 0 0 0 0
          0 0 0 0 0 0
          0 0 0 0 0 0
          0 0 0 0 0 0
          0 0 0 0 0 0
          0 0 0 0 0 0
          0 0 0 0 0 0
          0 0 0 0 0 0
          0 0 0 0 0 0
          0 0 0 0 0 0
          0 0 0 0 0 0
          0 0 0 0 0 0
          0 0 0 0 0 0
          0 0 0 0 0 0
          0 0 0 0 0 0
          0 0 0 0 0 0
          0 0 0 0 0 0
          0 0 0 0 0 0
          0 0 0 0 0 0
          0 0 0 0 0 0
          0 0 0 0 0 0
          0 0 0 0 0 0
          0 0 0 0 0 0
          0 0 0 0 0 0
          0 0 0 0 0 0
          0 0 0 0 0 0
          0 0 0 0 0 0
          0 0 0 0 0 0
          0 0 0 0 0 0
          0 0 0 0 0 0
          0 0 0 0 0 0
          0 0 0 0 0 0
          0 0 0 0 0 0
          0 0 0 0 0 0
          0 0 0 0 0 0
          0 0 0 0 0 0
          0 0 0 0 0 0
          0 0 0 0 0 0
          0 0 0 0 0 0
          0 0 0 0 0 0
          0 0 0 0 0 0
          0 0 0 0 0 0
          0 0 0 0 0 0
          0 0 0 0 0 0
          0 0 0 0 0 0
          0 0 0 0 0 0
          0 0 0 0 0 0
          0 0 0 0 0 0
          0 0 0 0 0 0
          0 0 0 0 0 0
          0 0 0 0 0 0
          0 0 0 0 0 0
          0 0 0 0 0 0
          0 0 0 0 0 0
          0 0 0 0 0 0
          0 0 0 0 0 0
          0 0 0 0 0 0
          0 0 0 0 0 0
          0 0 0 0 0 0
          0 0 0 0 0 0
          0 0 0 0 0 0
          0 0 0 0 0 0
          0 0 0 0 0 0
          0 0 0 0 0 0
          0 0 0 0 0 0
          0 0 0 0 0 0
          0 0 0 0 0 0
          0 0 0 0 0 0
          0 0 0 0 0 0
          0 0 0 0 0 0
          0 0 0 0 0 0
          0 0 0 0 0 0
          0 0 0 0 0 0
          0 0 0 0 0 0
          0 0 0 0 0 0
          0 0 0 0 0 0
          0 0 0 0 0 0
          0 0 0 0 0 0
          0 0 0 0 0 0
          0 0 0 0 0 0
          0 0 0 0 0 0
          0 0 0 0 0 0
          0 0 0 0 0 0
          0 0 0 0 0 0
          0 0 0 0 0 0
          0 0 0 0 0 0
          0 0 0 0 0 0
          0 0 0 0 0 0
          0 0 0 0 0 0
          0 0 0 0 0 0
          0 0 0 0 0 0
          0 0 0 0 0 0
          0 0 0 0 0 0
          0 0 0 0 0 0
          0 0 0 0 0
        </DataArray>
        <DataArray type="Float64" Name="gradient_error" format="ascii" RangeMin="2.2003307263476169e-13" RangeMax="3.425752486656995e-8">
          1.948036197141916e-11 1.5824082329868314e-11 8.438732148873214e-12 8.106196151695208e-12 6.878289630036008e-12 6.792591715450771e-12
          2.0989755319110978e-11 4.256701536957418e-11 6.398814455094447e-12 1.414847607138289e-11 5.911153391146226e-12 6.479141722535086e-12
          7.192810109117986e-12 6.8541384917121225e-12 1.6081965498768397e-11 7.037577915312178e-12 7.969514690536083e-12 3.243075024038633e-11
          2.9053004631303965e-12 1.018758697611213e-11 6.680457878053481e-12 1.1034505642854007e-11 8.463980149525812e-12 8.381636813255543e-12
          2.3648610336556507e-11 1.2306638432097279e-11 1.0384719985796464e-11 5.0454976539099496e-12 4.2665679546160675e-11 7.006538798385065e-12
          2.3952071372869115e-11 9.365452595554275e-12 1.0004487603483335e-11 4.358877020589131e-11 2.2806295636028156e-11 7.057915371658057e-11
          9.284700506500415e-12 3.323514430703982e-11 9.178001863012051e-12 1.0329921478366648e-11 7.259014889679854e-11 3.108490984109168e-11
          1.7260789419837474e-10 7.805161347014241e-11 1.3488953560497922e-11 1.561059209886895e-11 6.795898959352512e-11 2.0336551930957065e-12
          2.833224844680467e-12 2.8028240595018692e-12 8.361655209694258e-12 3.2836212298433525e-12 1.4295455048836104e-12 8.477001668626361e-12
          7.976944029542657e-12 5.0379017452198664e-11 1.8440090369310624e-11 1.1196616877347805e-11 1.0695771469845437e-11 1.2794590749400152e-10
          1.2658487319213823e-11 1.6589079023328418e-10 5.306861184329705e-11 1.7525467532897946e-11 1.724003365159297e-10 5.776946334173035e-12
          6.55487414681336e-12 7.88288885826552e-12 1.339993180031267e-11 2.434895013595442e-12 2.559161661654575e-12 4.498836169251788e-12
          7.332801959453682e-12 2.1349796095681104e-11 7.246859880669421e-12 1.1224360315357187e-12 8.684105066019106e-13 1.2148646461923642e-12
          1.4115562937892226e-12 7.374169225503907e-13 1.6066922605878989e-12 1.347107759745079e-12 6.143849816681025e-13 1.631624936126792e-12
          1.087523258902259e-12 1.2994803962948932e-10 1.877181207644993e-10 4.755383554565493e-11 8.416544963157518e-11 4.271650114499764e-11
          1.0798012917661323e-10 4.5915576932909714e-11 2.0072665529978042e-10 1.0099713139449358e-10 1.5127222012608776e-10 1.429505366670394e-10
          1.9185052505934355e-9 1.420670979870307e-9 6.558085141023384e-10 7.05790737237697e-11 5.4003521409139937e-11 1.5435575407158813e-10
          2.6024054209128175e-10 9.676518692892752e-12 5.229000953273216e-12 1.1497657878785532e-11 3.648895675037082e-11 2.6600277910426316e-10
          2.8953365711814358e-11 1.5512630312773684e-9 2.0323311456025366e-12 2.203742899218979e-10 2.398369320038893e-12 3.4869359707095945e-12
          4.936347878405014e-12 4.117171009790002e-12 1.6649460719236517e-12 1.8224791605318336e-12 1.8419371596100665e-12 5.022216552465328e-12
          8.039167159319254e-12 2.5242115439810937e-12 4.874696089183305e-12 2.147599076898711e-12 2.0655057823775634e-12 6.262081615049234e-12
          3.3264645067471407e-12 5.928981194710101e-12 3.9597993345839467e-11 5.2573090340786876e-11 8.447600811606722e-11 5.88923226519749e-11
          1.3813341868765428e-12 2.8076707379270897e-12 1.6757824949064625e-12 3.69536834055479e-12 2.0662212723878056e-12 1.2583488257459716e-12
          2.6410681746660245e-12 4.234007288977637e-12 5.714954186203118e-12 4.023787523586078e-12 4.521707034451553e-12 7.1886782434900104e-12
          4.498564544346734e-12 9.855649452528468e-12 8.84562001594948e-11 4.5854244624804707e-11 5.4196571652572274e-11 1.3217270170319711e-11
          4.9201881600040095e-11 6.533059123474614e-12 1.715348117306384e-11 1.042456942822566e-11 1.5584766745541118e-11 1.0072246680204697e-11
          1.1858841305455552e-11 1.3734351638419281e-11 4.308297033985675e-12 7.462491891810548e-12 1.5609861971383017e-11 1.061668674963542e-11
          1.664449934494438e-11 1.7674412733041038e-11 9.14376977187187e-12 1.8704326121137696e-11 2.2463244581302914e-12 1.6290176504751126e-12
          2.4777179609787705e-12 2.2521265591874325e-12 7.475549570649343e-13 1.3364861226231945e-12 1.195268286994292e-12 1.0117108428199342e-12
          2.0986650993560653e-12 1.054050451365389e-12 2.560139947417869e-12 3.5918248560873036e-12 2.5127442018175602e-12 5.328502817726827e-12
          9.298334728579038e-12 2.169342145526986e-11 2.9770797067612275e-11 2.458106659033219e-11 6.117914600528221e-12 3.382180141596924e-12
          7.223579222638628e-12 2.7621175793143543e-11 4.601745013500309e-11 9.790994397256007e-12 7.769890768049785e-12 1.0857915003479358e-11
          5.494088886886245e-10 9.686407828989606e-10 7.856694305092548e-10 6.026980781195488e-10 5.215271601299446e-10 4.1637787985494926e-10
          8.879260049829525e-10 7.115869667236262e-10 1.1444605227935087e-10 4.4664868620427983e-10 3.4725626675079007e-10 3.11228599579954e-10
          5.352479284642999e-10 2.1163225263177946e-10 1.2054600800884647e-9 1.9699024068827397e-11 1.7275964929939664e-11 3.752562051752261e-11
          2.3211695054925496e-11 5.7563322466300634e-12 3.4729552055270014e-12 1.7463885598371525e-12 2.928741768367221e-11 4.422259458347429e-11
          5.673661200224098e-12 1.5646590925597752e-10 9.575360185205799e-11 6.442102778353808e-12 5.5738942946768605e-9 5.917267246697019e-10
          3.6291505084997533e-10 6.235952287007176e-11 2.5672411322168298e-11 6.537782884021733e-12 4.450377519280744e-12 5.527384757799493e-12
          3.0038831574695856e-12 3.618159919223846e-12 5.0394496679196394e-12 3.3605688385660963e-12 2.8410887515723024e-12 2.0754296144735224e-12