<?xml version="1.0"?>
<VTKFile type="UnstructuredGrid" version="0.1" byte_order="LittleEndian" header_type="UInt32" compressor="vtkZLibDataCompressor">
  <UnstructuredGrid>
    <Piece NumberOfPoints="2322" NumberOfCells="1485">
      <PointData>
        <DataArray type="Int32" Name="libmesh_node_id" format="ascii" RangeMin="0" RangeMax="22328">
          0 1 2 3 4 5
          6 7 8 9 10 11
          12 13 14 15 16 17
          18 19 20 21 22 23
          24 25 26 27 28 29
          30 31 32 33 34 35
          36 37 38 39 40 41
          42 43 44 45 46 47
          48 49 50 51 52 53
          54 55 56 57 58 59
          60 61 62 63 64 65
          66 67 68 69 70 71
          72 73 74 75 76 77
          78 79 80 81 82 83
          84 85 86 87 88 89
          90 91 92 93 94 95
          96 97 98 99 100 101
          102 103 104 105 106 107
          108 109 110 111 112 113
          114 115 116 117 118 119
          120 121 122 123 124 125
          126 127 128 129 130 131
          132 133 134 135 136 137
          138 139 140 141 142 143
          144 145 146 147 148 149
          150 151 152 153 154 155
          156 157 158 159 160 161
          162 163 164 165 166 167
          168 169 170 171 172 173
          174 175 176 177 178 179
          180 181 182 183 184 185
          186 187 188 189 190 191
          192 193 194 195 196 197
          198 199 200 201 208 209
          210 211 212 213 214 215
          216 217 218 219 220 221
          222 223 224 225 226 227
          228 229 230 231 232 233
          234 235 236 237 238 239
          240 241 242 243 244 245
          246 247 248 249 250 251
          252 253 254 255 256 257
          258 259 260 261 262 263
          264 265 266 267 268 269
          270 271 272 273 274 275
          276 277 278 279 280 281
          282 283 284 285 286 287
          288 289 291 300 301 302
          303 304 305 306 307 308
          309 310 311 312 313 314
          315 316 317 320 321 322
          323 324 325 326 327 328
          329 330 331 332 333 334
          335 336 337 338 339 340
          341 342 343 344 345 346
          347 348 349 350 351 352
          353 354 355 356 357 358
          359 360 361 362 363 364
          365 366 367 368 369 370
          371 372 373 374 375 376
          377 378 379 392 393 394
          395 396 397 398 399 400
          401 402 403 404 405 406
          407 411 412 413 414 415
          416 417 418 419 420 421
          422 423 424 425 426 427
          428 429 430 431 432 433
          434 435 436 437 438 439
          440 441 442 443 444 445
          446 447 448 449 450 451
          452 453 454 455 456 457
          458 459 460 461 462 463
          464 465 466 467 468 469
          482 483 484 485 486 487
          488 489 490 491 492 493
          494 495 496 497 498 501
          502 503 504 505 506 507
          508 509 510 511 512 513
          514 515 516 517 518 519
          520 521 522 523 524 525
          526 527 528 529 530 531
          532 533 534 535 536 537
          538 539 540 541 542 543
          544 545 546 547 548 549
          550 551 552 553 554 555
          556 557 558 559 572 573
          574 575 576 577 578 579
          580 581 582 583 584 585
          586 587 588 591 592 593
          594 595 596 597 598 599
          600 601 602 603 604 605
          606 607 608 609 610 611
          612 613 614 615 616 617
          618 619 620 621 622 623
          624 625 626 627 628 629
          630 631 632 633 634 635
          636 637 638 639 640 641
          642 643 644 645 646 647
          648 649 650 651 652 653
          654 655 656 657 658 659
          660 661 662 719 720 721
          722 723 724 725 726 727
          728 729 730 731 732 733
          734 735 736 737 738 739
          740 741 742 743 744 745
          746 747 748 749 750 751
          752 753 754 755 756 799
          800 803 809 841 842 843
          844 845 846 847 848 849
          850 851 852 853 854 855
          856 857 858 859 860 861
          862 863 864 865 866 867
          868 869 870 871 872 873
          874 875 876 877 878 883
          884 885 886 887 888 899
          900 901 902 903 904 905
          906 907 908 909 910 911
          912 913 914 915 916 917
          918 919 920 921 922 923
          924 925 926 927 928 929
          930 931 932 933 934 935
          936 937 938 939 940 941
          942 943 944 945 948 949
          952 958 1118 1119 1120 1121
          1122 1123 1124 1125 1126 1127
          1128 1129 1130 1131 1132 1133
          1134 1135 1136 1137 1138 1139
          1140 1141 1142 1143 1144 1145
          1146 1147 1148 1149 1150 1151
          1152 1153 1154 1155 1156 1157
          1158 1159 1160 1161 1162 1163
          1164 1165 1166 1167 1168 1169
          1170 1171 1172 1173 1174 1175
          1176 1177 1178 1179 1180 1181
          1182 1183 1184 1185 1186 1187
          1188 1189 1190 1191 1192 1193
          1194 1195 1196 1197 1198 1199
          1200 1201 1202 1203 1204 1205
          1206 1207 1208 1209 1210 1211
          1212 1213 1214 1215 1216 1217
          1218 1219 1220 1221 1222 1223
          1224 1225 1226 1227 1228 1229
          1230 1231 1232 1233 1234 1235
          1236 1237 1238 1239 1240 1241
          1242 1243 1244 1245 1246 1247
          1466 1467 1468 1469 1470 1471
          1472 1473 1474 1475 1490 1491
          1492 1493 1494 1495 1496 1497
          1498 1499 1500 1501 1502 1503
          1504 1505 1506 1507 1508 1509
          1510 1511 1512 1513 1514 1515
          1516 1517 1518 1519 1524 1525
          1544 1545 1546 1547 1548 1549
          1550 1551 1552 1553 1554 1555
          1556 1557 1558 1559 1560 1561
          1562 1563 1564 1565 1566 1567
          1568 1569 1570 1571 1572 1573
          1574 1575 1576 1577 1578 1579
          1580 1581 1582 1583 1584 1585
          1586 1587 1588 1589 1590 1591
          1592 1593 1594 1595 1596 1597
          1598 1599 1600 1601 1602 1603
          1604 1605 1606 1607 1608 1609
          1610 1611 1612 1613 1614 1615
          1616 1617 1618 1619 1620 1621
          1696 1697 1698 1699 1700 1701
          1702 1703 1704 1705 1706 1707
          1708 1709 1710 1711 1712 1713
          1714 1715 1716 1717 1718 1719
          1720 1721 1722 1723 1724 1725
          1726 1727 1728 1729 1730 1731
          1732 1733 1734 1735 1736 1737
          1738 1739 1740 1741 1742 1743
          1744 1745 1746 1747 1748 1749
          1750 1751 1752 1753 1754 1755
          1756 1757 1758 1759 1760 1761
          1762 1763 1764 1765 1766 1767
          1768 1769 1770 1771 1772 1773
          1824 1825 1826 1827 1828 1829
          1830 1831 1832 2094 2095 2096
          2097 2098 2099 2100 2101 2102
          2103 2104 2105 2106 2107 2108
          2109 2110 2111 2112 2113 2114
          2115 2116 2117 2118 2119 2120
          2121 2122 2123 2124 2125 2126
          2127 2128 2129 2130 2131 2132
          2133 2134 2135 2136 2137 2138
          2139 2140 2141 2142 2143 2144
          2145 2146 2147 2148 2149 2150
          2151 2152 2153 2154 2155 2156
          2157 2158 2159 2160 2161 2162
          2163 2164 2165 2166 2167 2168
          2169 2170 2171 2172 2173 2174
          2175 2176 2177 2178 2179 2180
          2181 2182 2183 2184 2185 2186
          2187 2188 2189 2190 2191 2192
          2193 2194 2195 2196 2197 2198
          2199 2200 2201 2202 2203 2204
          2205 2206 2207 2208 2209 2210
          2211 2212 2213 2214 2215 2216
          2217 2218 2219 2220 2221 2222
          2223 2224 2225 2226 2227 2228
          2229 2230 2231 2232 2233 2234
          2235 2236 2237 2238 2239 2240
          2241 2242 2243 2244 2245 2246
          2247 2248 2249 2250 2251 2252
          2253 2254 2255 2256 2257 2258
          2259 2260 2261 2262 2263 2264
          2265 2266 2267 2268 2269 2270
          2271 2272 2273 2274 2275 2276
          2277 2278 2279 2280 2281 2282
          2283 2284 2285 2286 2287 2288
          2289 2290 2291 2292 2293 2294
          2295 2296 2297 2298 2299 2300
          2301 2302 2303 2304 2305 2306
          2307 2308 2309 2310 2311 2312
          2313 2314 2315 2316 2317 2318
          2319 2320 2321 2322 2323 2324
          2325 2326 2327 2328 2329 2330
          2331 2332 2333 2334 2335 2336
          2337 2338 2339 2340 2341 2342
          2343 2344 2345 2346 2347 2348
          2349 2350 2351 2352 2353 2354
          2355 2356 2357 2358 2359 2360
          2361 2362 2363 2364 2365 2366
          2367 2368 2369 2370 2371 2372
          2373 2374 2375 2376 2377 2378
          2379 2380 2381 2382 2383 2384
          2385 2386 2387 2388 2389 2390
          2391 2392 2393 2394 2395 2396
          2397 2398 2399 2400 2401 2402
          2403 2404 2405 2406 2407 2408
          2409 2410 2411 2412 2413 2414
          2415 2416 2417 2418 2419 2420
          2421 2422 2423 2424 2425 2426
          2427 2428 2429 2430 2431 2432
          2433 2434 2435 2436 2437 2438
          2439 2440 2441 2442 2443 2444
          2445 2446 2447 2448 2449 2450
          2451 2452 2453 2454 2455 2456
          2457 2458 2459 2460 2461 2462
          2463 2464 2465 2466 2467 2468
          2469 2470 2471 2472 2473 2474
          2475 2476 2477 2478 2479 2480
          2481 2482 2483 2484 2485 2486
          2487 2488 2489 3591 3592 3593
          3594 3595 3596 3597 3598 3599
          3600 3601 3602 3603 3604 3605
          3606 3607 3608 3609 3610 3611
          3612 3613 3614 3615 3616 3617
          3618 3619 3620 3621 3622 3623
          3624 3625 3626 3627 3628 3629
          3630 3631 3632 3633 3634 3690
          3691 3692 3693 3694 3695 3696
          3697 3698 3699 3700 3701 3702
          3703 3704 3705 3706 3771 3772
          3773 3774 3775 3776 3777 3778
          3779 3780 3893 3894 3895 3896
          3897 3898 3899 3900 3901 3902
          3903 3904 3905 3906 3907 3908
          3909 3910 3911 3912 3913 3914
          3915 3916 3917 3918 3919 3920
          3921 3922 3923 3924 3925 3926
          3927 3928 3929 3930 3931 3932
          3933 3934 3935 3936 3937 3938
          3939 3940 3941 3942 3943 3944
          3945 3946 3947 3948 3949 3950
          3951 3952 3953 3954 3955 3956
          3957 3958 3959 3960 3961 3962
          3963 3964 3965 3966 3967 3968
          3969 3970 3971 3972 3973 3974
          3975 3976 3977 7204 7205 7206
          7207 7208 7209 7210 7211 7212
          7213 7214 7215 7216 7217 7218
          7219 7220 7221 7222 7223 7224
          7225 7226 7227 7228 7229 7230
          7231 7232 7233 7234 7235 7236
          7237 7238 7239 7240 7241 7242
          7243 7244 7245 7246 7247 21729
          21730 21731 21732 21733 21734 21735
          21736 21737 21738 21739 21740 21741
          21742 21743 21744 21745 21746 21747
          21748 21749 21750 21751 21752 21753
          21754 21755 21756 21757 21758 21759
          21760 21761 21762 21763 21764 21765
          21766 21767 21768 21769 21770 21771
          21772 21773 21774 21775 21776 21777
          21778 21779 21780 21781 21782 21783
          21784 21785 21786 21787 21788 21789
          21790 21791 21792 21793 21794 21795
          21796 21797 21798 21799 21800 21801
          21802 21803 21804 21805 21806 21807
          21808 21809 21810 21811 21812 21813
          21814 21815 21816 21817 21818 21819
          21820 21821 21822 21823 21824 21825
          21826 21827 21828 21829 21830 21831
          21832 21833 21834 21835 21836 21837
          21838 21839 21840 21841 21842 21843
          21844 21845 21846 21847 21848 21849
          21850 21851 21852 21853 21854 21855
          21856 21857 21858 21859 21860 21861
          21862 21863 21864 21865 21866 21867
          21868 21869 21870 21871 21872 21873
          21874 21875 21876 21877 21878 21879
          21880 21881 21882 21883 21884 21885
          21886 21887 21888 21889 21890 21891
          21892 21893 21894 21895 21896 21897
          21898 21899 21900 21901 21902 21903
          21904 21905 21906 21907 21908 21909
          21910 21911 21912 21913 21914 21915
          21916 21917 21918 21919 21920 21921
          21922 21923 21924 21925 21926 21927
          21928 21929 21930 21931 21932 21933
          21934 21935 21936 21937 21938 21939
          21940 21941 21942 21943 21944 21945
          21946 21947 21948 21949 21950 21951
          21952 21953 21954 21955 21956 21957
          21958 21959 21960 21961 21962 21963
          21964 21965 21966 21967 21968 21969
          21970 21971 21972 21973 21974 21975
          21976 21977 21978 21979 21980 21981
          21982 21983 21984 21985 21986 21987
          21988 21989 21990 21991 21992 21993
          21994 21995 21996 21997 21998 21999
          22000 22001 22002 22003 22004 22005
          22006 22007 22008 22009 22010 22011
          22012 22013 22014 22015 22016 22017
          22018 22019 22020 22021 22022 22023
          22024 22025 22026 22027 22028 22029
          22030 22031 22032 22033 22034 22035
          22036 22037 22038 22039 22040 22041
          22042 22043 22044 22045 22046 22047
          22048 22049 22050 22051 22052 22053
          22054 22055 22056 22057 22058 22059
          22060 22061 22062 22063 22064 22065
          22066 22067 22068 22069 22070 22071
          22072 22073 22074 22075 22076 22077
          22078 22079 22080 22081 22082 22083
          22084 22085 22086 22087 22088 22089
          22090 22091 22092 22093 22094 22095
          22096 22097 22098 22099 22100 22101
          22102 22103 22104 22105 22106 22107
          22108 22109 22110 22111 22112 22113
          22114 22115 22116 22117 22118 22119
          22120 22121 22122 22123 22124 22125
          22126 22127 22128 22129 22130 22131
          22132 22133 22134 22135 22136 22137
          22138 22139 22140 22141 22142 22143
          22144 22145 22146 22147 22148 22149
          22150 22151 22152 22153 22154 22155
          22156 22157 22158 22159 22160 22161
          22162 22163 22164 22165 22166 22167
          22168 22169 22170 22171 22172 22173
          22174 22175 22176 22177 22178 22179
          22180 22181 22182 22183 22184 22185
          22186 22187 22188 22189 22190 22191
          22192 22193 22194 22195 22196 22197
          22198 22199 22200 22201 22202 22203
          22204 22205 22206 22207 22208 22209
          22210 22211 22212 22213 22214 22215
          22216 22217 22218 22219 22220 22221
          22222 22223 22224 22225 22226 22227
          22228 22229 22230 22231 22232 22233
          22234 22235 22236 22237 22238 22239
          22240 22241 22242 22243 22244 22245
          22246 22247 22248 22249 22250 22251
          22252 22253 22254 22255 22256 22257
          22258 22259 22260 22261 22262 22263
          22264 22265 22266 22267 22268 22269
          22270 22271 22272 22273 22274 22275
          22276 22277 22278 22279 22280 22281
          22282 22283 22284 22285 22286 22287
          22288 22289 22290 22291 22292 22293
          22294 22295 22296 22297 22298 22299
          22300 22301 22302 22303 22304 22305
          22306 22307 22308 22309 22310 22311
          22312 22313 22314 22315 22316 22317
          22318 22319 22320 22321 22322 22323
          22324 22325 22326 22327 22328 202
          203 204 205 206 207 296
          298 299 297 293 295 318
          319 388 390 391 389 387
          410 409 408 480 481 479
          500 499 570 571 569 590
          589 879 880 881 882 889
          893 890 894 896 898 1520
          1521 1522 1523 1526 1528 1532
        </DataArray>
        <DataArray type="Float64" Name="bounds" format="ascii" RangeMin="0" RangeMax="0">
          0 0 0 0 0 0
          0 0 0 0 0 0
          0 0 0 0 0 0
          0 0 0 0 0 0
          0 0 0 0 0 0
          0 0 0 0 0 0
          0 0 0 0 0 0
          0 0 0 0 0 0
          0 0 0 0 0 0
          0 0 0 0 0 0
          0 0 0 0 0 0
          0 0 0 0 0 0
          0 0 0 0 0 0
          0 0 0 0 0 0
          0 0 0 0 0 0
          0 0 0 0 0 0
          0 0 0 0 0 0
          0 0 0 0 0 0
          0 0 0 0 0 0
          0 0 0 0 0 0
          0 0 0 0 0 0
          0 0 0 0 0 0
          0 0 0 0 0 0
          0 0 0 0 0 0
          0 0 0 0 0 0
          0 0 0 0 0 0
          0 0 0 0 0 0
          0 0 0 0 0 0
          0 0 0 0 0 0
          0 0 0 0 0 0
          0 0 0 0 0 0
          0 0 0 0 0 0
          0 0 0 0 0 0
          0 0 0 0 0 0
          0 0 0 0 0 0
          0 0 0 0 0 0
          0 0 0 0 0 0
          0 0 0 0 0 0
          0 0 0 0 0 0
          0 0 0 0 0 0
          0 0 0 0 0 0
          0 0 0 0 0 0
          0 0 0 0 0 0
          0 0 0 0 0 0
          0 0 0 0 0 0
          0 0 0 0 0 0
          0 0 0 0 0 0
          0 0 0 0 0 0
          0 0 0 0 0 0
          0 0 0 0 0 0
          0 0 0 0 0 0
          0 0 0 0 0 0
          0 0 0 0 0 0
          0 0 0 0 0 0
          0 0 0 0 0 0
          0 0 0 0 0 0
          0 0 0 0 0 0
          0 0 0 0 0 0
          0 0 0 0 0 0
          0 0 0 0 0 0
          0 0 0 0 0 0
          0 0 0 0 0 0
          0 0 0 0 0 0
          0 0 0 0 0 0
          0 0 0 0 0 0
          0 0 0 0 0 0
          0 0 0 0 0 0
          0 0 0 0 0 0
          0 0 0 0 0 0
          0 0 0 0 0 0
          0 0 0 0 0 0
          0 0 0 0 0 0
          0 0 0 0 0 0
          0 0 0 0 0 0
          0 0 0 0 0 0
          0 0 0 0 0 0
          0 0 0 0 0 0
          0 0 0 0 0 0
          0 0 0 0 0 0
          0 0 0 0 0 0
          0 0 0 0 0 0
          0 0 0 0 0 0
          0 0 0 0 0 0
          0 0 0 0 0 0
          0 0 0 0 0 0
          0 0 0 0 0 0
          0 0 0 0 0 0
          0 0 0 0 0 0
          0 0 0 0 0 0
          0 0 0 0 0 0
          0 0 0 0 0 0
          0 0 0 0 0 0
          0 0 0 0 0 0
          0 0 0 0 0 0
          0 0 0 0 0 0
          0 0 0 0 0 0
          0 0 0 0 0 0
          0 0 0 0 0 0
          0 0 0 0 0 0
          0 0 0 0 0 0
          0 0 0 0 0 0
          0 0 0 0 0 0
          0 0 0 0 0 0
          0 0 0 0 0 0
          0 0 0 0 0 0
          0 0 0 0 0 0
          0 0 0 0 0 0
          0 0 0 0 0 0
          0 0 0 0 0 0
          0 0 0 0 0 0
          0 0 0 0 0 0
          0 0 0 0 0 0
          0 0 0 0 0 0
          0 0 0 0 0 0
          0 0 0 0 0 0
          0 0 0 0 0 0
          0 0 0 0 0 0
          0 0 0 0 0 0
          0 0 0 0 0 0
          0 0 0 0 0 0
          0 0 0 0 0 0
          0 0 0 0 0 0
          0 0 0 0 0 0
          0 0 0 0 0 0
          0 0 0 0 0 0
          0 0 0 0 0 0
          0 0 0 0 0 0
          0 0 0 0 0 0
          0 0 0 0 0 0
          0 0 0 0 0 0
          0 0 0 0 0 0
          0 0 0 0 0 0
          0 0 0 0 0 0
          0 0 0 0 0 0
          0 0 0 0 0 0
          0 0 0 0 0 0
          0 0 0 0 0 0
          0 0 0 0 0 0
          0 0 0 0 0 0
          0 0 0 0 0 0
          0 0 0 0 0 0
          0 0 0 0 0 0
          0 0 0 0 0 0
          0 0 0 0 0 0
          0 0 0 0 0 0
          0 0 0 0 0 0
          0 0 0 0 0 0
          0 0 0 0 0 0
          0 0 0 0 0 0
          0 0 0 0 0 0
          0 0 0 0 0 0
          0 0 0 0 0 0
          0 0 0 0 0 0
          0 0 0 0 0 0
          0 0 0 0 0 0
          0 0 0 0 0 0
          0 0 0 0 0 0
          0 0 0 0 0 0
          0 0 0 0 0 0
          0 0 0 0 0 0
          0 0 0 0 0 0
          0 0 0 0 0 0
          0 0 0 0 0 0
          0 0 0 0 0 0
          0 0 0 0 0 0
          0 0 0 0 0 0
          0 0 0 0 0 0
          0 0 0 0 0 0
          0 0 0 0 0 0
          0 0 0 0 0 0
          0 0 0 0 0 0
          0 0 0 0 0 0
          0 0 0 0 0 0
          0 0 0 0 0 0
          0 0 0 0 0 0
          0 0 0 0 0 0
          0 0 0 0 0 0
          0 0 0 0 0 0
          0 0 0 0 0 0
          0 0 0 0 0 0
          0 0 0 0 0 0
          0 0 0 0 0 0
          0 0 0 0 0 0
          0 0 0 0 0 0
          0 0 0 0 0 0
          0 0 0 0 0 0
          0 0 0 0 0 0
          0 0 0 0 0 0
          0 0 0 0 0 0
          0 0 0 0 0 0
          0 0 0 0 0 0
          0 0 0 0 0 0
          0 0 0 0 0 0
          0 0 0 0 0 0
          0 0 0 0 0 0
          0 0 0 0 0 0
          0 0 0 0 0 0
          0 0 0 0 0 0
          0 0 0 0 0 0
          0 0 0 0 0 0
          0 0 0 0 0 0
          0 0 0 0 0 0
          0 0 0 0 0 0
          0 0 0 0 0 0
          0 0 0 0 0 0
          0 0 0 0 0 0
          0 0 0 0 0 0
          0 0 0 0 0 0
          0 0 0 0 0 0
          0 0 0 0 0 0
          0 0 0 0 0 0
          0 0 0 0 0 0
          0 0 0 0 0 0
          0 0 0 0 0 0
          0 0 0 0 0 0
          0 0 0 0 0 0
          0 0 0 0 0 0
          0 0 0 0 0 0
          0 0 0 0 0 0
          0 0 0 0 0 0
          0 0 0 0 0 0
          0 0 0 0 0 0
          0 0 0 0 0 0
          0 0 0 0 0 0
          0 0 0 0 0 0
          0 0 0 0 0 0
          0 0 0 0 0 0
          0 0 0 0 0 0
          0 0 0 0 0 0
          0 0 0 0 0 0
          0 0 0 0 0 0
          0 0 0 0 0 0
          0 0 0 0 0 0
          0 0 0 0 0 0
          0 0 0 0 0 0
          0 0 0 0 0 0
          0 0 0 0 0 0
          0 0 0 0 0 0
          0 0 0 0 0 0
          0 0 0 0 0 0
          0 0 0 0 0 0
          0 0 0 0 0 0
          0 0 0 0 0 0
          0 0 0 0 0 0
          0 0 0 0 0 0
          0 0 0 0 0 0
          0 0 0 0 0 0
          0 0 0 0 0 0
          0 0 0 0 0 0
          0 0 0 0 0 0
          0 0 0 0 0 0
          0 0 0 0 0 0
          0 0 0 0 0 0
          0 0 0 0 0 0
          0 0 0 0 0 0
          0 0 0 0 0 0
          0 0 0 0 0 0
          0 0 0 0 0 0
          0 0 0 0 0 0
          0 0 0 0 0 0
          0 0 0 0 0 0
          0 0 0 0 0 0
          0 0 0 0 0 0
          0 0 0 0 0 0
          0 0 0 0 0 0
          0 0 0 0 0 0
          0 0 0 0 0 0
          0 0 0 0 0 0
          0 0 0 0 0 0
          0 0 0 0 0 0
          0 0 0 0 0 0
          0 0 0 0 0 0
          0 0 0 0 0 0
          0 0 0 0 0 0
          0 0 0 0 0 0
          0 0 0 0 0 0
          0 0 0 0 0 0
          0 0 0 0 0 0
          0 0 0 0 0 0
          0 0 0 0 0 0
          0 0 0 0 0 0
          0 0 0 0 0 0
          0 0 0 0 0 0
          0 0 0 0 0 0
          0 0 0 0 0 0
          0 0 0 0 0 0
          0 0 0 0 0 0
          0 0 0 0 0 0
          0 0 0 0 0 0
          0 0 0 0 0 0
          0 0 0 0 0 0
          0 0 0 0 0 0
          0 0 0 0 0 0
          0 0 0 0 0 0
          0 0 0 0 0 0
          0 0 0 0 0 0
          0 0 0 0 0 0
          0 0 0 0 0 0
          0 0 0 0 0 0
          0 0 0 0 0 0
          0 0 0 0 0 0
          0 0 0 0 0 0
          0 0 0 0 0 0
          0 0 0 0 0 0
          0 0 0 0 0 0
          0 0 0 0 0 0
          0 0 0 0 0 0
          0 0 0 0 0 0
          0 0 0 0 0 0
          0 0 0 0 0 0
          0 0 0 0 0 0
          0 0 0 0 0 0
          0 0 0 0 0 0
          0 0 0 0 0 0
          0 0 0 0 0 0
          0 0 0 0 0 0
          0 0 0 0 0 0
          0 0 0 0 0 0
          0 0 0 0 0 0
          0 0 0 0 0 0
          0 0 0 0 0 0
          0 0 0 0 0 0
          0 0 0 0 0 0
          0 0 0 0 0 0
          0 0 0 0 0 0
          0 0 0 0 0 0
          0 0 0 0 0 0
          0 0 0 0 0 0
          0 0 0 0 0 0
          0 0 0 0 0 0
          0 0 0 0 0 0
          0 0 0 0 0 0
          0 0 0 0 0 0
          0 0 0 0 0 0
          0 0 0 0 0 0
          0 0 0 0 0 0
          0 0 0 0 0 0
          0 0 0 0 0 0
          0 0 0 0 0 0
          0 0 0 0 0 0
          0 0 0 0 0 0
          0 0 0 0 0 0
          0 0 0 0 0 0
          0 0 0 0 0 0
          0 0 0 0 0 0
          0 0 0 0 0 0
          0 0 0 0 0 0
          0 0 0 0 0 0
          0 0 0 0 0 0
          0 0 0 0 0 0
          0 0 0 0 0 0
          0 0 0 0 0 0
          0 0 0 0 0 0
          0 0 0 0 0 0
          0 0 0 0 0 0
          0 0 0 0 0 0
          0 0 0 0 0 0
          0 0 0 0 0 0
          0 0 0 0 0 0
          0 0 0 0 0 0
          0 0 0 0 0 0
          0 0 0 0 0 0
          0 0 0 0 0 0
          0 0 0 0 0 0
          0 0 0 0 0 0
          0 0 0 0 0 0
          0 0 0 0 0 0
          0 0 0 0 0 0
          0 0 0 0 0 0
          0 0 0 0 0 0
          0 0 0 0 0 0
          0 0 0 0 0 0
          0 0 0 0 0 0
          0 0 0 0 0 0
          0 0 0 0 0 0
          0 0 0 0 0 0
          0 0 0 0 0 0
          0 0 0 0 0 0
          0 0 0 0 0 0
          0 0 0 0 0 0
          0 0 0 0 0 0
          0 0 0 0 0 0
          0 0 0 0 0 0
          0 0 0 0 0 0
          0 0 0 0 0 0
          0 0 0 0 0 0
          0 0 0 0 0 0
        </DataArray>
        <DataArray type="Float64" Name="gradient_error" format="ascii" RangeMin="1.7017685191476765e-12" RangeMax="0.000003565746821766528">
          2.3996415292080935e-9 2.2732539976984806e-9 1.9317269248469085e-9 2.081289982043097e-9 1.0907372247389476e-8 1.0254720560595961e-8
          7.656787844561807e-9 8.32375870661989e-9 2.101150163471917e-9 1.5799243160260168e-9 8.961789109329408e-9 6.062882368206613e-9
          2.029283240799378e-9 1.2980805525191631e-9 7.71902782901068e-9 4.713752333449051e-9 1.8552951508429815e-9 1.2007930984286984e-9
          6.407824682534464e-9 4.101589358083727e-9 1.5951977077191917e-9 1.1605071557658466e-9 5.178020559952765e-9 3.7215953685169155e-9
          1.3084594958679556e-9 1.0447922501547915e-9 4.004964717972985e-9 3.1580044510275136e-9 7.946408648775169e-10 6.913171040166498e-10
          2.3167685004199426e-9 1.9870491486128684e-9 2.7880588136801765e-10 2.612199710275605e-10 7.438579197364799e-10 6.927370186791242e-10
          6.635341454182706e-11 5.936429694504527e-11 1.389703760737731e-10 1.318523441197953e-10 1.9455691961832078e-11 1.7175182743105503e-11
          4.1051442616504304e-11 3.896272701169012e-11 7.494362613932505e-12 6.737450722930724e-12 8.99750341000077e-12 8.383402347500432e-12
          6.447270517850805e-12 6.373975404481194e-12 6.4628768857136855e-12 6.483912986847264e-12 6.3916587924011105e-12 6.352881099545212e-12
          6.313711359899543e-12 6.272439451056894e-12 6.354354526770114e-12 6.316026925993226e-12 6.3798141642644235e-12 6.324324467312255e-12
          6.346519330641731e-12 6.306257379954401e-12 6.397383042819809e-12 6.342928132842825e-12 6.3459993278023985e-12 6.305620576224646e-12
          6.399730964225054e-12 6.3447210243286264e-12 6.3460122316088875e-12 6.305618024753654e-12 6.399988065881113e-12 6.344851210523886e-12
          8.123623584760404e-10 8.981080830900065e-10 2.5977845350502824e-9 2.9322396240965116e-9 5.64152110374146e-10 1.7047319034803012e-9
          3.614751233581724e-10 1.0942707818777804e-9 3.8989246490372616e-10 1.2365562068483323e-9 4.886040456516358e-10 1.487786558808702e-9
          4.989043215726078e-10 1.4557359119648656e-9 3.6248207564844716e-10 1.0147027767367047e-9 1.4579640420636315e-10 3.803794150569318e-10
          3.091196590269191e-11 6.752708617298313e-11 1.0992209829728853e-11 2.2425847496099573e-11 6.081722251532324e-12 7.0792330603205205e-12
          6.241614941263823e-12 6.3044529345285854e-12 6.2247088922645735e-12 6.2005161849527326e-12 6.213086063557668e-12 6.2022245000615215e-12
          6.208047988384571e-12 6.209084469829094e-12 6.2075478597840766e-12 6.209600552461481e-12 6.207506254023648e-12 6.209605040564921e-12
          3.750563955815369e-11 3.553142780931479e-11 1.3421660883150336e-10 1.2552031695577706e-10 6.208631275274055e-11 2.0436192675359472e-10
          1.1831746348265583e-10 3.526467974365412e-10 1.662572271846625e-10 4.73230189082623e-10 1.7409965028692643e-10 4.846276140262215e-10
          1.479788401143748e-10 4.0467350976512566e-10 9.325961261018347e-11 2.497473097057896e-10 3.325503119722103e-11 8.082361176586807e-11
          7.670488089833687e-12 8.477965408071513e-12 6.573244461574827e-12 7.068423023841509e-12 6.136744190751805e-12 6.211589236037376e-12
          6.1218644566102645e-12 6.060406740059353e-12 6.102015675730672e-12 6.089077711796903e-12 6.107663999626713e-12 6.074906651803182e-12
          6.10855559446687e-12 6.0721286594395145e-12 6.10853135205418e-12 6.071882414731498e-12 6.1085198696396384e-12 6.071847320269364e-12
          4.0486414159562744e-11 3.778512431671739e-11 1.3171927609009443e-10 1.2670655156883652e-10 5.4566873337305296e-11 1.6323567363040481e-10
          8.056254448791512e-11 2.2522886900494628e-10 9.902057057628806e-11 2.6870199810157105e-10 9.680781308308254e-11 2.588522875161049e-10
          7.927404152516135e-11 2.08919379682562e-10 4.954841707925557e-11 1.2741886274396434e-10 1.855131466881902e-11 4.2504511039641036e-11
          5.892223722547028e-12 6.636070635994222e-12 6.056742788070876e-12 6.159162462359813e-12 6.090582710367903e-12 6.034013636433806e-12
          6.061179321804467e-12 6.016856699042378e-12 6.0687169736215115e-12 6.008290595902584e-12 6.0668551973544295e-12 6.014199073843408e-12
          6.06701064143167e-12 6.014561602086684e-12 6.067208809187102e-12 6.014274808972233e-12 6.067251049130399e-12 6.014198914575545e-12
          7.610458923364079e-8 7.098638644591823e-8 4.831514178195198e-8 5.299438464232955e-8 5.988171366183313e-8 3.7504567375591033e-8
          4.828215432295858e-8 2.8400057075704626e-8 3.7479289469303095e-8 2.3645812719430304e-8 2.8442079980712242e-8 2.0138131179771626e-8
          2.0579088630284386e-8 1.5991047086464662e-8 1.1428993670452298e-8 9.635486830251072e-9 3.3898987075226787e-9 3.0913155742988497e-9
          3.564535215904211e-10 3.531193171480688e-10 1.2833914749695636e-10 1.2318790470571306e-10 6.67136268406125e-12 6.577566057923251e-12
          6.6091950782221425e-12 6.5009636571657524e-12 6.6019877204325224e-12 6.493315359531673e-12 6.601055005151796e-12 6.492473389265081e-12
          1.3240595462378897e-8 1.5330037598086696e-8 8.215600803614891e-9 5.397770550881456e-9 6.444154114593017e-9 7.49663889807708e-9
          7.012399949554039e-9 4.720793667367528e-9 1.6476336056956052e-9 1.9119242170276857e-10 6.880519622966496e-11 1.0584759974777247e-11
          7.153530264778787e-12 6.3364010069214064e-12 6.260781810368401e-12 6.22620717894666e-12 6.2228215225334355e-12 6.222467519735649e-12
          7.491839609556627e-10 7.143430682465917e-10 1.033156727104441e-9 1.6338360953974715e-9 2.113204437883876e-9 2.127778465294188e-9