<?xml version="1.0"?>
<VTKFile type="UnstructuredGrid" version="0.1" byte_order="LittleEndian" header_type="UInt32" compressor="vtkZLibDataCompressor">
  <UnstructuredGrid>
    <Piece NumberOfPoints="2168" NumberOfCells="1497">
      <PointData>
        <DataArray type="Int32" Name="libmesh_node_id" format="ascii" RangeMin="475" RangeMax="20168">
          566 787 788 789 1438 1441
          1442 1443 1444 1445 1800 1801
          1802 1803 1806 1807 1808 1814
          1815 1816 1817 1820 1821 1822
          3468 3471 3480 3482 3483 3484
          3485 3486 3487 3488 3489 3490
          3491 3493 3495 3497 3499 3500
          3501 3502 3503 3504 3505 3508
          3509 3511 3516 3517 3518 3519
          3520 3521 3527 3529 3533 3534
          3535 3536 3576 3856 3857 3858
          3859 3860 3861 3862 3864 3865
          3867 3868 3869 3871 3872 4072
          4073 4076 4077 4079 4081 4082
          4083 4084 4085 4086 4087 4088
          4089 4090 4099 4101 4102 4103
          4104 4105 4106 4107 4110 4114
          4115 4117 4120 6383 6384 6385
          6516 6517 6519 6522 6531 6532
          6533 6534 6535 6536 6537 6544
          6545 6546 6547 6548 6549 6550
          6551 6552 6553 6554 6555 6556
          6557 6562 6563 6564 6568 6571
          6572 6573 6574 6575 6576 6577
          6578 6579 6580 6581 6582 6583
          6584 6585 6586 6587 6588 6589
          6590 6591 6592 6593 6594 6595
          6596 6597 6598 6599 6600 6601
          6602 6603 6604 6605 6606 6607
          6608 6622 6634 6635 6636 6644
          6645 6646 6647 6648 6649 6650
          6658 6659 6660 6661 6662 6663
          6664 6669 6670 6671 6672 6673
          6674 6675 6676 6677 6678 6691
          6692 6694 6697 6706 6707 6708
          6709 6710 6711 6712 6747 6748
          6749 6750 6751 6752 6753 6754
          6755 6756 6757 6758 6759 6760
          6761 6762 6763 6764 6765 6766
          6767 6768 6769 6770 6771 6772
          6773 6774 6775 6776 6777 6778
          6779 6780 6822 6823 6824 6825
          6826 6827 6828 6836 6837 6838
          6839 6840 6841 6842 6871 6872
          6873 6874 6875 6876 6877 6878
          6879 6880 6881 6882 6883 6884
          6885 6886 6887 7248 7249 7250
          7251 7252 7253 7254 7255 7256
          7257 7258 7259 7260 7261 7262
          7263 7264 7265 7266 7267 7268
          7269 7270 7271 7272 7273 7274
          7275 7277 7278 7280 7281 7282
          7284 7285 7411 7412 7413 7414
          7415 7417 7418 7421 7422 7423
          7424 7425 7426 7427 7428 7430
          7431 7432 7433 7434 7435 7436
          7437 7438 7439 7440 7441 7442
          7443 7444 7445 7446 7447 7448
          7449 7450 7451 7452 7453 7455
          7457 7475 7476 7477 7478 7479
          7480 7481 7482 7483 7484 7599
          7600 7601 7602 7603 7604 7609
          7610 7611 7612 16921 16922 16923
          16924 16925 16926 16927 16928 16929
          16930 16931 16932 16933 16934 17720
          17721 17722 17723 17724 17725 17726
          17727 17728 17729 17737 17738 17739
          17740 17741 17742 17743 17754 17755
          17756 17757 17758 17759 17760 17761
          17762 17763 17771 17772 17773 17774
          17775 17776 17777 17841 17842 17843
          17844 17845 17846 17847 17849 17851
          17853 17855 17856 17857 17858 17859
          17860 17861 17865 17869 17870 17871
          17872 17873 17874 17875 17877 17879
          17881 17883 17884 17885 17886 17887
          17888 17889 17926 17927 17929 17932
          17934 17935 17936 17937 17938 17939
          17940 17941 17942 17943 17945 17947
          17949 17951 17952 17953 17954 17955
          17956 17957 17958 17959 17960 17961
          17962 17963 17964 17965 17966 17967
          17968 17969 17970 17971 17972 17973
          17974 17975 17976 17977 17978 17979
          17980 17981 17982 17983 17984 17985
          17986 17987 17988 17989 17990 17991
          17992 17993 17994 18024 18026 18028
          18030 18031 18032 18033 18034 18035
          18036 18038 18039 18040 18042 18043
          18044 18045 18046 18047 18048 18049
          18050 18051 18052 18053 18054 18055
          18056 18057 18058 18059 18060 18061
          18062 18063 18064 18065 18066 18067
          18068 18069 18070 18071 18072 18073
          18074 18075 18076 18077 18078 18079
          18080 18081 18082 18083 18084 18085
          18086 18087 18088 18089 18090 18091
          18092 18093 18094 18095 18096 18097
          18098 18099 18100 18101 18102 18103
          18104 18105 18106 18107 18108 18109
          18110 18111 18112 18113 18114 18115
          18116 18117 18118 18119 18120 18121
          18122 18123 18124 18125 18126 18127
          18128 18129 18130 18131 18132 18133
          18134 18135 18136 18137 18138 18139
          18140 18141 18142 18143 18144 18145
          18146 18147 18148 18149 18150 18151
          18152 18153 18154 18155 18156 18157
          18158 18159 18160 18161 18162 18163
          18164 18165 18166 18167 18168 18169
          18170 18171 18172 18173 18174 18175
          18176 18177 18178 18179 18180 18181
          18182 18183 18184 18185 18186 18187
          18188 18189 18190 18191 18192 18193
          18194 18195 18196 18197 18198 18199
          18200 18201 18202 18203 18204 18205
          18206 18207 18208 18209 18210 18211
          18212 18213 18214 18215 18216 18217
          18218 18219 18220 18221 18222 18223
          18224 18225 18226 18227 18228 18229
          18230 18231 18232 18285 18333 18334
          18337 18339 18340 18341 18343 18344
          18380 18381 18415 18416 18417 18418
          18419 18420 18421 18422 18423 18424
          18425 18426 18427 18428 18429 18430
          18431 18432 18433 18434 18435 18436
          18437 18438 18495 18496 18497 18498
          18499 18500 18501 18502 18503 18504
          18505 18506 18507 18508 18509 18510
          18511 18512 18513 18514 18515 18516
          18517 18518 18519 18520 18521 18522
          18523 18524 18525 18526 18527 18528
          18529 18530 18531 18532 18533 18534
          18535 18536 18537 18538 18539 18540
          18541 18542 18543 18544 18545 18546
          18547 18548 18549 18550 18607 18608
          18609 18610 18611 18612 18613 18614
          18615 18616 18617 18618 18619 18620
          18621 18622 18623 18624 18625 18626
          18627 18628 18629 18630 18631 18632
          18633 18634 18635 18636 18637 18638
          18639 18640 18641 18642 18643 18644
          18645 18646 18647 18648 18673 18674
          18675 18676 18677 18678 18679 18680
          18681 18682 18683 18684 18685 18686
          18687 18688 18689 18690 18691 18692
          18693 18694 18695 18696 18697 18698
          18699 18700 18701 18702 18703 18704
          18705 18706 18707 18708 18709 18710
          18711 18712 18713 18714 18715 18716
          18717 18718 18719 18720 18721 18722
          18723 18724 18725 18726 18727 18728
          18729 18730 18731 18732 18733 18734
          18735 18814 18815 18816 18817 18818
          18819 18820 18821 18822 18823 18831
          18832 18833 18834 18835 18836 18837
          18848 18849 18850 18851 18852 18853
          18854 18855 18856 18857 18865 18866
          18867 18868 18869 18870 18871 18931
          18935 18936 18937 18938 18939 18940
          18941 18943 18945 18947 18949 18950
          18951 18952 18953 18954 18955 18959
          18963 18964 18965 18966 18967 18968
          18969 18971 18973 18975 18977 18978
          18979 18980 18981 18982 18983 19062
          19063 19064 19065 19066 19067 19079
          19080 19081 19082 19179 19183 19184
          19185 19186 19191 19193 19197 19198
          19199 19200 19232 19233 19234 19235
          19236 19237 19238 19239 19240 19241
          19242 19243 19244 19245 19246 19247
          19248 19249 19250 19251 19252 19253
          19254 19255 19256 19257 19258 19259
          19260 19261 19262 19263 19264 19265
          19266 19267 19268 19269 19270 19271
          19272 19273 19274 19275 19276 19277
          19278 19279 19280 19281 19282 19283
          19284 19285 19286 19287 19288 19289
          19290 19291 19292 19293 19294 19295
          19296 19297 19298 19299 19300 19301
          19302 19303 19304 19305 19306 19307
          19308 19309 19310 19311 19312 19313
          19314 19315 19316 19317 19318 19319
          19320 19321 19322 19323 19324 19325
          19326 19327 19328 19329 19330 19331
          19332 19333 19334 19335 19336 19337
          19338 19339 19340 19341 19342 19343
          19344 19345 19346 19347 19348 19349
          19350 19351 19352 19353 19354 19355
          19356 19357 19358 19359 19360 19361
          19362 19363 19364 19365 19366 19367
          19368 19369 19370 19371 19372 19373
          19374 19375 19376 19377 19378 19379
          19380 19381 19382 19383 19384 19385
          19386 19387 19388 19389 19390 19391
          19392 19393 19394 19395 19396 19397
          19398 19399 19400 19401 19402 19403
          19404 19405 19406 19407 19408 19409
          19410 19411 19412 19413 19414 19415
          19416 19417 19418 19419 19420 19421
          19422 19423 19424 19425 19426 19431
          19432 19433 19434 19435 19436 19441
          19442 19443 19444 19448 19449 19450
          19451 19489 19490 19491 19492 19493
          19494 19499 19500 19501 19502 19523
          19524 19525 19526 19530 19531 19532
          19533 19537 19538 19539 19540 19544
          19545 19546 19547 19579 19580 19581
          19582 19586 19587 19588 19589 19663
          19664 19665 19666 19667 19668 19669
          19670 19671 19672 19673 19674 19675
          19676 19677 19678 19679 19680 19681
          19682 19683 19684 19685 19686 19687
          19688 19689 19690 19691 19692 19693
          19694 19695 19696 19697 19698 19699
          19700 19701 19702 19703 19704 19705
          19706 19707 19708 19709 19710 19711
          19712 19713 19714 19715 19716 19717
          19718 19775 19776 19777 19778 19779
          19780 19781 19782 19783 19784 19785
          19786 19787 19788 19789 19790 19791
          19792 19793 19794 19795 19796 19797
          19798 19799 19800 19801 19802 19803
          19804 19805 19806 19807 19808 19809
          19810 19811 19812 19813 19814 19815
          19816 19873 19874 19875 19876 19880
          19881 19882 19883 19887 19888 19889
          19890 19894 19895 19896 19897 19985
          19986 19987 19988 19992 19993 19994
          19995 19999 20000 20001 20002 20037
          20038 20039 20040 20041 20042 20043
          20044 20045 20046 20047 20048 20049
          20050 20051 20052 20053 20054 20055
          20056 20057 20058 20059 20060 20061
          20062 20063 20064 20065 20066 20067
          20068 20069 20070 20071 20072 20073
          20074 20075 20076 20077 20078 20079
          20080 20081 20082 20083 20084 20085
          20086 20087 20088 20089 20090 20091
          20092 20093 20094 20095 20096 20097
          20098 20099 20100 20101 20102 20103
          20104 20105 20106 20107 20108 20109
          20113 20114 20115 20116 20120 20121
          20122 20123 20127 20128 20129 20130
          20162 20163 20164 20165 475 718
          889 881 782 791 890 882
          565 796 896 887 1456 1458
          1460 1457 1459 1462 1461 1463
          1464 1465 476 1486 1487 717
          1534 1535 790 1540 1541 795
          1682 1684 1683 1116 1685 716
          1439 1804 1805 1809 1693 1694
          1695 1810 1811 1813 1812 1395
          1398 1400 1819 1818 1823 3462
          3464 3466 3463 3465 3467 3469
          3470 3537 3538 1451 3539 3574
          3578 3575 3577 3580 3579 3707
          3708 794 3714 1450 3863 3582
          3569 3570 3866 3585 3587 3573
          3870 3589 4067 4071 4068 4069
          4070 4074 4075 3447 3448 4078
          3453 4080 4095 4096 4097 4098
          4100 1448 4108 4109 3524 4111
          1449 4112 4113 4116 4118 4119
          4121 6375 6378 6379 6376 6366
          6381 6368 6371 6386 3452 6382
          6565 6392 6543 6566 6559 6567
          6569 6570 6561 6630 6631 6633
          6632 6665 6666 6668 6667 6791
          6793 6794 6792 6796 6795 6809
          6808 6811 6810 6864 6865 6867
          6866 6890 6891 6896 6895 6897
          6898 7160 7161 1117 3891 3458
          4092 4094 1440 7276 7279 3568
          7283 3572 6462 7409 6465 6466
          7410 6423 6447 6449 6469 7416
          6451 7419 7420 6468 7429 6619
          6804 7454 6889 7456 6814 7459
          7458 7460 3498 7124 6832 7125
          7128 3528 7130 6860 7485 7133
          7486 7487 7135 7488 7586 7595
          7589 7596 7591 7597 7598 6626
          3494 7593 6654 7606 7608 6365
          16871 16899 16900 16902 3451 16905
          6486 17512 17513 17504 17712 17713
          3474 17514 17515 6487 17715 6488
          6514 17718 6515 17527 17521 17731
          17528 17529 6489 17733 3475 17735
          6518 17746 17747 17749 6520 17752
          6521 17765 17767 17769 6523 17834
          17835 17837 17836 17838 17839 17840
          17625 17619 17626 17627 6501 6502
          17620 17633 17632 17848 6503 17634
          17850 17852 17854 17639 17640 17641
          3477 17862 17863 17864 17866 17867
          17868 17876 17878 17880 17882 17896
          6538 17898 17897 17924 17925 6539
          17899 17928 17930 17931 17933 17906
          17907 6540 17908 17909 6541 17915
          17914 17944 6542 17916 17946 17948
          17950 17921 17922 17923 17902 17903
          17905 16919 17918 17920 18000 17999
          18023 6558 18001 18025 18027 18029
          18006 18007 18008 18014 18013 18037
          17612 18015 6500 17636 17638 6560
          18041 18020 18021 18022 18258 18259
          6612 18260 18282 18283 18284 18286
          18287 3492 18288 18307 18309 18331
          18308 6618 18332 18335 18336 18302
          6617 18315 18314 18326 18327 18338
          18316 18330 6621 18342 6611 18356
          18350 18278 18374 18357 18358 6623
          18382 18376 6624 18383 6615 18384
          18378 18385 18386 6627 6628 18405
          18406 18407 18412 18413 18414 18371
          18395 18397 18399 3476 18321 18273
          17802 18447 18322 18323 6614 18449
          6620 6527 18451 6638 18328 18329
          18461 18463 18465 6640 17830 18475
          18477 3481 18479 6642 18489 18491
          18493 3496 18559 18561 18563 6652
          18573 18575 18577 18587 18589 18591
          6656 18601 18603 18605 18653 18301
          18325 18654 18655 18663 18664 18665
          18670 18671 18672 18806 18807 18809
          6689 18812 6690 18825 18827 18829
          6693 18840 18841 18843 6695 18846
          6696 18859 18861 18863 6698 18928
          18929 18930 18932 18933 18934 18942
          18944 18946 18948 18956 18957 18958
          18960 18961 18962 18970 18972 18974
          18976 19054 19055 19057 6723 19068
          19069 19060 6725 19070 19071 6724
          6726 19073 19075 19083 19077 19084
          19085 6727 6728 19176 19177 19178
          19180 19181 6740 19182 19187 19188
          19189 6741 19190 19192 19195 19194
          6742 19196 19201 19202 19203 6743
          19427 19428 6781 19429 19430 6782
          19437 19438 6783 19439 19440 6784
          19445 19446 19447 6785 19452 19453
          19454 6786 19495 19496 19497 19498
          19503 19504 19505 19527 19528 19529
          6801 19534 19535 19536 6802 19541
          19542 19543 6803 19548 19549 19550
          19583 19584 19585 19590 19591 19592
          18896 19615 19617 6702 19619 6816
          19629 19631 19633 6818 18924 19643
          19645 3510 19647 6820 19657 19659
          19661 3526 19727 19729 19731 6830
          19741 19743 19745 19755 19757 19759
          6834 19769 19771 19773 19144 19825
          19827 6736 19877 19829 19878 19879
          6844 6850 19884 19885 19886 6851
          19839 19841 19891 19843 19892 19893
          6846 6852 19898 19899 19900 6853
          19937 19939 19989 19941 19990 19991
          6858 19996 19997 19998 19951 19953
          20003 19955 20004 20005 20110 20111
          20112 6888 20117 20118 20119 20124
          20125 20126 20131 20132 20133 20166
          20167 20168
        </DataArray>
        <DataArray type="Float64" Name="bounds" format="ascii" RangeMin="0" RangeMax="0">
          0 0 0 0 0 0
          0 0 0 0 0 0
          0 0 0 0 0 0
          0 0 0 0 0 0
          0 0 0 0 0 0
          0 0 0 0 0 0
          0 0 0 0 0 0
          0 0 0 0 0 0
          0 0 0 0 0 0
          0 0 0 0 0 0
          0 0 0 0 0 0
          0 0 0 0 0 0
          0 0 0 0 0 0
          0 0 0 0 0 0
          0 0 0 0 0 0
          0 0 0 0 0 0
          0 0 0 0 0 0
          0 0 0 0 0 0
          0 0 0 0 0 0
          0 0 0 0 0 0
          0 0 0 0 0 0
          0 0 0 0 0 0
          0 0 0 0 0 0
          0 0 0 0 0 0
          0 0 0 0 0 0
          0 0 0 0 0 0
          0 0 0 0 0 0
          0 0 0 0 0 0
          0 0 0 0 0 0
          0 0 0 0 0 0
          0 0 0 0 0 0
          0 0 0 0 0 0
          0 0 0 0 0 0
          0 0 0 0 0 0
          0 0 0 0 0 0
          0 0 0 0 0 0
          0 0 0 0 0 0
          0 0 0 0 0 0
          0 0 0 0 0 0
          0 0 0 0 0 0
          0 0 0 0 0 0
          0 0 0 0 0 0
          0 0 0 0 0 0
          0 0 0 0 0 0
          0 0 0 0 0 0
          0 0 0 0 0 0
          0 0 0 0 0 0
          0 0 0 0 0 0
          0 0 0 0 0 0
          0 0 0 0 0 0
          0 0 0 0 0 0
          0 0 0 0 0 0
          0 0 0 0 0 0
          0 0 0 0 0 0
          0 0 0 0 0 0
          0 0 0 0 0 0
          0 0 0 0 0 0
          0 0 0 0 0 0
          0 0 0 0 0 0
          0 0 0 0 0 0
          0 0 0 0 0 0
          0 0 0 0 0 0
          0 0 0 0 0 0
          0 0 0 0 0 0
          0 0 0 0 0 0
          0 0 0 0 0 0
          0 0 0 0 0 0
          0 0 0 0 0 0
          0 0 0 0 0 0
          0 0 0 0 0 0
          0 0 0 0 0 0
          0 0 0 0 0 0
          0 0 0 0 0 0
          0 0 0 0 0 0
          0 0 0 0 0 0
          0 0 0 0 0 0
          0 0 0 0 0 0
          0 0 0 0 0 0
          0 0 0 0 0 0
          0 0 0 0 0 0
          0 0 0 0 0 0
          0 0 0 0 0 0
          0 0 0 0 0 0
          0 0 0 0 0 0
          0 0 0 0 0 0
          0 0 0 0 0 0
          0 0 0 0 0 0
          0 0 0 0 0 0
          0 0 0 0 0 0
          0 0 0 0 0 0
          0 0 0 0 0 0
          0 0 0 0 0 0
          0 0 0 0 0 0
          0 0 0 0 0 0
          0 0 0 0 0 0
          0 0 0 0 0 0
          0 0 0 0 0 0
          0 0 0 0 0 0
          0 0 0 0 0 0
          0 0 0 0 0 0
          0 0 0 0 0 0
          0 0 0 0 0 0
          0 0 0 0 0 0
          0 0 0 0 0 0
          0 0 0 0 0 0
          0 0 0 0 0 0
          0 0 0 0 0 0
          0 0 0 0 0 0
          0 0 0 0 0 0
          0 0 0 0 0 0
          0 0 0 0 0 0
          0 0 0 0 0 0
          0 0 0 0 0 0
          0 0 0 0 0 0
          0 0 0 0 0 0
          0 0 0 0 0 0
          0 0 0 0 0 0
          0 0 0 0 0 0
          0 0 0 0 0 0
          0 0 0 0 0 0
          0 0 0 0 0 0
          0 0 0 0 0 0
          0 0 0 0 0 0
          0 0 0 0 0 0
          0 0 0 0 0 0
          0 0 0 0 0 0
          0 0 0 0 0 0
          0 0 0 0 0 0
          0 0 0 0 0 0
          0 0 0 0 0 0
          0 0 0 0 0 0
          0 0 0 0 0 0
          0 0 0 0 0 0
          0 0 0 0 0 0
          0 0 0 0 0 0
          0 0 0 0 0 0
          0 0 0 0 0 0
          0 0 0 0 0 0
          0 0 0 0 0 0
          0 0 0 0 0 0
          0 0 0 0 0 0
          0 0 0 0 0 0
          0 0 0 0 0 0
          0 0 0 0 0 0
          0 0 0 0 0 0
          0 0 0 0 0 0
          0 0 0 0 0 0
          0 0 0 0 0 0
          0 0 0 0 0 0
          0 0 0 0 0 0
          0 0 0 0 0 0
          0 0 0 0 0 0
          0 0 0 0 0 0
          0 0 0 0 0 0
          0 0 0 0 0 0
          0 0 0 0 0 0
          0 0 0 0 0 0
          0 0 0 0 0 0
          0 0 0 0 0 0
          0 0 0 0 0 0
          0 0 0 0 0 0
          0 0 0 0 0 0
          0 0 0 0 0 0
          0 0 0 0 0 0
          0 0 0 0 0 0
          0 0 0 0 0 0
          0 0 0 0 0 0
          0 0 0 0 0 0
          0 0 0 0 0 0
          0 0 0 0 0 0
          0 0 0 0 0 0
          0 0 0 0 0 0
          0 0 0 0 0 0
          0 0 0 0 0 0
          0 0 0 0 0 0
          0 0 0 0 0 0
          0 0 0 0 0 0
          0 0 0 0 0 0
          0 0 0 0 0 0
          0 0 0 0 0 0
          0 0 0 0 0 0
          0 0 0 0 0 0
          0 0 0 0 0 0
          0 0 0 0 0 0
          0 0 0 0 0 0
          0 0 0 0 0 0
          0 0 0 0 0 0
          0 0 0 0 0 0
          0 0 0 0 0 0
          0 0 0 0 0 0
          0 0 0 0 0 0
          0 0 0 0 0 0
          0 0 0 0 0 0
          0 0 0 0 0 0
          0 0 0 0 0 0
          0 0 0 0 0 0
          0 0 0 0 0 0
          0 0 0 0 0 0
          0 0 0 0 0 0
          0 0 0 0 0 0
          0 0 0 0 0 0
          0 0 0 0 0 0
          0 0 0 0 0 0
          0 0 0 0 0 0
          0 0 0 0 0 0
          0 0 0 0 0 0
          0 0 0 0 0 0
          0 0 0 0 0 0
          0 0 0 0 0 0
          0 0 0 0 0 0
          0 0 0 0 0 0
          0 0 0 0 0 0
          0 0 0 0 0 0
          0 0 0 0 0 0
          0 0 0 0 0 0
          0 0 0 0 0 0
          0 0 0 0 0 0
          0 0 0 0 0 0
          0 0 0 0 0 0
          0 0 0 0 0 0
          0 0 0 0 0 0
          0 0 0 0 0 0
          0 0 0 0 0 0
          0 0 0 0 0 0
          0 0 0 0 0 0
          0 0 0 0 0 0
          0 0 0 0 0 0
          0 0 0 0 0 0
          0 0 0 0 0 0
          0 0 0 0 0 0
          0 0 0 0 0 0
          0 0 0 0 0 0
          0 0 0 0 0 0
          0 0 0 0 0 0
          0 0 0 0 0 0
          0 0 0 0 0 0
          0 0 0 0 0 0
          0 0 0 0 0 0
          0 0 0 0 0 0
          0 0 0 0 0 0
          0 0 0 0 0 0
          0 0 0 0 0 0
          0 0 0 0 0 0
          0 0 0 0 0 0
          0 0 0 0 0 0
          0 0 0 0 0 0
          0 0 0 0 0 0
          0 0 0 0 0 0
          0 0 0 0 0 0
          0 0 0 0 0 0
          0 0 0 0 0 0
          0 0 0 0 0 0
          0 0 0 0 0 0
          0 0 0 0 0 0
          0 0 0 0 0 0
          0 0 0 0 0 0
          0 0 0 0 0 0
          0 0 0 0 0 0
          0 0 0 0 0 0
          0 0 0 0 0 0
          0 0 0 0 0 0
          0 0 0 0 0 0
          0 0 0 0 0 0
          0 0 0 0 0 0
          0 0 0 0 0 0
          0 0 0 0 0 0
          0 0 0 0 0 0
          0 0 0 0 0 0
          0 0 0 0 0 0
          0 0 0 0 0 0
          0 0 0 0 0 0
          0 0 0 0 0 0
          0 0 0 0 0 0
          0 0 0 0 0 0
          0 0 0 0 0 0
          0 0 0 0 0 0
          0 0 0 0 0 0
          0 0 0 0 0 0
          0 0 0 0 0 0
          0 0 0 0 0 0
          0 0 0 0 0 0
          0 0 0 0 0 0
          0 0 0 0 0 0
          0 0 0 0 0 0
          0 0 0 0 0 0
          0 0 0 0 0 0
          0 0 0 0 0 0
          0 0 0 0 0 0
          0 0 0 0 0 0
          0 0 0 0 0 0
          0 0 0 0 0 0
          0 0 0 0 0 0
          0 0 0 0 0 0
          0 0 0 0 0 0
          0 0 0 0 0 0
          0 0 0 0 0 0
          0 0 0 0 0 0
          0 0 0 0 0 0
          0 0 0 0 0 0
          0 0 0 0 0 0
          0 0 0 0 0 0
          0 0 0 0 0 0
          0 0 0 0 0 0
          0 0 0 0 0 0
          0 0 0 0 0 0
          0 0 0 0 0 0
          0 0 0 0 0 0
          0 0 0 0 0 0
          0 0 0 0 0 0
          0 0 0 0 0 0
          0 0 0 0 0 0
          0 0 0 0 0 0
          0 0 0 0 0 0
          0 0 0 0 0 0
          0 0 0 0 0 0
          0 0 0 0 0 0
          0 0 0 0 0 0
          0 0 0 0 0 0
          0 0 0 0 0 0
          0 0 0 0 0 0
          0 0 0 0 0 0
          0 0 0 0 0 0
          0 0 0 0 0 0
          0 0 0 0 0 0
          0 0 0 0 0 0
          0 0 0 0 0 0
          0 0 0 0 0 0
          0 0 0 0 0 0
          0 0 0 0 0 0
          0 0 0 0 0 0
          0 0 0 0 0 0
          0 0 0 0 0 0
          0 0 0 0 0 0
          0 0 0 0 0 0
          0 0 0 0 0 0
          0 0 0 0 0 0
          0 0 0 0 0 0
          0 0 0 0 0 0
          0 0 0 0 0 0
          0 0 0 0 0 0
          0 0 0 0 0 0
          0 0 0 0 0 0
          0 0 0 0 0 0
          0 0 0 0 0 0
          0 0 0 0 0 0
          0 0 0 0 0 0
          0 0 0 0 0 0
          0 0 0 0 0 0
          0 0 0 0 0 0
          0 0 0 0 0 0
          0 0 0 0 0 0
          0 0 0 0 0 0
          0 0 0 0 0 0
          0 0 0 0 0 0
          0 0 0 0 0 0
          0 0 0 0 0 0
          0 0 0 0 0 0
          0 0 0 0 0 0
          0 0 0 0 0 0
          0 0 0 0 0 0
          0 0 0 0 0 0
          0 0
        </DataArray>
        <DataArray type="Float64" Name="gradient_error" format="ascii" RangeMin="8.601957244764412e-13" RangeMax="6.4522036721251665e-9">
          2.9781768547282706e-11 3.622772553794852e-11 8.686334803146946e-12 1.8140935002980508e-11 1.291185087059567e-11 6.410924399322732e-12
          1.1025447120939518e-9 4.714222607716341e-11 1.1155778481697572e-11 9.112487314735164e-12 6.504353703599949e-12 5.317840576650577e-12
          7.946967120794953e-12 5.618211985320605e-12 1.476530947735902e-11 8.65352391923922e-12 1.154696496009822e-11 2.5184851670043434e-11
          1.4464830710883391e-11 2.725893524863867e-11 1.8575758387405428e-11 3.0065632922778456e-11 1.7213239034139728e-11 2.1757513011373313e-11
          2.6653876265525805e-12 4.218308552256095e-12 3.8288093866611556e-10 3.252475718475917e-11 1.4208495591785099e-11 2.21622896481577e-11
          1.609653383214781e-11 7.213511769761169e-12 7.463919874663274e-12 5.6282372981979675e-11 2.4417064023160175e-11 2.5977940361959476e-11
          8.964104429565093e-12 4.750626832664256e-12 6.1681750349054535e-12 6.364578391224904e-12 5.433802110013583e-12 4.115072595357467e-12
          5.89294279201452e-12 4.433481823225305e-12 8.182555737016087e-12 5.768014630992818e-12 7.848515358300919e-12 1.6934754507771937e-9
          5.887332918163312e-10 7.150358959879985e-11 8.63241487439668e-11 3.7246446539598895e-11 5.320644831908204e-11 3.802129131394401e-11
          9.735442237927227e-12 1.5651096999332587e-11 7.83756452996832e-12 1.2534152961894283e-11 6.572643753731651e-12 7.418491718095129e-12
          9.629514139507816e-12 7.324164163310897e-12 2.968194250727256e-11 1.3091346319262495e-11 1.667785202864578e-11 8.644981994333686e-12
          1.0999212862563202e-11 1.6790188837334093e-11 2.1735640103717215e-11 1.6444187034225416e-11 1.309479563639277e-11 2.6142805501352883e-11
          1.455627519824942e-11 2.921644195115198e-11 2.2164152631787327e-11 1.512880446675785e-11 3.0497265203201276e-11 3.1471750649518884e-12
          2.6755334798808055e-12 2.2038918948097225e-12 1.0645161879946007e-11 4.25505640599918e-12 1.7635161135655005e-11 1.4233807006464876e-11
          8.16119152556774e-12 6.812155614961102e-12 7.320009240302142e-12 3.8455821859868576e-12 2.8063281503677637e-11 2.246863031782638e-11
          1.052745803153882e-11 1.1147592402901111e-11 2.16820405800061e-11 3.6281021414545284e-11 4.0442844533212686e-11 3.236112058781012e-11
          1.800460694312991e-11 1.495729833012831e-11 1.576576240827774e-11 8.088677234309416e-12 1.921826966543653e-11 2.6862947526129996e-11
          2.2358046715701453e-11 1.2041269897737991e-11 2.351282617883627e-11 7.062358424090574e-12 9.650416724919171e-12 8.72808602610362e-12
          8.490441794550462e-10 6.506362277029305e-10 2.950084269167185e-10 8.455600503488741e-10 3.2059599045747765e-10 1.0657255058676598e-10
          1.0419676581308975e-10 3.665276371562359e-11 4.150046304236362e-10 1.3773236259873704e-10 1.3422843128802705e-10 1.5413829592188287e-10
          1.1942798152557188e-10 2.5977813098340286e-11 5.911521960292798e-11 9.602991314762939e-12 8.294536892634557e-12 1.2747092081410028e-11
          1.1297825987033955e-11 8.172245146375123e-12 8.111791131425503e-12 1.3032529094504765e-11 1.1239414979659572e-11 1.519427241171238e-11
          7.420873298761729e-12 2.3790228638525005e-11 9.440356683723119e-12 8.826943794271025e-12 5.3635277184734704e-12 3.3395790332019587e-12
          7.89659841813473e-12 6.565274518376881e-12 7.591067472977226e-12 2.0647482866325527e-10 1.5988491482919314e-10 4.3432751191949947e-11
          3.4660171652500535e-11 7.888005556696828e-11 1.890058633337963e-11 2.682544253333478e-10 2.0763319801257807e-10 4.487383414308284e-11
          1.0214322841485016e-10 1.721664450975325e-11 1.4836309046668482e-11 2.2667792927756343e-11 1.9997602315723415e-11 9.74163349497863e-12
          1.3774198853508889e-11 2.2093319458448668e-11 1.9030754651720696e-11 2.557560894456929e-11 1.2455104949323466e-11 3.159149323754083e-11
          1.2531867103386125e-11 1.1664772465953251e-11 9.51820231503011e-12 4.06969660899669e-11 1.3041949080685895e-11 1.4991090679467132e-11
          1.0271118935677449e-11 8.288364237906311e-12 9.815180672286347e-12 5.056011810084251e-12 9.607752873936994e-12 1.0175079832541187e-11
          8.79997384622463e-12 8.451825220556883e-12 4.322722978381995e-12 5.1399297100021235e-12 5.360472674057015e-12 3.3889738703045976e-11
          1.2374871654906208e-11 1.1062815760605118e-11 6.21013099220771e-12 4.340742482352887e-11 1.585055263510245e-11 1.4084731344926036e-11
          5.596753850072977e-12 6.658290245257776e-12 6.600647410097276e-12 5.882739755559658e-12 7.094373327823004e-12 6.8148777221858565e-12
          8.049628755234305e-12 4.780746681042518e-12 4.7390752404080885e-12 5.313395901498466e-12 6.237959965546587e-12 6.119636610652807e-12
          6.846626170911502e-12 6.046720465292394e-12 8.015280917232371e-12 7.831187764030779e-12 6.99179364348591e-12 1.3878348427539775e-9
          1.0653323262658566e-9 4.820581456942035e-10 1.3012587287433779e-9 5.214660796508127e-10 1.7282060759881985e-10 1.6802053347913752e-10
          5.89030817344529e-11 6.36017708254795e-10 2.1054398768075976e-10 2.0436328412008472e-10 3.3800806759506816e-10 2.6154443904452475e-10
          7.076465619001098e-11 5.63786085203133e-11 1.2835612354032867e-10 3.061462145386695e-11 4.130327887832865e-10 3.195367690582631e-10
          6.873208519853415e-11 1.5653503777573012e-10 2.7548660274003565e-11 2.3718354792641973e-11 3.604377989617218e-11 3.179856423393168e-11