<?xml version="1.0"?>
<VTKFile type="UnstructuredGrid" version="0.1" byte_order="LittleEndian" header_type="UInt32" compressor="vtkZLibDataCompressor">
  <UnstructuredGrid>
    <Piece NumberOfPoints="2263" NumberOfCells="1498">
      <PointData>
        <DataArray type="Int32" Name="libmesh_node_id" format="ascii" RangeMin="198" RangeMax="11397">
          290 380 381 382 383 470
          471 472 473 560 561 563
          663 664 665 666 667 668
          669 670 671 672 673 674
          675 676 677 678 679 680
          681 682 683 684 685 686
          687 688 689 690 757 758
          759 760 761 762 763 764
          765 766 767 768 770 771
          772 773 774 775 776 778
          797 798 801 802 804 805
          806 807 808 810 811 812
          813 814 815 816 817 818
          819 820 946 947 950 951
          953 954 955 956 957 959
          960 961 962 963 964 965
          966 967 968 969 970 971
          972 973 974 975 976 977
          978 979 980 981 982 983
          984 985 986 987 988 989
          990 991 992 993 994 995
          996 997 998 999 1000 1001
          1002 1003 1004 1005 1006 1007
          1008 1009 1010 1011 1012 1013
          1014 1015 1016 1017 1018 1019
          1020 1021 1022 1023 1024 1025
          1026 1027 1028 1029 1030 1031
          1032 1033 1034 1035 1036 1037
          1038 1039 1040 1041 1042 1043
          1044 1045 1046 1047 1048 1049
          1053 1054 1248 1249 1250 1251
          1252 1253 1254 1255 1256 1257
          1258 1259 1260 1261 1262 1263
          1264 1265 1266 1267 1268 1269
          1270 1271 1272 1273 1274 1275
          1276 1277 1278 1279 1280 1281
          1282 1283 1284 1285 1286 1287
          1288 1289 1290 1291 1292 1293
          1294 1295 1296 1297 1298 1299
          1300 1301 1302 1303 1304 1305
          1306 1307 1308 1309 1310 1311
          1312 1313 1314 1315 1316 1317
          1318 1319 1320 1321 1322 1323
          1324 1325 1326 1327 1328 1329
          1330 1331 1332 1333 1336 1337
          1338 1339 1341 1342 1343 1344
          1345 1346 1347 1348 1349 1350
          1351 1352 1353 1354 1355 1356
          1357 1358 1359 1360 1361 1362
          1363 1366 1369 1371 1382 1383
          1386 1387 1389 1390 1391 1622
          1623 1624 1625 1626 1627 1628
          1629 1630 1631 1632 1633 1634
          1635 1636 1637 1638 1639 1640
          1641 1642 1643 1644 1645 1646
          1647 1648 1649 1650 1651 1652
          1653 1654 1655 1656 1657 1658
          1659 1662 1663 1774 1775 1776
          1777 1778 1779 1780 1781 1782
          1783 1784 1785 1786 1787 1788
          1789 1790 1791 1792 1793 1794
          1795 1796 1797 1798 1799 1833
          1834 1835 1836 1837 1838 1839
          1840 1841 1842 1843 1844 1845
          1846 1847 1848 1849 1850 1851
          1852 1853 1854 1855 1856 1857
          1858 1859 1860 1861 1862 1863
          1864 1865 1866 1867 1868 1869
          1870 1871 1872 1873 1874 1875
          1876 1877 1878 1879 1880 1881
          1882 1883 1884 1885 1886 1928
          1929 1930 1931 1935 1936 1938
          1939 1940 1941 2490 2491 2492
          2493 2494 2495 2496 2497 2498
          2499 2500 2501 2502 2503 2504
          2505 2506 2507 2508 2509 2510
          2511 2512 2513 2514 2515 2516
          2517 2518 2519 2520 2521 2522
          2523 2524 2525 2526 2527 2528
          2529 2530 2531 2532 2533 2534
          2535 2536 2537 2538 2539 2540
          2541 2542 2543 2544 2545 2546
          2547 2548 2549 2550 2551 2552
          2553 2554 2555 2556 2557 2558
          2559 2560 2561 2562 2563 2564
          2565 2566 2567 2568 2569 2570
          2571 2572 2573 2574 2575 2576
          2577 2578 2579 2580 2581 2582
          2583 2584 2585 2586 2587 2588
          2589 2590 2591 2592 2593 2594
          2595 2596 2597 2598 2599 2600
          2601 2602 2603 2604 2605 2606
          2607 2608 2609 2610 2611 2612
          2613 2614 2615 2616 2617 2618
          2619 2620 2621 2622 2623 2624
          2625 2626 2627 2628 2629 2630
          2631 2632 2633 2634 2635 2636
          2637 2638 2639 2640 2641 2642
          2643 2644 2645 2646 2647 2648
          2649 2650 2651 2652 2653 2654
          2655 2656 2657 2658 2659 2660
          2661 2662 2663 2664 2665 2666
          2667 2668 2669 2670 2671 2672
          2673 2674 2675 2676 2677 2678
          2679 2680 2681 2682 2683 2684
          2685 2686 2687 2688 2689 2690
          2691 2692 2693 2694 2695 2696
          2697 2698 2699 2700 2701 2702
          2703 2704 2705 2706 2707 2708
          2709 2710 2711 2712 2713 2714
          2715 2716 2717 2718 2719 2720
          2721 2722 2723 2724 2725 2726
          2727 2728 2729 2730 2731 2732
          2733 2734 2735 2736 2737 2738
          2739 2740 2741 2742 2743 2744
          2745 2746 2747 2748 2749 2750
          2751 2752 2753 2754 2755 2756
          2757 2758 2759 2760 2761 2762
          2763 2764 2765 2766 2767 2768
          2769 2770 2771 2772 2773 2774
          2775 2776 2777 2778 2779 2780
          2781 2782 2783 2784 2785 2786
          2787 2788 2789 2790 2791 2792
          2793 2794 2795 2796 2797 2798
          2799 2800 2801 2802 2803 2804
          2805 2806 2807 2808 2809 2810
          2811 2812 2813 2814 2815 2816
          2817 2818 2819 2820 2821 2822
          2823 2824 2825 2826 2827 2828
          2829 2830 2831 2832 2833 2834
          2835 2836 2837 2838 2839 2840
          2841 2842 2843 2844 2845 2846
          2847 2848 2849 2850 2851 2852
          2853 2854 2855 2856 2857 2858
          2859 2860 2861 2862 2863 2864
          2865 2866 2867 2868 2869 2870
          2871 2872 2873 2874 2875 2876
          2877 2878 2879 2881 2882 2883
          2884 2885 2886 2887 2888 2889
          2890 2891 2892 2893 2894 2895
          2896 2897 2898 2899 2900 2901
          2902 2903 2904 2905 2906 2907
          2908 2909 2910 2911 2912 2913
          2914 2915 2916 2917 2918 2919
          2920 2921 2922 2923 2924 2925
          2926 2927 2928 2929 2930 2931
          2932 2933 2934 2935 2936 2937
          2938 2939 2940 2941 2942 2943
          2944 2945 2946 2947 2948 2949
          2950 2951 2952 2953 2954 2955
          2956 2957 2958 2959 2960 2961
          2962 2963 2964 2965 2966 2967
          2968 2969 2970 2971 2972 2973
          2974 2975 2976 2977 2979 2982
          2987 2988 2989 2990 2991 2992
          2993 2994 2995 2996 2997 2998
          2999 3000 3001 3002 3003 3004
          3005 3006 3007 3008 3009 3010
          3011 3016 3021 3022 3023 3024
          3025 3026 3027 3028 3029 3030
          3031 3032 3033 3034 3035 3036
          3037 3038 3039 3040 3041 3042
          3043 3044 3045 3046 3047 3048
          3049 3050 3051 3052 3053 3054
          3055 3056 3057 3058 3059 3060
          3061 3062 3063 3064 3065 3066
          3067 3068 3069 3070 3071 3072
          3073 3074 3075 3076 3077 3078
          3079 3080 3081 3082 3083 3084
          3085 3086 3087 3088 3089 3090
          3091 3092 3093 3094 3095 3096
          3097 3098 3099 3100 3101 3102
          3103 3104 3105 3106 3107 3108
          3109 3110 3111 3112 3113 3114
          3115 3116 3117 3118 3121 3123
          3124 3126 3127 3128 3129 3130
          3131 3132 3133 3136 3138 3139
          3140 3141 3142 3143 3144 3148
          3150 3153 3158 3159 3160 3161
          3162 3163 3164 3165 3166 3168
          3170 3171 3172 3635 3636 3637
          3638 3639 3640 3641 3642 3643
          3644 3645 3646 3647 3648 3649
          3650 3651 3652 3653 3654 3655
          3656 3657 3658 3659 3660 3663
          3664 3717 3718 3719 3720 3721
          3722 3723 3724 3725 3726 3727
          3728 3729 3730 3731 3732 3733
          3734 3735 3736 3737 3738 3739
          3740 3741 3742 3743 3744 3748
          3749 3978 3979 3980 3981 3982
          3983 3984 3985 3986 3987 3988
          3989 3990 3991 3992 3993 3994
          3995 3996 3997 3998 3999 4000
          4001 4002 4003 4004 4005 4006
          4007 4008 4009 4010 4011 4012
          4013 4014 4015 4016 4017 4018
          4019 4020 4021 4022 4023 4024
          4025 4026 4027 4028 4029 4030
          4031 4032 4033 4034 4035 4036
          4037 4038 4039 4040 4041 4042
          4043 4044 4045 4046 4047 4048
          4049 4050 4051 4052 4053 4054
          4055 4056 4057 4058 4059 4060
          4061 4062 4063 4064 4065 4066
          4815 4816 4817 4818 4819 4820
          4821 4822 4823 4824 4825 4826
          4827 4828 4829 4830 4831 4832
          4833 4834 4835 4836 4837 4838
          4839 4840 4841 4842 4843 4844
          4845 4846 4847 4848 4849 4850
          4851 4852 4853 4854 4855 4856
          4857 4858 4859 4860 4861 4862
          4863 4864 4865 4866 4867 4868
          4869 4870 4871 4872 4873 4874
          4875 4876 4877 4878 4879 4880
          4881 4882 4883 4884 4885 4886
          4887 4888 4889 4890 4891 4892
          4893 4894 4895 4896 4897 4898
          4899 4900 4901 4902 4903 4904
          4905 4906 4907 4908 4909 4910
          4911 4912 4913 4914 4915 4916
          4917 4918 4919 4920 4921 4922
          4923 4924 4925 4926 4927 4928
          4929 4930 4931 4932 4933 4934
          4935 4936 4937 4938 4939 4940
          4941 4942 4943 4947 4948 4950
          4961 4963 4967 4968 4971 4973
          4974 4976 4987 4989 4991 4993
          5001 5002 5003 5004 5005 5006
          5007 5008 5009 5010 5011 5012
          5013 5014 5015 5016 5017 5018
          5019 5020 5021 5022 5023 5024
          5025 5026 5027 5028 5029 5030
          5031 5032 5033 5034 5035 5036
          5037 5038 5039 5040 5041 5042
          5043 5044 5045 5046 5047 5048
          5049 5050 5051 5052 5053 5054
          5055 5056 5057 5058 5059 5060
          5061 5062 5063 5064 5065 5066
          5067 5068 5069 5070 5073 5075
          5076 5078 5089 5091 5093 5095
          5103 5104 5107 5109 5110 5112
          5123 5125 5127 5129 7153 7154
          7155 7156 7157 7158 7159 7167
          7168 7169 7170 7171 7172 7173
          7174 7175 7176 10460 10461 10462
          10463 10464 10465 10466 10467 10468
          10469 10470 10471 10472 10473 10474
          10475 10476 10477 10478 10479 10480
          10481 10482 10483 10484 10485 10486
          10487 10488 10489 10490 10491 10492
          10493 10494 10495 10496 10497 10498
          10499 10500 10501 10502 10503 10504
          10505 10506 10507 10508 10509 10510
          10511 10512 10513 10514 10515 10516
          10517 10518 10519 10520 10521 10522
          10523 10524 10525 10526 10527 10528
          10529 10530 10531 10532 10533 10534
          10535 10536 10537 10538 10539 10540
          10541 10542 10543 10544 10545 10546
          10547 10548 10549 10550 10551 10552
          10553 10554 10555 10556 10557 10558
          10559 10560 10561 10562 10563 10564
          10565 10566 10567 10568 10569 10570
          10571 10572 10573 10574 10575 10576
          10577 10578 10579 10580 10581 10582
          10583 10584 10585 10586 10587 10588
          10589 10590 10591 10592 10593 10594
          10595 10596 10597 10598 10599 10600
          10601 10602 10603 10604 10605 10606
          10607 10608 10609 10610 10611 10612
          10613 10614 10615 10616 10617 10618
          10619 10620 10621 10622 10623 10624
          10625 10626 10627 10628 10629 10630
          10631 10632 10633 10634 10635 10636
          10637 10638 10639 10640 10641 10642
          10643 10644 10645 10646 10647 10648
          10649 10650 10651 10652 10653 10654
          10655 10656 10657 10658 10659 10660
          10661 10662 10663 10664 10665 10666
          10667 10668 10669 10670 10671 10672
          10673 10674 10675 10676 10677 10678
          10679 10680 10681 10682 10683 10684
          10685 10686 10687 10698 10699 10700
          10701 10713 10714 10715 10716 10717
          10718 10719 10720 10721 10722 10735
          10736 10737 10808 10809 10810 10811
          10812 10813 10814 10815 10816 10817
          10818 10819 10820 10821 10822 10823
          10824 10825 10826 10827 10828 10829
          10830 10831 10832 10833 10834 10835
          10836 10837 10838 10839 10840 10841
          10842 10843 10844 10845 10846 10847
          10848 10849 10850 10851 10852 10853
          10854 10855 10856 10857 10858 10859
          10860 10861 10862 10863 10864 10865
          10866 10867 10868 10869 10870 10871
          10872 10873 10874 10875 10876 10877
          10878 10879 10880 10881 10882 10883
          10884 10885 10886 10887 10888 10889
          10890 10891 10892 10893 10894 10895
          10896 10897 10898 10899 10900 10901
          10902 10903 10904 10905 10906 10907
          10908 10909 10910 10911 10912 10913
          10914 10915 10916 10917 10918 10919
          10920 10921 10922 10923 10924 10925
          10926 10927 10928 10929 10930 10931
          10932 10933 10934 10935 10936 10937
          10938 10939 10940 10941 10942 10943
          10944 10945 10946 10947 10948 10949
          10950 10951 10952 10953 10954 10955
          10956 10957 10958 10959 10960 10961
          10962 10963 10964 10965 10966 10967
          10968 10969 10970 10971 10972 10973
          10974 10975 10976 10977 10978 10979
          10980 10981 10982 10983 10984 10985
          10986 10987 10988 10989 10990 10991
          10992 10993 10994 10995 10996 10997
          10998 10999 11000 11001 11002 11003
          11004 11005 11006 11007 11008 11009
          11010 11011 11012 11013 11014 11015
          11016 11017 11018 11019 11020 11021
          11022 11023 11024 11025 11026 11027
          11028 11029 11030 11031 11032 11033
          11034 11035 11036 11037 11038 11039
          11040 11041 11042 11043 11044 11045
          11046 11047 11048 11049 11050 11051
          11052 11053 11054 11055 11056 11057
          11058 11059 11060 11061 11062 11063
          11064 11065 11066 11067 11068 11069
          11070 11071 11072 11073 11074 11075
          11076 11077 11078 11079 11080 11081
          11082 11083 11084 11085 11086 11087
          11098 11099 11100 11101 11102 11103
          11104 11112 11113 11114 11115 11116
          11117 11118 11119 11120 11121 11132
          11133 11134 11135 11136 11137 11138
          11243 11244 11245 11246 11247 11248
          11249 11250 11251 11252 11263 11264
          11265 11266 11267 11268 11269 11277
          11278 11279 11280 11281 11282 11283
          11284 11285 11286 11297 11298 11299
          11300 11301 11302 11303 11381 11382
          11383 11391 11392 11393 11394 11395
          11396 11397 198 200 201 199
          288 291 289 202 203 292
          293 316 315 379 406 405
          317 407 295 318 385 408
          799 800 803 809 378 653
          821 822 823 824 828 829
          692 698 865 866 867 868
          869 870 875 876 877 704
          879 781 880 948 949 952
          958 654 936 655 937 938
          941 468 944 661 691 1050
          1051 1052 1055 1056 1057 693
          1058 1059 694 1074 1075 1078
          1080 1081 1083 1221 1223 1082
          702 1365 1367 1384 1385 1388
          1504 1494 658 1505 1495 1506
          1507 469 1511 1502 1513 1514
          1515 1516 1520 699 1521 752
          1564 1558 559 1566 1562 1614
          1615 1618 1620 1660 1079 1661
          1664 1754 1756 1758 1768 1770
          1772 1831 2310 2311 2313 1220
          2316 2336 2337 2339 749 2342
          1226 2322 2352 2354 2356 750
          2434 2435 2437 1240 2440 1241
          2450 2452 2454 1243 2468 2469
          2471 558 2474 1246 2484 2486
          2488 755 701 1937 3119 3120
          3122 1364 3125 3152 3154 3137
          3167 3169 3661 3662 3665 3745
          3746 3747 3750 3899 3907 3909
          3911 3958 3960 3962 3972 3974
          3976
        </DataArray>
        <DataArray type="Float64" Name="bounds" format="ascii" RangeMin="0" RangeMax="0">
          0 0 0 0 0 0
          0 0 0 0 0 0
          0 0 0 0 0 0
          0 0 0 0 0 0
          0 0 0 0 0 0
          0 0 0 0 0 0
          0 0 0 0 0 0
          0 0 0 0 0 0
          0 0 0 0 0 0
          0 0 0 0 0 0
          0 0 0 0 0 0
          0 0 0 0 0 0
          0 0 0 0 0 0
          0 0 0 0 0 0
          0 0 0 0 0 0
          0 0 0 0 0 0
          0 0 0 0 0 0
          0 0 0 0 0 0
          0 0 0 0 0 0
          0 0 0 0 0 0
          0 0 0 0 0 0
          0 0 0 0 0 0
          0 0 0 0 0 0
          0 0 0 0 0 0
          0 0 0 0 0 0
          0 0 0 0 0 0
          0 0 0 0 0 0
          0 0 0 0 0 0
          0 0 0 0 0 0
          0 0 0 0 0 0
          0 0 0 0 0 0
          0 0 0 0 0 0
          0 0 0 0 0 0
          0 0 0 0 0 0
          0 0 0 0 0 0
          0 0 0 0 0 0
          0 0 0 0 0 0
          0 0 0 0 0 0
          0 0 0 0 0 0
          0 0 0 0 0 0
          0 0 0 0 0 0
          0 0 0 0 0 0
          0 0 0 0 0 0
          0 0 0 0 0 0
          0 0 0 0 0 0
          0 0 0 0 0 0
          0 0 0 0 0 0
          0 0 0 0 0 0
          0 0 0 0 0 0
          0 0 0 0 0 0
          0 0 0 0 0 0
          0 0 0 0 0 0
          0 0 0 0 0 0
          0 0 0 0 0 0
          0 0 0 0 0 0
          0 0 0 0 0 0
          0 0 0 0 0 0
          0 0 0 0 0 0
          0 0 0 0 0 0
          0 0 0 0 0 0
          0 0 0 0 0 0
          0 0 0 0 0 0
          0 0 0 0 0 0
          0 0 0 0 0 0
          0 0 0 0 0 0
          0 0 0 0 0 0
          0 0 0 0 0 0
          0 0 0 0 0 0
          0 0 0 0 0 0
          0 0 0 0 0 0
          0 0 0 0 0 0
          0 0 0 0 0 0
          0 0 0 0 0 0
          0 0 0 0 0 0
          0 0 0 0 0 0
          0 0 0 0 0 0
          0 0 0 0 0 0
          0 0 0 0 0 0
          0 0 0 0 0 0
          0 0 0 0 0 0
          0 0 0 0 0 0
          0 0 0 0 0 0
          0 0 0 0 0 0
          0 0 0 0 0 0
          0 0 0 0 0 0
          0 0 0 0 0 0
          0 0 0 0 0 0
          0 0 0 0 0 0
          0 0 0 0 0 0
          0 0 0 0 0 0
          0 0 0 0 0 0
          0 0 0 0 0 0
          0 0 0 0 0 0
          0 0 0 0 0 0
          0 0 0 0 0 0
          0 0 0 0 0 0
          0 0 0 0 0 0
          0 0 0 0 0 0
          0 0 0 0 0 0
          0 0 0 0 0 0
          0 0 0 0 0 0
          0 0 0 0 0 0
          0 0 0 0 0 0
          0 0 0 0 0 0
          0 0 0 0 0 0
          0 0 0 0 0 0
          0 0 0 0 0 0
          0 0 0 0 0 0
          0 0 0 0 0 0
          0 0 0 0 0 0
          0 0 0 0 0 0
          0 0 0 0 0 0
          0 0 0 0 0 0
          0 0 0 0 0 0
          0 0 0 0 0 0
          0 0 0 0 0 0
          0 0 0 0 0 0
          0 0 0 0 0 0
          0 0 0 0 0 0
          0 0 0 0 0 0
          0 0 0 0 0 0
          0 0 0 0 0 0
          0 0 0 0 0 0
          0 0 0 0 0 0
          0 0 0 0 0 0
          0 0 0 0 0 0
          0 0 0 0 0 0
          0 0 0 0 0 0
          0 0 0 0 0 0
          0 0 0 0 0 0
          0 0 0 0 0 0
          0 0 0 0 0 0
          0 0 0 0 0 0
          0 0 0 0 0 0
          0 0 0 0 0 0
          0 0 0 0 0 0
          0 0 0 0 0 0
          0 0 0 0 0 0
          0 0 0 0 0 0
          0 0 0 0 0 0
          0 0 0 0 0 0
          0 0 0 0 0 0
          0 0 0 0 0 0
          0 0 0 0 0 0
          0 0 0 0 0 0
          0 0 0 0 0 0
          0 0 0 0 0 0
          0 0 0 0 0 0
          0 0 0 0 0 0
          0 0 0 0 0 0
          0 0 0 0 0 0
          0 0 0 0 0 0
          0 0 0 0 0 0
          0 0 0 0 0 0
          0 0 0 0 0 0
          0 0 0 0 0 0
          0 0 0 0 0 0
          0 0 0 0 0 0
          0 0 0 0 0 0
          0 0 0 0 0 0
          0 0 0 0 0 0
          0 0 0 0 0 0
          0 0 0 0 0 0
          0 0 0 0 0 0
          0 0 0 0 0 0
          0 0 0 0 0 0
          0 0 0 0 0 0
          0 0 0 0 0 0
          0 0 0 0 0 0
          0 0 0 0 0 0
          0 0 0 0 0 0
          0 0 0 0 0 0
          0 0 0 0 0 0
          0 0 0 0 0 0
          0 0 0 0 0 0
          0 0 0 0 0 0
          0 0 0 0 0 0
          0 0 0 0 0 0
          0 0 0 0 0 0
          0 0 0 0 0 0
          0 0 0 0 0 0
          0 0 0 0 0 0
          0 0 0 0 0 0
          0 0 0 0 0 0
          0 0 0 0 0 0
          0 0 0 0 0 0
          0 0 0 0 0 0
          0 0 0 0 0 0
          0 0 0 0 0 0
          0 0 0 0 0 0
          0 0 0 0 0 0
          0 0 0 0 0 0
          0 0 0 0 0 0
          0 0 0 0 0 0
          0 0 0 0 0 0
          0 0 0 0 0 0
          0 0 0 0 0 0
          0 0 0 0 0 0
          0 0 0 0 0 0
          0 0 0 0 0 0
          0 0 0 0 0 0
          0 0 0 0 0 0
          0 0 0 0 0 0
          0 0 0 0 0 0
          0 0 0 0 0 0
          0 0 0 0 0 0
          0 0 0 0 0 0
          0 0 0 0 0 0
          0 0 0 0 0 0
          0 0 0 0 0 0
          0 0 0 0 0 0
          0 0 0 0 0 0
          0 0 0 0 0 0
          0 0 0 0 0 0
          0 0 0 0 0 0
          0 0 0 0 0 0
          0 0 0 0 0 0
          0 0 0 0 0 0
          0 0 0 0 0 0
          0 0 0 0 0 0
          0 0 0 0 0 0
          0 0 0 0 0 0
          0 0 0 0 0 0
          0 0 0 0 0 0
          0 0 0 0 0 0
          0 0 0 0 0 0
          0 0 0 0 0 0
          0 0 0 0 0 0
          0 0 0 0 0 0
          0 0 0 0 0 0
          0 0 0 0 0 0
          0 0 0 0 0 0
          0 0 0 0 0 0
          0 0 0 0 0 0
          0 0 0 0 0 0
          0 0 0 0 0 0
          0 0 0 0 0 0
          0 0 0 0 0 0
          0 0 0 0 0 0
          0 0 0 0 0 0
          0 0 0 0 0 0
          0 0 0 0 0 0
          0 0 0 0 0 0
          0 0 0 0 0 0
          0 0 0 0 0 0
          0 0 0 0 0 0
          0 0 0 0 0 0
          0 0 0 0 0 0
          0 0 0 0 0 0
          0 0 0 0 0 0
          0 0 0 0 0 0
          0 0 0 0 0 0
          0 0 0 0 0 0
          0 0 0 0 0 0
          0 0 0 0 0 0
          0 0 0 0 0 0
          0 0 0 0 0 0
          0 0 0 0 0 0
          0 0 0 0 0 0
          0 0 0 0 0 0
          0 0 0 0 0 0
          0 0 0 0 0 0
          0 0 0 0 0 0
          0 0 0 0 0 0
          0 0 0 0 0 0
          0 0 0 0 0 0
          0 0 0 0 0 0
          0 0 0 0 0 0
          0 0 0 0 0 0
          0 0 0 0 0 0
          0 0 0 0 0 0
          0 0 0 0 0 0
          0 0 0 0 0 0
          0 0 0 0 0 0
          0 0 0 0 0 0
          0 0 0 0 0 0
          0 0 0 0 0 0
          0 0 0 0 0 0
          0 0 0 0 0 0
          0 0 0 0 0 0
          0 0 0 0 0 0
          0 0 0 0 0 0
          0 0 0 0 0 0
          0 0 0 0 0 0
          0 0 0 0 0 0
          0 0 0 0 0 0
          0 0 0 0 0 0
          0 0 0 0 0 0
          0 0 0 0 0 0
          0 0 0 0 0 0
          0 0 0 0 0 0
          0 0 0 0 0 0
          0 0 0 0 0 0
          0 0 0 0 0 0
          0 0 0 0 0 0
          0 0 0 0 0 0
          0 0 0 0 0 0
          0 0 0 0 0 0
          0 0 0 0 0 0
          0 0 0 0 0 0
          0 0 0 0 0 0
          0 0 0 0 0 0
          0 0 0 0 0 0
          0 0 0 0 0 0
          0 0 0 0 0 0
          0 0 0 0 0 0
          0 0 0 0 0 0
          0 0 0 0 0 0
          0 0 0 0 0 0
          0 0 0 0 0 0
          0 0 0 0 0 0
          0 0 0 0 0 0
          0 0 0 0 0 0
          0 0 0 0 0 0
          0 0 0 0 0 0
          0 0 0 0 0 0
          0 0 0 0 0 0
          0 0 0 0 0 0
          0 0 0 0 0 0
          0 0 0 0 0 0
          0 0 0 0 0 0
          0 0 0 0 0 0
          0 0 0 0 0 0
          0 0 0 0 0 0
          0 0 0 0 0 0
          0 0 0 0 0 0
          0 0 0 0 0 0
          0 0 0 0 0 0
          0 0 0 0 0 0
          0 0 0 0 0 0
          0 0 0 0 0 0
          0 0 0 0 0 0
          0 0 0 0 0 0
          0 0 0 0 0 0
          0 0 0 0 0 0
          0 0 0 0 0 0
          0 0 0 0 0 0
          0 0 0 0 0 0
          0 0 0 0 0 0
          0 0 0 0 0 0
          0 0 0 0 0 0
          0 0 0 0 0 0
          0 0 0 0 0 0
          0 0 0 0 0 0
          0 0 0 0 0 0
          0 0 0 0 0 0
          0 0 0 0 0 0
          0 0 0 0 0 0
          0 0 0 0 0 0
          0 0 0 0 0 0
          0 0 0 0 0 0
          0 0 0 0 0 0
          0 0 0 0 0 0
          0 0 0 0 0 0
          0 0 0 0 0 0
          0 0 0 0 0 0
          0 0 0 0 0 0
          0 0 0 0 0 0
          0 0 0 0 0 0
          0 0 0 0 0 0
          0 0 0 0 0 0
          0 0 0 0 0 0
          0 0 0 0 0 0
          0 0 0 0 0 0
          0 0 0 0 0 0
          0 0 0 0 0 0
          0 0 0 0 0 0
          0 0 0 0 0 0
          0 0 0 0 0 0
          0 0 0 0 0 0
          0 0 0 0 0 0
          0 0 0 0 0 0
          0 0 0 0 0 0
          0 0 0 0 0 0
          0 0 0 0 0 0
          0 0 0 0 0 0
          0 0 0 0 0 0
          0
        </DataArray>
        <DataArray type="Float64" Name="gradient_error" format="ascii" RangeMin="5.776946334173035e-12" RangeMax="7.162681442283769e-7">
          1.5981874567149815e-10 1.5939284499320722e-9 9.858864657419536e-10 4.3088280384993233e-10 1.4184664105591493e-10 4.0730502142362373e-7
          5.991078394718025e-8 3.8218662210750943e-7 8.41491657173421e-9 1.8916530574451603e-7 3.132300284200543e-7 3.7657618682733394e-8
          4.1328791473547e-9 3.042479722184755e-9 1.205035693695421e-7 6.373700589112002e-8 1.0516501583311975e-9 9.514027920035652e-8
          4.596034340917059e-8 2.3343633241422824e-9 1.8151968550477252e-8 9.092774342056097e-9 4.133892504346063e-7 3.426520923283454e-7
          2.8865425247528374e-7 1.1429744165188131e-7 8.204433727772466e-10 4.833814073721397e-10 7.001377010003902e-8 2.980894650056531e-8
          1.925940290357626e-10 4.701633867740495e-8 1.6758797880568976e-8 4.4281768300154364e-10 3.918932177554094e-9 1.4482444128030857e-9
          3.951128652225957e-7 2.2003018943487128e-7 1.354357324521556e-7 2.535365294647276e-8 2.658244632248509e-7 2.3540705516899332e-7
          3.2290016052647525e-7 3.33991775308015e-7 3.532119149687414e-7 2.0243023359248236e-7 1.2548140129960734e-7 3.334337840220258e-7
          3.7231845461288773e-7 5.080621322662953e-7 4.093785794591982e-7 3.8282301832482504e-7 3.318550084856764e-7 9.085565292926887e-8
          2.376663244749182e-8 8.042349267407823e-10 3.9137301782476543e-7 5.105514751855353e-7 1.5251527262372957e-7 1.4104815409775513e-7
          5.264895438572514e-10 4.784708926219031e-10 1.6841133309814296e-9 1.380576701598864e-9 1.189201177155207e-10 8.77857249539347e-11
          2.1831983233430224e-10 4.3045224138655473e-10 1.0906336533421278e-9 3.361498386675317e-10 3.6489480270704955e-11 3.581287018906408e-11
          2.2471326630754644e-11 8.540293272720955e-11 1.455717684532054e-11 1.0975429421844347e-11 3.251180423789482e-11 3.513626010742319e-11
          1.388522762890964e-10 5.29030399629802e-11 6.9128516345750795e-9 7.17865211270547e-9 2.708078828251127e-8 2.370660627685786e-8
          3.408946406108722e-9 2.2475966504902246e-8 1.953645227030555e-8 6.945308299191159e-9 1.5903467135899862e-8 1.269635522564572e-8
          1.32872508357341e-7 1.1510433155660661e-7 1.0345780102071604e-7 7.247133776631631e-8 2.1737481411245544e-9 1.9237730922841395e-9
          1.827637474398485e-8 1.577582793880518e-8 1.3971155918489933e-9 1.4494853375072733e-8 1.2429543401916218e-8 1.7248883077822224e-9
          9.991145693175454e-9 7.703055767273887e-9 1.0787311022994298e-7 9.165408473016619e-8 7.991061292514385e-8 5.472916580955251e-8
          4.4554269334618933e-7 3.886125373289803e-7 4.34090930715444e-7 3.7554384456612083e-7 2.4767591038376807e-7 2.306455821061771e-7
          4.1370138404444376e-7 4.861793058641015e-7 3.588816116074518e-7 4.881149035677051e-7 4.203677048928879e-7 3.5973511320250136e-7
          4.0437308966510763e-7 3.4105154353996205e-7 2.1172145588428088e-7 1.9092150966222408e-7 4.112549794194492e-7 3.524704715717138e-7
          3.4336603171370926e-7 3.176188588816819e-7 1.146356096438525e-9 9.930286272242026e-10 1.120523093293912e-8 9.547945493240755e-9
          6.952188290051462e-10 8.441053530858298e-9 7.146018650325173e-9 8.405162882555853e-10 5.776881919656387e-9 4.203814757866104e-9
          8.243886691143446e-8 6.828209359810567e-8 5.70096379469597e-8 3.7600593808370565e-8 5.948682290807757e-10 4.811311755061455e-10
          6.232788341630514e-9 5.229004155623599e-9 3.361886866016689e-10 4.609693947500828e-9 3.744998423896908e-9 3.5775034611112273e-10
          2.9628108624412082e-9 1.9649481046709993e-9 5.8123817250631037e-8 4.6352808319618516e-8 3.672622490649613e-8 2.27472308241265e-8
          3.8649711164427256e-7 3.202064809168216e-7 3.6709634578232437e-7 2.9717763987516485e-7 1.6874718311343113e-7 1.453652106446566e-7
          4.018562535313203e-7 3.319636267008099e-7 3.179377937063657e-7 2.5639237119687736e-7 3.469436314228959e-7 2.7201218241203387e-7
          3.277902755590004e-7 2.447635190818525e-7 1.208746069905811e-7 9.486915115271925e-8 3.878494542054603e-7 3.010058220643997e-7
          2.807790220336339e-7 1.7960528671451798e-7 2.9215386041949214e-10 2.3688051014497567e-10 3.669831911150726e-9 2.709175423226539e-9
          1.5703197297727626e-10 1.1716320675666891e-9 2.167089592186057e-7 3.213392742949239e-7 2.2986086923951908e-7 2.1829543686763965e-7
          3.8635175883485795e-7 2.5779575509025374e-7 2.437783633151406e-7 2.7739526838412105e-7 3.029886110489857e-7 2.2794236791631296e-7
          2.446908906540609e-7 2.3066939889195955e-7 2.614146948112409e-7 2.4370385735751896e-7 2.450868352112964e-7 3.272628907453831e-7
          2.9183489522183757e-7 3.3308123952218317e-7 3.6827606791356774e-7 2.399387852082553e-7 1.7764496630615125e-7 2.963817449389811e-7
          1.998543680574942e-7 3.338380463532334e-7 2.8992932368851426e-7 3.0687892014685127e-7 1.0727773047340461e-7 2.9194710654145856e-7
          3.3394071765732466e-7 3.124893945280136e-7 2.280721118223721e-7 3.7963560531904647e-7 2.65297060845841e-7 4.3599125115942067e-7
          3.230971441891378e-7 3.372055693636594e-7 1.507102536598677e-7 3.867726990649331e-7 4.5384773332541453e-7 3.539383500584764e-7
          2.806723381808074e-7 2.5784438123857667e-7 3.032860796264386e-7 2.7294509159627784e-7 3.9526895959846303e-7 3.4402869196807026e-7
          3.6093806584584045e-7 4.1077251435998146e-7 4.626637783868184e-7 4.157825879636705e-7 3.31241865986258e-7 2.8846847909612863e-7
          3.6710424310124154e-7 3.019979554508124e-7 2.8000978191223006e-7 2.0859700597351915e-7 4.767778314483111e-7 5.266322234889517e-7