<?xml version="1.0"?>
<VTKFile type="UnstructuredGrid" version="0.1" byte_order="LittleEndian" header_type="UInt32" compressor="vtkZLibDataCompressor">
  <UnstructuredGrid>
    <Piece NumberOfPoints="1013" NumberOfCells="565">
      <PointData>
        <DataArray type="Int32" Name="libmesh_node_id" format="ascii" RangeMin="130" RangeMax="3432">
          130 131 170 171 185 210
          211 212 225 235 250 251
          253 265 275 299 300 301
          302 303 304 305 306 307
          308 309 310 311 312 313
          314 315 316 317 318 319
          320 321 322 324 325 326
          341 342 345 346 348 349
          350 352 354 355 356 357
          358 360 362 363 408 409
          412 413 415 416 417 418
          419 421 422 423 424 425
          426 427 428 429 430 431
          432 433 434 435 436 437
          438 439 440 441 442 443
          444 445 446 447 448 449
          450 451 452 453 454 455
          456 457 458 459 460 461
          462 463 464 465 466 467
          468 469 470 471 472 473
          474 475 476 477 478 479
          480 481 482 483 485 486
          487 488 489 492 493 494
          495 497 502 503 507 545
          580 582 584 585 589 590
          592 594 595 598 599 601
          603 638 640 642 643 647
          648 650 652 653 654 655
          656 657 658 659 660 661
          662 663 664 665 666 667
          668 669 670 671 672 673
          674 675 676 677 678 679
          680 681 682 683 684 685
          686 687 688 689 690 691
          692 693 694 695 696 697
          698 703 704 708 719 721
          723 725 733 734 735 736
          737 738 739 740 741 742
          743 744 745 746 747 748
          749 750 751 752 753 754
          755 756 757 758 764 845
          846 847 851 854 856 857
          858 859 860 861 862 863
          864 865 866 867 868 869
          870 871 872 873 874 875
          876 877 878 879 880 881
          882 883 884 885 886 887
          888 889 890 891 892 893
          894 895 896 897 900 901
          903 906 908 909 910 911
          912 913 914 915 916 917
          918 919 920 921 922 923
          924 925 926 927 928 929
          930 931 934 935 937 940
          942 943 944 945 946 947
          948 949 950 951 956 960
          963 965 966 967 968 969
          970 971 972 973 974 975
          976 977 978 979 980 981
          982 983 984 985 986 987
          988 989 990 991 992 993
          994 995 996 997 998 999
          1000 1001 1002 1003 1004 1005
          1006 1007 1008 1009 1010 1011
          1012 1013 1014 1015 1016 1017
          1018 1019 1020 1021 1022 1023
          1024 1025 1026 1027 1028 1029
          1030 1031 1032 1033 1034 1035
          1036 1037 1038 1039 1040 1041
          1042 1043 1044 1045 1046 1047
          1048 1049 1050 1051 1052 1053
          1054 1055 1056 1057 1058 1059
          1060 1061 1062 1063 1064 1065
          1066 1067 1068 1069 1070 1071
          1072 1073 1074 1075 1076 1077
          1078 1079 1080 1081 1082 1083
          1084 1085 1086 1087 1088 1089
          1090 1091 1092 1093 1094 1095
          1096 1097 1098 1099 1100 1104
          1105 1106 1107 1108 1109 1110
          1113 1114 1115 1116 1117 1118
          1119 1120 1121 1122 1123 1124
          1125 1126 1127 1128 1129 1130
          1131 1132 1133 1134 1135 1138
          1140 1144 1145 1146 1147 1148
          1149 1150 1151 1152 1153 1154
          1155 1157 1158 1159 1160 1161
          1162 1163 1164 1165 1166 1167
          1168 1174 1175 1177 1178 1179
          1180 1181 1182 1183 1184 1185
          1187 1188 1189 1191 1207 1212
          1213 1214 1215 1218 1219 1220
          1221 1222 1224 1225 1248 1249
          1252 1254 1255 1256 1258 1259
          1312 1313 1406 1408 1410 1412
          1510 1512 1513 1517 1518 1519
          1520 1521 1522 1523 1524 1525
          1526 1527 1528 1529 1530 1531
          1582 1583 1584 1585 1586 1587
          1588 1589 1590 1591 1592 1593
          1594 1595 1596 1597 1598 1599
          1600 1601 1602 1678 1679 1680
          1681 1684 1690 1691 1695 1696
          1697 1698 1699 1701 1703 1705
          1706 1707 1708 1709 1710 1716
          1717 1718 1719 1720 1721 1722
          1723 1724 1725 1726 1727 1728
          1729 1730 1731 1732 1733 1734
          1735 1736 1737 1738 1739 1740
          1741 1742 1743 1744 1745 1746
          1747 1748 1749 1750 1751 1762
          1763 1764 1770 1771 1772 1773
          1774 1775 1776 1777 1778 1779
          1790 1791 1792 1793 1794 1795
          1796 2967 2968 2969 2970 2971
          2972 2973 2974 2975 2976 2977
          2978 2979 2980 2981 2982 2983
          2984 2985 2986 2987 2988 2989
          2990 2991 2992 2993 2994 2995
          2996 3243 3244 3245 3246 3247
          3248 3249 3250 3251 3252 3253
          3254 3255 3256 3257 3258 3259
          3260 3261 3262 3263 3264 3265
          3266 3267 3268 3269 3270 3271
          3272 3273 3274 3275 3276 3277
          3278 3279 3280 3282 3288 3289
          3292 3294 3295 3297 3308 3310
          3316 3317 3318 3319 3320 3321
          3322 3323 3324 3325 3326 3327
          3328 3329 3330 3331 3332 3333
          3334 3335 3336 3337 3338 3339
          3340 3341 3342 3343 3344 3345
          3346 3347 3348 3349 3350 3351
          3352 3353 3354 3355 3356 3357
          3358 3359 3360 3361 3362 3363
          3364 3365 3366 3367 3368 3369
          3370 3371 3372 3373 3376 3378
          3379 3381 3392 3394 3396 3398
          3406 3407 3410 3412 3413 3415
          3426 3428 3430 3432 132 133
          172 173 186 213 226 236
          266 276 359 361 364 365
          366 367 368 373 328 334
          509 515 511 516 596 597
          600 602 604 335 605 340
          611 699 700 701 702 705
          521 706 707 540 720 722
          724 759 760 761 762 763
          765 766 508 1101 1102 484
          1103 1111 1112 1136 1137 1139
          1141 490 1142 1143 491 1156
          1169 1172 1173 1186 496 1190
          1192 1193 1196 1195 1197 1203
          1206 1201 1216 499 1217 1211
          1223 1246 1247 1250 1251 1253
          1257 1260 1261 1262 1263 1267
          1268 1270 1271 1273 1288 1289
          1292 1294 1295 1297 1308 1309
          1310 1311 1314 1315 1317 1316
          1356 1372 1374 1376 1378 1682
          1686 1683 1687 1688 1689 1692
          1685 1693 1694 1700 1702 1704
          1711 1712 1752 1753 1714 1756
          1759 1761 1767 1784 1797 1769
          1799 1789 1801 1803 3281 3290
          3291 3293 1758 3296 3374 3375
          3377 1780 3380 1781 3309 3393
          3395 3397 3408 3409 3411 1786
          3414 1787 3427 3429 3431
        </DataArray>
        <DataArray type="Float64" Name="bounds" format="ascii" RangeMin="0" RangeMax="0">
          0 0 0 0 0 0
          0 0 0 0 0 0
          0 0 0 0 0 0
          0 0 0 0 0 0
          0 0 0 0 0 0
          0 0 0 0 0 0
          0 0 0 0 0 0
          0 0 0 0 0 0
          0 0 0 0 0 0
          0 0 0 0 0 0
          0 0 0 0 0 0
          0 0 0 0 0 0
          0 0 0 0 0 0
          0 0 0 0 0 0
          0 0 0 0 0 0
          0 0 0 0 0 0
          0 0 0 0 0 0
          0 0 0 0 0 0
          0 0 0 0 0 0
          0 0 0 0 0 0
          0 0 0 0 0 0
          0 0 0 0 0 0
          0 0 0 0 0 0
          0 0 0 0 0 0
          0 0 0 0 0 0
          0 0 0 0 0 0
          0 0 0 0 0 0
          0 0 0 0 0 0
          0 0 0 0 0 0
          0 0 0 0 0 0
          0 0 0 0 0 0
          0 0 0 0 0 0
          0 0 0 0 0 0
          0 0 0 0 0 0
          0 0 0 0 0 0
          0 0 0 0 0 0
          0 0 0 0 0 0
          0 0 0 0 0 0
          0 0 0 0 0 0
          0 0 0 0 0 0
          0 0 0 0 0 0
          0 0 0 0 0 0
          0 0 0 0 0 0
          0 0 0 0 0 0
          0 0 0 0 0 0
          0 0 0 0 0 0
          0 0 0 0 0 0
          0 0 0 0 0 0
          0 0 0 0 0 0
          0 0 0 0 0 0
          0 0 0 0 0 0
          0 0 0 0 0 0
          0 0 0 0 0 0
          0 0 0 0 0 0
          0 0 0 0 0 0
          0 0 0 0 0 0
          0 0 0 0 0 0
          0 0 0 0 0 0
          0 0 0 0 0 0
          0 0 0 0 0 0
          0 0 0 0 0 0
          0 0 0 0 0 0
          0 0 0 0 0 0
          0 0 0 0 0 0
          0 0 0 0 0 0
          0 0 0 0 0 0
          0 0 0 0 0 0
          0 0 0 0 0 0
          0 0 0 0 0 0
          0 0 0 0 0 0
          0 0 0 0 0 0
          0 0 0 0 0 0
          0 0 0 0 0 0
          0 0 0 0 0 0
          0 0 0 0 0 0
          0 0 0 0 0 0
          0 0 0 0 0 0
          0 0 0 0 0 0
          0 0 0 0 0 0
          0 0 0 0 0 0
          0 0 0 0 0 0
          0 0 0 0 0 0
          0 0 0 0 0 0
          0 0 0 0 0 0
          0 0 0 0 0 0
          0 0 0 0 0 0
          0 0 0 0 0 0
          0 0 0 0 0 0
          0 0 0 0 0 0
          0 0 0 0 0 0
          0 0 0 0 0 0
          0 0 0 0 0 0
          0 0 0 0 0 0
          0 0 0 0 0 0
          0 0 0 0 0 0
          0 0 0 0 0 0
          0 0 0 0 0 0
          0 0 0 0 0 0
          0 0 0 0 0 0
          0 0 0 0 0 0
          0 0 0 0 0 0
          0 0 0 0 0 0
          0 0 0 0 0 0
          0 0 0 0 0 0
          0 0 0 0 0 0
          0 0 0 0 0 0
          0 0 0 0 0 0
          0 0 0 0 0 0
          0 0 0 0 0 0
          0 0 0 0 0 0
          0 0 0 0 0 0
          0 0 0 0 0 0
          0 0 0 0 0 0
          0 0 0 0 0 0
          0 0 0 0 0 0
          0 0 0 0 0 0
          0 0 0 0 0 0
          0 0 0 0 0 0
          0 0 0 0 0 0
          0 0 0 0 0 0
          0 0 0 0 0 0
          0 0 0 0 0 0
          0 0 0 0 0 0
          0 0 0 0 0 0
          0 0 0 0 0 0
          0 0 0 0 0 0
          0 0 0 0 0 0
          0 0 0 0 0 0
          0 0 0 0 0 0
          0 0 0 0 0 0
          0 0 0 0 0 0
          0 0 0 0 0 0
          0 0 0 0 0 0
          0 0 0 0 0 0
          0 0 0 0 0 0
          0 0 0 0 0 0
          0 0 0 0 0 0
          0 0 0 0 0 0
          0 0 0 0 0 0
          0 0 0 0 0 0
          0 0 0 0 0 0
          0 0 0 0 0 0
          0 0 0 0 0 0
          0 0 0 0 0 0
          0 0 0 0 0 0
          0 0 0 0 0 0
          0 0 0 0 0 0
          0 0 0 0 0 0
          0 0 0 0 0 0
          0 0 0 0 0 0
          0 0 0 0 0 0
          0 0 0 0 0 0
          0 0 0 0 0 0
          0 0 0 0 0 0
          0 0 0 0 0 0
          0 0 0 0 0 0
          0 0 0 0 0 0
          0 0 0 0 0 0
          0 0 0 0 0 0
          0 0 0 0 0 0
          0 0 0 0 0 0
          0 0 0 0 0 0
          0 0 0 0 0 0
          0 0 0 0 0 0
          0 0 0 0 0 0
          0 0 0 0 0 0
          0 0 0 0 0 0
          0 0 0 0 0 0
          0 0 0 0 0
        </DataArray>
        <DataArray type="Float64" Name="gradient_error" format="ascii" RangeMin="6.070269819736256e-11" RangeMax="7.936921250254508e-7">
          2.9537009123062597e-9 2.450306221465977e-9 3.732035450053416e-9 6.20965864059898e-9 5.435846404799312e-9 1.2818848461272663e-7
          1.5394586083169133e-8 1.550624876396427e-8 5.793134322206251e-9 3.3462007294034006e-9 2.837520722440656e-7 6.749049024144225e-8
          4.58821526571451e-9 3.3835342857482475e-9 3.737621314574497e-9 1.974467589268909e-7 9.390334891083508e-8 2.779407106374111e-7
          3.700826875568027e-7 4.9783614149555876e-8 3.3175226720725065e-7 3.618914089295943e-7 2.7353602377424418e-8 8.129499800533113e-8
          3.224876921904319e-8 1.6388687407248297e-7 5.317175621996196e-7 2.816009607726063e-7 1.4742642468306806e-7 6.490289276640674e-8
          1.9452423524004922e-8 3.907929802725326e-7 2.810411104219836e-7 5.313222896380596e-9 4.249159580921827e-7 8.197742208143466e-8
          5.222264220347684e-9 1.0331354006535445e-8 3.860003653929505e-9 4.7348349726851946e-7 1.6629557164586426e-7 1.0546787155758635e-8
          1.3068658971019074e-8 9.312203516123422e-9 8.904085301802654e-9 1.3927504995845388e-8 2.7257491625354583e-9 1.8320371801868724e-9
          7.705653080385367e-9 1.8472518679321778e-8 1.2732146487444771e-8 7.28159953504936e-10 7.964116698835751e-10 7.332353008199073e-10
          2.4690365360704304e-9 2.4800178250303586e-10 8.646633862622142e-10 4.192841545747652e-9 2.27526866794266e-7 1.9244806573444747e-7
          2.7875481476396254e-7 2.33912731766409e-7 1.6285454019525505e-7 2.5463890713194827e-7 2.0793543907887162e-7 1.521754650961158e-7
          2.1571565697146748e-7 1.8398924285484015e-7 2.548519313108579e-7 2.2369246343122252e-7 2.3705047981121847e-7 3.869028298440097e-7
          1.6329164423556268e-7 1.3047154953360737e-7 2.2460404748933244e-7 1.7904789847739518e-7 9.762335679676225e-8 1.8894908686726706e-7
          2.3346508529223626e-7 8.53305922767692e-8 1.4766117340039113e-7 1.9942060078546178e-7 3.035146562937177e-7 2.4773407857230584e-7
          3.3284565131063135e-7 3.2928074131999913e-7 2.6174046880912655e-7 3.096468004134764e-7 3.0689178870412784e-7 3.54953100220008e-7
          6.708675245314085e-7 5.26814496358374e-7 1.3377921022274904e-7 3.051486189466716e-7 3.609468855561769e-7 7.936921250254508e-7
          3.66976112551556e-7 4.1168713895094165e-7 4.489400839861615e-7 4.817907710787465e-7 3.7376206561923133e-7 3.426597391232057e-7
          2.0876689844987887e-7 4.3627693046228773e-7 5.370414310502544e-7 2.8064363599572197e-7 9.48177659998648e-8 6.854557213912052e-8
          1.501832557169463e-7 2.7121661923537413e-7 4.489524359986305e-8 1.1031811863679241e-7 2.078387893899309e-7 3.8052624078007806e-8
          2.4113500551098876e-7 1.8123631188398935e-7 3.6200790434985475e-7 4.0360538645546724e-7 3.696033997099282e-7 3.747554001453036e-7
          3.979913230940061e-8 2.6388980537780724e-8 7.235701243726467e-8 1.40937293985347e-7 1.066713994946825e-8 3.593220324571311e-8
          6.078775736954845e-8 1.300315363446522e-8 1.2066728747577636e-7 4.9868388864719907e-8 3.1323733071664114e-7 2.1493120648889393e-7
          1.8324191988856897e-7 4.352228855216272e-7 5.67382309332447e-7 3.7022425077495934e-7 3.5945649920888137e-7 2.677629323497739e-9
          5.055385866985317e-7 4.079408100243929e-7 2.3515098732276632e-7 1.1948053809160031e-7 3.202129717688989e-7 4.802896734413682e-8
          1.501834631365836e-8 2.984373908279241e-8 8.115305048892164e-9 1.1169138641982722e-8 2.462907294312942e-9 4.466913185192646e-8
          1.4222972235073277e-8 2.962445644596388e-9 4.226160729185219e-9 6.013078302850526e-10 1.002197785070762e-9 5.48987581377405e-9
          1.4030877398564714e-9 3.976612509519283e-7 6.60696746656576e-7 3.489193965875627e-7 4.737666183116419e-7 1.8157203547016933e-7
          7.754107544450534e-7 4.6048850723128875e-7 2.90885213272385e-7 2.7774294042723576e-7 2.2958360877320506e-7 2.1972241588529936e-7
          7.219715671583436e-8 1.318346758463779e-7 8.402002195800554e-8 1.354540047872616e-7 1.0072484012904767e-7 1.6620665543894485e-7
          1.7629171535448625e-8 2.60229771072967e-8 5.026135779249221e-8 7.384828207176298e-8 1.1667837510525061e-8 3.107294576242182e-8
          5.647227393626324e-9 1.2566219645505292e-8 2.0306460286820144e-8 7.2859592689320955e-9 1.6909043183238535e-7 1.1267253781290939e-7
          2.4949534243993762e-8 7.149823911029562e-9 1.6754412893340088e-8 3.798197241305145e-9 7.885529785585573e-9 1.2478444509851432e-9
          4.156947182783797e-9 2.2545164426801653e-9 6.503027382814843e-8 3.135398159952507e-8 7.62319255758215e-9 2.3586448942803333e-7
          2.3359491873614476e-7 3.8627452688231545e-8 1.3096175031203059e-8 2.1904973126715072e-7 2.923228158607893e-7 4.684104878585982e-8
          1.416604307017834e-7 7.016256868360026e-8 6.566106492225212e-9 4.823232720992542e-9 1.796193156229205e-7 8.959003649801636e-8
          4.951877783868573e-9 2.7447079361328165e-10 1.0352866361703922e-9 2.5117553040776565e-9 2.24052914011249e-8 3.5108308492038e-9
          2.8783480759252386e-8 3.7942535689797895e-9 8.049262210010355e-10 1.1183081692459198e-9 1.7078027581733759e-9 6.0441151347096074e-9
          3.90471719800137e-9 3.8820886535105535e-9 5.885987525534019e-9 7.503068737081793e-10 2.9614856983954435e-9 2.7046343026052323e-9
          1.431690117490804e-9 3.859460109019737e-9 5.72785991635843e-9 2.4477829068150204e-9 5.979127502368354e-10 5.052053300537833e-10
          2.28871027283008e-9 1.9695769435287733e-9 2.9221358420686217e-10 1.2932811379474597e-9 1.1293602894408503e-9 4.124979098707313e-10
          1.6504436142274675e-9 9.654394409342409e-10 1.4991157533338448e-10 1.3320582948943759e-10 1.1650008364549066e-10 1.4028838627440063e-7
          1.856041320177238e-7 1.7768894622823286e-7 1.5375251490180517e-7 2.4775025044205976e-7 1.469231642989501e-7 1.393611897225063e-7
          1.889269568495621e-7 1.8016510913093128e-7 1.384315503073462e-7 1.9186871243432257e-7 1.8230534740255633e-7 1.1705562389506408e-7
          1.5440609551117159e-7 1.5455998093972697e-7 2.6610422594706945e-7 2.5799961107780524e-7 2.684753440498579e-7 2.3063130557193779e-7
          1.4468123515593763e-7 1.3700159907123748e-7 1.9432873189602623e-7 1.83835611472613e-7 1.3515362892175904e-7 1.961394487865164e-7
          1.845775365448391e-7 1.1402939805306255e-7 1.538686950232601e-7 1.5213964419649978e-7 2.9039380021997887e-7 2.7924535693123454e-7
          2.902998141725969e-7 2.4291134635998583e-7 1.3817567383702563e-7 1.3307660722301281e-7 1.9720507249448616e-7 1.84323493224694e-7
          1.2976950801020642e-7 1.9726418355003814e-7 1.8288506495820478e-7 1.1435256524098744e-7 1.4897349308126731e-7 1.535422832919576e-7
          3.1732110411203183e-7 3.017423317501535e-7 3.135082851313321e-7 2.5085792763006017e-7 2.8957769487971797e-7 2.912507355198635e-7
          2.818215939443975e-7 2.835379602466279e-7 3.083506174789394e-7 3.0937911032886587e-7 3.292620287891216e-7 3.294904406965446e-7
          2.965127919002956e-7 3.1239186375682737e-7 2.8276486984950947e-7 3.0586661939126685e-7 3.314107819496183e-7 3.3099788480187957e-7
          1.8275761609342812e-7 1.8088701552422874e-7 2.5039184396349693e-7 2.4307638826625555e-7 1.843088182004581e-7 2.5842058543981096e-7
          1.5414761725152172e-7 2.1816570730519502e-7 2.154333648037251e-7 2.2177629596993475e-7 3.028998819818845e-7 2.8870527971171506e-7
          3.1760047187342655e-7 2.727723632930344e-7 1.81820382588553e-7 2.3400548580104027e-7 3.0982787510255206e-7 2.0302552744649728e-7
          1.9880254273484636e-7 2.555477974534542e-7 2.1873150659094803e-7 2.8069945552261165e-7 3.3473938727195517e-7 3.6332162543421934e-7
          1.474988782345878e-7 2.230903831658522e-7 2.467866849371267e-7 3.310025447241462e-7 3.153499616692185e-7 2.972347621468604e-7
          3.230888304471161e-7 3.342360437441333e-7 3.53237735698735e-7 3.112863651164183e-7 2.7292556759706877e-7 3.433743194980455e-7
          3.6384266372167846e-7 3.234254376449151e-7 3.5260500479841316e-7 3.518743077153922e-7 3.786492196272327e-7 3.7691784141711435e-7
          3.295035313762493e-7 3.479994008114274e-7 3.3471364962174136e-7 3.607435150506119e-7 3.945394872097327e-7 3.817785337942228e-7
          4.0759674538449003e-7 4.051383511617188e-7 4.398800526532476e-7 4.3643646572008446e-7 3.6827009747485825e-7 3.8960435155449736e-7
          4.0464866151744345e-7 4.335310970452587e-7 4.787302035276485e-7 4.4493506029924937e-7 1.8470593612782102e-7 2.664722540140974e-7
          1.83685698952099e-7 2.7400861567610774e-7 1.5168609317816043e-7 2.2508105590806762e-7 2.272048929363568e-7 3.3295195509166365e-7
          3.4913460609029835e-7 2.4682473126422705e-7 1.8071646838824697e-7 2.805427778230535e-7 1.9635474265664607e-7 2.853364300301615e-7
          1.4588064090464863e-7 2.27225317635338e-7 2.244570357382497e-7 3.651911548425354e-7 3.8047200971933066e-7 2.537547282890495e-7
          2.424406240249596e-7 3.1029417330748975e-7 2.711510024893555e-7 3.455519211328576e-7 3.9627314573215264e-7 4.33991953624358e-7
          1.838525865994199e-7 2.750288419560599e-7 3.0926236650320376e-7 3.958815859018439e-7 3.0673992454935354e-7 3.8811485331608017e-7
          3.517985283688919e-7 4.4003920088732845e-7 4.772385044971028e-7 5.267035613619146e-7 2.4096827976068326e-7 3.5152993059114894e-7
          4.044749778030678e-7 4.830256490068502e-7 3.727772188151916e-7 3.949251342267441e-7 2.558091366813037e-7 2.632424018381557e-7
          3.8483526502801326e-7 4.0913804932402455e-7 2.7140175856705206e-7 4.1913823830151344e-7 4.4424218928990884e-7 2.6490262782388803e-7
          2.624305376693901e-7 4.3656343066159455e-7 4.65720331773901e-7 2.83393207547771e-7 1.077211259859928e-7 1.0557388942621799e-7
          1.1567195528046825e-7 9.376188112042968e-8 1.034266528664432e-7 1.2600824532441694e-7 1.2391326473143776e-7 1.9582233649801833e-7
          1.8009221704517623e-7 1.9259760788398203e-7 1.7570560064748273e-7 1.2181828413845858e-7 1.6436209759233417e-7 1.588135934109834e-7
          3.4679932731089715e-7 3.251392046926512e-7 3.363766585923974e-7 2.9725233198053426e-7 1.8743888523391426e-7 1.6943233347919194e-7
          1.7990288311532808e-7 1.6085963685174695e-7 1.5142578172446958e-7 1.4181639058816588e-7 3.766780667226738e-7 3.468735095476576e-7
          3.559785295944078e-7 3.037789799481167e-7 8.412622042479774e-8 1.0410233676978942e-7 8.45897163964489e-8 2.2907770576419384e-7
          2.223773272370316e-7 1.7335657973559554e-7 2.1257007067810278e-7 1.9840899318964902e-7 1.4794110625713832e-7 8.295543293928976e-8
          8.060416672750754e-8 6.66301472369245e-8 7.825290051572531e-8 2.669220551005702e-9 4.7257302327217096e-9 3.726607094942215e-9
          2.7274839571627193e-9 5.50311981674038e-8 5.248143691445315e-8 2.7569937260640334e-8 4.993167566150249e-8 1.6937409299749483e-7
          1.4960244384914972e-7 1.5557906343735253e-7 1.3545365914992435e-7 1.298307947008046e-7 1.1532825486249618e-7 2.971046008838074e-7
          1.3886339876324226e-7 1.1862839307190176e-7 1.198447364877249e-7 9.990166395776597e-8 9.839338738056126e-8 6.364620778165182e-8
          3.4798289512890326e-7 2.6145387770578934e-7 1.792202864226484e-7 1.547624262191697e-7 1.097544136829509e-7 1.5993886832473785e-8
          2.3533160006357473e-8 1.6044879523373522e-8 1.251173594528056e-7 7.210528808425243e-8 6.453969615196453e-8 4.762057186724878e-7
          4.703216330325097e-7 5.187729643374416e-7 5.085010450126777e-7 4.104838545062189e-7 4.31277848048636e-7 5.003470556356616e-7
          5.311977097816816e-7 5.293774264784329e-7 5.226152202992504e-7 5.693946375041882e-7 5.525690835267429e-7 4.522562197235813e-7
          3.668631399137692e-7 2.8734721553170047e-7 2.860615403643843e-7 2.1816426944349472e-7 2.0779651031941024e-7 3.948387620536253e-7
          4.064982372916632e-7 2.449526078532947e-7 2.8083676401930524e-7 2.7012041872685546e-7 1.9290461814074517e-7 1.7303428989836468e-7
          4.12746791193595e-7 2.881577915434513e-7 3.278007786356091e-7 4.627131670150993e-7 1.6124612529267685e-7 3.477537884927867e-7
          5.821319066738173e-7 5.635302887131241e-7 1.7738993003344326e-7 3.9055973907262215e-7 2.172177927790821e-7 5.97575539313875e-7
          2.39884283123013e-8 1.2288150502527537e-9 5.295001653649907e-8 4.020351336516933e-7 4.704277451883433e-7 4.948988017203766e-7
          2.552509651673135e-7 2.9299946143078004e-7 4.967946915686431e-7 5.265468823491639e-7 2.7455899813038183e-7 5.128837539961703e-7
          3.685852710960173e-7 3.438621838199522e-7 5.493773829656583e-7 3.98723089129484e-7 2.405351627316399e-7 2.524583997409576e-7
          2.2638181750513344e-7 1.485562094585115e-7 1.202145026290918e-7 2.3338098819808387e-7 1.90981056650958e-7 1.4787888683085047e-7
          9.0242227076086e-8 6.212761819689591e-8 2.693273777469294e-7 1.4820590673289266e-7 3.0835903260460526e-7 2.600007345806476e-7
          3.3731409404711485e-7 3.827734337635751e-7 2.01703956222914e-7 1.4235889955510652e-7 4.3002817015873437e-7 2.2294085698025015e-7
          6.9140698399831636e-9 1.0993124807165256e-8 2.8216155619827825e-7 9.087401573645547e-8 3.1946749493776326e-7 1.0105444796095241e-7
          1.7441232618015947e-7 5.74937856286783e-8 1.32590946358907e-7 5.100029672427268e-8 3.820237877919321e-8 1.012385624723384e-7
          1.5715890391382927e-8 3.1323753784620344e-8 1.3085457953991742e-9 2.7315232000365493e-9 5.2179176431525776e-9 1.8263919047847556e-8
          1.0407322476821336e-8 9.360728534124284e-9 1.5324507259418503e-8 4.154500604673924e-9 8.31413459142723e-9 1.2385095470989446e-8
          8.742728111313517e-8 8.90306501165956e-8 1.1643041067327268e-7 1.1722568558232558e-7 8.531915766883284e-8 1.1483187963059429e-7
          7.254252958220463e-8 9.545189173650263e-8 9.672010179978281e-8 9.328577975252471e-8 8.315667833357851e-8 1.1240439007099157e-7
          8.18088607650841e-8 1.0936001018409986e-7 6.757652354756925e-8 9.041388114466274e-8 8.745635627836205e-8 8.282165540709406e-8
          1.0591915014055964e-7 6.491572094121327e-8 8.533322807348648e-8 9.855328176799851e-8 1.0712504503291905e-7 9.308280983578158e-8
          1.1569680829783957e-7 2.062741775791724e-9 1.0337796587599664e-9 1.360525930479826e-9 1.9980009371308413e-9 5.3920065590294606e-9
          4.0084469136224905e-9 5.987582646111459e-9 3.5685390022332734e-9 2.58442560431757e-9 3.948919633156622e-9 2.8601215365731434e-9
          7.181510052437311e-8 7.504885104055529e-8 7.553297946007751e-8 8.251523826867592e-8 7.601710787959974e-8 5.1233311041285295e-8
          7.243446639853716e-8 7.268070974787902e-8 7.292695309722087e-8 5.416873622570067e-8 5.636667766176338e-8 5.856808856809914e-8
          5.856461909782609e-8 8.820140337087149e-8 4.8508971028254996e-8 5.114274642781416e-8 5.377652182737333e-8 5.105218181434304e-8
          4.026532896815798e-8 5.027962259440905e-8 1.875992097005111e-8 4.475959973847043e-8 6.036985357168538e-8 7.587179433976986e-8
          2.630191848489931e-8 4.434696401547951e-8 3.856019838026724e-8 6.217508804554467e-8 8.90136829221408e-8 9.029823159506079e-8
          8.982596247341012e-8 7.368387641628726e-8 7.55353633730266e-8 6.102539351333061e-8 7.300722193277948e-8 7.738685032976592e-8
          8.50605790998685e-8 4.0146331360701705e-8 5.840240493201602e-8 4.452512252639583e-8 8.109143234060877e-8 9.189603444285263e-8
          9.907156127783059e-8 9.328230304517768e-8 3.924120715308008e-9 3.208770401443367e-8 2.5484827968823273e-9 1.5316358060156407e-8
          7.400491929113854e-8 6.149952686780818e-8 1.6105439935017567e-9 2.2935647824509836e-8 5.275589866486698e-9 6.579968965963562e-8
          9.245446935919631e-8 9.944598634101667e-8 9.466736017263838e-8 1.025498028350545e-7 9.301290427554e-8 9.982041140420276e-8
          9.605241730009906e-8 1.2834011614557285e-7 1.366488755951715e-7 1.183497873346899e-7 1.0126749074328891e-7 1.4281363906152888e-7
          1.4512906968710978e-7 1.5301917565726117e-7 1.5611594488815836e-7 1.4595157625934077e-7 1.2339353047910464e-7 1.2557594670801306e-7
          1.384544369517235e-7 1.0723754982350179e-7 1.6322471225299354e-7 1.671028200892069e-7 1.5525427692351003e-7 1.2775836293692147e-7
          1.3745868965319822e-7 1.2730775209841617e-7 9.840137335024873e-8 9.311155811980559e-8 1.4657726316082364e-7 1.3626571686214244e-7
          9.553525595720855e-8 1.056860834503138e-7 8.950523821364638e-8 1.1440195800783617e-7 9.214041127879813e-8 1.2311783256535855e-7
          9.477558434394988e-8 8.414808787654824e-9 6.029724052177901e-9 7.539762305525714e-9 8.057768587278608e-9 8.5757748690315e-9
          5.909014767814346e-9 5.9882321956829295e-9 6.270072354000537e-9 6.067449623551511e-9 6.1215955285124255e-9 6.15411892774469e-9
          6.1866423269769525e-9 6.278513803311477e-9 5.259356561684202e-9 5.7562928301060245e-9 3.846291885029375e-9 4.949819686571206e-9
          6.253229098527846e-9 6.053347488113037e-9 4.609698355554059e-9 5.5243534645291195e-9 4.344895035592801e-9 6.439008573504181e-9
          9.62186960938835e-9 7.978352739723058e-9 8.401866136029676e-9 8.249973842065148e-9 8.825379532336295e-9 9.68449188198152e-9
          9.619469431513979e-9 9.554446981046434e-9 7.780793447998451e-9 8.043434215386111e-9 8.31773993635896e-9 8.306074982773771e-9
          1.0049778531529605e-8 9.968168110956629e-9 9.879406961233753e-9 9.790645811510874e-9 9.637779479182613e-9 9.70232225948637e-9
          9.766865039790126e-9 7.606392541709259e-9 8.158724393845856e-9 9.195726507804964e-9 1.0290151616582675e-8 1.0415236201715371e-8
          7.22790944676116e-9 7.833659652488006e-9 6.591822418687931e-9 7.323919974534404e-9 8.439409858214853e-9 8.056017530380877e-9
          5.077817167575547e-9 6.013549426555611e-9 5.228629531015515e-9 6.949281685535674e-9 5.957951549381049e-9 6.818918599272392e-9
          5.223407784968252e-9 6.237424541166817e-9 7.679885649163734e-9 8.113837936647954e-9 3.126918519253616e-9 4.514271327282847e-9
          3.846215050895238e-9 6.909190271602811e-9 9.376767738313231e-9 1.0039904133159249e-8 1.0241177051105401e-8 9.402439308296416e-9
          9.56438020574869e-9 9.88055607240856e-9 2.828573946028533e-9 4.227126214483632e-9 2.1244507580630475e-9 3.6265677729555767e-9
          5.62567848293873e-9 6.399970034361419e-9 1.9789797107052326e-9 3.6926067448023787e-9 3.193742590883784e-9 5.406233778899525e-9
          1.746144765068555e-9 3.0539572805352234e-9 1.5109818386913978e-9 2.5720527375413907e-9 6.460092581953408e-9 5.725844354423931e-9
          1.3735621423935228e-9 2.673774889663424e-9 2.2584491779073065e-9 6.083247914279448e-9 9.334347685534806e-9 9.726154843681567e-9
          9.29192763275638e-9 9.2590073669709e-9 9.056002019003832e-9 9.959599366036876e-9 1.0293438965551186e-8 9.115575425645382e-9
          8.780448596779073e-9 1.0038642659665193e-8 4.315133457546858e-9 5.404008945894005e-9 8.065730431839799e-9 2.1490397085632067e-9
          3.2610050580037204e-9 6.358727496701639e-9 1.01081352995623e-8 1.0577694169686152e-8 9.489133754572747e-9 1.0633782923186451e-8
          1.3574337969292344e-9 2.2423659982306147e-9 5.104659025240839e-9 1.1416608558158503e-9 1.9785285422890738e-9 4.701276293085241e-9
          8.760372143713104e-9 1.0438724436476526e-8 8.468595760822635e-9 1.0350035164237086e-8 5.674541468776021e-10 5.624619724786086e-10