<?xml version="1.0"?>
<VTKFile type="UnstructuredGrid" version="0.1" byte_order="LittleEndian" header_type="UInt32" compressor="vtkZLibDataCompressor">
  <UnstructuredGrid>
    <Piece NumberOfPoints="849" NumberOfCells="534">
      <PointData>
        <DataArray type="Int32" Name="libmesh_node_id" format="ascii" RangeMin="327" RangeMax="5024">
          327 328 508 509 510 511
          512 513 514 515 699 701
          759 760 762 763 765 766
          1260 1261 1262 1263 1264 1265
          1266 1267 1268 1269 1270 1271
          1272 1273 1274 1275 1276 1277
          1278 1279 1280 1281 1282 1283
          1284 1285 1286 1287 1300 1308
          1310 1318 1320 1322 1328 1329
          1330 1331 1335 1336 1342 1346
          1607 1608 1609 1610 1611 1612
          1613 1614 1615 1616 1617 1618
          1619 1620 1624 1625 2012 2013
          2014 2015 2016 2017 2018 2019
          2020 2021 2022 2023 2024 2025
          2026 2027 2028 2029 2030 2031
          2032 2033 2034 2035 2036 2037
          2038 2039 2040 2041 2042 2043
          2044 2045 2046 2047 2048 2049
          2050 2051 2052 2053 2054 2055
          2056 2057 2058 2059 2060 2061
          2063 2064 2073 2074 2075 2076
          2077 2078 2083 2084 2085 2086
          2087 2088 2089 2090 2091 2093
          2094 2095 2096 2100 2101 2102
          2103 2104 2105 2106 2168 2169
          2170 2171 2172 2173 2174 2175
          2176 2177 2178 2179 2180 2181
          2196 2197 2198 2199 2200 2201
          2202 2203 2204 2208 2209 2211
          2226 2227 2229 2245 2246 2934
          2938 3038 3039 3040 3041 3042
          3043 3044 3045 3046 3047 3048
          3049 3050 3051 3052 3053 3054
          3055 3056 3057 3058 3059 3060
          3061 3069 3070 3071 3072 3073
          3074 3075 3199 3200 3201 3202
          3203 3204 3205 3206 3207 3208
          3209 3210 3211 3212 3213 3214
          3215 4132 4133 4134 4135 4136
          4137 4138 4139 4140 4141 4142
          4143 4144 4145 4146 4147 4148
          4149 4150 4151 4152 4153 4154
          4155 4156 4157 4158 4159 4160
          4161 4162 4163 4164 4165 4166
          4167 4168 4169 4170 4171 4172
          4173 4174 4175 4176 4177 4178
          4179 4180 4181 4182 4183 4184
          4185 4186 4187 4188 4189 4190
          4191 4192 4193 4194 4195 4196
          4197 4198 4199 4200 4201 4202
          4203 4204 4205 4206 4207 4208
          4209 4210 4211 4212 4213 4214
          4215 4216 4217 4218 4219 4220
          4221 4222 4223 4224 4225 4226
          4227 4228 4229 4230 4231 4232
          4233 4234 4235 4236 4237 4238
          4239 4240 4241 4242 4243 4244
          4245 4246 4247 4248 4249 4250
          4251 4252 4253 4255 4256 4257
          4258 4259 4260 4265 4266 4268
          4269 4270 4271 4275 4276 4277
          4278 4279 4280 4281 4282 4283
          4284 4285 4286 4287 4288 4289
          4290 4291 4292 4293 4294 4295
          4296 4297 4298 4299 4300 4301
          4302 4303 4304 4305 4306 4307
          4308 4309 4310 4311 4312 4313
          4314 4317 4319 4320 4321 4322
          4323 4324 4325 4326 4327 4328
          4329 4330 4331 4332 4336 4337
          4338 4339 4340 4341 4343 4344
          4345 4346 4347 4348 4349 4350
          4351 4352 4353 4354 4355 4356
          4357 4358 4359 4360 4361 4362
          4363 4364 4365 4366 4367 4368
          4370 4371 4372 4373 4377 4378
          4380 4381 4382 4383 4387 4388
          4389 4390 4391 4392 4393 4394
          4395 4396 4397 4398 4399 4400
          4401 4402 4403 4404 4405 4406
          4407 4408 4409 4410 4411 4412
          4413 4414 4415 4416 4417 4418
          4419 4420 4424 4425 4426 4427
          4431 4432 4433 4434 4438 4439
          4440 4441 4442 4443 4444 4498
          4499 4501 4506 4507 4508 4509
          4510 4511 4524 4718 4719 4720
          4721 4722 4723 4724 4725 4726
          4727 4728 4729 4730 4731 4732
          4733 4734 4735 4736 4737 4738
          4739 4740 4741 4742 4743 4744
          4745 4746 4747 4748 4749 4750
          4751 4752 4753 4754 4755 4756
          4757 4758 4759 4760 4761 4762
          4763 4764 4765 4766 4767 4768
          4769 4770 4771 4772 4773 4774
          4775 4776 4777 4778 4779 4780
          4781 4782 4783 4784 4785 4786
          4787 4788 4789 4790 4791 4792
          4807 4808 4809 4810 4811 4812
          4813 4814 4815 4816 4817 4818
          4819 4820 4821 4822 4823 4824
          4825 4826 4827 4828 4829 4830
          4831 4832 4833 4834 4835 4836
          4837 4838 4839 4840 4841 4842
          4843 4844 4845 4846 4847 4848
          4849 4854 4855 4856 4857 4858
          4859 4860 4861 4862 4863 4864
          4865 4866 4867 4871 4872 4873
          4874 4875 4876 4877 4973 4974
          4975 4976 4979 4980 4981 4982
          4983 4984 4985 4986 4987 4988
          4989 4990 4991 4992 4994 4995
          4996 4997 4998 4999 5000 5001
          5002 5003 5006 5007 5018 5019
          516 517 702 700 1288 1290
          1291 1289 1293 1292 1311 1309
          1319 1323 1314 1321 1324 1343
          1347 2079 2080 2062 2082 2097
          2065 2099 2205 2243 2228 2244
          2148 2144 1302 2150 2152 2109
          2158 1303 2160 2162 2247 4261
          4262 4254 1298 4263 4264 2081
          4272 4267 4273 4274 1299 4315
          4316 4318 4333 4334 4335 2092
          4342 1301 4374 4369 4375 4376
          2098 4384 4379 4385 4386 4421
          4422 4423 2107 4428 4429 4430
          2108 4435 4436 4437 4445 4446
          4447 4496 4497 4500 4502 2120
          4504 4503 2121 4505 4512 4513
          2122 4514 4515 2123 4517 4516
          4521 4520 4523 4525 4519 4526
          4527 4528 2125 4529 4850 4851
          2206 4852 4853 2207 4868 4869
          4870 2210 4612 4614 4977 4616
          4978 2138 4626 4628 4630 4993
          2140 4640 5004 4642 5005 4644
          5008 5010 2142 5009 2230 4654
          5020 4656 5021 5022 4658 5023
          5024 520 2232
        </DataArray>
        <DataArray type="Float64" Name="bounds" format="ascii" RangeMin="0" RangeMax="0">
          0 0 0 0 0 0
          0 0 0 0 0 0
          0 0 0 0 0 0
          0 0 0 0 0 0
          0 0 0 0 0 0
          0 0 0 0 0 0
          0 0 0 0 0 0
          0 0 0 0 0 0
          0 0 0 0 0 0
          0 0 0 0 0 0
          0 0 0 0 0 0
          0 0 0 0 0 0
          0 0 0 0 0 0
          0 0 0 0 0 0
          0 0 0 0 0 0
          0 0 0 0 0 0
          0 0 0 0 0 0
          0 0 0 0 0 0
          0 0 0 0 0 0
          0 0 0 0 0 0
          0 0 0 0 0 0
          0 0 0 0 0 0
          0 0 0 0 0 0
          0 0 0 0 0 0
          0 0 0 0 0 0
          0 0 0 0 0 0
          0 0 0 0 0 0
          0 0 0 0 0 0
          0 0 0 0 0 0
          0 0 0 0 0 0
          0 0 0 0 0 0
          0 0 0 0 0 0
          0 0 0 0 0 0
          0 0 0 0 0 0
          0 0 0 0 0 0
          0 0 0 0 0 0
          0 0 0 0 0 0
          0 0 0 0 0 0
          0 0 0 0 0 0
          0 0 0 0 0 0
          0 0 0 0 0 0
          0 0 0 0 0 0
          0 0 0 0 0 0
          0 0 0 0 0 0
          0 0 0 0 0 0
          0 0 0 0 0 0
          0 0 0 0 0 0
          0 0 0 0 0 0
          0 0 0 0 0 0
          0 0 0 0 0 0
          0 0 0 0 0 0
          0 0 0 0 0 0
          0 0 0 0 0 0
          0 0 0 0 0 0
          0 0 0 0 0 0
          0 0 0 0 0 0
          0 0 0 0 0 0
          0 0 0 0 0 0
          0 0 0 0 0 0
          0 0 0 0 0 0
          0 0 0 0 0 0
          0 0 0 0 0 0
          0 0 0 0 0 0
          0 0 0 0 0 0
          0 0 0 0 0 0
          0 0 0 0 0 0
          0 0 0 0 0 0
          0 0 0 0 0 0
          0 0 0 0 0 0
          0 0 0 0 0 0
          0 0 0 0 0 0
          0 0 0 0 0 0
          0 0 0 0 0 0
          0 0 0 0 0 0
          0 0 0 0 0 0
          0 0 0 0 0 0
          0 0 0 0 0 0
          0 0 0 0 0 0
          0 0 0 0 0 0
          0 0 0 0 0 0
          0 0 0 0 0 0
          0 0 0 0 0 0
          0 0 0 0 0 0
          0 0 0 0 0 0
          0 0 0 0 0 0
          0 0 0 0 0 0
          0 0 0 0 0 0
          0 0 0 0 0 0
          0 0 0 0 0 0
          0 0 0 0 0 0
          0 0 0 0 0 0
          0 0 0 0 0 0
          0 0 0 0 0 0
          0 0 0 0 0 0
          0 0 0 0 0 0
          0 0 0 0 0 0
          0 0 0 0 0 0
          0 0 0 0 0 0
          0 0 0 0 0 0
          0 0 0 0 0 0
          0 0 0 0 0 0
          0 0 0 0 0 0
          0 0 0 0 0 0
          0 0 0 0 0 0
          0 0 0 0 0 0
          0 0 0 0 0 0
          0 0 0 0 0 0
          0 0 0 0 0 0
          0 0 0 0 0 0
          0 0 0 0 0 0
          0 0 0 0 0 0
          0 0 0 0 0 0
          0 0 0 0 0 0
          0 0 0 0 0 0
          0 0 0 0 0 0
          0 0 0 0 0 0
          0 0 0 0 0 0
          0 0 0 0 0 0
          0 0 0 0 0 0
          0 0 0 0 0 0
          0 0 0 0 0 0
          0 0 0 0 0 0
          0 0 0 0 0 0
          0 0 0 0 0 0
          0 0 0 0 0 0
          0 0 0 0 0 0
          0 0 0 0 0 0
          0 0 0 0 0 0
          0 0 0 0 0 0
          0 0 0 0 0 0
          0 0 0 0 0 0
          0 0 0 0 0 0
          0 0 0 0 0 0
          0 0 0 0 0 0
          0 0 0 0 0 0
          0 0 0 0 0 0
          0 0 0 0 0 0
          0 0 0 0 0 0
          0 0 0 0 0 0
          0 0 0 0 0 0
          0 0 0 0 0 0
          0 0 0
        </DataArray>
        <DataArray type="Float64" Name="gradient_error" format="ascii" RangeMin="2.3082971114473914e-12" RangeMax="9.894495880084047e-8">
          1.6016372393105467e-10 3.332501885226964e-10 7.489724106573229e-10 1.478818707343726e-9 7.685730357054603e-9 4.652370249818204e-9
          1.2798229552142482e-10 1.3985044243503439e-11 6.471425260253043e-11 2.3503365074596443e-9 1.5233070479144147e-9 4.393722677788062e-10
          4.926576353137928e-10 4.17801583250261e-10 1.514470315895549e-10 1.1629476418266782e-10 3.429455311867292e-10 8.114249677578074e-11
          2.271111817415852e-9 1.8074219826475846e-9 3.5360225673907105e-9 2.8574546727079397e-9 6.730934688192188e-10 1.318301964464046e-9
          1.1504612785887568e-9 1.343732147879317e-9 2.178886778025169e-9 9.164124040410052e-10 1.749466533871489e-8 1.5225785358837727e-8
          6.357923492504299e-9 1.3691019767787967e-8 2.1156738265212725e-10 2.612922865826661e-10 1.446143898990275e-10 1.620277419755831e-10
          7.553368763059833e-11 4.306613217623661e-11 4.4203750944519924e-11 3.335493526055318e-10 3.4264358970748633e-10 8.791310784287113e-11
          4.9380078758044096e-11 4.0055270487169145e-11 1.1986049998598155e-11 2.35315535763183e-10 1.035115767119011e-10 1.1036659192712976e-8
          2.581555752087871e-9 5.270293103687317e-10 1.6927925953130338e-10 6.750814811087896e-10 9.350608144254007e-12 1.1084062535161866e-11
          1.3755852376012557e-11 9.872568973706023e-12 2.0338662611496545e-11 1.496687528307972e-11 6.077936584534524e-11 8.787911130330384e-11
          4.5277860072551637e-10 6.161848597730148e-10 4.4509782622422986e-10 2.943674624945606e-10 4.007000155623259e-10 8.953574728573245e-11
          1.2253188589574534e-10 2.3265341029126256e-10 3.058231272967216e-10 1.1655142569121457e-10 1.9021973428817972e-11 1.9633061735810236e-11
          1.4529635814505469e-11 1.4558711367665567e-11 2.2884971062876328e-11 2.5012563053856575e-11 2.5807739358479037e-10 3.519863038553501e-10
          3.3171560145993264e-10 2.887710666987801e-10 1.092125483186666e-9 1.8800091990694134e-10 2.3523524217901593e-10 2.0437325002498687e-10
          6.621397872196171e-10 1.9057721716793536e-10 1.8047988457331528e-10 2.146990181326173e-10 2.021726489886476e-10 7.302674561479882e-11
          4.8832267933828587e-11 4.5592334437255806e-11 1.57083480513193e-10 1.7530218414099477e-10 4.747764746875441e-11 6.470533372946948e-10
          5.894359844062151e-10 4.370686330398527e-11 4.748397258796501e-10 3.4102234513572384e-11 3.158737829424885e-11 2.1266739261773925e-11
          1.9528769814912212e-11 1.345319103850223e-11 1.390828335739353e-11 1.2829480321064329e-11 2.731632627984699e-11 2.929998368862922e-11
          1.48672992797796e-11 2.206795742110939e-11 1.8909547023614226e-11 1.2033233797607314e-11 2.4576777927842126e-11 1.396386835380179e-10
          1.658963457521965e-10 6.276883065710511e-11 7.279465232441642e-11 1.3549295802834503e-10 1.7177356351814737e-10 9.294062206024002e-11
          3.7305871064418747e-10 5.6104732848701187e-11 3.507118366721267e-10 2.563980130302205e-9 2.323653295633279e-9 1.8367680524169496e-9
          1.3628471979098788e-9 9.290764790162527e-10 1.419790705900888e-9 1.2822059307979622e-9 1.5342935365951e-10 1.3190259326788226e-10
          1.0067831731953581e-9 9.01739916343506e-11 7.287211306515797e-11 6.079712567831089e-11 3.221268049145874e-11 2.6509287409411554e-11
          3.811265561263511e-11 1.5966083923489702e-11 2.280346848440425e-10 1.862690026264801e-10 8.326725434310099e-11 7.423208108825265e-10
          5.654125352711002e-11 5.81145092128672e-10 1.527511900612835e-10 3.619786673315677e-11 2.6614918872196435e-11 2.186969808581256e-11
          1.6371559384371162e-11 4.871883444220256e-11 6.382119085445722e-11 3.1521343383511297e-11 1.0613980809667053e-11 1.1720383773602026e-11
          1.2612712334682647e-11 1.2440672972828025e-11 9.792809245720798e-12 6.248634493971354e-12 1.0141896065932317e-11 1.0724364894426493e-11
          9.734220312344121e-12 1.115433834056324e-11 4.0693876612726134e-11 3.2688416236519154e-11 1.3173530284879187e-11 1.8328927148804077e-11
          1.0448578502879915e-11 1.0018594132391886e-11 7.025333725105176e-12 8.802718892140108e-12 1.2754126234445203e-11 1.5369608174653025e-11
          9.928109128389792e-12 1.0609500022856545e-11 8.836118748455462e-12 4.0620922094326055e-11 3.2273805235432373e-11 1.7588397054696177e-11
          2.2361219812929777e-11 9.53139106523155e-12 1.5016900387559386e-11 1.5570193738075782e-11 1.9677627004680098e-11 4.343506761430966e-11
          5.1757539156784736e-11 2.7606597142471685e-11 3.924154016478284e-11 1.4266937351043683e-11 1.851191214555168e-11 2.9653063800174716e-11
          3.7719176907917094e-11 1.9098153288666967e-11 4.4708839562944747e-10 5.880679179976621e-10 4.534676299130303e-10 3.260399329222349e-10
          4.489933123979053e-10 1.4508301931372794e-10 2.1589271709525838e-10 2.583182298248357e-10 3.435735485213547e-10 1.656692524176067e-10
          6.5323730045979e-11 8.972571604014878e-11 3.2609947393648707e-11 4.115790455473885e-11 6.109810956774806e-11 7.728143691738178e-11
          4.121094894187596e-11 1.554207088308459e-11 1.9268770754632326e-11 1.1337138658396196e-11 1.3806437087716289e-11 1.7282745797049947e-11
          2.1149874742777666e-11 1.678168773103275e-11 5.9187755562527194e-12 5.796255025518409e-12 1.1226080938598917e-11 1.0126694858473042e-11
          4.689768894772639e-12 7.283360378327885e-12 6.526203192883067e-12 5.8003045232198565e-12 8.42496429829509e-12 5.270893766835964e-12
          6.219915268707494e-12 7.776237886688316e-12 4.857935975155224e-12 5.3835667829144916e-12 6.512955985759372e-12 7.729855955133617e-12
          5.994392039595303e-12 4.5474616903495056e-11 5.689495445083374e-11 5.522902835794938e-11 5.166626919857849e-11 9.314357372130528e-11
          3.587214531737233e-11 3.486590334957278e-11 4.580689939613447e-11 4.451257456251317e-11 1.947767522763413e-11 2.824017697470972e-11
          2.7446369735603312e-11 3.2537462164433354e-11 4.150062779483415e-11 2.5359994127386674e-11 7.765260431351235e-11 7.530598727794486e-11
          4.785456054609853e-11 6.975715058605051e-11 3.856613181460373e-11 4.721771853277578e-11 4.199901825982887e-11 7.843487683634734e-11
          2.970549999954984e-11 3.7658349550974116e-11 1.6601497673067766e-11 2.2372169995464073e-11 2.634303012988958e-11 3.313163643433512e-11
          2.116031737803404e-11 6.256298910590867e-11 3.8004206410617144e-11 5.4512094434537603e-11 1.274535381988052e-11 1.2386841530515385e-11
          1.813916196175817e-11 1.757259370264274e-11 8.18257074025924e-12 1.1945224865593625e-11 1.154232414785787e-11 1.1420640931818788e-11
          1.605125782810607e-11 1.043209160075897e-11 3.3039379322921236e-11 3.186886060269044e-11 2.1215874779333117e-11 2.8712913192787068e-11
          5.478456820351145e-12 5.293271070415132e-12 7.664304077825024e-12 7.386617213604756e-12 4.296923061724804e-12 5.9549727399948846e-12
          5.73715483264958e-12 4.788443893174232e-12 6.639097688211525e-12 5.1315259674337246e-12 1.4594840887572527e-11 1.4003816631372623e-11
          1.0443198103740134e-11 1.2402081761771822e-11 1.0429239121531532e-11 1.3888462407368765e-11 6.80301551845126e-12 9.008622332828546e-12
          1.0045525620575739e-11 1.2680434602052694e-11 8.292484894261264e-12 2.4239399250323168e-11 1.575350902346124e-11 2.1987889198183437e-11
          4.322536034655795e-12 5.709680354341488e-12 3.539392113832557e-12 4.533681436007736e-12 4.176269603442243e-12 5.250095681644418e-12
          4.323647862452298e-12 1.023259024921951e-11 7.598360280289454e-12 9.046798670375503e-12 2.930117256479678e-11 3.561121828915637e-11
          3.189040099211461e-11 5.831168915135542e-11 2.3003834615914685e-11 2.8461679287972756e-11 1.670649666703259e-11 2.131214028678915e-11
          2.1517346024056415e-11 2.6193778948447082e-11 2.0497156904779557e-11 4.6190875230707315e-11 3.0924978963295896e-11 4.221027193921151e-11
          1.4478124382080472e-10 1.402561169315343e-10 1.3065566371912048e-10 2.6437692491048073e-10 1.2412592718616925e-10 1.2016201297838755e-10
          8.70626500534026e-11 8.403812871498019e-11 1.1075856326470727e-10 7.58713206102212e-11 2.2840072062201825e-10 2.1952756482072613e-10
          1.4762789589140989e-10 1.9885788454988045e-10 1.176245184441701e-10 1.0224744806253879e-10 2.1063920752619088e-10 9.82487437295984e-11
          6.515860856816889e-11 8.441732869481711e-11 5.419252146421832e-11 1.7202079830475068e-10 1.1105349119644441e-10 1.4317882638501662e-10
          4.5657400161713793e-10 4.363341185130407e-10 3.9501005717417884e-10 3.859424214104431e-10 3.697573799712505e-10 2.677272552759306e-10
          2.5696970740117873e-10 3.3246750854976727e-10 2.2752014732014875e-10 3.4306586775182235e-10 2.83489947605625e-10 2.843865004798789e-10
          1.8840887511867367e-10 2.325310284727687e-10 1.497552056243272e-10 5.944231600768634e-11 5.71298836034036e-11 4.039346821624983e-11
          3.869411549664545e-11 5.090087711350693e-11 3.4123029783219645e-11 1.0618996856599312e-10 1.0174787180886734e-10 6.960074564672953e-11
          8.975613321037014e-11 2.712570777180032e-11 2.592777407904472e-11 1.7704626568772073e-11 1.6907158011929276e-11 2.2703707453505662e-11
          1.4740932732304354e-11 4.909759074393934e-11 4.6787612764540556e-11 3.0659211388826087e-11 4.0597507566175677e-11 4.26758898079207e-11
          2.8103822496398208e-11 3.4384628649546753e-11 2.2163920013187526e-11 7.396460748374046e-11 4.929140274715932e-11 5.843530794447718e-11
          1.847348159648345e-11 1.1922136720348482e-11 1.4310772800675665e-11 9.166739180683747e-12 3.255788455206237e-11 2.113748151439899e-11
          2.481030712767862e-11 1.87066791827723e-10 1.788221087877161e-10 1.298875686533702e-10 1.2375685387694174e-10 1.5633769919793457e-10
          1.0712583955772326e-10 2.168864232842848e-10 8.824826941830253e-11 8.388590886281229e-11 5.822042598488027e-11 5.526991243455848e-11
          7.21273576527663e-11 4.7356467620233214e-11 1.5617239063166506e-10 1.4816124630516426e-10 9.803409840939046e-11 1.2636262477007858e-10
          1.2665271116808948e-10 8.537939583109079e-11 9.788523527797034e-11 6.458969850270684e-11 5.68783068752116e-11 3.714545280334943e-11
          4.242294037487655e-11 2.7492205363432717e-11 9.801973096664139e-11 6.424374088202884e-11 8.779515758214221e-11 7.339675911077611e-11
          1.4771405431350238e-10 7.136644551781712e-11 4.410308662384361e-11 5.898558181615438e-11 3.54613022301571e-11 1.1804742220089626e-10
          7.188783641206477e-11 9.596492706205148e-11 4.8009933734872857e-11 5.7771783950319856e-11 4.9514168210657435e-11 9.455646979898022e-11
          3.911024530119214e-11 4.7357372953762395e-11 2.2983123885794224e-11 2.8677159047753085e-11 3.5446892533615797e-11 4.1820275621604175e-11
          2.5841027246895774e-11 7.544707816850984e-11 4.445639093400731e-11 6.568173037385036e-11 2.3264496669192288e-10 1.8869728107470506e-10
          1.8796222261371794e-10 1.1672574780713322e-10 1.5007047630220942e-10 8.990119680477379e-11 1.4455900750833205e-10 1.2223934760408036e-10
          1.1589569361843243e-10 6.878041804692853e-11 9.992314530662559e-11 5.968914197339813e-11 2.0318811568400724e-11 2.721640873778021e-11
          1.2806043770935805e-11 1.7050375184688375e-11 1.6201830032303654e-11 2.1278328931539742e-11 1.441423949158875e-11 4.5338259237236426e-11
          2.8758283158452037e-11 3.4790746669352065e-11 8.029421653454522e-12 1.0712747019032289e-11 5.154478575264022e-12 6.840066565232698e-12
          7.066065995918746e-12 9.073337108957941e-12 5.8187522002726385e-12 1.8273978555490653e-11 1.1654969651400311e-11 1.4796902651068382e-11
          1.289595432178135e-11 1.65359861400253e-11 1.003621773948567e-11 1.2660616141749365e-11 1.1564832116270224e-11 1.4546351181386431e-11
          1.1537030901532237e-11 2.6596214876101062e-11 1.8579337507787047e-11 2.3139562597498628e-11 7.413601584538648e-11 4.7781202938452623e-11
          5.562580093793649e-11 3.489030393020572e-11 3.0799368200939125e-11 1.9748103537635006e-11 2.1975933036268884e-11 1.3895979361259481e-11
          4.121589544240778e-11 2.5495573528264312e-11 3.4889199831793913e-11 2.172679971485707e-11 1.2016891090989217e-11 1.556309535865595e-11
          7.530728715763512e-12 9.759391059932159e-12 1.0294537453851729e-11 1.295262704911197e-11 8.135988996219069e-12 3.9308145994314595e-10
          3.7350010544881037e-10 3.1879849392746365e-10 2.712128772185233e-10 2.5698867564765295e-10 1.8054816377518799e-10 1.7072849969415424e-10
          2.1775660954579802e-10 1.4399568534240152e-10 1.0943168385294651e-10 7.728394888236102e-12 7.446168267457591e-12 1.1100548855969398e-11
          1.0591463919565202e-11 4.589256129832952e-12 6.802259961180827e-12 6.439453052136598e-12 6.582778199214555e-12 9.197917025367449e-12
          6.15222078486439e-12 2.0481104362995647e-11 1.9500747374224537e-11 1.193411624420417e-11 1.6853013300352356e-11 2.8871785127105633e-12
          2.889148921861998e-12 4.068953806463258e-12 3.887288140872091e-12 2.3082971114473914e-12 3.019653836161733e-12 2.9830179596290067e-12
          2.8911193310134333e-12 3.705622475280925e-12 2.9463820830962813e-12 7.531071019075494e-12 7.1039915836014275e-12 4.785386614332938e-12
          6.834142052520047e-12 5.396729362405849e-12 7.421675476243523e-12 4.237676896740454e-12 5.645927206490902e-12 4.195656927227128e-12
          5.712261735641803e-12 4.356174382644686e-12 1.342072728455587e-11 9.503456049772302e-12 1.0121379094848054e-11 3.712806976523968e-11
          3.526253627500341e-11 2.285476142226859e-11 2.1711770632909464e-11 3.0237950774932295e-11 1.8624854280348583e-11 6.615084038257956e-11
          6.259183838457858e-11 3.850521684723833e-11 5.30789603733517e-11 1.3606578893269641e-11 1.2896596560327064e-11 7.775378158082906e-12
          7.30698047074655e-12 1.1001842544455692e-11 6.956860634662766e-12 2.407618721364793e-11 2.282426476472057e-11 1.2962114181114276e-11
          1.946282121367901e-11 2.3714696617576242e-11 1.4622348036944473e-11 1.751021598208707e-11 1.0807090932237494e-11 4.091116235134455e-11
          2.5266527480417807e-11 2.959447662313602e-11 6.310391217666571e-12 8.625840850806899e-12 4.758567902061052e-12 6.338100651187259e-12
          4.702445490716995e-12 6.386010883927781e-12 4.692513532227423e-12 1.5141886863092483e-11 1.0057756500951404e-11 1.1053403539247016e-11
          3.269128496171695e-12 4.288303135376715e-12 2.6788644738849665e-12 3.3855944903410957e-12 2.9387871109508016e-12 3.681978684382978e-12
          3.0473245599661897e-12 7.363119444370354e-12 5.224551581038018e-12 5.894629085170701e-12 1.2526825665754458e-11 7.683288019951252e-12
          8.736027387007923e-12 6.020487218792608e-12 2.0777766119040442e-11 1.2854228247940992e-11 1.4295568091582207e-11 3.4069696295350247e-12
          4.529974618259146e-12 2.598936753257547e-12 3.3871625898471974e-12 2.881228851663781e-12 3.7225383087496235e-12 2.872083080446155e-12
          7.731402026977402e-12 5.189866833136292e-12 5.926729101314906e-12 4.732686872329768e-12 6.0146945811546716e-12 3.934354816203704e-12
          4.748985222719623e-12 4.06008459495754e-12 4.941048225683309e-12 4.068831853400691e-12 9.607227662000827e-12 6.721343352677085e-12
          7.687138475209382e-12 1.1558297913509578e-10 1.0916253994398104e-10 7.107294638848719e-11 6.710928981460542e-11 9.188661112529661e-11
          5.653476164679798e-11 4.199369231246797e-11 3.970597737232239e-11 2.389423285346533e-11 2.2610908241016424e-11 3.360286823048077e-11
          1.919952523366877e-11 7.16382034481223e-11 6.752488149808092e-11 3.8322120305944885e-11 5.6614161923060555e-11 6.977291815059565e-11
          4.307276782771701e-11 4.946816208106839e-11 3.066685809439348e-11 2.579701136803072e-11 1.4858419079447876e-11 1.851056908699176e-11
          1.0767140342652126e-11 4.282286869791776e-11 2.465192741156502e-11 3.018958312208108e-11 3.3942138855719224e-11 2.111041409681435e-11
          2.2896645066186122e-11 1.4194333316790646e-11 3.595215871639562e-11 1.2806573588171266e-11 7.458037978866806e-12 8.585155082740302e-12
          5.703454207451151e-12 2.05370556925422e-11 1.2054490717831628e-11 1.3628601413928958e-11 1.5118918128424728e-11 9.330974121418256e-12
          1.1907214477243244e-11 7.382039216658654e-12 2.343338290707154e-11 1.4501566112771103e-11 4.433917386064689e-12 5.632520734362709e-12
          3.538115386784766e-12 4.324986664620747e-12 3.660588648346518e-12 4.493289012880517e-12 3.5939438919982233e-12 8.784602957309566e-12
          5.9047661545283965e-12 6.8359213254373655e-12 5.56147901272834e-11 3.4650968128907246e-11 3.5786993332359105e-11 2.2155985186465186e-11
          4.311648659564655e-9 9.81632236308849e-10 1.0614593070907255e-9 3.2379584465860848e-9 9.894495880084047e-8 4.8390475940541806e-8
          3.751417453763543e-8 7.978580720497214e-8 1.8405743251244554e-8 4.266286773145859e-8 6.913678403637297e-9 1.7846102330489316e-8
          9.47080100733918e-10 1.5912477324044659e-9 4.172584867267597e-9 2.6814580390176127e-10 4.766156559690724e-10 7.525028611786054e-11
          1.3017963936347445e-10 4.747710147478664e-9 4.175031644992866e-9 7.682327156198307e-9 3.052835074180868e-9 2.04918988004152e-9
          3.8021823846497895e-9 1.2702408559943506e-9 1.9285710681611026e-11 2.879478082655535e-11 2.1956989476030004e-11 3.3616511579773197e-11
          8.161260629378375e-10 1.2502897756093033e-9 1.5488282656308945e-10 2.569121361089238e-10 6.853417510923649e-10 5.676323256073195e-11
          1.0240591881929473e-10 2.763556932855867e-11 5.083096849335627e-11 1.2668128036088087e-10 2.782414313966413e-11 6.545845599676945e-10
          6.257022674820041e-10 7.429697817462987e-10 4.5445474244112614e-10 4.356651231349663e-10 5.589208272061897e-10 3.8321520082165754e-10
          4.722912876539799e-10 5.731280022997204e-10 3.1277232425987427e-10 3.7874907811765606e-10 2.436830775162172e-10 3.2449417571015696e-10
          3.0966519764088534e-10 2.686486336679166e-10 2.1410776534152622e-10 1.4601935983837705e-10 1.618149068528603e-10 1.0800426935692485e-10
          7.151400791576134e-11 4.654874052840508e-11 2.996924384801659e-10 3.726028171607242e-10 1.8580098748967407e-10 2.3477038527802426e-10
          1.4024400451108676e-10 1.7861699858112854e-10 2.2560296659208954e-10 1.0460405037220552e-10 1.4655828967961534e-10 1.194928437213919e-10
          7.783346327919785e-11 8.736494184256315e-11 5.54579745696522e-11 5.0700026426649296e-11 3.270858567599637e-11 3.548360031931741e-11
          2.2609476591352675e-11 6.302347746069823e-11 3.925010608821603e-11 4.9722788306758454e-11 2.4630760639890662e-11 1.551424691908028e-11
          1.8940145226879603e-11 5.529912558768825e-10 5.272735435023475e-10 4.5468219327838313e-10 9.230909473728097e-10 6.629340973753733e-10
          6.298872946649243e-10 8.802737950601926e-10 5.354288557201028e-10 7.56124610788704e-10 4.6076415451805037e-10 4.3642960955984596e-10
          3.0811706748806583e-10 2.9112580713240486e-10 3.680832291128682e-10 2.442332446265875e-10 2.4614765257008185e-10 3.5690805546997857e-10
          4.0798639875014343e-10 5.857009683227169e-10 1.6637912401133088e-10 1.187734022785439e-10 1.780655528566083e-10 7.762850385336048e-11
          2.77516059064922e-10 1.831213191850944e-10 1.2730648769288504e-10 1.9407631960217174e-10 1.9763749512388085e-10 1.864259387143933e-10
          1.2149268893506444e-10 1.1451095456347839e-10 1.5597002256227918e-10 9.579276937229087e-11 1.1682582278907424e-10 7.197546956568228e-11
          8.122129078724667e-11 5.029538050298659e-11 5.332014476232255e-11 3.6104301883089e-11 5.447224466377722e-11 8.548490448574996e-11
          3.3871875131882935e-11 5.665026650464744e-11 2.42378968754498e-11 1.8200031384929698e-11 3.738549012933971e-11 1.6767640949996026e-11
          2.9655184152305706e-11 1.3465156620750628e-10 8.595275382474846e-11 8.737077828063823e-11 5.343958333369684e-11 2.0804334803774614e-10
          1.3299873618492514e-10 8.441188812008463e-11 1.3226776440800113e-10 8.265352982069249e-11 5.263294138253467e-11 5.6496830433559575e-11
          2.254035015866108e-11 3.607707554063569e-11 1.5792748127789337e-11 5.3361965234494524e-11 8.370960665400325e-11 3.3249280278815106e-11
          3.3376185356510127e-11 5.26839929725833e-11 2.465437249120087e-11
        </DataArray>
        <DataArray type="Float64" Name="gradient_matprop_error" format="ascii" RangeMin="0" RangeMax="0">
          0 0 0 0 0 0
          0 0 0 0 0 0
          0 0 0 0 0 0
          0 0 0 0 0 0
          0 0 0 0 0 0