<?xml version="1.0"?>
<VTKFile type="UnstructuredGrid" version="0.1" byte_order="LittleEndian" header_type="UInt32" compressor="vtkZLibDataCompressor">
  <UnstructuredGrid>
    <Piece NumberOfPoints="850" NumberOfCells="547">
      <PointData>
        <DataArray type="Int32" Name="libmesh_node_id" format="ascii" RangeMin="323" RangeMax="4103">
          323 484 490 491 496 498
          499 504 505 1101 1102 1103
          1111 1112 1136 1137 1139 1141
          1142 1143 1156 1169 1170 1171
          1172 1173 1176 1186 1190 1192
          1193 1194 1195 1196 1197 1198
          1199 1200 1201 1202 1203 1206
          1208 1209 1211 1216 1217 1223
          1226 1227 1228 1229 1230 1231
          1232 1233 1234 1235 1236 1237
          1240 1242 1243 1245 1246 1247
          1250 1251 1253 1257 1711 1712
          1713 1714 1715 1752 1753 1754
          1755 1756 1757 1758 1759 1760
          1761 1765 1766 1767 1768 1769
          1780 1781 1782 1783 1784 1785
          1786 1787 1788 1789 1797 1798
          1799 1800 1801 1802 1803 1804
          1805 1806 1807 1808 1809 1810
          1811 1812 1813 1814 1815 1816
          1817 1818 1819 1820 1821 1822
          1823 1824 1825 1826 1827 1828
          1829 1830 1831 1832 1833 1834
          1835 1844 1845 1846 1847 1848
          1849 1850 1851 1852 1853 1866
          1867 1868 1876 1877 1878 1879
          1880 1881 1882 1883 1884 1885
          1886 1887 1888 1889 1890 1891
          1892 1893 1894 1895 1896 1897
          1898 1899 1900 1901 1902 1903
          1904 1905 1906 1907 1908 1909
          1910 1911 1912 1913 1914 1915
          1916 1917 1918 1919 1920 1921
          1922 1923 1924 1925 1926 1927
          1928 1929 1930 1931 1932 1933
          1934 1935 1936 1937 1938 1939
          1940 1941 1942 1943 1944 1945
          1946 1947 1948 1949 1950 1951
          1952 1953 1964 1965 1966 1967
          1968 1969 1970 1978 1979 1980
          1981 1982 1983 1984 1985 1986
          1987 1998 1999 2000 2001 2002
          2003 2004 3281 3283 3284 3285
          3286 3287 3290 3291 3293 3296
          3298 3299 3300 3301 3302 3303
          3304 3305 3306 3307 3309 3311
          3312 3313 3314 3315 3374 3375
          3377 3380 3382 3383 3384 3385
          3386 3387 3388 3389 3390 3391
          3393 3395 3397 3399 3400 3401
          3402 3403 3404 3405 3408 3409
          3411 3414 3416 3417 3418 3419
          3420 3421 3422 3423 3424 3425
          3427 3429 3431 3433 3434 3435
          3436 3437 3438 3439 3440 3441
          3442 3443 3444 3445 3446 3447
          3448 3449 3450 3451 3452 3453
          3454 3455 3456 3457 3458 3459
          3460 3461 3462 3463 3472 3473
          3475 3486 3488 3492 3493 3494
          3495 3496 3497 3498 3499 3500
          3501 3502 3503 3504 3505 3506
          3507 3508 3509 3510 3511 3512
          3513 3514 3515 3516 3517 3518
          3519 3520 3521 3522 3523 3524
          3525 3526 3527 3528 3529 3530
          3531 3532 3533 3534 3535 3536
          3537 3538 3539 3540 3541 3542
          3543 3544 3545 3546 3547 3548
          3549 3550 3551 3552 3553 3554
          3555 3556 3557 3558 3559 3560
          3561 3562 3563 3564 3565 3566
          3567 3568 3569 3570 3571 3572
          3573 3574 3575 3576 3577 3578
          3579 3580 3581 3582 3583 3584
          3585 3586 3587 3588 3589 3590
          3591 3592 3593 3594 3595 3596
          3597 3598 3599 3600 3601 3602
          3603 3604 3605 3606 3607 3608
          3609 3610 3611 3612 3613 3614
          3615 3616 3617 3618 3619 3620
          3621 3622 3623 3624 3625 3626
          3627 3628 3629 3630 3631 3632
          3633 3634 3635 3636 3637 3638
          3639 3640 3641 3642 3643 3644
          3645 3646 3647 3648 3649 3650
          3651 3652 3653 3654 3655 3656
          3657 3658 3659 3660 3661 3662
          3663 3664 3665 3666 3667 3668
          3669 3670 3671 3672 3673 3674
          3675 3676 3677 3678 3679 3680
          3681 3682 3683 3684 3685 3686
          3687 3688 3689 3690 3691 3692
          3693 3694 3695 3696 3697 3698
          3699 3700 3701 3702 3703 3704
          3705 3706 3707 3708 3709 3710
          3711 3712 3713 3714 3715 3716
          3717 3718 3719 3720 3721 3722
          3723 3724 3725 3726 3727 3728
          3729 3730 3731 3732 3733 3734
          3735 3736 3737 3738 3739 3740
          3741 3742 3743 3744 3745 3746
          3747 3748 3749 3750 3751 3752
          3753 3754 3755 3756 3757 3758
          3759 3760 3761 3762 3763 3764
          3765 3766 3767 3768 3769 3770
          3771 3772 3773 3774 3775 3776
          3777 3778 3779 3780 3781 3782
          3783 3784 3785 3786 3787 3788
          3789 3790 3791 3792 3793 3794
          3795 3796 3797 3798 3799 3800
          3801 3802 3803 3804 3805 3806
          3807 3808 3809 3810 3811 3812
          3813 3814 3815 3816 3817 3818
          3819 3820 3821 3822 3823 3824
          3825 3826 3827 3828 3829 3830
          3831 3832 3833 3834 3835 3836
          3837 3838 3839 3840 3841 3842
          3843 3844 3847 3849 3850 3852
          3863 3865 3867 3869 3877 3878
          3881 3883 3884 3886 3897 3899
          3901 3903 3912 3913 3914 3917
          3918 3919 3940 3941 3942 3943
          3944 3945 3946 3947 3948 3949
          3950 3951 3952 3953 3954 3955
          3956 3957 3958 3959 3960 3961
          3962 3963 3964 3965 3966 3967
          3968 3969 3970 3971 3972 3973
          3974 3975 3976 3977 3978 3979
          3980 3981 3982 3983 3984 3985
          3986 3987 3988 3989 3990 3991
          3992 3993 3994 3995 3996 3997
          3998 3999 4000 4001 4002 4003
          4004 4005 4006 4007 4008 4009
          4012 4014 4015 4017 4028 4030
          4032 4034 4042 4043 4046 4048
          4049 4051 4062 4064 4066 4068
          4076 4077 4078 4079 4080 4081
          4082 4083 4084 4085 4086 4087
          4088 4089 4090 4091 4092 4093
          4094 4095 4096 4097 4098 4099
          4100 4101 4102 4103
        </DataArray>
        <DataArray type="Float64" Name="bounds" format="ascii" RangeMin="0" RangeMax="0">
          0 0 0 0 0 0
          0 0 0 0 0 0
          0 0 0 0 0 0
          0 0 0 0 0 0
          0 0 0 0 0 0
          0 0 0 0 0 0
          0 0 0 0 0 0
          0 0 0 0 0 0
          0 0 0 0 0 0
          0 0 0 0 0 0
          0 0 0 0 0 0
          0 0 0 0 0 0
          0 0 0 0 0 0
          0 0 0 0 0 0
          0 0 0 0 0 0
          0 0 0 0 0 0
          0 0 0 0 0 0
          0 0 0 0 0 0
          0 0 0 0 0 0
          0 0 0 0 0 0
          0 0 0 0 0 0
          0 0 0 0 0 0
          0 0 0 0 0 0
          0 0 0 0 0 0
          0 0 0 0 0 0
          0 0 0 0 0 0
          0 0 0 0 0 0
          0 0 0 0 0 0
          0 0 0 0 0 0
          0 0 0 0 0 0
          0 0 0 0 0 0
          0 0 0 0 0 0
          0 0 0 0 0 0
          0 0 0 0 0 0
          0 0 0 0 0 0
          0 0 0 0 0 0
          0 0 0 0 0 0
          0 0 0 0 0 0
          0 0 0 0 0 0
          0 0 0 0 0 0
          0 0 0 0 0 0
          0 0 0 0 0 0
          0 0 0 0 0 0
          0 0 0 0 0 0
          0 0 0 0 0 0
          0 0 0 0 0 0
          0 0 0 0 0 0
          0 0 0 0 0 0
          0 0 0 0 0 0
          0 0 0 0 0 0
          0 0 0 0 0 0
          0 0 0 0 0 0
          0 0 0 0 0 0
          0 0 0 0 0 0
          0 0 0 0 0 0
          0 0 0 0 0 0
          0 0 0 0 0 0
          0 0 0 0 0 0
          0 0 0 0 0 0
          0 0 0 0 0 0
          0 0 0 0 0 0
          0 0 0 0 0 0
          0 0 0 0 0 0
          0 0 0 0 0 0
          0 0 0 0 0 0
          0 0 0 0 0 0
          0 0 0 0 0 0
          0 0 0 0 0 0
          0 0 0 0 0 0
          0 0 0 0 0 0
          0 0 0 0 0 0
          0 0 0 0 0 0
          0 0 0 0 0 0
          0 0 0 0 0 0
          0 0 0 0 0 0
          0 0 0 0 0 0
          0 0 0 0 0 0
          0 0 0 0 0 0
          0 0 0 0 0 0
          0 0 0 0 0 0
          0 0 0 0 0 0
          0 0 0 0 0 0
          0 0 0 0 0 0
          0 0 0 0 0 0
          0 0 0 0 0 0
          0 0 0 0 0 0
          0 0 0 0 0 0
          0 0 0 0 0 0
          0 0 0 0 0 0
          0 0 0 0 0 0
          0 0 0 0 0 0
          0 0 0 0 0 0
          0 0 0 0 0 0
          0 0 0 0 0 0
          0 0 0 0 0 0
          0 0 0 0 0 0
          0 0 0 0 0 0
          0 0 0 0 0 0
          0 0 0 0 0 0
          0 0 0 0 0 0
          0 0 0 0 0 0
          0 0 0 0 0 0
          0 0 0 0 0 0
          0 0 0 0 0 0
          0 0 0 0 0 0
          0 0 0 0 0 0
          0 0 0 0 0 0
          0 0 0 0 0 0
          0 0 0 0 0 0
          0 0 0 0 0 0
          0 0 0 0 0 0
          0 0 0 0 0 0
          0 0 0 0 0 0
          0 0 0 0 0 0
          0 0 0 0 0 0
          0 0 0 0 0 0
          0 0 0 0 0 0
          0 0 0 0 0 0
          0 0 0 0 0 0
          0 0 0 0 0 0
          0 0 0 0 0 0
          0 0 0 0 0 0
          0 0 0 0 0 0
          0 0 0 0 0 0
          0 0 0 0 0 0
          0 0 0 0 0 0
          0 0 0 0 0 0
          0 0 0 0 0 0
          0 0 0 0 0 0
          0 0 0 0 0 0
          0 0 0 0 0 0
          0 0 0 0 0 0
          0 0 0 0 0 0
          0 0 0 0 0 0
          0 0 0 0 0 0
          0 0 0 0 0 0
          0 0 0 0 0 0
          0 0 0 0 0 0
          0 0 0 0 0 0
          0 0 0 0 0 0
          0 0 0 0 0 0
          0 0 0 0
        </DataArray>
        <DataArray type="Float64" Name="gradient_error" format="ascii" RangeMin="1.100022204688698e-9" RangeMax="6.266156498007817e-7">
          1.1857666864271402e-9 4.167482930478929e-7 4.15844806398894e-7 5.668784827867991e-7 4.3646643413952334e-7 7.265938454845037e-8
          5.197308028879633e-7 5.053541876065386e-9 4.934655000398287e-7 4.046099212004243e-7 3.629618714724812e-7 3.658054442294267e-7
          4.243943141975248e-7 3.6186380968969275e-7 6.266156498007817e-7 6.011474673607496e-7 4.714429162380319e-7 5.312455632383182e-7
          4.968691008781887e-7 6.157925164603016e-7 4.1154123749405556e-7 2.444620883199277e-7 5.1112917200839376e-9 1.5839193581201627e-7
          5.417874770447808e-7 4.933587845330226e-7 5.966821914885254e-8 5.225595968722644e-7 5.638685630204797e-7 4.984397587851407e-7
          5.557395718070549e-7 3.5503494841086564e-7 5.009291094540727e-7 4.85425649125009e-7 4.903558667952752e-7 2.534974559740045e-7
          3.6289046404638774e-7 2.957867833395587e-7 5.049004643929659e-7 3.8167181115209843e-7 4.24374306640339e-7 3.777363408958033e-7
          8.628999335399417e-8 2.149284527265711e-7 4.162057608313788e-7 4.005511675298474e-7 3.755663293153666e-7 3.3213580169511454e-7
          3.863681252108641e-9 7.103282378170264e-8 6.500267673859784e-9 5.062793653292357e-8 4.334824959200204e-7 4.5046740027753503e-7
          2.9058151631283877e-9 3.8597590891779714e-8 1.302872960724377e-8 4.6860627525209945e-7 1.0557951755389715e-8 4.025822553827901e-8
          4.4675369295866093e-7 8.597301420184465e-9 1.791149310325877e-8 4.966424322735222e-7 5.218247375791653e-7 5.036453665471237e-7
          5.682436531579026e-7 5.541592832546114e-7 4.5899527084757046e-7 5.105636921540222e-7 8.842371810904765e-8 8.952337049508031e-8
          9.736441986304222e-8 9.062302288111295e-8 1.0601314776927637e-7 4.9384677729544284e-8 7.042420816306648e-8 5.3441967509690306e-8
          6.488260658341083e-8 9.15006916131201e-8 8.832271433692615e-8 6.689357233485894e-9 2.98490834625082e-8 1.9579819176257874e-8
          6.922247955376993e-8 1.1052682279352481e-7 1.0863669679410927e-7 1.0616040983264607e-7 1.1411593232580087e-7 1.0804486539430416e-7
          1.885597046131719e-9 5.652772089128044e-9 1.68735766868908e-9 4.679660262165898e-9 5.712875236941252e-8 6.067134737189092e-8
          1.100022204688698e-9 4.247788396479711e-9 3.613827753487136e-9 5.639385410284642e-8 1.0653224786618487e-7 1.1390223040384928e-7
          1.0968543968918494e-7 1.1746046859012094e-7 1.0690408589972366e-7 1.141508112278839e-7 1.1132601398406572e-7 1.0529329222952147e-7
          1.1131504334698903e-7 1.0927548139201034e-7 1.172968388374036e-7 1.0723591943703166e-7 1.1110085167872979e-7 1.0866899105778955e-7
          1.0623713043684932e-7 1.0379653880423884e-7 1.0560390871347944e-7 9.664249009997242e-8 1.1031138212556196e-7 1.1508405746501259e-7
          1.136475211857369e-7 1.2413893803518968e-7 1.2368940942557473e-7 1.1221098490646122e-7 1.2323988081595978e-7 6.684577659658085e-8
          9.440921340190704e-8 8.779363756733308e-8 1.2565106645389446e-7 1.1064347789360798e-7 1.1962428249328814e-7 1.0807547015881212e-7
          1.2843829147773442e-7 1.3767349946428309e-7 1.2351808516108722e-7 1.274433167474205e-7 1.256142529334953e-7 1.345594568925342e-7
          1.2378518911957007e-7 1.3482194929849694e-7 1.3431656472476904e-7 1.4682098783405732e-7 1.4630308278182876e-7 1.338111801510412e-7
          1.3959597897087094e-7 7.919112708363153e-8 8.071661473601849e-8 8.905827806765192e-8 1.0704464434807696e-7 1.4734950421698473e-7
          1.481746748794501e-7 1.3768826305665243e-7 5.6956404387243704e-8 5.8758075692588966e-8 3.460790645456502e-8 5.0328401352533906e-8
          8.85321494640932e-8 9.56993594482882e-8 4.032721996927172e-9 7.92171800171374e-9 7.093867092166246e-9 6.622616707653832e-8
          9.497262514203227e-9 4.090906410708085e-8 8.801293764550301e-9 2.7698447229578015e-8 1.0401994753988756e-7 9.801056789940048e-8
          4.9437626242789155e-9 7.119066969726599e-9 8.207141794452385e-9 6.102979162255776e-8 1.1494790405991257e-7 1.2404628749271518e-7
          1.1339720793983229e-7 1.223202828179985e-7 1.2061294126586106e-7 1.3011103743328871e-7 1.217967992371717e-7 1.3377401148684558e-7
          1.4451515795295061e-7 1.3058929497281743e-7 1.3920165181887287e-7 1.251798335888327e-7 1.2058355947746499e-7 1.421388716423942e-7
          2.1028417027376687e-9 4.188605908488683e-9 3.2044690395237926e-9 4.673336769031754e-9 6.440544071673406e-8 5.4368918395230214e-8
          1.905420013464933e-9 3.5469601957826837e-9 4.444071583686239e-9 6.32375718426566e-8 4.318092617345459e-9 5.9755796642223475e-9
          5.581458890688966e-9 7.690242491313427e-9 2.7913336094725247e-8 1.3915640161830791e-8 3.88852179112714e-9 5.818106504902819e-9
          7.50755879355458e-9 1.209119880100511e-8 1.2214300920315767e-7 1.1758726003706797e-7 1.2626864052643282e-7 1.3657228658537432e-7
          1.223124661008104e-7 1.0347595183835077e-7 1.2766262829937477e-7 9.781574612270068e-8 9.132837577554728e-8 1.4856787241881962e-7
          1.6214938147554935e-7 8.449646583196866e-8 9.275577925743279e-8 1.5051850633739846e-7 9.318309805293523e-9 1.341805121226156e-8
          1.114034616147321e-8 1.4662099608383088e-8 9.2278729695485e-8 7.998848802872827e-8 8.288424474460765e-9 1.0200608186028196e-8
          1.3064726965811046e-8 5.591987981785449e-8 1.5631852764750824e-7 1.4653550241413122e-7 1.4787285231684245e-7 1.5530688269616613e-7
          1.31583139894873e-7 1.2093025918344626e-7 1.6566618175463075e-7 7.16618772677419e-9 9.869634482382748e-9 9.271853603932936e-9
          1.2794558100721883e-8 1.5594749332227634e-8 1.8385031351614056e-8 6.555177400324736e-9 9.634790019027109e-9 1.2577792895440602e-8
          1.501472144977278e-8 9.981691298154794e-8 1.0857995615742664e-7 1.7656152391946136e-7 1.909733646342597e-7 1.0153984345811123e-7
          1.1082746060069993e-7 1.7984812590669375e-7 1.0308684333509484e-8 1.0600435215757234e-8 1.0596901949663053e-8 1.0734878694549058e-8
          1.0593368683568872e-8 1.2741057111631784e-8 9.501481160641039e-9 9.771439333404615e-9 1.0041397506168193e-8 7.536694987696428e-9
          9.216198183043964e-9 9.665510848300552e-9 8.758862187734217e-9 9.393361962524393e-9 1.011482351355714e-8 1.0791111579106261e-8
          5.8819933332689764e-9 6.9206986197083146e-9 6.256169868960628e-9 8.700414011237543e-9 1.0631516033143089e-8 1.2581899670373612e-8
          1.2846188078057579e-8 1.080736990183094e-8 1.1376858042825254e-8 1.1432305582244564e-8 3.523682076087675e-9 4.612553849921189e-9
          7.499396469663782e-9 2.8081329190351067e-9 2.9987092210122496e-9 4.031400434072098e-9 2.6453574984355885e-9 3.5685512093715155e-9
          7.019191409204851e-9 6.500795905509311e-9 1.7304468020454325e-9 2.5001519027303674e-9 2.326460273344513e-9 5.123831235495559e-9
          1.0191147641337162e-8 1.1084927967101469e-8 9.226662040978918e-9 1.0190399272975117e-8 1.0094035963580062e-8 1.140650737467248e-8
          1.1678225036448945e-8 8.975947975994484e-9 8.69623008626803e-9 1.0974090484413153e-8 1.272620820253709e-9 2.0164643111447827e-9
          4.5789972700909175e-9 1.802574841968627e-9 1.2492637817545921e-9 1.8810918238413097e-9 1.3024705554766004e-9 1.852054404426993e-9
          4.165780627004534e-9 3.848394972727237e-9 1.1030268852355574e-9 1.717403217887499e-9 1.7277961734864648e-9 3.88979975634404e-9
          8.425272342218822e-9 1.0452857946291668e-8 8.147999852011048e-9 8.102480933126353e-9 7.785817388962776e-9 1.0386320478171666e-8
          1.0276483085848467e-8 7.826494558383029e-9 7.513330582869455e-9 1.0205169154617418e-8 1.450588682186207e-8 1.4142146017071438e-8
          1.4666711067768e-8 1.5013781033707882e-8 1.5191276118464564e-8 1.5374621525359333e-8 1.5447683334367045e-8 1.590605070497922e-8
          1.5520745143374764e-8 1.79790023857666e-8 1.595837549585968e-8 1.6312434544913692e-8 1.6669587766090016e-8 1.761268317358412e-8
          1.622752240729622e-8 1.6933941651149278e-8 1.7151496153569815e-8 1.923532815879731e-8 1.8678863596182318e-8 1.9978609590949808e-8
          1.87988544391641e-8 2.119133995073781e-8 2.2379587927678964e-8 2.1552384478883345e-8 1.6300626274838724e-8 1.7505265269454305e-8
          2.093841852601445e-8 2.34735632436336e-8 2.3780193699308178e-8 1.0446045007706998e-8 1.0670880012613242e-8 1.04426118761973e-8
          1.183510942303723e-8 1.3488188562776358e-8 1.4163773677739801e-8 1.4839358792703246e-8 9.6675418682457e-9 1.0112735391319649e-8
          1.0980013899505186e-8 1.1937470233884576e-8 1.2981974802790932e-8 1.3387825217458973e-8 1.3189445777026888e-8 1.37512826747796e-8
          1.4138250251499738e-8 1.4185553796183644e-8 8.228016407828976e-9 8.960856585180306e-9 7.680815223964346e-9 8.447137039353707e-9
          1.0955446680958651e-8 1.0667090560569967e-8 4.4820092388288486e-9 5.5956918720214756e-9 5.028905270773733e-9 8.56568425807007e-9
          7.135328261797119e-9 7.93447715026615e-9 6.572883288587609e-9 7.410740024398634e-9 1.0415629614972991e-8 1.0139695708717462e-8
          3.794128350728623e-9 4.65329442605929e-9 4.563166779060369e-9 7.4402701162339944e-9 1.2688869788689893e-8 1.2894843616167603e-8
          1.3160542977994122e-8 1.3668964965938337e-8 1.154153306257974e-8 1.1420799158666714e-8 1.2661072114233447e-8 1.309567940110959e-8
          1.3289895985052388e-8 1.409372561100838e-8 1.4548997312879514e-8 1.1327557725840565e-8 1.1221601930731879e-8 1.3287035720603104e-8
          1.3523449285311212e-8 1.4137300872253926e-8 1.3557745099476072e-8 1.408725767303672e-8 1.4751152459196634e-8 1.4616770246597368e-8
          1.0304591440448296e-8 1.1154070358037142e-8 1.0549901618534309e-8 1.2613705823740836e-8 1.3434758361893503e-8 1.4071660091449395e-8
          1.3217076939306805e-8 1.4064648998468622e-8 1.470856182100529e-8 1.5877061977599546e-8 8.98266569400506e-9 1.0143853673780306e-8
          9.958097020571201e-9 1.2228441414355457e-8 1.451235200426241e-8 1.4888103378786682e-8 1.5190685088554293e-8 1.797613340645365e-8
          1.8145522995369548e-8 1.5278784629083295e-8 1.6401719294320186e-8 1.6482328322211323e-8 6.046030376209606e-9 6.926324698034923e-9
          5.856957497342384e-9 6.717845095974667e-9 9.88050640527173e-9 9.725596293566612e-9 4.2845795297082256e-9 4.817289622564277e-9
          5.3621570137739195e-9 6.966307704814901e-9 6.1465924144580595e-9 6.88350494216666e-9 6.766261005771281e-9 7.359469696078368e-9
          9.710156709057639e-9 9.851077095240573e-9 5.7015889590814745e-9 6.085780301360623e-9 6.914222086197679e-9 7.543662882567066e-9
          1.3475539253157695e-8 1.3670137738310354e-8 1.499668471563217e-8 1.5467815584094433e-8 1.116000022187598e-8 1.118446581061069e-8
          1.3737384749542488e-8 1.3896148675825157e-8 1.4160492621360585e-8 1.5992401403410294e-8 1.657150943862548e-8 1.1317256634661867e-8
          1.1631788157635369e-8 1.5443016186412807e-8 1.801314052966774e-8 1.8568857931398815e-8 1.9629552649270557e-8 1.8842985599217954e-8
          2.4677747575547145e-9 3.248418722516829e-9 2.5155192440829204e-9 3.133938583704809e-9 5.953023027922479e-9 5.497411636592985e-9
          1.784491239712365e-9 2.3099821937802257e-9 2.52495191466847e-9 4.347239923100371e-9 2.8430691765085768e-9 3.304359154029638e-9
          3.403454863120276e-9 3.766427933218014e-9 5.259232218078742e-9 5.3037591336626726e-9 2.6270289864110813e-9 2.990653575034933e-9
          3.591283542908612e-9 4.289026196361642e-9 9.873083686269659e-9 9.603756965717931e-9 1.18691840041733e-8 1.196504858157659e-8
          8.398755460160144e-9 8.111826621981858e-9 1.0938504221967631e-8 9.359288027128219e-9 9.183967883700336e-9 1.1965760749649653e-8
          1.1889818503391078e-8 7.893144761652428e-9 7.821443803777393e-9 1.056251529424035e-8 1.5117604241453676e-9 1.9800506404205535e-9
          1.9500742234743255e-9 2.342914116693008e-9 3.6551700582831823e-9 3.6754231467800533e-9 1.4360572142686905e-9 1.896423752018729e-9
          2.297653232421342e-9 3.4663217489505115e-9 2.492754477756814e-9 2.881855409950413e-9 2.9957175562087574e-9 3.449099849366593e-9
          3.973292982223358e-9 4.4936091744740425e-9 2.4324472895999096e-9 2.8407520349843036e-9 3.384444387579507e-9 3.900246771474327e-9
          7.473138065085005e-9 7.207156238306224e-9 1.0084276870299389e-8 9.799220192964033e-9 7.2076312318184145e-9 6.958436861627397e-9
          9.839409255504573e-9 7.064047551998158e-9 7.09785452168247e-9 9.452465481693612e-9 1.132575016338108e-8 6.845342310706345e-9
          6.9190950603521094e-9 9.139247858832736e-9 4.05143841761186e-9 4.405448775963973e-9 4.699132906945141e-9 5.10340861448705e-9
          5.6409434464814136e-9 6.210806206019139e-9 3.7573784802511316e-9 4.207923945555314e-9 4.827266649579718e-9 5.265570397131814e-9
          5.357237903114705e-9 5.8280456124117944e-9 6.066109858811851e-9 6.60538868340204e-9 6.954172782919329e-9 7.844915033196951e-9
          4.920101054748793e-9 5.487886357269906e-9 6.219462239971971e-9 6.780623710578646e-9 9.160250081690821e-9 9.302853654223198e-9
          1.1798072404734898e-8 1.3690931415243645e-8 7.935635404826497e-9 8.24859731191588e-9 1.2016413049348895e-8 9.594550382222423e-9
          1.0123786418426403e-8 1.4756293267960597e-8 1.5124145187159527e-8 8.769189575416642e-9 9.536984227044278e-9 1.3533051685962174e-8
          3.488038578475424e-9 4.003464130947915e-9 4.008783952690353e-9 4.579650396548438e-9 5.13723365766837e-9 5.863083687066582e-9
          3.3826683973294616e-9 3.9197980343200005e-9 4.48389196260997e-9 5.0885664793027e-9 4.572801833850932e-9 5.210805328089464e-9
          5.198874751252121e-9 5.9159687620971e-9 6.6709078782224415e-9 7.562526384515966e-9 4.4394480856044085e-9 5.105307949045907e-9
          5.801338881631344e-9 6.627428681892116e-9 7.2956856241994884e-9 7.707945783615057e-9 1.2309817441151874e-8 1.2383551342487108e-8
          7.159326660428641e-9 7.6076447284574e-9 1.2057045134827839e-8 8.406386587910016e-9 9.358574590270842e-9 1.2704892868033206e-8
          1.3240967417130152e-8 8.34249424267488e-9 9.332215762846436e-9 1.2442981862748686e-8 1.617538076195617e-8 1.6159265741844413e-8
          1.656322666742816e-8 1.6143150721732656e-8 1.7984659914265525e-8 1.828008401967427e-8 1.6535697880080076e-8 1.746954321045418e-8
          1.7019355464611196e-8 1.845939802609661e-8 1.9407644821156802e-8 1.8985818036587095e-8 2.0269409546445686e-8 1.8120550481387845e-8
          1.889385066924507e-8 1.920780098031835e-8 1.6476281530603946e-8 1.711273366996159e-8 1.7168721795386788e-8 1.8298605688452442e-8
          1.6416865181127812e-8 1.6999242173673567e-8 1.7318088126162373e-8 1.7758329674420254e-8 1.8455718237051626e-8 1.942663985447724e-8
          2.0654660824294784e-8 1.762549650685922e-8 1.830947212865617e-8 1.956632822227401e-8 1.3092977458211866e-8 1.4046627315815919e-8
          1.3082974284459006e-8 1.4091477845012734e-8 1.6518070726299612e-8 1.6870140055787694e-8 8.924524024789917e-9 1.0010122166088031e-8
          1.0315157621646376e-8 1.330389599543981e-8 1.3232873797798829e-8 1.4278956490039198e-8 1.364878982243544e-8 1.4690434732619665e-8
          1.7376261789788148e-8 1.801696963332192e-8 1.0053200705077298e-8 1.0945233972354611e-8 1.192687922869841e-8 1.388974590081033e-8
          1.849887611728687e-8 1.9533278850432563e-8 1.8961887955394483e-8 2.042625899485618e-8 1.7088232379240955e-8 1.7658676699659937e-8
          1.8664393074988423e-8 2.0575572890144665e-8 2.1651844344503355e-8 2.172366138299261e-8 2.3001829065166756e-8 1.841075802421319e-8
          1.9337447115163648e-8 2.0879291486437642e-8 7.594270839282753e-9 8.10666020342432e-9 8.591012491996895e-9 9.074607189599152e-9
          1.0212152829290978e-8 1.0886626433930946e-8 7.34874602552013e-9 7.831196665215769e-9 8.857741506501884e-9 9.095900622565309e-9
          9.740257949208051e-9 1.0240369151536578e-8 1.1007009801954997e-8 1.1587099791264137e-8 1.1895277707285063e-8 1.3202929189579327e-8
          9.349268513413688e-9 1.0017113067986713e-8 1.1342275631886173e-8 1.1517383547798746e-8 1.4491477787874934e-8 1.502304682802294e-8
          1.71776994847338e-8 1.78310426753854e-8 1.2191713435488484e-8 1.3016737216303391e-8 1.6373786613750213e-8 1.5825686881492906e-8
          1.6876319118245287e-8 1.860129870228079e-8 2.1389708389402266e-8 1.4127447252471072e-8 1.5519081300912588e-8 1.7948971275292496e-8
          1.4347685632595071e-8 1.5388331406823626e-8 1.8840560477479088e-8 1.2486706413829908e-8 1.321866559569292e-8 1.5776649641947855e-8
          2.2739303224695226e-8 2.422646267548446e-8 2.0507362551821093e-8 2.417897772610048e-8 1.2410478428046012e-8 1.31238075656975e-8
          1.4819273099606713e-8 1.1938299566204201e-8 1.2873593831945166e-8 1.4870364231856221e-8 1.823658888311863e-8 2.331251527941163e-8
          1.720975270095464e-8 2.192111163640129e-8 2.0656605852278894e-8 2.1762880492699798e-8 2.1202397724822674e-8 2.2994253572070202e-8
          2.4696015153188343e-8 2.3951763382071696e-8 6.85542956555373e-9 7.469000965122298e-9 7.745465112155044e-9 8.44636245539615e-9
          8.875747850001022e-9 1.0056185632570176e-8 6.322203038632452e-9 7.0447463722803395e-9 7.990416317574904e-9 8.71073127883045e-9
          8.760369196590218e-9 9.570012686647394e-9 9.927220590719926e-9 1.0876210374638297e-8 1.1413443792958703e-8 1.2988214442278444e-8
          8.139938424610492e-9 9.089077871741144e-9 1.0379525486379876e-8 1.1212634726399235e-8 1.0946917453730842e-8 1.204227386304604e-8
          1.5755428371319552e-8 1.6594292532556517e-8 1.0576184064070225e-8 1.1852412391823488e-8 1.4618459037937029e-8 1.3410580402221488e-8
          1.5067290300523893e-8 1.7682898184589897e-8 1.906494136839066e-8 1.3349854171845173e-8 1.5094320864782022e-8 1.6851336471434832e-8
          5.9074009572393805e-9 6.716132006394241e-9 6.7218949769247275e-9 7.639026096958467e-9 8.556930917395672e-9 9.699913245894324e-9
          5.750835966830779e-9 6.592276029431585e-9 7.506728516396655e-9 8.492065678719312e-9 7.669778568234561e-9 8.72009558183747e-9
          8.780084169828566e-9 1.0000816901041142e-8 1.1041596865220914e-8 1.2637091589546868e-8 7.49422133016414e-9 8.582076344807062e-9
          9.860266751627734e-9 1.0978303801691732e-8 1.0505751230444912e-8 1.1818804753234e-8 1.4047700054050908e-8 1.5137763690031844e-8
          1.0494921824893478e-8 1.1800546382947636e-8 1.3884425999799353e-8 1.3319100465934948e-8 1.5082546491711054e-8 1.6480223312468814e-8
          1.803961273410467e-8 1.3294422431791342e-8 1.507471402057169e-8 1.6369589497703108e-8 1.1270894847053895e-8 1.2404079658928819e-8
          1.4835267135590683e-8 1.05858550460685e-8 1.1902821116484854e-8 1.467893600761148e-8 1.7037991064456968e-8 2.0780889397421357e-8
          1.7139780009560715e-8 2.0205604432039768e-8 1.0075094388419883e-8 1.152256023409566e-8 1.455154397202633e-8 9.88595826518578e-9
          1.1382131373391024e-8 1.450297108056006e-8 1.7196521107551603e-8 1.9844972694270407e-8 1.723345479133834e-8 1.9691221842004333e-8
          2.036900370173688e-8 2.141739967839753e-8 2.1452062232985163e-8 2.2765650551270993e-8 1.9744000237295918e-8 2.0740799990416338e-8
          2.1749277675125547e-8 2.2621577417310114e-8 2.3994212437927417e-8 2.4251287860670573e-8 2.584189401412108e-8 2.197472397772483e-8
          2.343494374343731e-8 2.4559431222343684e-8 1.927578188767496e-8 2.032264344555987e-8 2.1878667348895683e-8 2.3163699742727618e-8
          1.9144964851952957e-8 2.023560577438231e-8 2.1960506088687928e-8 2.164752444144105e-8 2.3179294836602213e-8 2.4660022054812916e-8
          2.6391823641577167e-8 2.1594502189982465e-8 2.3131247927667006e-8 2.4751994004207914e-8
        </DataArray>
        <DataArray type="Float64" Name="gradient_matprop_error" format="ascii" RangeMin="0" RangeMax="0">
          0 0 0 0 0 0
          0 0 0 0 0 0
          0 0 0 0 0 0
          0 0 0 0 0 0
          0 0 0 0 0 0
          0 0 0 0 0 0
          0 0 0 0 0 0
          0 0 0 0 0 0
          0 0 0 0 0 0
          0 0 0 0 0 0
          0 0 0 0 0 0
          0 0 0 0 0 0
          0 0 0 0 0 0
          0 0 0 0 0 0
          0 0 0 0 0 0
          0 0 0 0 0 0
          0 0 0 0 0 0
          0 0 0 0 0 0
          0 0 0 0 0 0
          0 0 0 0 0 0
          0 0 0 0 0 0
          0 0 0 0 0 0
          0 0 0 0 0 0
          0 0 0 0 0 0
          0 0 0 0 0 0
          0 0 0 0 0 0
          0 0 0 0 0 0
          0 0 0 0 0 0
          0 0 0 0 0 0
          0 0 0 0 0 0
          0 0 0 0 0 0
          0 0 0 0 0 0
          0 0 0 0 0 0
          0 0 0 0 0 0
          0 0 0 0 0 0
          0 0 0 0 0 0
          0 0 0 0 0 0
          0 0 0 0 0 0