<?xml version="1.0"?>
<VTKFile type="UnstructuredGrid" version="0.1" byte_order="LittleEndian" header_type="UInt32" compressor="vtkZLibDataCompressor">
  <UnstructuredGrid>
    <Piece NumberOfPoints="1122" NumberOfCells="765">
      <PointData>
        <DataArray type="Int32" Name="libmesh_node_id" format="ascii" RangeMin="2444" RangeMax="8593">
          2444 2614 2620 2621 2950 2951
          2952 2956 2960 2963 2965 2967
          2968 2969 2970 2971 2972 2973
          2974 2975 2976 3042 3502 3972
          3980 3981 3982 3985 4009 4015
          4016 4019 4020 4021 4022 4023
          4024 4025 4026 4027 4028 4029
          4030 4031 4032 4033 4034 4035
          4036 4037 4038 4039 4040 4041
          4042 4043 4044 4045 4046 4047
          4048 4049 4050 4051 4052 4053
          4054 4055 4056 4057 4058 4059
          4060 4061 4062 4063 4064 4065
          4066 4067 4068 4069 4070 4071
          4072 4073 4074 4075 4076 4077
          4078 4079 4080 4081 4082 4083
          4084 4085 4086 4087 4088 4089
          4090 4091 4092 4093 4094 4095
          4096 4097 4098 4099 4100 4101
          4134 4135 4139 4172 4176 4266
          4267 4270 4271 4273 4275 4286
          4287 4293 4295 4306 4308 4310
          4312 4320 4322 4324 4402 4403
          4404 4405 4406 4408 4413 4414
          4415 4416 4417 4418 4419 4420
          4421 4423 4424 4427 4428 4430
          4433 4434 4436 4437 4438 4439
          4440 4444 4455 5386 5391 5392
          5393 5394 5395 5396 5397 5398
          5399 5400 5401 5402 5403 5404
          5405 5406 5407 5408 5409 5410
          5435 5436 5479 5480 5483 5484
          5729 5749 5777 5778 5779 5782
          5787 5788 5789 5792 5809 5810
          5813 5816 5817 5820 5962 5982
          6002 6003 6006 6009 6010 6013
          6030 6031 6034 6037 6038 6041
          6044 6048 6049 6050 6051 6052
          6054 6055 6056 6057 6058 6059
          6060 6061 6062 6063 6064 6065
          6066 6067 6068 6069 6071 6074
          6075 6076 6078 6079 6080 6081
          6082 6083 6084 6085 6086 6087
          6088 6089 6090 6091 6092 6093
          6094 6095 6096 6097 6098 6099
          6100 6101 6102 6103 6104 6105
          6106 6107 6108 6109 6110 6111
          6112 6113 6114 6115 6116 6117
          6118 6119 6120 6121 6122 6123
          6124 6125 6126 6127 6128 6129
          6130 6131 6132 6133 6134 6135
          6136 6137 6138 6139 6140 6141
          6142 6143 6144 6145 6146 6147
          6148 6149 6150 6151 6152 6153
          6154 6155 6156 6157 6158 6159
          6160 6161 6162 6163 6164 6165
          6166 6167 6168 6169 6170 6171
          6172 6173 6174 6175 6176 6177
          6178 6179 6180 6181 6182 6183
          6184 6185 6186 6187 6188 6189
          6190 6191 6192 6193 6194 6195
          6196 6197 6198 6199 6200 6201
          6202 6203 6204 6205 6206 6207
          6208 6209 6210 6211 6212 6213
          6214 6215 6216 6217 6218 6219
          6220 6221 6222 6223 6224 6225
          6227 6230 6231 6232 6234 6235
          6236 6237 6238 6239 6240 6241
          6242 6243 6244 6245 6247 6250
          6251 6252 6254 6255 6256 6257
          6258 6259 6260 6261 6262 6263
          6264 6265 6266 6267 6268 6269
          6270 6271 6272 6273 6274 6275
          6276 6277 6278 6279 6280 6281
          6282 6283 6284 6285 6286 6287
          6288 6289 6290 6291 6292 6293
          6294 6295 6296 6297 6298 6299
          6300 6301 6302 6303 6304 6305
          6306 6307 6308 6309 6310 6311
          6312 6313 6314 6315 6316 6317
          6318 6319 6320 6321 6322 6323
          6324 6325 6326 6327 6328 6329
          6330 6331 6332 6333 6334 6335
          6336 6337 6338 6339 6340 6341
          6342 6343 6344 6345 6346 6347
          6348 6349 6350 6351 6352 6353
          6354 6355 6356 6357 6358 6359
          6360 6361 6362 6363 6364 6365
          6366 6367 6368 6369 6370 6371
          6372 6373 6374 6375 6376 6377
          6378 6379 6380 6381 6382 6383
          6384 6385 6386 6387 6388 6389
          6390 6391 6392 6393 6394 6395
          6396 6397 6398 6399 6400 6401
          6402 6403 6404 6405 6406 6407
          6408 6409 6410 6411 6412 6413
          6414 6415 6416 6417 6606 6607
          6608 6611 6616 6617 6621 6638
          6639 6642 6645 6649 6870 6871
          6874 6898 6899 6902 7514 7515
          7516 7517 7518 7519 7520 7521
          7522 7523 7524 7525 7528 7529
          7531 7533 7534 7535 7536 7537
          7538 7539 7540 7541 7542 7543
          7544 7545 7546 7547 7548 7549
          7550 7551 7553 7554 7555 7556
          7557 7558 7559 7560 7561 7563
          7565 7567 7568 7569 7570 7571
          7572 7573 7574 7575 7577 7579
          7581 7636 7637 7638 7639 7640
          7641 7642 7643 7644 7645 7646
          7647 7650 7651 7653 7655 7656
          7657 7658 7659 7660 7661 7663
          7664 7665 7666 7667 7673 7675
          7716 7717 7718 7719 7720 7721
          7722 7723 7725 7727 7729 7730
          7731 7732 7733 7734 7735 7736
          7737 7739 7741 7743 7744 7745
          7746 7747 7748 7749 7750 7751
          7753 7755 7757 7758 7759 7760
          7761 7762 7763 7764 7765 7767
          7769 7771 7828 7829 7830 7831
          7832 7833 7834 7835 7837 7839
          7841 7842 7843 7844 7845 7846
          7847 7848 7849 7851 7853 7856
          7857 7858 7859 7860 7861 7862
          7863 7865 7867 7869 7870 7871
          7872 7874 7875 7876 7877 7881
          8338 8339 8340 8341 8342 8343
          8344 8345 8346 8347 8348 8349
          8350 8351 8352 8353 8354 8355
          8356 8357 8358 8359 8360 8361
          8362 8363 8364 8365 8366 8367
          8368 8369 8370 8371 8372 8373
          8374 8375 8376 8377 8378 8379
          8380 8381 8382 8383 8384 8385
          8386 8387 8388 8389 8390 8391
          8392 8393 8394 8395 8396 8397
          8398 8399 8400 8401 8402 8403
          8404 8405 8406 8407 8408 8409
          8410 8411 8412 8413 8414 8415
          8416 8417 8418 8419 8420 8421
          8422 8423 8424 8425 8427 8428
          8429 8430 8431 8432 8433 8434
          8435 8436 8437 8438 8439 8440
          8441 8444 8445 8447 8450 8451
          8452 8453 8454 8455 8456 8457
          8458 8459 8461 8462 8463 8464
          8465 8466 8468 8469 8470 8471
          8475 8478 8479 8480 8481 8482
          8483 8484 8485 8486 8487 8488
          8489 8490 8491 8492 8493 8496
          8497 8499 8501 2957 2959 2616
          2961 2958 2962 2964 2966 3027
          3025 3028 3026 3033 3032 3500
          2612 3512 3510 3501 3513 3511
          3506 3515 3509 3516 2617 3524
          3537 3525 3538 3542 3005 3009
          3555 3552 3035 3557 3037 4288
          4272 4289 4290 4291 4292 4422
          3036 4425 4426 4429 4432 4431
          3038 4435 4407 4449 4447 4450
          4448 4410 4454 4412 4453 4452
          3044 4456 4457 4442 4458 4462
          4464 4466 4467 4468 5481 5437
          5482 5485 2984 4268 7526 6618
          7527 7530 4136 7532 4269 7552
          6646 7562 7564 2985 7566 4274
          7576 7578 7580 3006 7648 7649
          7652 7654 4294 7662 7668 7669
          7670 7671 7672 7674 3010 6877
          6878 7724 7726 6881 4173 7728
          4307 7738 7740 7742 4309 6905
          6906 7752 7754 6909 2990 7756
          4311 7766 7768 7770 3012 7836
          7838 7840 4321 7850 7852 7854
          7855 4323 7864 7866 7868 4325
          7873 4326 7878 7879 7880 7882
          7883 3014 8426 4441 8442 8443
          8446 8448 8449 4443 8460 4445
          8467 4446 8472 8473 8474 8476
          8477 3043 8494 8495 8498 8500
          8512 8513 8514 8515 8516 8517
          8519 8520 8521 8523 8529 8525
          8530 8552 8553 8554 8556 8557
          8558 8559 8560 8563 8564 8586
          8587 8588 8590 8591 8592 8593
        </DataArray>
        <DataArray type="Float64" Name="bounds" format="ascii" RangeMin="0" RangeMax="0">
          0 0 0 0 0 0
          0 0 0 0 0 0
          0 0 0 0 0 0
          0 0 0 0 0 0
          0 0 0 0 0 0
          0 0 0 0 0 0
          0 0 0 0 0 0
          0 0 0 0 0 0
          0 0 0 0 0 0
          0 0 0 0 0 0
          0 0 0 0 0 0
          0 0 0 0 0 0
          0 0 0 0 0 0
          0 0 0 0 0 0
          0 0 0 0 0 0
          0 0 0 0 0 0
          0 0 0 0 0 0
          0 0 0 0 0 0
          0 0 0 0 0 0
          0 0 0 0 0 0
          0 0 0 0 0 0
          0 0 0 0 0 0
          0 0 0 0 0 0
          0 0 0 0 0 0
          0 0 0 0 0 0
          0 0 0 0 0 0
          0 0 0 0 0 0
          0 0 0 0 0 0
          0 0 0 0 0 0
          0 0 0 0 0 0
          0 0 0 0 0 0
          0 0 0 0 0 0
          0 0 0 0 0 0
          0 0 0 0 0 0
          0 0 0 0 0 0
          0 0 0 0 0 0
          0 0 0 0 0 0
          0 0 0 0 0 0
          0 0 0 0 0 0
          0 0 0 0 0 0
          0 0 0 0 0 0
          0 0 0 0 0 0
          0 0 0 0 0 0
          0 0 0 0 0 0
          0 0 0 0 0 0
          0 0 0 0 0 0
          0 0 0 0 0 0
          0 0 0 0 0 0
          0 0 0 0 0 0
          0 0 0 0 0 0
          0 0 0 0 0 0
          0 0 0 0 0 0
          0 0 0 0 0 0
          0 0 0 0 0 0
          0 0 0 0 0 0
          0 0 0 0 0 0
          0 0 0 0 0 0
          0 0 0 0 0 0
          0 0 0 0 0 0
          0 0 0 0 0 0
          0 0 0 0 0 0
          0 0 0 0 0 0
          0 0 0 0 0 0
          0 0 0 0 0 0
          0 0 0 0 0 0
          0 0 0 0 0 0
          0 0 0 0 0 0
          0 0 0 0 0 0
          0 0 0 0 0 0
          0 0 0 0 0 0
          0 0 0 0 0 0
          0 0 0 0 0 0
          0 0 0 0 0 0
          0 0 0 0 0 0
          0 0 0 0 0 0
          0 0 0 0 0 0
          0 0 0 0 0 0
          0 0 0 0 0 0
          0 0 0 0 0 0
          0 0 0 0 0 0
          0 0 0 0 0 0
          0 0 0 0 0 0
          0 0 0 0 0 0
          0 0 0 0 0 0
          0 0 0 0 0 0
          0 0 0 0 0 0
          0 0 0 0 0 0
          0 0 0 0 0 0
          0 0 0 0 0 0
          0 0 0 0 0 0
          0 0 0 0 0 0
          0 0 0 0 0 0
          0 0 0 0 0 0
          0 0 0 0 0 0
          0 0 0 0 0 0
          0 0 0 0 0 0
          0 0 0 0 0 0
          0 0 0 0 0 0
          0 0 0 0 0 0
          0 0 0 0 0 0
          0 0 0 0 0 0
          0 0 0 0 0 0
          0 0 0 0 0 0
          0 0 0 0 0 0
          0 0 0 0 0 0
          0 0 0 0 0 0
          0 0 0 0 0 0
          0 0 0 0 0 0
          0 0 0 0 0 0
          0 0 0 0 0 0
          0 0 0 0 0 0
          0 0 0 0 0 0
          0 0 0 0 0 0
          0 0 0 0 0 0
          0 0 0 0 0 0
          0 0 0 0 0 0
          0 0 0 0 0 0
          0 0 0 0 0 0
          0 0 0 0 0 0
          0 0 0 0 0 0
          0 0 0 0 0 0
          0 0 0 0 0 0
          0 0 0 0 0 0
          0 0 0 0 0 0
          0 0 0 0 0 0
          0 0 0 0 0 0
          0 0 0 0 0 0
          0 0 0 0 0 0
          0 0 0 0 0 0
          0 0 0 0 0 0
          0 0 0 0 0 0
          0 0 0 0 0 0
          0 0 0 0 0 0
          0 0 0 0 0 0
          0 0 0 0 0 0
          0 0 0 0 0 0
          0 0 0 0 0 0
          0 0 0 0 0 0
          0 0 0 0 0 0
          0 0 0 0 0 0
          0 0 0 0 0 0
          0 0 0 0 0 0
          0 0 0 0 0 0
          0 0 0 0 0 0
          0 0 0 0 0 0
          0 0 0 0 0 0
          0 0 0 0 0 0
          0 0 0 0 0 0
          0 0 0 0 0 0
          0 0 0 0 0 0
          0 0 0 0 0 0
          0 0 0 0 0 0
          0 0 0 0 0 0
          0 0 0 0 0 0
          0 0 0 0 0 0
          0 0 0 0 0 0
          0 0 0 0 0 0
          0 0 0 0 0 0
          0 0 0 0 0 0
          0 0 0 0 0 0
          0 0 0 0 0 0
          0 0 0 0 0 0
          0 0 0 0 0 0
          0 0 0 0 0 0
          0 0 0 0 0 0
          0 0 0 0 0 0
          0 0 0 0 0 0
          0 0 0 0 0 0
          0 0 0 0 0 0
          0 0 0 0 0 0
          0 0 0 0 0 0
          0 0 0 0 0 0
          0 0 0 0 0 0
          0 0 0 0 0 0
          0 0 0 0 0 0
          0 0 0 0 0 0
          0 0 0 0 0 0
          0 0 0 0 0 0
          0 0 0 0 0 0
          0 0 0 0 0 0
          0 0 0 0 0 0
          0 0 0 0 0 0
          0 0 0 0 0 0
          0 0 0 0 0 0
          0 0 0 0 0 0
          0 0 0 0 0 0
          0 0 0 0 0 0
        </DataArray>
        <DataArray type="Float64" Name="gradient_error" format="ascii" RangeMin="1.5426957195909927e-12" RangeMax="3.054925203231472e-8">
          3.0460010549382114e-11 1.418479183553133e-10 7.888213472946841e-10 3.6164616675072974e-9 2.671039702067186e-10 5.433910350330638e-10
          3.809001784380188e-10 9.952233822344845e-10 1.1333155075620522e-8 2.6547668979854303e-9 1.624099286442467e-8 2.517554545355289e-10
          1.5171970482438415e-10 1.2786700945067012e-10 9.547772860510456e-11 2.0349540133708646e-10 2.613462739145937e-11 1.470349029866451e-11
          3.171400007401301e-10 2.2266412703915841e-10 4.9153823606286867e-11 5.159330653251456e-12 1.0915174540053769e-10 2.3209075205756106e-10
          1.9305390358651226e-10 1.8144373197677882e-10 1.427884662299958e-10 4.575771672986082e-10 9.5072631952511e-10 8.480409062110458e-10
          7.398930275125315e-10 8.946916797796292e-10 9.251063353564454e-10 1.9615552314327302e-9 1.1034695538857446e-9 3.467273488304395e-9
          4.0068589825529186e-10 5.336653430549092e-10 2.553028217643833e-10 8.640643324133796e-10 5.306758396493639e-9 2.9329189592998886e-9
          6.098428687982105e-9 1.2520349601131091e-9 5.930107759973289e-10 1.4425860432539857e-9 5.660250440445986e-10 1.0726339433357816e-9
          1.637797934578909e-10 1.3528056757672495e-10 4.2439507372385505e-10 6.328540911057196e-10 1.2397641082235562e-10 1.919526466260971e-9
          3.077055812272811e-10 1.0481677598806635e-9 1.1550991713180497e-10 1.0270698447585506e-10 8.407543770746434e-11 7.95574768820523e-11
          1.1321546093735127e-10 8.788658685563395e-11 6.612357177709166e-11 2.513192381612871e-10 2.0464878169200932e-10 1.1988077594839715e-10
          3.2042001887452927e-10 3.4058245264311883e-10 1.9714799509297567e-10 1.1773365805103647e-10 1.4705912341106735e-10 1.6062133645576714e-10
          5.243426395242997e-11 4.757166457062367e-10 6.599826548218013e-11 2.2452447653342804e-10 1.3334405930199945e-10 8.071029063545474e-11
          9.781744229321813e-11 5.947982022750068e-11 5.927517573478495e-11 3.5340612920393756e-11 2.547033926873322e-11 5.05345115284054e-11
          3.937863413310591e-11 1.930108409835726e-11 2.958547868672345e-9 5.468803523922425e-10 1.6238490448819914e-9 2.6619729809478e-10
          3.409578105195132e-9 6.242037592916242e-10 1.908790798614133e-9 4.719706797772689e-10 4.0100047309956367e-10 2.2125055656553943e-10
          1.8290375267146513e-10 5.442039145061266e-10 4.671727749743539e-10 2.665813673861152e-10 6.951417475858481e-10 1.1104512575389322e-10
          3.239299012640698e-10 4.146088981220229e-11 8.049361281013201e-10 1.3336618469791756e-10 3.753629012077219e-10 8.916512896568118e-11
          7.18014846984096e-11 3.1992909741979306e-11 2.508258954724011e-11 1.0847577288816976e-10 8.826820443200746e-11 3.845144376940776e-11
          1.0406920982405087e-10 1.1021848308792306e-10 3.0933255860718195e-10 6.287012444615648e-10 6.780457660841207e-10 6.112819686494523e-11
          6.051491233012266e-11 6.038877359113525e-11 4.931345190938423e-11 1.6313750660482233e-10 7.472626317030534e-11 7.165152037278843e-11
          4.37591030054631e-11 3.026835374647962e-11 1.1095722586567185e-11 3.324772395755069e-10 1.4809887766625622e-10 3.913325654017006e-10
          1.82036680740761e-10 5.6856405548695755e-11 1.9418657922584997e-11 7.056364223890463e-11 6.340824005697848e-11 8.632628580957207e-11
          6.300355234490823e-11 1.303343481913908e-10 1.6987754099352672e-10 1.8833071716643745e-10 5.320727270736987e-11 6.08105196264475e-11
          3.5335846514609626e-11 2.85509261471846e-11 3.4846519879944546e-11 4.846560878474272e-11 2.8274382771776943e-11 7.624320425217551e-11
          1.6636389281199412e-11 2.3719202458960715e-11 1.9377964146074425e-11 1.4516562245668262e-11 1.948081242567168e-11 1.1711101208753366e-11
          9.461681352545562e-11 1.4118549498653114e-11 8.02965954182531e-12 1.0535680949528613e-10 1.64004975973126e-11 4.683869432532861e-11
          1.053061070109116e-11 1.2392804165000006e-11 4.7564288330251e-12 2.802430845870728e-10 9.701035950801804e-11 2.0197722992460303e-10
          1.4684572161923717e-10 2.0566286774558325e-10 2.761119735983152e-10 2.185977330278461e-10 1.5834931018366016e-10 2.4340978143041546e-10
          9.469458778824312e-11 1.786865625677803e-10 1.2791579202957921e-10 1.8839178632322643e-10 1.3294701516290912e-10 6.718287393008973e-11
          1.2597432229112907e-10 4.763159034113491e-11 9.054356699467149e-11 5.5843471879097613e-11 9.245196205349555e-11 6.593957616118993e-11
          4.970317003041693e-11 1.0655195007244844e-10 3.351487157018606e-11 6.489155419932554e-11 2.731602858357958e-11 4.657271288220692e-11
          1.4396152858683888e-10 3.6170463364704454e-10 9.123547875950252e-11 1.2324594350721984e-10 1.0777081929905452e-10 2.042636419331312e-10
          6.897464184184376e-11 9.455757124807521e-11 8.276551496395182e-11 1.6123489627906944e-10 3.2594846128628267e-10 2.944624169805594e-10
          4.983182264367879e-10 2.654365397111214e-10 2.381700894469981e-10 4.1862883024816937e-10 7.624102345746099e-10 1.0098910151374592e-9
          7.122412879314252e-10 6.639420569405246e-10 9.001216567240851e-10 6.158713051852824e-10 5.678493924815855e-10 7.945780457554117e-10
          9.594827992274476e-10 9.07814205572027e-10 9.451944549572395e-10 8.543467854609589e-10 7.991884042137557e-10 8.425662168037313e-10
          1.22442185779011e-10 8.474064521115277e-11 1.1228907004594285e-10 8.758195552910313e-11 1.0792933291486554e-10 8.53358899431018e-11
          1.7985795339365043e-10 1.6478363616533622e-10 7.861162940510827e-11 9.229576887158259e-11 7.929885844900819e-11 1.3671503192227345e-10
          6.674151580617997e-11 8.079751886549262e-11 4.935158774951616e-11 6.285034290628697e-11 5.812109496066314e-11 6.887621411550476e-11
          5.2733735822364146e-11 1.215848147310342e-10 9.81947007623364e-11 9.564088137844964e-11 2.60017599344818e-10 2.7829371959980077e-10
          2.403510246861371e-10 2.0745314038200836e-10 4.1593261008124565e-10 3.480667715356628e-10 1.9349044063771664e-10 1.3682353767226588e-10
          2.729211660324447e-10 1.7687628296490024e-10 1.4988292984731414e-10 1.2437104096776005e-10 1.0422435957916345e-10 2.5297897564740973e-10
          2.198694504478465e-10 1.7651793417680307e-10 7.098417459436211e-11 9.544714015212542e-11 6.133121853821422e-11 8.305831018749498e-11
          5.3865835046460735e-11 7.187527575774321e-11 6.218738640184621e-11 1.569977412008664e-10 1.386989343930044e-10 1.1694453812531691e-10
          5.3211058515124464e-11 7.258873778643947e-11 4.610461495665472e-11 6.333365147559301e-11 4.0049843313729515e-11 5.417123088993491e-11
          4.715303470687903e-11 1.2273894946190822e-10 1.0831294838278819e-10 9.04922268453842e-11 4.035583341117111e-11 5.221343675409278e-11
          3.432817609926816e-11 4.482154248401822e-11 3.4905890486675156e-11 4.337352845450019e-11 3.702302947911409e-11 8.406137385216183e-11
          7.339005449222641e-11 6.525409713562225e-11 2.989117432055013e-11 3.904556570061884e-11 2.610737216487295e-11 3.404825027152534e-11
          2.5862927146512597e-11 3.2304523188815447e-11 2.8260080047970332e-11 6.439334837288334e-11 5.6410955571016365e-11 4.9724332851672794e-11
          2.487845738840473e-10 2.234382040446665e-10 1.8367637776443426e-10 1.6391109695260318e-10 3.7850360110928223e-10 3.4534102449692476e-10
          2.773871148656436e-10 2.0043462893374547e-10 1.7907354843732725e-10 1.4629268643377088e-10 1.301328705756333e-10 3.14163337096255e-10
          2.8436672853618627e-10 2.272868577561748e-10 1.314830346362201e-10 1.1659177147514788e-10 9.07219242828206e-11 7.999028990265511e-11
          1.9624398501421156e-10 1.7651486970692096e-10 1.3422632680233236e-10 1.0351909829618349e-10 9.165866828776324e-11 7.065223537042209e-11
          6.226460654357941e-11 1.5868746494951893e-10 1.421368587682841e-10 1.0714305072547932e-10 7.961273105860737e-11 9.331483803054592e-11
          6.442901009613182e-11 1.284040922235541e-10 7.074034802378925e-11 8.470399950492143e-11 5.691833605980922e-11 7.052223616863965e-11
          4.835839578159877e-11 5.76044165993867e-11 4.681396152735658e-11 1.1837715043582234e-10 1.0136666445272118e-10 7.913665150524328e-11
          3.5684630169700494e-11 4.202443618350002e-11 2.762334493488475e-11 5.608514890096339e-11 3.152435655970656e-11 3.7520906948634117e-11
          2.490335697748666e-11 3.02586105713603e-11 2.066241191173484e-11 2.435278883839099e-11 1.9234257858716046e-11 5.076771176299235e-11
          4.204063161047937e-11 3.24134425557657e-11 4.858196386841155e-11 6.087706833755938e-11 4.231152344540155e-11 5.33620329754056e-11
          3.2420325440981775e-11 4.003331061625147e-11 3.486749212368695e-11 8.896726632470665e-11 7.891850630234617e-11 5.737494099790203e-11
          3.689607925715664e-11 4.688422399615796e-11 3.213958066667605e-11 4.113520314147659e-11 2.4361884898352327e-11 3.0472968690098283e-11
          2.6618936037860177e-11 7.012840114263738e-11 6.217536113685388e-11 4.464462029066476e-11 2.0850989616585534e-11 2.559638376921697e-11
          1.791735457905545e-11 2.2127776209536172e-11 1.336633600961114e-11 1.6124050793491165e-11 1.3837508402054845e-11 3.6135495761700344e-11
          3.158628597294435e-11 2.2252577661782432e-11 1.545751193545469e-11 1.9229087018001503e-11 1.3363062942261747e-11 1.6722217883491064e-11
          9.785221496524155e-12 1.1955870598759737e-11 1.0349106300910932e-11 2.7737246109823703e-11 2.4337951268608157e-11 1.684543018411815e-11
          5.109036867083421e-10 5.835905844707459e-10 4.801809835924151e-10 4.30476631920853e-10 7.358474370576227e-10 5.885821622287847e-10
          3.721215281368752e-10 2.5890470314800405e-10 4.4872526066767986e-10 3.46633320987567e-10 3.057793864509562e-10 2.39798196803768e-10
          2.0909228450118868e-10 4.2760603937384405e-10 3.8975846455807875e-10 2.969325058150746e-10 6.845837694604433e-10 8.044214589711735e-10
          6.58345348379899e-10 6.111432433803296e-10 8.09173019899136e-10 6.831662837579634e-10 5.089745422420167e-10 3.603087254118342e-10
          5.38430013126478e-10 4.846750549784124e-10 4.423923250271018e-10 3.396361865887039e-10 3.049466563166245e-10 5.068831802819886e-10
          4.5681314917727874e-10 3.5706431330420726e-10 5.408329630443473e-10 5.00715643008765e-10 3.9499290016858054e-10 3.629271281660189e-10
          6.910941670273522e-10 6.465799954451051e-10 5.084397244085895e-10 4.615551059661821e-10 4.230387851947531e-10 3.323363007789461e-10
          3.027542497973381e-10 6.018551968440777e-10 5.568812058332648e-10 4.362525600119557e-10 2.7760580691194937e-10 2.5304710511787877e-10
          1.8802298143828283e-10 1.7005749647389584e-10 3.583725661049241e-10 3.29906910332486e-10 2.4232450799248076e-10 2.3016351894998737e-10
          2.0840721302899074e-10 1.5365337148424254e-10 1.3830365001721673e-10 3.0275465747774334e-10 2.7646009324429215e-10 2.0159925312523226e-10
          7.585998163592721e-10 7.128638126963327e-10 5.707380187183174e-10 5.322002799527268e-10 7.6315379361022e-10 7.175808126662356e-10
          5.831565549725901e-10 6.664682319638844e-10 6.193962142361476e-10 4.940736880559507e-10 4.5610062996431204e-10 6.713673839808964e-10
          6.244580182265088e-10 5.056346797764463e-10 4.0865808530415376e-10 3.779203076524347e-10 2.7895144627733e-10 2.5586597968921914e-10
          4.222090438590657e-10 3.9080960829642415e-10 2.9033047191496985e-10 3.48314963647685e-10 3.193905586562712e-10 2.3413836311831086e-10
          2.1329123127607007e-10 3.605241772681079e-10 3.308861931570427e-10 2.441898925825777e-10 1.704564348158591e-10 1.14428621276937e-10
          2.0592575247547343e-10 1.583937225907272e-10 1.3804617100951606e-10 1.0438591025777681e-10 8.854613202312848e-11 1.949974383438817e-10
          1.7477671283411795e-10 1.2789796278559958e-10 7.165934737674627e-11 4.617350170873957e-11 8.51147962142214e-11 6.557630907347245e-11
          5.5468090410729644e-11 4.1362890036996546e-11 3.3907522935981656e-11 7.91867946574879e-11 6.873590928007662e-11 4.9636902695706055e-11
          2.3485296218547686e-10 1.578254616433845e-10 2.489760496071013e-10 2.2298617964151932e-10 2.0095826175531384e-10 1.4621834094314687e-10
          1.2752605053909569e-10 2.3467827789113865e-10 2.0984824723345165e-10 1.5398971123733624e-10 9.585355291077388e-11 6.181802290560554e-11
          1.0099015254197017e-10 8.968264397404934e-11 7.858503310888768e-11 5.605705051499587e-11 4.7082935697874726e-11 9.412635059164473e-11
          8.216702942335663e-11 5.878235636608847e-11 1.230725880438348e-10 1.1048536798370347e-10 7.817884569424897e-11 6.965226182103137e-11
          1.5767896063803533e-10 1.428391579085953e-10 9.921023734023244e-11 9.918199614331164e-11 8.875694425925946e-11 6.212408329025243e-11
          5.5274803229100105e-11 1.2925227196853856e-10 1.1653123825403726e-10 8.013308262878518e-11 4.8396327974276365e-11 4.276948024602486e-11
          2.92855805583075e-11 2.5667207200865968e-11 6.067243089713441e-11 5.407388540361027e-11 3.6210550998926434e-11 3.789530259950473e-11
          3.3521370628313934e-11 2.258904116818396e-11 1.9863946250694998e-11 4.825809827334336e-11 4.297170109238168e-11 2.8347918277063052e-11
          1.8222133204675138e-10 1.658411603358298e-10 1.1456931050430622e-10 1.0345603397790815e-10 1.9046755906239564e-10 1.7355027072259324e-10
          1.1997225151236259e-10 1.5070406111499247e-10 1.3641550043215916e-10 9.33692100055936e-11 8.399158086145058e-11 1.578831370294156e-10
          1.4306251621733212e-10 9.801523323463645e-11 6.976614357752066e-11 6.247730770075562e-11 4.136285406244236e-11 3.671802517512091e-11
          7.305086770777294e-11 6.551143098046864e-11 4.325237749745317e-11 5.599234833708412e-11 5.005297549188883e-11 3.2668469189344386e-11
          2.9014939618691148e-11 5.87852752073919e-11 5.261076034314626e-11 3.425484349368962e-11 5.19239525250958e-11 7.212802115544665e-11
          6.252401514472027e-11 1.2581353979499983e-10 3.83428629300286e-11 5.389845412974181e-11 9.595601834882112e-11 2.1248327578856977e-10
          1.8838620871469885e-10 3.4440244948577886e-10 1.6592431458261066e-10 2.759346226717606e-10 5.20133536404815e-10 4.731449768630768e-10
          6.844098668820407e-10 7.427456291204246e-10 6.855888132430451e-10 7.338052600877777e-10 3.988955293168656e-11 5.506414096430914e-11
          3.446173534510711e-11 4.764471225311603e-11 2.998575353162593e-11 4.08797166654098e-11 3.524621005093458e-11 9.512746835873461e-11
          8.307783800942973e-11 6.961650913116538e-11 2.9780860096196625e-11 4.0972303296303714e-11 2.2935523226540686e-11 3.007495477807702e-11
          7.21510925388684e-11 5.211769126519379e-11 2.2461376357961443e-11 2.940751173847391e-11 1.938690039566455e-11 2.526356001973247e-11
          1.9484330469999435e-11 2.4342854375126724e-11 2.0895414002576728e-11 4.9203726586912156e-11 4.2636241344747103e-11 3.787443887878522e-11
          1.7412370083122616e-11 2.166636458019907e-11 1.6764837734218613e-11 1.9997635043045853e-11 1.5019238987455616e-11 1.8214776278753125e-11
          1.7100415672341725e-11 3.653736503748103e-11 2.8424317944977744e-11 1.5914897691298818e-10 1.4064653142404897e-10 1.152000306335723e-10
          1.0146002776684024e-10 2.5587810203183824e-10 2.2879065007928262e-10 1.83261836711966e-10 1.2363828056471128e-10 8.902546305732309e-11
          2.0321678013091165e-10 1.4428931166527456e-10 8.082540671326817e-11 7.092795541213277e-11 5.471473125347459e-11 4.787389128644519e-11
          1.266751944313482e-10 1.1226426002728756e-10 8.469156459198227e-11 6.196982976029115e-11 4.1677494327688594e-11 9.888552025605891e-11
          6.555332102923726e-11 2.8008425203176113e-11 3.60107153973537e-11 2.4313375875659863e-11 3.138552551846608e-11 1.8363073182337987e-11
          2.3209761987918218e-11 2.0141043154985683e-11 5.48947462613755e-11 4.822699129902161e-11 3.460411651446465e-11 2.0962208189321104e-11
          2.7195398282327748e-11 1.35676340001477e-11 1.7358363511698157e-11 4.2142549633046855e-11 2.63454193193381e-11 1.156420889394577e-11
          1.4521708288968455e-11 9.964997676918423e-12 1.2557651402317764e-11 7.259234279551808e-12 8.948527471504418e-12 2.1286438174843163e-11
          1.8537617492876966e-11 1.2798458442790517e-11 8.512986621996718e-12 1.0792840726789486e-11 1.6067609765885668e-11 9.575739011382427e-12
          3.852897213287875e-10 3.4857863437821926e-10 2.741661354145065e-10 2.4670560318800915e-10 5.119387585067223e-10 4.674445300905061e-10
          3.663245775667629e-10 3.1321627636710133e-10 2.2055195897910157e-10 4.2385361544160745e-10 2.997451353357315e-10 1.8767008064552175e-10
          1.679878095151147e-10 1.238631857460847e-10 1.1031107504275089e-10 2.509938050038088e-10 2.2647209002979967e-10 1.6506126352283942e-10
          1.494407180490509e-10 9.76670797026873e-11 2.0304799737538546e-10 1.3207982945095082e-10 5.719576949578835e-10 5.246036894842201e-10
          4.184354303798663e-10 3.81378178656231e-10 5.771428576016596e-10 5.298593633756646e-10 4.2897102583529534e-10 4.778352917840253e-10
          3.452701019848261e-10 4.831004677053116e-10 3.546051578397152e-10 2.9115241689265736e-10 2.637584137436028e-10 1.9324291385241243e-10
          1.7404965577142264e-10 3.0190400357774267e-10 2.737433941818325e-10 2.0192503629624928e-10 2.374064529400486e-10 1.5580503861862496e-10
          2.46612595238206e-10 1.6310160420518425e-10 7.906745733124487e-11 7.00688133876684e-11 4.898079065585482e-11 4.3193061964527896e-11
          1.0455440061752124e-10 9.330188217521186e-11 6.405524005243658e-11 6.175004504190979e-11 3.788926496107174e-11 8.278649701710642e-11