<?xml version="1.0"?>
<VTKFile type="UnstructuredGrid" version="0.1" byte_order="LittleEndian" header_type="UInt32" compressor="vtkZLibDataCompressor">
  <UnstructuredGrid>
    <Piece NumberOfPoints="1739" NumberOfCells="1027">
      <PointData>
        <DataArray type="Int32" Name="libmesh_node_id" format="ascii" RangeMin="1154" RangeMax="16726">
          1268 1269 1270 1271 1272 1273
          1306 1307 1308 1334 1335 1336
          1368 1369 1370 1371 1372 1373
          1374 1375 1376 1377 1378 1379
          1380 1381 1382 1383 1384 1385
          1412 1413 1414 1415 1416 1417
          1418 1419 1420 1440 1441 1442
          1443 1444 1445 1446 1447 1448
          1478 1479 1480 1481 1482 1483
          1484 1485 1486 1487 1488 1489
          1490 1491 1492 1493 1494 1495
          1496 1497 1523 1524 1525 1526
          1527 1528 1529 1530 1531 1532
          1551 1552 1553 1554 1555 1556
          1557 1558 1559 1560 1590 1591
          1592 1593 1594 1595 1596 1597
          1598 1599 1600 1601 1602 1603
          1604 1605 1606 1607 1635 1636
          1637 1638 1639 1640 1641 1642
          1643 1663 1664 1665 1666 1667
          1668 1669 1670 1671 1702 1703
          1704 1705 1706 1707 1708 1709
          1710 1711 1712 1713 1714 1715
          1716 1717 1747 1748 1749 1750
          1751 1752 1753 1754 1775 1776
          1777 1778 1779 1780 1781 1782
          1814 1815 1816 1817 1818 1819
          1820 1821 1822 1823 1824 1825
          1826 1827 1828 1829 1859 1860
          1861 1862 1863 1864 1865 1866
          1887 1888 1889 1890 1891 1892
          1893 1894 1922 1924 1925 1926
          1927 1928 1929 1930 1931 1932
          1933 1934 1935 1936 1937 1938
          1939 1940 1941 1970 1971 1972
          1973 1974 1975 1976 1977 1978
          1998 1999 2000 2001 2002 2003
          2004 2005 2006 2034 2036 2037
          2038 2039 2040 2041 2042 2043
          2044 2045 2046 2047 2048 2049
          2082 2083 2084 2085 2086 2087
          2088 2089 2090 2110 2111 2112
          2113 2114 2115 2116 2117 2118
          2128 2129 2130 2131 2132 2133
          2134 2135 2136 2137 2138 2139
          2140 2141 2142 2143 2144 2145
          2146 2147 2148 2149 2150 2151
          2154 2155 2156 2157 2158 2160
          2161 2162 2165 2168 2169 2170
          2175 2176 2178 2182 2183 2188
          2217 2218 2219 2220 2221 2222
          2223 2224 2225 2226 2227 2228
          2229 2230 2231 2232 2233 2234
          2235 2236 2237 2238 2239 2240
          2241 2242 2243 2244 2245 2246
          2247 2248 2249 2250 2251 2252
          2253 2254 2255 2256 2259 2260
          2262 2264 2275 2276 2277 2278
          2279 2280 2281 2282 2283 2284
          2285 2286 2287 2288 2289 2290
          2291 2292 2293 2294 2295 2296
          2297 2298 2299 2300 2301 2302
          2303 2304 2305 2306 2307 2308
          2309 2310 2311 2312 2313 2314
          2315 2316 2317 2318 2319 2320
          2321 2322 2323 2324 2325 2329
          2330 2332 2333 2335 2336 2337
          2338 2339 2342 2343 2344 2346
          2347 2349 2382 2392 2428 2429
          2430 2431 2432 2434 2435 2508
          2509 2510 2511 2512 2513 2514
          2515 2516 2517 2518 2519 2520
          2521 2522 2523 2524 2525 2526
          2527 2528 2529 2530 2531 2532
          2533 2534 2535 2539 2540 2566
          2567 2568 2569 2570 2571 2572
          2573 2574 2575 2586 2587 2588
          2589 2590 2591 2592 2593 2594
          2595 2596 2597 2598 2599 2600
          2601 2602 2603 2604 2605 2606
          2607 2610 2611 2612 2614 2615
          2616 2617 2618 2619 2620 2621
          2624 2627 2630 2631 2634 2637
          2640 2641 2644 2645 2646 2647
          2649 2704 2705 2706 2707 2708
          2709 2710 2711 2712 2713 2714
          2715 2716 2717 2718 2719 2720
          2721 2722 2723 2724 2725 2726
          2727 2728 2729 2730 2731 2732
          2733 2734 2735 2736 2737 2738
          2739 2740 2741 2742 2743 2744
          2745 2746 2747 2748 2749 2750
          2751 2752 2753 2754 2755 2756
          2757 2758 2759 2760 2761 2762
          2763 2764 2765 2766 2767 2768
          2769 2770 2771 2772 2773 2774
          2775 2776 2777 2778 2779 2780
          2781 2782 2783 2784 2785 2786
          2787 2788 2789 2790 2791 2792
          2793 2794 2795 2796 2797 2798
          2799 2800 2801 2802 2803 2804
          2805 2806 2807 2808 2809 2810
          2811 2812 2813 2814 2815 2816
          2817 2818 2819 2820 2821 2822
          2823 2824 2825 2826 2827 2828
          2829 2830 2831 2832 2833 2834
          2835 2836 2837 2838 2839 2840
          2841 2842 2843 2844 2845 2846
          2847 2848 2849 2850 2851 2852
          2853 2854 2855 2856 2857 2858
          2859 2860 2861 2862 2863 2864
          2865 2866 2867 2868 2869 2870
          2871 2872 2876 2877 2879 2880
          2882 2883 2884 2885 2886 2887
          2888 2889 2890 2891 2892 2893
          2894 2897 2899 2900 2902 2903
          2904 2905 2906 2907 2908 2909
          2910 2911 2912 2913 2914 2917
          2918 2920 2922 2923 2924 2925
          2926 2927 2928 2929 2930 2931
          2932 2933 2934 2935 2936 2937
          2938 2941 2942 2944 2946 3587
          3588 3589 3590 3591 3592 3593
          3594 3595 3596 3607 3608 3609
          3610 3611 3612 3613 3614 3615
          3616 3617 3618 3619 3620 3621
          3622 3623 3624 3625 3626 3627
          3628 3629 3630 3631 3632 3633
          3634 3635 3636 3637 3638 3639
          3640 3641 3642 3643 3644 3645
          3646 3647 3648 3649 3650 3651
          3652 3653 3654 3655 3656 3657
          3658 3659 3660 3692 3693 3694
          3695 3696 3697 3698 3699 3700
          3701 3702 3703 3704 3705 3726
          3727 3728 3729 3730 3731 3732
          3733 3734 3735 3736 3737 3738
          3739 3740 3741 3742 3743 3744
          3745 3746 3747 3748 3749 3750
          3751 3752 3753 3754 3755 3756
          3757 3758 3759 3760 3761 3762
          3763 3764 3765 3766 3767 3768
          3769 3770 3771 3772 3773 3774
          3775 3776 3777 3778 3779 3780
          3781 3782 3783 3784 3785 3786
          3787 3788 3789 3790 3791 3792
          3793 3794 3795 3796 3797 3798
          3799 3800 3801 3802 3803 3804
          3805 3806 3807 3808 3809 3810
          3910 3911 3912 3913 3914 3915
          3916 3917 3918 3919 3920 3921
          3922 3923 3924 3925 3926 3927
          3928 3929 3930 3931 3932 3933
          3934 3935 3936 3937 3938 3939
          5991 5992 5993 5994 5995 5996
          5997 5998 5999 6000 6001 6002
          6003 6004 6005 6006 6007 6018
          6019 6020 6021 6022 6023 6024
          6025 6026 6027 6028 6029 6030
          6031 6032 6033 6034 6035 6036
          6037 6048 6049 6050 6051 6052
          6053 6054 6055 6056 6057 6058
          6059 6060 6061 6062 6063 6064
          6065 6066 6067 6068 6069 6070
          6071 6072 6073 6074 6099 6100
          6101 6102 6103 6104 6105 6106
          6107 6108 16022 16023 16024 16025
          16026 16027 16028 16029 16030 16031
          16120 16121 16122 16123 16124 16125
          16126 16130 16131 16132 16134 16135
          16136 16137 16138 16139 16140 16141
          16142 16143 16144 16145 16146 16147
          16148 16149 16150 16151 16152 16153
          16154 16155 16156 16157 16158 16159
          16160 16161 16162 16163 16164 16165
          16166 16167 16168 16169 16170 16171
          16172 16173 16174 16175 16176 16177
          16178 16179 16180 16181 16182 16183
          16184 16185 16186 16187 16188 16189
          16190 16191 16192 16193 16194 16195
          16196 16197 16198 16293 16294 16295
          16296 16297 16298 16299 16300 16301
          16302 16303 16304 16305 16306 16307
          16308 16309 16310 16311 16312 16313
          16314 16315 16316 16317 16318 16319
          16320 16321 16322 16323 16324 16325
          16326 16327 16328 16329 16330 16331
          16332 16333 16334 16335 16336 16337
          16338 16339 16340 16341 16342 16343
          16344 16345 16346 16347 16348 16349
          16350 16351 16352 16353 16354 16355
          16356 16357 16358 16359 16360 16361
          16362 16363 16364 16365 16366 16367
          16368 16369 16370 16371 16372 16373
          16374 16375 16376 16377 16378 16379
          16380 16381 16382 16383 16384 16385
          16386 16387 16388 16389 16390 16391
          16392 16393 16394 16395 16396 16397
          16398 16399 16400 16401 16402 16403
          16404 16405 16406 16407 16408 16409
          16410 16411 16412 16413 16414 16415
          16416 16417 16418 16419 16420 16421
          16422 16423 16424 16425 16426 16427
          16428 16429 16430 16431 16432 16433
          16434 16435 16436 16437 16438 16439
          16440 16441 16442 16443 16444 16445
          16446 16447 16448 16449 16450 16451
          16452 16453 16454 16455 16456 16457
          16458 16459 16460 16461 16462 16463
          16464 16465 16466 16467 16468 16469
          16470 16471 16472 16473 16474 16475
          16476 16477 16478 16479 16480 16481
          16482 16483 16484 16485 16486 16487
          16488 16489 16490 16491 16492 16493
          16494 16495 16496 16497 16498 16499
          16500 16501 16502 16503 16504 16505
          16506 16507 16508 16509 16510 16511
          16512 16513 16514 16515 16516 16517
          16518 16519 16520 16521 16522 16523
          16524 16525 16526 16527 16528 16529
          16530 16531 16532 16533 16534 16535
          16536 16537 16538 16539 16540 16541
          16542 16543 16544 16545 16546 16547
          16548 16549 16550 16551 16552 16553
          16554 16555 16556 16557 16558 16559
          16560 16561 16562 16563 16564 16565
          16566 16567 16568 16569 16570 16571
          16572 16573 16574 16575 16576 16577
          16578 16579 16580 16581 16582 16583
          16584 16585 16586 16587 16588 16589
          16590 16591 16592 16593 16594 16595
          16596 16597 16598 16599 16600 16601
          16602 16603 16604 16605 16606 16607
          16608 16609 16610 16611 16612 16613
          16614 16615 16616 16617 16618 16619
          16620 16621 16622 16623 16624 16625
          16626 16627 16628 16629 16630 16631
          16632 16633 16634 16635 16636 16637
          16638 16639 16640 16641 16642 16643
          16644 16645 16646 16647 16648 16649
          16650 16651 16652 16653 16654 16655
          16656 16657 16658 16659 16660 16661
          16662 16663 16664 16665 16666 16667
          16668 16669 16670 16671 16672 16673
          16674 16675 16676 16677 16678 16679
          16680 16681 16682 16683 16684 16685
          16686 16687 16688 16689 16690 16691
          16692 16693 16694 16695 16696 16697
          16698 16699 16700 16701 16702 16703
          16704 16705 16706 16707 16708 16709
          16710 16711 16712 16713 16714 16715
          16716 16717 16718 16719 16720 16721
          16722 16723 16724 16725 16726 1154
          1156 1157 1155 1266 1267 1158
          1159 1160 1161 1162 1163 1274
          1275 1194 1193 1305 1195 1196
          1197 1309 1222 1221 1333 1223
          1224 1225 1337 1254 1256 1257
          1255 1366 1367 1258 1259 1260
          1261 1262 1263 1264 1265 1386
          1387 1300 1299 1411 1301 1302
          1303 1304 1421 1328 1327 1439
          1329 1330 1331 1332 1449 1364
          1365 1476 1477 1498 1499 1410
          1522 1533 1438 1550 1561 1588
          1589 1608 1609 1610 1611 1634
          1644 1645 1662 1672 1673 1700
          1701 1718 1719 1720 1721 1746
          1755 1756 1774 1783 1784 1812
          1813 1830 1831 1858 1867 1886
          1895 1808 1810 1811 1809 1920
          1923 1921 1857 1969 1943 1979
          1885 1997 2007 2081 2109 2091
          2119 2051 2257 2258 2261 2153
          2340 2331 2341 2345 2348 2378
          2379 2383 2380 2381 2384 2388
          2389 2393 2390 2391 2394 2426
          2427 2396 2433 2053 2536 2537
          2538 2541 2608 2609 2613 2152
          2326 2622 2623 2625 2626 2628
          2629 2632 2633 2635 2636 2638
          2639 2642 2643 2648 2873 2874
          2875 2878 2327 2881 2328 2895
          2896 2898 2050 2901 2334 2915
          2916 2919 2921 2159 2939 2940
          2943 2945 2357 2164 2371 2167
          2405 2976 2978 2983 2387 2174
          2397 16110 16111 16112 16127 16128
          16115 16129 2032 16118 16133 2033
          2035 16285 16286 16289 16291
        </DataArray>
        <DataArray type="Float64" Name="bounds" format="ascii" RangeMin="0" RangeMax="0">
          0 0 0 0 0 0
          0 0 0 0 0 0
          0 0 0 0 0 0
          0 0 0 0 0 0
          0 0 0 0 0 0
          0 0 0 0 0 0
          0 0 0 0 0 0
          0 0 0 0 0 0
          0 0 0 0 0 0
          0 0 0 0 0 0
          0 0 0 0 0 0
          0 0 0 0 0 0
          0 0 0 0 0 0
          0 0 0 0 0 0
          0 0 0 0 0 0
          0 0 0 0 0 0
          0 0 0 0 0 0
          0 0 0 0 0 0
          0 0 0 0 0 0
          0 0 0 0 0 0
          0 0 0 0 0 0
          0 0 0 0 0 0
          0 0 0 0 0 0
          0 0 0 0 0 0
          0 0 0 0 0 0
          0 0 0 0 0 0
          0 0 0 0 0 0
          0 0 0 0 0 0
          0 0 0 0 0 0
          0 0 0 0 0 0
          0 0 0 0 0 0
          0 0 0 0 0 0
          0 0 0 0 0 0
          0 0 0 0 0 0
          0 0 0 0 0 0
          0 0 0 0 0 0
          0 0 0 0 0 0
          0 0 0 0 0 0
          0 0 0 0 0 0
          0 0 0 0 0 0
          0 0 0 0 0 0
          0 0 0 0 0 0
          0 0 0 0 0 0
          0 0 0 0 0 0
          0 0 0 0 0 0
          0 0 0 0 0 0
          0 0 0 0 0 0
          0 0 0 0 0 0
          0 0 0 0 0 0
          0 0 0 0 0 0
          0 0 0 0 0 0
          0 0 0 0 0 0
          0 0 0 0 0 0
          0 0 0 0 0 0
          0 0 0 0 0 0
          0 0 0 0 0 0
          0 0 0 0 0 0
          0 0 0 0 0 0
          0 0 0 0 0 0
          0 0 0 0 0 0
          0 0 0 0 0 0
          0 0 0 0 0 0
          0 0 0 0 0 0
          0 0 0 0 0 0
          0 0 0 0 0 0
          0 0 0 0 0 0
          0 0 0 0 0 0
          0 0 0 0 0 0
          0 0 0 0 0 0
          0 0 0 0 0 0
          0 0 0 0 0 0
          0 0 0 0 0 0
          0 0 0 0 0 0
          0 0 0 0 0 0
          0 0 0 0 0 0
          0 0 0 0 0 0
          0 0 0 0 0 0
          0 0 0 0 0 0
          0 0 0 0 0 0
          0 0 0 0 0 0
          0 0 0 0 0 0
          0 0 0 0 0 0
          0 0 0 0 0 0
          0 0 0 0 0 0
          0 0 0 0 0 0
          0 0 0 0 0 0
          0 0 0 0 0 0
          0 0 0 0 0 0
          0 0 0 0 0 0
          0 0 0 0 0 0
          0 0 0 0 0 0
          0 0 0 0 0 0
          0 0 0 0 0 0
          0 0 0 0 0 0
          0 0 0 0 0 0
          0 0 0 0 0 0
          0 0 0 0 0 0
          0 0 0 0 0 0
          0 0 0 0 0 0
          0 0 0 0 0 0
          0 0 0 0 0 0
          0 0 0 0 0 0
          0 0 0 0 0 0
          0 0 0 0 0 0
          0 0 0 0 0 0
          0 0 0 0 0 0
          0 0 0 0 0 0
          0 0 0 0 0 0
          0 0 0 0 0 0
          0 0 0 0 0 0
          0 0 0 0 0 0
          0 0 0 0 0 0
          0 0 0 0 0 0
          0 0 0 0 0 0
          0 0 0 0 0 0
          0 0 0 0 0 0
          0 0 0 0 0 0
          0 0 0 0 0 0
          0 0 0 0 0 0
          0 0 0 0 0 0
          0 0 0 0 0 0
          0 0 0 0 0 0
          0 0 0 0 0 0
          0 0 0 0 0 0
          0 0 0 0 0 0
          0 0 0 0 0 0
          0 0 0 0 0 0
          0 0 0 0 0 0
          0 0 0 0 0 0
          0 0 0 0 0 0
          0 0 0 0 0 0
          0 0 0 0 0 0
          0 0 0 0 0 0
          0 0 0 0 0 0
          0 0 0 0 0 0
          0 0 0 0 0 0
          0 0 0 0 0 0
          0 0 0 0 0 0
          0 0 0 0 0 0
          0 0 0 0 0 0
          0 0 0 0 0 0
          0 0 0 0 0 0
          0 0 0 0 0 0
          0 0 0 0 0 0
          0 0 0 0 0 0
          0 0 0 0 0 0
          0 0 0 0 0 0
          0 0 0 0 0 0
          0 0 0 0 0 0
          0 0 0 0 0 0
          0 0 0 0 0 0
          0 0 0 0 0 0
          0 0 0 0 0 0
          0 0 0 0 0 0
          0 0 0 0 0 0
          0 0 0 0 0 0
          0 0 0 0 0 0
          0 0 0 0 0 0
          0 0 0 0 0 0
          0 0 0 0 0 0
          0 0 0 0 0 0
          0 0 0 0 0 0
          0 0 0 0 0 0
          0 0 0 0 0 0
          0 0 0 0 0 0
          0 0 0 0 0 0
          0 0 0 0 0 0
          0 0 0 0 0 0
          0 0 0 0 0 0
          0 0 0 0 0 0
          0 0 0 0 0 0
          0 0 0 0 0 0
          0 0 0 0 0 0
          0 0 0 0 0 0
          0 0 0 0 0 0
          0 0 0 0 0 0
          0 0 0 0 0 0
          0 0 0 0 0 0
          0 0 0 0 0 0
          0 0 0 0 0 0
          0 0 0 0 0 0
          0 0 0 0 0 0
          0 0 0 0 0 0
          0 0 0 0 0 0
          0 0 0 0 0 0
          0 0 0 0 0 0
          0 0 0 0 0 0
          0 0 0 0 0 0
          0 0 0 0 0 0
          0 0 0 0 0 0
          0 0 0 0 0 0
          0 0 0 0 0 0
          0 0 0 0 0 0
          0 0 0 0 0 0
          0 0 0 0 0 0
          0 0 0 0 0 0
          0 0 0 0 0 0
          0 0 0 0 0 0
          0 0 0 0 0 0
          0 0 0 0 0 0
          0 0 0 0 0 0
          0 0 0 0 0 0
          0 0 0 0 0 0
          0 0 0 0 0 0
          0 0 0 0 0 0
          0 0 0 0 0 0
          0 0 0 0 0 0
          0 0 0 0 0 0
          0 0 0 0 0 0
          0 0 0 0 0 0
          0 0 0 0 0 0
          0 0 0 0 0 0
          0 0 0 0 0 0
          0 0 0 0 0 0
          0 0 0 0 0 0
          0 0 0 0 0 0
          0 0 0 0 0 0
          0 0 0 0 0 0
          0 0 0 0 0 0
          0 0 0 0 0 0
          0 0 0 0 0 0
          0 0 0 0 0 0
          0 0 0 0 0 0
          0 0 0 0 0 0
          0 0 0 0 0 0
          0 0 0 0 0 0
          0 0 0 0 0 0
          0 0 0 0 0 0
          0 0 0 0 0 0
          0 0 0 0 0 0
          0 0 0 0 0 0
          0 0 0 0 0 0
          0 0 0 0 0 0
          0 0 0 0 0 0
          0 0 0 0 0 0
          0 0 0 0 0 0
          0 0 0 0 0 0
          0 0 0 0 0 0
          0 0 0 0 0 0
          0 0 0 0 0 0
          0 0 0 0 0 0
          0 0 0 0 0 0
          0 0 0 0 0 0
          0 0 0 0 0 0
          0 0 0 0 0 0
          0 0 0 0 0 0
          0 0 0 0 0 0
          0 0 0 0 0 0
          0 0 0 0 0 0
          0 0 0 0 0 0
          0 0 0 0 0 0
          0 0 0 0 0 0
          0 0 0 0 0 0
          0 0 0 0 0 0
          0 0 0 0 0 0
          0 0 0 0 0 0
          0 0 0 0 0 0
          0 0 0 0 0 0
          0 0 0 0 0 0
          0 0 0 0 0 0
          0 0 0 0 0 0
          0 0 0 0 0 0
          0 0 0 0 0 0
          0 0 0 0 0 0
          0 0 0 0 0 0
          0 0 0 0 0 0
          0 0 0 0 0 0
          0 0 0 0 0 0
          0 0 0 0 0 0
          0 0 0 0 0 0
          0 0 0 0 0 0
          0 0 0 0 0 0
          0 0 0 0 0 0
          0 0 0 0 0 0
          0 0 0 0 0 0
          0 0 0 0 0 0
          0 0 0 0 0 0
          0 0 0 0 0 0
          0 0 0 0 0 0
          0 0 0 0 0 0
          0 0 0 0 0 0
          0 0 0 0 0 0
          0 0 0 0 0 0
          0 0 0 0 0 0
          0 0 0 0 0 0
          0 0 0 0 0 0
          0 0 0 0 0 0
          0 0 0 0 0 0
          0 0 0 0 0 0
          0 0 0 0 0
        </DataArray>
        <DataArray type="Float64" Name="gradient_error" format="ascii" RangeMin="2.4476874206424832e-15" RangeMax="4.657590765789931e-7">
          1.5368009369495686e-13 1.0268919743607803e-13 3.948109545928226e-14 2.4073143390597763e-14 5.874062270868034e-15 5.826623824328736e-15
          3.819775325727667e-14 6.648438584056194e-15 4.329487004517539e-15 2.469720533735415e-14 4.63168584619911e-15 2.8797886312456394e-15
          1.0576875240319518e-10 6.079062310201203e-11 2.667918173631811e-11 1.7198550321362614e-11 1.8208144228429412e-11 1.1497478394360955e-11
          1.0038491231030569e-11 7.2320690867476305e-12 5.188788339759247e-12 4.605552287170982e-12 2.342624663317448e-12 2.121577772319373e-12
          6.380875472385005e-13 4.628395450800723e-13 1.3809815202297904e-13 8.78309405257072e-14 1.851279740555334e-14 1.7408092116318684e-14
          1.0362023464914429e-11 5.14726942711456e-12 3.271196600563737e-12 3.0576602676905477e-12 2.762713017722529e-12 1.3046938130941125e-12
          2.043021482351877e-13 2.7643622695593963e-14 9.612578813688582e-15 4.911553128999954e-12 2.576619947822004e-12 1.7555806408349742e-12
          1.6896735929164033e-12 1.5031098008623414e-12 7.088567448669269e-13 1.210127535487312e-13 1.7723516362752582e-14 2.921770800293136e-15
          1.0672996837534388e-9 6.005418560695591e-10 4.472712563803685e-10 2.6530007776488075e-10 1.0462411626785034e-10 7.338866610008005e-11
          7.707733252187155e-11 5.1308873508917266e-11 4.391062622566026e-11 3.2637771200970014e-11 2.2594108913747225e-11 2.030302847837974e-11
          1.0120649998633911e-11 9.357655881858588e-12 2.7767945454726787e-12 2.1887864133296023e-12 5.15042699397331e-13 3.729287853535168e-13
          5.1882652464066617e-14 4.6230082079434595e-14 8.446181226771593e-11 5.284725879940155e-11 2.7025374948708403e-11 1.678550873817472e-11
          1.4383925240938389e-11 1.2185415965644858e-11 5.811019486809999e-12 1.091492955894252e-12 1.6196399728356985e-13 2.4989031379330974e-14
          3.513959614975237e-11 2.2365618449410167e-11 1.1897533965107066e-11 8.030602980386468e-12 7.402934305597007e-12 6.358883888277465e-12
          3.0273772085367313e-12 5.822076306019786e-13 9.311312325743714e-14 9.40055106385935e-15 4.773047683584763e-9 2.74747232904416e-9
          1.9331826070480947e-9 1.1873349207291945e-9 4.2355508661053353e-10 3.262106998732342e-10 3.3008842001811147e-10 2.328497868707907e-10
          1.9326247476961746e-10 1.4864996935092923e-10 9.958025070510666e-11 9.062960880731868e-11 4.470554793737963e-11 4.1997475390110785e-11
          1.2652855872673052e-11 1.0664126295555595e-11 2.275759463666336e-12 1.9204740429365893e-12 4.408179167468105e-10 2.7084092523413947e-10
          1.413149879127627e-10 8.581179348921708e-11 6.807289294915245e-11 5.4236550723633805e-11 2.6079237266216355e-11 5.698808565607769e-12
          1.0239817090909498e-12 1.5973885899006267e-10 1.0019461605798464e-10 5.376366268959057e-11 3.601243325496428e-11 3.2108321966063836e-11
          2.6794134537736914e-11 1.2869071689590768e-11 2.7222204127773946e-12 4.82774795975057e-13 2.168684323506208e-8 1.2792531143956254e-8
          8.650955328798339e-9 5.499194624577081e-9 1.8666158003101785e-9 1.552051691061626e-9 1.4193364100784886e-9 1.0690846585342776e-9
          8.533956248588337e-10 6.826566978896988e-10 4.4428122841049903e-10 4.099885469465441e-10 2.0194227629183663e-10 1.9187963930701586e-10
          5.961524284891569e-11 5.2880669233220324e-11 2.3039265273319603e-9 1.3933329590885751e-9 7.371197861234753e-10 4.3830046284617655e-10
          3.246602092189027e-10 2.4391588293093714e-10 1.1805879012217601e-10 2.925767945976503e-11 7.096340018134922e-10 4.392319978213238e-10
          2.3675199043387697e-10 1.5776801870228629e-10 1.3740264751724149e-10 1.1213590037928511e-10 5.4300577922156934e-11 1.2369263302005103e-11
          8.115360781095194e-8 4.929473136330405e-8 9.344235796065677e-9 1.0000603422981957e-8 4.158477018079432e-9 4.048152202709675e-9
          3.0425657164606668e-9 2.218734026165343e-9 1.9572946413047835e-9 1.6232325842281584e-9 1.4019642211123476e-9 1.2786380531025785e-9
          4.5441156145909475e-10 5.038752061060136e-10 7.395715323992475e-11 9.332725224229245e-11 1.135571163476242e-8 6.474159624678499e-9
          3.2337717210210605e-9 1.725604723113485e-9 1.1280585360274325e-9 7.918487196073803e-10 3.6145376550817784e-10 8.111114396816167e-11
          2.9894688798124513e-9 1.7486087875693666e-9 8.923495652888678e-10 5.531689176593783e-10 4.557201134968113e-10 3.629040404327067e-10
          1.6866999044794354e-10 3.535188872366858e-11 3.769347523681991e-7 3.595197561271392e-7 1.726961180674222e-7 2.032106065587374e-7
          1.2875965654780968e-7 5.0941336101621025e-8 9.065732899155832e-8 4.0747230181641565e-8 7.709332460724336e-8 2.9501927381827105e-8
          6.375395701558805e-8 2.0471942187778798e-8 4.920171475774283e-8 1.1111456088103307e-8 3.170779092538255e-8 2.1265369874744935e-9
          1.3637753393963587e-9 6.279360140787152e-10 9.999689712756738e-11 1.863089099482505e-8 1.2372691238720783e-8 6.9211312192847e-9
          3.5980499967824453e-9 2.1071756736881983e-9 1.4301815954236965e-9 1.0208847790898218e-9 4.371385405067912e-10 7.637015791658495e-11
          8.016214307611886e-9 5.851176635131398e-9 3.392737435412916e-9 1.6945897374339758e-9 1.2244376464405587e-9 1.196154622647783e-9
          8.722805535572267e-10 3.4304354922474604e-10 5.53372580677268e-11 3.26876257996667e-8 3.731015370318345e-8 2.0957024968719295e-7
          4.566863609549567e-8 1.0339981832930202e-7 5.885394532444118e-8 9.570822291258931e-8 7.67866446149716e-8 8.434766530946036e-8
          1.0285547489329167e-7 6.922818661619516e-8 7.745278405212999e-8 5.082543049080425e-8 1.6103940469123756e-8 3.173356188017743e-8
          9.614884420833313e-9 5.0263109343636945e-9 3.3585060510076782e-9 3.862616885571004e-9 4.111950525627984e-9 3.538614197317402e-9
          1.97209242529579e-9 4.4194378870886263e-10 4.0653775139361216e-11 9.225693909139592e-9 6.880967872941471e-9 4.002992955618658e-9
          1.990003882339354e-9 1.599220565490378e-9 1.703508550887741e-9 1.1997217901559655e-9 4.365154250254696e-10 6.022799969361578e-11
          1.5821078276013916e-8 4.8057663424016866e-8 5.751740470976646e-8 1.6012179855390567e-7 7.05678732329373e-8 1.0725456331286422e-7
          1.3525892539134222e-7 3.743868474312896e-8 6.930688379524372e-8 7.44925555494529e-8 5.340135412224406e-8 5.346778220063737e-8
          6.71364029167404e-8 3.990676692831305e-8 1.2440423483787012e-8 5.9299594256075204e-8 1.2858789614251264e-7 3.034608130941456e-8
          4.098475806357719e-8 6.106770890869904e-9 1.8909467965951308e-8 6.397515005648433e-8 5.579774766578345e-8 2.2826664647131207e-9
          1.952795181592676e-8 2.0184246816130515e-8 4.2727032476656915e-9 2.2668441841493673e-8 3.433255185423882e-8 2.1817909653041056e-8
          1.135610375957258e-9 5.083940226320027e-10 2.795764067343131e-10 2.573776584016874e-10 1.653836548379252e-9 5.421406388627615e-10
          1.5970096555526074e-10 1.2624027152405648e-10 4.469785242571815e-9 3.02126384560276e-11 1.5430601607976772e-10 1.3583209899311786e-9
          2.4790781720419977e-8 6.552435656920697e-8 7.233046040594482e-8 1.3426029695852784e-7 1.46911370781157e-7 1.377267576770083e-7
          1.384270122369516e-7 7.483088749367283e-8 8.019975276926265e-8 9.216042782350552e-8 1.2134808732117433e-7 1.557250406964951e-7
          1.3995166839540924e-7 6.036305838094278e-8 1.1252597441382187e-9 1.0946529837338461e-9 2.9486524357736582e-9 5.679045774519075e-9
          6.168075116436689e-10 9.52868902588695e-10 4.869436654261859e-10 9.339106485286338e-10 1.629673894787785e-9 3.502504939458389e-10
          4.772045127409097e-9 1.0263438565304301e-8 1.2810743043984673e-9 1.380877631631082e-9 2.164357409192276e-10 1.387157040034196e-10
          4.685374164313205e-11 3.1257574016198587e-11 7.144428328471656e-11 7.980048141892387e-11 1.9899436670940274e-11 1.2857107374660313e-10
          5.703640100741944e-11 8.81566795531312e-11 1.3088211493788423e-11 1.1175814469049022e-11 7.702884926631834e-12 1.0231892527076956e-11
          4.0006533579162534e-11 1.2760900127522078e-11 1.1685466757180704e-7 1.2483014094906544e-7 1.4554850604212553e-7 1.4381631023715383e-7
          7.30867453463912e-8 9.150611124626369e-8 1.4560048630090758e-7 8.064315059530275e-8 2.9339208162661596e-8 5.0711675614936546e-8
          1.2329159602134256e-7 1.1807886512525612e-7 1.358815824775474e-7 8.177044512645288e-8 1.1319187671601092e-8 2.3570708933236754e-8
          9.46776276889924e-8 2.5808229544243013e-8 8.984492777065561e-8 7.038859676006172e-8 5.861089995608666e-8 3.252606511379504e-8
          3.307421831054668e-8 5.7213976880695814e-8 3.636601166570882e-8 3.625174419116255e-8 6.404352931355448e-8 4.455992053872853e-8
          4.4927625611755166e-8 1.4034181909097579e-8 2.8667418775835135e-8 3.210002689559052e-8 2.8437888780720045e-8 6.724523512527245e-8
          5.496324921281471e-8 4.102103745065044e-8 3.9909711809599665e-8 5.185803152860639e-8 4.671371681531087e-8 4.4148137631868917e-8
          5.93887237072715e-8 4.513125298862803e-8 4.495247730988525e-8 1.884816682900653e-8 3.635230337933312e-8 4.166443373977449e-8
          3.22997265692641e-8 5.93248550790866e-8 4.7774984298636505e-8 5.367896593578909e-8 4.902285467361085e-8 4.247366899728257e-8
          4.427744791583574e-8 2.851318572177925e-8 4.8367535796686176e-8 3.63835176832049e-8 3.042909495886758e-8 4.0833863991347026e-8
          3.623447996017225e-8 4.0431071563725625e-8 1.0438485895111487e-8 2.240440946605077e-8 2.7506851290305566e-8 2.2669715063645423e-8
          2.5860939150009028e-8 2.987039110294509e-8 3.1961485619718974e-9 1.2603697850114466e-9 3.500504241338277e-9 1.206376886282437e-8
          3.727484700091981e-10 1.0203213127684785e-9 7.624802979402685e-10 1.8032694544656146e-8 1.7202328647768864e-9 1.5150789759985433e-9
          1.5045641004157245e-9 2.012279403624713e-9 6.737654221273458e-9 4.691137843003798e-9 4.729083821397382e-9 6.709496750574715e-9
          5.769994452735568e-10 1.8100205684137937e-9 1.8147420813543757e-9 1.494049224832906e-9 4.767029799790965e-9 6.681339279875971e-9
          1.8194635942949574e-9 7.866861425154154e-11 6.161582790643221e-11 2.930814188177391e-10 2.4200242906585797e-10 3.5292939809381966e-11
          1.5177785577720034e-10 1.0304567931265127e-10 4.4563041561322886e-11 1.909234393139769e-10 5.431350284810221e-11 2.4538348326404726e-11
          1.7650937199090996e-11 7.130651221548156e-11 4.843793727890863e-11 1.076352607177727e-11 2.5569362342335684e-11 1.3608181129355481e-9
          3.3000996221427665e-9 9.231039203343822e-9 1.3944950502669086e-8 4.257210040929659e-10 2.296440556476304e-9 2.976254600464617e-9
          1.7101260293752094e-8 2.4589801383195402e-8 4.167160108859642e-9 6.635645791142362e-8 6.929063792489206e-8 4.967377345848208e-8