<?xml version="1.0"?>
<VTKFile type="UnstructuredGrid" version="0.1" byte_order="LittleEndian" header_type="UInt32" compressor="vtkZLibDataCompressor">
  <UnstructuredGrid>
    <Piece NumberOfPoints="1513" NumberOfCells="1048">
      <PointData>
        <DataArray type="Int32" Name="libmesh_node_id" format="ascii" RangeMin="2192" RangeMax="14712">
          2200 2202 2455 2477 2482 3380
          3381 3382 3383 3384 3385 3386
          3387 3388 3389 3411 3415 3417
          3418 3419 3420 3421 3422 3423
          3459 3482 3484 3486 3488 3509
          3510 3511 3512 3513 3514 3515
          3516 3517 3518 3520 3523 3524
          3526 3528 3849 3850 3851 3852
          3853 3854 3855 3866 3867 3868
          3869 3870 3871 3872 3873 3874
          3875 3880 3881 4969 4970 4971
          4974 4979 4980 4981 4984 4985
          4986 4987 4988 4989 4990 4991
          4992 4993 4994 5141 5157 5169
          5181 5185 5189 5190 5192 5193
          5196 5197 5198 5199 5200 5201
          5202 5203 5204 5205 5206 5207
          5208 5209 5210 5211 5212 5213
          5214 5215 5216 5217 5219 5220
          5221 5223 5224 5225 5226 5227
          5228 5229 5230 5231 5232 5233
          5234 5235 5236 5237 5238 5239
          5240 5241 5242 5243 5244 5245
          5336 5337 5341 5493 5494 5495
          5496 5497 5505 5506 5508 5509
          5510 5511 5512 5513 5514 5525
          5526 5527 5528 5529 5530 5531
          5539 5540 5541 5542 5543 5544
          5545 5675 5676 5677 5678 5679
          5680 5681 5682 5683 5684 5685
          5686 5687 5688 5689 5690 5691
          5692 5693 5694 5695 5696 5697
          5698 5699 5700 5701 5702 5703
          5704 5705 5706 5707 5708 5709
          5710 5711 5712 5713 5714 5715
          5716 5717 5718 5719 5720 5721
          5722 5723 5724 5725 5726 5727
          5728 5739 5740 5741 5742 5743
          5744 5745 6082 6083 6084 6085
          6086 6087 6088 6089 6090 6091
          6241 6242 6243 6244 6245 6246
          6247 6255 6256 6259 6260 6283
          6284 6285 6286 6287 6288 6289
          6290 6291 6292 6293 6294 6295
          6296 6297 6298 6299 6300 6301
          6302 6303 6304 6305 6306 6307
          6308 6309 6310 6311 6312 6313
          6314 6315 6316 6317 6318 6319
          6430 6431 6432 6433 6434 6435
          6436 9868 9869 9870 9873 9878
          9879 9880 9882 9883 9911 9912
          9913 9921 9922 9923 9924 9925
          9926 9927 9928 9929 9930 9931
          9932 9933 9934 9935 9936 9937
          9938 9939 9940 9941 9942 9943
          11016 11043 11044 11047 11152 11154
          11156 11170 11252 11280 11348 11350
          11352 11362 11366 11376 11378 11380
          11390 11394 11412 11413 11416 11418
          11419 11420 11421 11422 11423 11434
          11440 11441 11444 11445 11446 11447
          11448 11449 11450 11451 11466 11467
          11468 11469 11470 11471 11472 11473
          11474 11475 11476 11477 11478 11479
          11482 11483 11486 11489 11490 11493
          11494 11495 11496 11497 11498 11499
          11500 11501 11502 11503 11504 11505
          11506 11507 11508 11509 11510 11511
          11512 11513 11514 11515 11516 11517
          11518 11519 11520 11521 11522 11523
          11524 11525 11526 11527 11528 11529
          11530 11531 11532 11533 11534 11535
          11536 11537 11538 11539 11540 11541
          11542 11543 11544 11545 11546 11547
          11548 11549 11550 11551 11552 11553
          11554 11555 11556 11557 11558 11559
          11560 11561 11562 11563 11564 11565
          11566 11567 11568 11569 11570 11571
          11572 11573 11574 11575 11576 11577
          11578 11579 11580 11581 11582 11583
          11584 11585 11586 11587 11588 11589
          11590 11591 11592 11593 11594 11595
          11596 11597 11598 11599 11600 11601
          11602 11603 11604 11605 11606 11607
          11608 11609 11610 11611 11612 11613
          11614 11615 11616 11617 11618 11619
          11620 11621 11622 11623 11624 11625
          11626 11627 11628 11629 11630 11631
          11632 11633 11634 11635 11636 11637
          11648 11654 11655 11658 11659 11660
          11661 11662 11663 11664 11665 11676
          11682 11683 11686 11687 11688 11689
          11690 11691 11692 11693 11696 11697
          11700 11703 11704 11707 11708 11709
          11710 11711 11712 11713 11714 11715
          11716 11717 11718 11719 11720 11721
          11724 11725 11728 11731 11732 11735
          11736 11737 11738 11739 11740 11741
          11742 11743 11744 11745 11746 11747
          11748 11749 11750 11751 11752 11753
          11754 11755 11756 11757 11758 11759
          11760 11761 11762 11763 11764 11765
          11766 11767 11768 11769 11770 11771
          11772 11773 11774 11775 11776 11777
          11778 11779 11780 11781 11782 11783
          11784 11785 11786 11787 11788 11789
          11790 11791 11792 11793 11794 11795
          11796 11797 11798 11799 11800 11801
          11802 11803 11804 11805 11806 11807
          11808 11809 11810 11811 11812 11813
          11814 11815 11816 11817 11818 11819
          11820 11821 11822 11823 11824 11825
          11826 11827 11828 11829 11830 11831
          11832 11833 11834 11835 11836 11837
          11838 11839 11840 11841 11842 11843
          11844 11845 11846 11847 11848 11849
          11850 11851 11852 11853 11854 11855
          11856 11857 11858 11859 11860 11861
          12167 12168 12169 13218 13219 13220
          13221 13222 13223 13224 13225 13226
          13227 13228 13229 13230 13231 13232
          13233 13234 13237 13238 13241 13244
          13245 13248 13249 13250 13251 13252
          13253 13254 13255 13256 13257 13258
          13259 13260 13261 13262 13277 13278
          13281 13282 13284 13286 13299 13303
          13311 13313 13315 13317 13325 13326
          13327 13328 13329 13330 13331 13332
          13333 13334 13335 13336 13337 13338
          13339 13340 13341 13342 13343 13344
          13345 13346 13347 13348 13349 13350
          13351 13352 13353 13354 13355 13356
          13357 13358 13359 13360 13361 13362
          13363 13364 13365 13366 13367 13368
          13369 13370 13371 13372 13373 13374
          13375 13376 13377 13378 13379 13380
          13381 13382 13383 13384 13385 13386
          13387 13388 13389 13390 13391 13392
          13393 13394 13397 13398 13400 13402
          13413 13415 13417 13419 13427 13428
          13431 13432 13434 13436 13449 13450
          13453 13456 13457 13460 13461 13462
          13463 13464 13465 13466 13467 13468
          13469 13470 13471 13472 13473 13474
          13477 13478 13481 13484 13485 13488
          13489 13490 13491 13492 13493 13494
          13495 13496 13497 13498 13499 13500
          13501 13502 13505 13509 13517 13519
          13521 13523 13533 13537 13545 13547
          13549 13551 13559 13560 13561 13562
          13563 13564 13565 13566 13567 13568
          13569 13570 13571 13572 13573 13574
          13575 13576 13577 13578 13579 13580
          13581 13582 13583 13584 13585 13586
          13587 13588 13589 13590 13591 13592
          13593 13594 13595 13596 13597 13598
          13599 13600 13601 13602 13603 13604
          13605 13606 13607 13608 13609 13610
          13611 13612 13613 13614 13615 13617
          13619 13621 13629 13631 13633 13635
          13643 13645 13647 13649 13657 13659
          13661 13663 14385 14386 14387 14388
          14389 14390 14391 14392 14393 14394
          14395 14396 14397 14398 14399 14400
          14401 14402 14403 14404 14405 14406
          14407 14408 14409 14410 14411 14412
          14413 14414 14415 14416 14417 14418
          14419 14420 14421 14422 14423 14424
          14425 14426 14427 14428 14429 14430
          14431 14432 14433 14434 14435 14436
          14437 14438 14439 14440 14441 14442
          14443 14444 14445 14446 14447 14448
          14449 14450 14451 14452 14453 14454
          14455 14456 14457 14458 14459 14460
          14461 14462 14463 14464 14465 14466
          14467 14468 14469 14470 14471 14472
          14473 14474 14475 14476 14477 14478
          14479 14480 14481 14482 14483 14484
          14485 14486 14487 14488 14489 14490
          14491 14492 14493 14494 14495 14496
          14497 14498 14499 14500 14501 14502
          14503 14504 14505 14506 14507 14508
          14509 14510 14511 14512 14513 14514
          14515 14516 14517 14518 14519 14520
          14521 14522 14523 14524 14525 14526
          14527 14528 14529 14530 14531 14532
          14533 14534 14535 14536 14537 14538
          14539 14540 14541 14542 14543 14544
          14545 14546 14547 14548 14549 14550
          14551 14552 14553 14554 14555 14556
          14557 14558 14559 14560 14561 14562
          14563 14564 14565 14566 14567 14568
          14569 14570 14571 14572 14573 14574
          14575 14576 14577 14578 14579 14580
          14581 14582 14583 14584 14585 14586
          14587 14588 14589 14590 14591 14592
          14593 14594 14595 14596 14597 14598
          14599 14600 14601 14602 14603 14604
          14605 14606 14607 14609 14610 14611
          14612 14613 14614 14615 14616 14617
          14618 14619 14620 14621 14622 14623
          14624 14625 14626 14627 14628 14629
          14630 14631 14632 14633 14634 14635
          14636 14637 14638 14639 14640 14641
          14642 14643 14644 14645 14646 14647
          14648 14649 14650 14651 14652 14653
          14654 14655 14656 14657 14658 14659
          14660 14661 14662 14663 14664 14665
          14666 14667 14668 14669 14670 14671
          14672 14674 14676 14678 14689 14691
          14693 14695 14703 14704 14705 14706
          14707 14708 14709 14710 14711 14712
          2474 2476 2197 2478 2475 2480
          2479 2484 2488 2485 2489 3372
          2453 3373 3376 2192 3452 3456
          3453 3457 3519 3521 3522 3525
          2668 2669 3671 3669 3719 3717
          2483 3724 3723 3844 3845 3848
          3501 3858 3505 3859 3862 2481
          3864 3876 3877 3878 3879 3882
          3461 4957 4941 4958 4961 4963
          2454 5507 5515 5519 5516 5520
          5633 5634 5637 3502 5667 5651
          5668 5671 5673 5729 5730 5733
          5734 5736 5738 5746 5748 6039
          2493 6045 2491 6257 5338 6258
          6261 5347 6263 5351 6278 6279
          6282 5749 5752 3527 6425 6426
          6429 9836 9800 9837 9840 3378
          9842 11121 11122 5153 11123 11151
          11153 11155 11157 11142 11141 11166
          11165 11169 11168 11167 3413 11171
          11251 11347 11349 11255 11351 11353
          11361 11364 11363 11365 5183 11367
          11279 11375 11377 11283 11379 11381
          11389 11392 11391 11393 2459 11395
          11118 11120 11136 11137 11140 5155
          13279 13280 13283 13285 5500 13312
          13314 13300 5502 13316 5504 13395
          13396 13399 13401 13414 13416 13418
          5522 13429 13430 13433 13435 5524
          13506 13518 13520 5532 13522 5534
          13534 13546 13548 5536 13550 5538
          13616 13618 13620 5546 13630 13632
          13634 5548 13644 13646 13648 5550
          13658 13660 13662 5552 14177 14178
          14181 14183 14193 14195 14197 5639
          14211 14212 14215 14217 14283 14285
          14287 5649 14297 14299 14301 14311
          14313 14315 5653 14325 14327 14329
          3507 14377 14378 14381 14383 14608
          14673 14675 14677 14690 14692 14694
          5750
        </DataArray>
        <DataArray type="Float64" Name="bounds" format="ascii" RangeMin="0" RangeMax="0">
          0 0 0 0 0 0
          0 0 0 0 0 0
          0 0 0 0 0 0
          0 0 0 0 0 0
          0 0 0 0 0 0
          0 0 0 0 0 0
          0 0 0 0 0 0
          0 0 0 0 0 0
          0 0 0 0 0 0
          0 0 0 0 0 0
          0 0 0 0 0 0
          0 0 0 0 0 0
          0 0 0 0 0 0
          0 0 0 0 0 0
          0 0 0 0 0 0
          0 0 0 0 0 0
          0 0 0 0 0 0
          0 0 0 0 0 0
          0 0 0 0 0 0
          0 0 0 0 0 0
          0 0 0 0 0 0
          0 0 0 0 0 0
          0 0 0 0 0 0
          0 0 0 0 0 0
          0 0 0 0 0 0
          0 0 0 0 0 0
          0 0 0 0 0 0
          0 0 0 0 0 0
          0 0 0 0 0 0
          0 0 0 0 0 0
          0 0 0 0 0 0
          0 0 0 0 0 0
          0 0 0 0 0 0
          0 0 0 0 0 0
          0 0 0 0 0 0
          0 0 0 0 0 0
          0 0 0 0 0 0
          0 0 0 0 0 0
          0 0 0 0 0 0
          0 0 0 0 0 0
          0 0 0 0 0 0
          0 0 0 0 0 0
          0 0 0 0 0 0
          0 0 0 0 0 0
          0 0 0 0 0 0
          0 0 0 0 0 0
          0 0 0 0 0 0
          0 0 0 0 0 0
          0 0 0 0 0 0
          0 0 0 0 0 0
          0 0 0 0 0 0
          0 0 0 0 0 0
          0 0 0 0 0 0
          0 0 0 0 0 0
          0 0 0 0 0 0
          0 0 0 0 0 0
          0 0 0 0 0 0
          0 0 0 0 0 0
          0 0 0 0 0 0
          0 0 0 0 0 0
          0 0 0 0 0 0
          0 0 0 0 0 0
          0 0 0 0 0 0
          0 0 0 0 0 0
          0 0 0 0 0 0
          0 0 0 0 0 0
          0 0 0 0 0 0
          0 0 0 0 0 0
          0 0 0 0 0 0
          0 0 0 0 0 0
          0 0 0 0 0 0
          0 0 0 0 0 0
          0 0 0 0 0 0
          0 0 0 0 0 0
          0 0 0 0 0 0
          0 0 0 0 0 0
          0 0 0 0 0 0
          0 0 0 0 0 0
          0 0 0 0 0 0
          0 0 0 0 0 0
          0 0 0 0 0 0
          0 0 0 0 0 0
          0 0 0 0 0 0
          0 0 0 0 0 0
          0 0 0 0 0 0
          0 0 0 0 0 0
          0 0 0 0 0 0
          0 0 0 0 0 0
          0 0 0 0 0 0
          0 0 0 0 0 0
          0 0 0 0 0 0
          0 0 0 0 0 0
          0 0 0 0 0 0
          0 0 0 0 0 0
          0 0 0 0 0 0
          0 0 0 0 0 0
          0 0 0 0 0 0
          0 0 0 0 0 0
          0 0 0 0 0 0
          0 0 0 0 0 0
          0 0 0 0 0 0
          0 0 0 0 0 0
          0 0 0 0 0 0
          0 0 0 0 0 0
          0 0 0 0 0 0
          0 0 0 0 0 0
          0 0 0 0 0 0
          0 0 0 0 0 0
          0 0 0 0 0 0
          0 0 0 0 0 0
          0 0 0 0 0 0
          0 0 0 0 0 0
          0 0 0 0 0 0
          0 0 0 0 0 0
          0 0 0 0 0 0
          0 0 0 0 0 0
          0 0 0 0 0 0
          0 0 0 0 0 0
          0 0 0 0 0 0
          0 0 0 0 0 0
          0 0 0 0 0 0
          0 0 0 0 0 0
          0 0 0 0 0 0
          0 0 0 0 0 0
          0 0 0 0 0 0
          0 0 0 0 0 0
          0 0 0 0 0 0
          0 0 0 0 0 0
          0 0 0 0 0 0
          0 0 0 0 0 0
          0 0 0 0 0 0
          0 0 0 0 0 0
          0 0 0 0 0 0
          0 0 0 0 0 0
          0 0 0 0 0 0
          0 0 0 0 0 0
          0 0 0 0 0 0
          0 0 0 0 0 0
          0 0 0 0 0 0
          0 0 0 0 0 0
          0 0 0 0 0 0
          0 0 0 0 0 0
          0 0 0 0 0 0
          0 0 0 0 0 0
          0 0 0 0 0 0
          0 0 0 0 0 0
          0 0 0 0 0 0
          0 0 0 0 0 0
          0 0 0 0 0 0
          0 0 0 0 0 0
          0 0 0 0 0 0
          0 0 0 0 0 0
          0 0 0 0 0 0
          0 0 0 0 0 0
          0 0 0 0 0 0
          0 0 0 0 0 0
          0 0 0 0 0 0
          0 0 0 0 0 0
          0 0 0 0 0 0
          0 0 0 0 0 0
          0 0 0 0 0 0
          0 0 0 0 0 0
          0 0 0 0 0 0
          0 0 0 0 0 0
          0 0 0 0 0 0
          0 0 0 0 0 0
          0 0 0 0 0 0
          0 0 0 0 0 0
          0 0 0 0 0 0
          0 0 0 0 0 0
          0 0 0 0 0 0
          0 0 0 0 0 0
          0 0 0 0 0 0
          0 0 0 0 0 0
          0 0 0 0 0 0
          0 0 0 0 0 0
          0 0 0 0 0 0
          0 0 0 0 0 0
          0 0 0 0 0 0
          0 0 0 0 0 0
          0 0 0 0 0 0
          0 0 0 0 0 0
          0 0 0 0 0 0
          0 0 0 0 0 0
          0 0 0 0 0 0
          0 0 0 0 0 0
          0 0 0 0 0 0
          0 0 0 0 0 0
          0 0 0 0 0 0
          0 0 0 0 0 0
          0 0 0 0 0 0
          0 0 0 0 0 0
          0 0 0 0 0 0
          0 0 0 0 0 0
          0 0 0 0 0 0
          0 0 0 0 0 0
          0 0 0 0 0 0
          0 0 0 0 0 0
          0 0 0 0 0 0
          0 0 0 0 0 0
          0 0 0 0 0 0
          0 0 0 0 0 0
          0 0 0 0 0 0
          0 0 0 0 0 0
          0 0 0 0 0 0
          0 0 0 0 0 0
          0 0 0 0 0 0
          0 0 0 0 0 0
          0 0 0 0 0 0
          0 0 0 0 0 0
          0 0 0 0 0 0
          0 0 0 0 0 0
          0 0 0 0 0 0
          0 0 0 0 0 0
          0 0 0 0 0 0
          0 0 0 0 0 0
          0 0 0 0 0 0
          0 0 0 0 0 0
          0 0 0 0 0 0
          0 0 0 0 0 0
          0 0 0 0 0 0
          0 0 0 0 0 0
          0 0 0 0 0 0
          0 0 0 0 0 0
          0 0 0 0 0 0
          0 0 0 0 0 0
          0 0 0 0 0 0
          0 0 0 0 0 0
          0 0 0 0 0 0
          0 0 0 0 0 0
          0 0 0 0 0 0
          0 0 0 0 0 0
          0 0 0 0 0 0
          0 0 0 0 0 0
          0 0 0 0 0 0
          0 0 0 0 0 0
          0 0 0 0 0 0
          0 0 0 0 0 0
          0 0 0 0 0 0
          0 0 0 0 0 0
          0 0 0 0 0 0
          0 0 0 0 0 0
          0 0 0 0 0 0
          0 0 0 0 0 0
          0 0 0 0 0 0
          0 0 0 0 0 0
          0 0 0 0 0 0
          0 0 0 0 0 0
          0 0 0 0 0 0
          0 0 0 0 0 0
          0 0 0 0 0 0
          0 0 0 0 0 0
          0
        </DataArray>
        <DataArray type="Float64" Name="gradient_error" format="ascii" RangeMin="8.343568166518494e-14" RangeMax="4.3731608134137144e-10">
          1.0729342835007326e-11 3.7141483001213804e-13 5.134741395845456e-12 3.140598376843163e-12 1.1972998300706198e-12 2.564526851090057e-11
          1.8106493698764365e-11 1.0514970746623044e-11 7.242520307723684e-12 9.25433392382479e-12 7.719823638260133e-12 4.700437386129947e-12
          9.683630851962618e-12 5.074376931440253e-12 9.175624394527675e-12 1.4519283069224684e-10 3.617685209373955e-10 7.271817276238139e-11
          3.2376244182231403e-11 1.0077981370207792e-11 4.266154650560163e-12 1.9726136142112642e-10 9.431967877540823e-11 2.391087216557713e-11
          3.306235035217379e-12 1.2815346824030744e-11 1.6180177185865146e-12 3.960837862857328e-11 4.295040242028709e-12 5.744901402378755e-12
          4.6143956438333775e-12 5.0579396520689e-12 3.463311053090161e-12 3.6860496018566366e-12 3.235837736811225e-12 2.450351402532252e-12
          5.106452452406252e-12 2.1442622282396743e-12 2.801333341762305e-12 1.5986939278645872e-12 1.3191534428431534e-12 1.0248798551062878e-12
          7.779008812102784e-13 4.736502815109593e-13 2.7457173790612224e-12 4.347631630902489e-12 1.160714834013641e-12 3.4690734943291606e-12
          1.6514194024506885e-12 2.8557759122916497e-12 1.1771502966356467e-12 1.3120422720460135e-12 1.7362562324181076e-12 5.22538282463075e-13
          7.12729965294345e-13 7.392109567619765e-13 7.019049485996547e-13 3.1254484678003687e-13 2.1604701927902014e-12 9.029216481256148e-13
          6.645989404373329e-13 3.44154571276634e-13 5.851109087220563e-13 1.6737271477888445e-11 1.0687428829576288e-11 8.962028790257976e-12
          1.199079611848755e-11 6.516707707706499e-12 7.775213662037319e-12 4.80254104940057e-12 8.145676912874502e-12 8.819786326003362e-12
          9.63036816304455e-12 5.527858564340624e-12 8.255877270951689e-12 4.6465061127972304e-12 8.598424461233713e-12 6.354076901238694e-12
          9.20791932713624e-12 7.961551142962189e-12 9.565452957779751e-12 5.445837856337593e-11 5.881182123180497e-11 2.930849360695395e-10
          1.133763423779844e-10 1.416960897060533e-10 3.768724906396904e-11 2.5375546410340053e-11 1.6359762315014363e-10 1.0428458207047573e-10
          1.6632699086750333e-11 1.0613538810367053e-11 1.1223690540205217e-10 7.459527303505197e-11 4.9237633445805275e-11 1.63141037511417e-11
          1.0867905977131728e-11 7.946904381245562e-12 6.861953563146597e-12 4.151886894370746e-11 2.852509222080554e-11 1.4894243669135572e-11
          7.151752509079215e-12 7.053637668844149e-12 4.465292529859876e-12 4.462202258082906e-12 5.6640655439463425e-12 4.388304355769772e-12
          2.7214815842665356e-12 1.9071311535017308e-11 1.2404191311932104e-11 6.642584241596795e-12 3.616720287175497e-10 2.1768802843967e-10
          1.5656338813975252e-10 4.3731608134137144e-10 2.715914978525994e-10 2.5695630733845664e-10 1.7618998642420714e-10 1.0905771577698127e-10
          7.359135480944146e-11 3.144582336268335e-10 2.1798332672057908e-10 1.3864224502922462e-10 8.229443953016367e-11 5.804428637555781e-11
          2.747731527196375e-11 1.9029459646816693e-11 1.0379127170673991e-10 7.383126798867532e-11 3.424914245241124e-11 3.977051903291432e-11
          2.64627361437747e-11 1.2827925421938947e-11 8.41318163924925e-12 5.0988170631556055e-11 3.41751770476201e-11 1.6242794708727002e-11
          2.2984027746718185e-12 3.815217991261242e-12 3.968245445862326e-12 6.590439320024916e-12 3.978009420263398e-12 4.805523278085374e-11
          3.001459142176328e-11 2.0673303421498132e-11 2.6721051833781364e-12 2.74690558014232e-12 1.996781878530672e-12 2.102476417938052e-12
          1.6486940072369351e-12 1.3717164649374685e-12 7.84548920560963e-12 4.820569419389438e-12 2.6674402431830066e-12 1.166874488751317e-10
          7.468778882348278e-11 4.810781676780469e-11 3.046383105111804e-11 1.4578688564789635e-10 9.41400721488821e-11 6.21213782828039e-11
          1.7092093359426535e-11 1.0710905883039484e-11 5.365850835278395e-12 3.323326092222192e-12 2.2223278134726297e-11 1.401414356526713e-11
          6.887609731171706e-12 6.693268703565669e-12 5.6121135115658106e-12 7.358689524165812e-12 6.3678652762706085e-12 4.392453578811946e-12
          4.025972444776381e-12 4.119347873723484e-12 4.904047406357787e-12 4.078716651444713e-12 4.366361744015975e-12 5.836733828671314e-12
          5.0262834009128974e-12 3.60339938587452e-12 3.1211298111677646e-12 3.2210566872516355e-12 5.063962812114228e-12 3.1767220323542166e-12
          3.5025310219918388e-12 2.206303685771949e-12 3.814080839011492e-12 8.38866702744663e-12 5.691805787152699e-12 5.0783815440646484e-12
          4.341298847048126e-12 1.020959637543412e-11 6.979698298633209e-12 4.67333292128497e-12 3.764402162127556e-12 2.425928377568594e-12
          2.8268908139586065e-12 1.7868456130746226e-12 4.651288087362833e-12 3.020411935955629e-12 3.382922910862396e-12 4.53013895340768e-12
          4.856667045495367e-12 3.3705752865938996e-12 4.269025751195141e-12 2.292221347429976e-12 2.8150374863560414e-12 1.93923823557425e-12
          4.121805171116404e-12 4.8252874071678945e-12 3.006984001868892e-12 2.1593270206062995e-12 1.8753245875993262e-12 1.2527438712657335e-12
          1.0937211871307374e-12 1.2162834731367063e-12 1.913572525324076e-12 1.1308391264211332e-12 1.3444572685592777e-12 1.0445744119758106e-12
          1.4473516643858743e-12 1.5194494737637738e-12 1.1424729006389479e-12 1.0996239901407036e-12 9.091605038997681e-13 1.9076657874491063e-12
          1.1683966723474166e-12 1.3211617379468912e-12 2.3239953743523095e-13 2.9527960191353316e-13 1.5660149898688438e-13 1.7581496752715177e-13
          1.459638073932251e-13 1.2672015168773158e-13 8.343568166518494e-14 3.581596663918353e-13 1.950284360674192e-13 1.0747649598223808e-13
          3.445937832061535e-12 7.406278613800246e-12 2.1807410213465973e-12 4.648973153253472e-12 2.5541132450152583e-12 4.769175712396491e-12
          3.0255047222894332e-12 1.3284392089353812e-12 2.788265386273303e-12 1.024517568735367e-12 1.831048234109718e-12 1.847705545363068e-12
          2.6570796193437374e-12 1.4898711813190008e-12 2.0880344253279626e-12 1.2215479457138175e-12 1.5914498348652891e-12 1.3700044097399824e-12
          2.434010423274881e-12 2.8340588699528653e-12 1.5542355597518781e-12 1.8049052374299028e-12 1.3923201031072324e-12 1.3635250920572346e-12
          8.897895521151554e-13 3.234107316630849e-12 2.0555749151079275e-12 1.3347300810072368e-12 9.573377890167503e-13 1.11167451793068e-12
          5.591824924847334e-13 6.532433272651223e-13 5.776609270802515e-13 5.577194952296948e-13 3.4887061374111187e-13 1.2660112468446096e-12
          7.473041620455109e-13 5.377780633791381e-13 3.1925353491712975e-13 3.691955899456495e-13 2.4567924310875084e-13 2.7029850176005153e-13
          2.3063634362561213e-13 2.361030562267038e-13 2.0141008956002955e-13 4.191376449741693e-13 2.949177604113522e-13 2.415697688277955e-13
          2.4636621410238864e-12 3.822458542872687e-12 2.118792201718278e-12 3.0213507869171215e-12 1.669908384595663e-12 2.464325606939832e-12
          2.1296263893087346e-12 5.6795576164270055e-12 8.075450042559072e-12 6.544725765354774e-12 1.4716748496242583e-11 3.829321963341377e-12
          5.23194806349669e-12 4.516217919104966e-12 1.1106095423043863e-11 9.678348999252302e-12 8.869174551813995e-12 7.043597053575741e-12
          7.105783428631758e-12 5.570245969297983e-12 4.376047504879477e-12 4.4310628951125686e-12 4.1260213126274615e-12 5.634869406932008e-12
          3.3788644012714317e-12 4.5660219313993344e-12 3.521984315299538e-12 4.574595268700654e-12 3.716988700796929e-12 1.0123321171854731e-11
          8.225956457351985e-12 7.708386700311657e-12 2.8390251837827173e-12 3.663147596726334e-12 2.638012463717714e-12 3.254070676228504e-12
          2.425519172707967e-12 3.03105232077517e-12 2.7436760067948105e-12 6.604528606828034e-12 5.9833379019816116e-12 5.08996504970265e-12
          3.167401651616243e-11 1.0698492052933867e-10 9.075481419541318e-11 1.6942224258058306e-10 5.970548979068736e-11 3.8226344745408254e-11
          9.376591825013584e-11 3.593603416899242e-11 2.1757388735831293e-10 3.451308705516391e-10 1.3849627160904457e-10 8.536017199304017e-11
          1.856625051358746e-10 5.11449989120871e-11 6.708207304269496e-11 2.1979043490304075e-10 1.342600055091584e-10 2.314566845879341e-10
          7.915096121422595e-11 8.355522455888381e-11 2.6218659987144498e-11 2.157279242143701e-11 4.545498412843246e-11 2.063861876663517e-11
          1.7672016203965558e-11 1.4374538439402282e-11 4.539029795660523e-11 3.7207686619742626e-11 3.1031508112935725e-11 9.49797859337805e-11
          7.644418826504261e-11 6.393571315570392e-11 1.2350762024702184e-10 7.919604882936986e-11 6.550232936939058e-11 5.309807301423576e-11
          4.378842164729735e-11 1.3283266644470943e-10 1.109246615308513e-10 8.740428322582705e-11 1.6663740250650535e-11 1.3355965733433649e-11
          1.1564048109638732e-11 9.233142611515244e-12 3.029061016827982e-11 2.4490960976261574e-11 2.0613364563229273e-11 1.064381098611534e-11
          8.43503615566877e-12 7.34153765079614e-12 5.809435193203846e-12 1.9667088162443565e-11 1.568664700706649e-11 1.3330842105771975e-11
          7.819778995815133e-11 6.389920452814899e-11 1.3605011280054697e-10 5.182760500807549e-11 4.1726344951920564e-11 9.186038900721435e-11
          5.3783278081229465e-11 4.3842466010447966e-11 3.5858192175158166e-11 2.915954603081735e-11 9.191952422103374e-11 7.55905917009793e-11
          6.005680434145954e-11 3.548251077361029e-11 2.8510760039824048e-11 2.354716031542493e-11 1.888222026281504e-11 6.169188854424405e-11
          4.996924168204988e-11 4.007297882619685e-11 1.787326529022372e-11 1.4666761504449496e-11 1.1842522338401999e-11 9.701898052495318e-12
          3.038140627012068e-11 2.511979426487175e-11 1.979050163828799e-11 1.1976009007220353e-11 9.701554598659504e-12 7.90604023214473e-12
          6.393403495219597e-12 2.0629785358010483e-11 1.682901432466682e-11 1.3360243468634492e-11 5.7308202513336164e-12 7.667007108906908e-12
          4.698541423043451e-12 6.270803186561541e-12 3.724511151395871e-12 4.8144569344005465e-12 4.332440661067698e-12 1.2604217204330845e-11
          1.0374259749607854e-11 7.758216939760645e-12 3.84503661039215e-12 5.096142418615892e-12 3.118027030767712e-12 4.114412009604237e-12
          3.125817712698434e-12 3.980782763693181e-12 3.2074317282963575e-12 8.448713610945791e-12 6.831599639672887e-12 5.873437205100897e-12
          5.0104593685896305e-11 4.1762555109593645e-11 3.196452241103793e-11 2.655064972270623e-11 7.939561589352394e-11 6.6755145147986e-11
          4.9581917224290534e-11 3.457352913383031e-11 2.8428231804541473e-11 2.190887897154295e-11 1.7959908993267914e-11 5.573256270569148e-11
          4.6202853960233433e-11 3.453133203482526e-11 1.9917943652036836e-11 1.6507804865308548e-11 1.2108262059551992e-11 9.98941104091637e-12
          3.0165737205635e-11 2.5155015046985734e-11 1.7931634092956e-11 1.3567717339980488e-11 1.1071677445292451e-11 8.159176716680694e-12
          6.622322804983347e-12 2.0840809107672877e-11 1.715385025949018e-11 1.2292457781053367e-11 5.58518320335524e-12 7.778064008152902e-12
          4.404732903892271e-12 6.196192408722958e-12 3.729832861675612e-12 5.118072267728327e-12 4.0686177208455245e-12 1.3638445413284017e-11
          1.0979512801198587e-11 8.783439774793819e-12 3.4746103949755055e-12 4.916515277553022e-12 2.7334933854823496e-12 3.881839168926993e-12
          2.3122832604467505e-12 3.2212366831500226e-12 2.5363401088494207e-12 8.781361472464023e-12 6.9777594616817334e-12 5.628470921768738e-12
          2.4642011143180644e-12 3.2803283761289063e-12 1.9268300843530667e-12 2.595356170983664e-12 1.999348390082317e-12 2.5476575719599116e-12
          2.0073420184014544e-12 5.502212393909556e-12 4.408317529747784e-12 3.791440955508851e-12 1.5183746454424452e-12 2.051303196341306e-12
          1.19280379749933e-12 1.6134114825478566e-12 1.2283842155588752e-12 1.5852833067422457e-12 1.2472271087425445e-12 3.5075471247582426e-12
          2.7729267678350554e-12 2.406672164303998e-12 2.3217050911392143e-11 1.8832898601238077e-11 1.4625533979662394e-11 1.1831897890696958e-11
          3.803318432869227e-11 3.108760020499817e-11 2.3403901493718343e-11 1.5172886350119296e-11 1.2140882832564553e-11 9.508784368942771e-12
          7.590859004966282e-12 2.523106059835757e-11 2.0332713337102807e-11 1.5434082947378308e-11 8.985945134527136e-12 7.2505077105054925e-12