<?xml version="1.0"?>
<VTKFile type="UnstructuredGrid" version="0.1" byte_order="LittleEndian" header_type="UInt32" compressor="vtkZLibDataCompressor">
  <UnstructuredGrid>
    <Piece NumberOfPoints="627" NumberOfCells="400">
      <PointData>
        <DataArray type="Int32" Name="libmesh_node_id" format="ascii" RangeMin="866" RangeMax="6206">
          866 867 868 869 876 877
          1397 1398 1399 1402 1405 1407
          1408 1409 1410 1414 1415 1417
          1418 1420 1900 1901 1902 1905
          1906 1907 1908 1909 1914 2650
          2651 2654 2655 2656 2657 2659
          2662 2676 2677 2680 2682 2696
          2697 2699 2702 2712 2714 2716
          2718 2719 2720 2721 2722 2723
          2724 2725 2726 2727 2728 2729
          2730 2731 2746 2747 2748 2749
          2750 2751 2752 2753 2754 2755
          2766 2767 2768 2769 2770 2771
          2772 2773 2774 2775 2786 2787
          2788 2789 2790 2791 2792 3153
          3154 3155 3156 3157 3158 3159
          3160 3161 3162 3170 3171 3172
          3173 3174 3175 3176 3177 3178
          3179 3180 3181 3182 3183 3184
          3185 3186 5111 5112 5113 5116
          5121 5122 5123 5124 5125 5126
          5127 5128 5129 5130 5131 5132
          5133 5134 5137 5138 5141 5145
          5146 5147 5148 5149 5150 5151
          5152 5153 5154 5165 5166 5167
          5168 5169 5170 5171 5172 5173
          5174 5182 5183 5184 5185 5186
          5187 5188 5259 5260 5263 5267
          5268 5269 5270 5271 5272 5273
          5274 5275 5276 5284 5285 5286
          5287 5288 5289 5290 5301 5302
          5303 5304 5305 5306 5307 5308
          5309 5310 5389 5390 5391 5392
          5393 5394 5395 5396 5397 5398
          5406 5407 5408 5409 5410 5411
          5412 5423 5424 5425 5426 5427
          5428 5429 5430 5431 5432 5440
          5441 5442 5443 5444 5445 5446
          5510 5511 5512 5513 5514 5515
          5516 5524 5525 5526 5527 5528
          5529 5530 5538 5539 5540 5541
          5542 5543 5544 5552 5553 5554
          5555 5556 5557 5558 5559 5560
          5561 5562 5563 5564 5565 5566
          5567 5568 5569 5570 5571 5572
          5573 5574 5575 5576 5577 5578
          5579 5580 5581 5582 5583 5584
          5585 5586 5587 5588 5589 5590
          5591 5592 5593 5594 5595 5596
          5597 5598 5599 5600 5601 5602
          5603 5604 5605 5606 5607 5608
          5609 5610 5611 5612 5613 5614
          5615 5616 5617 5618 5619 5620
          5621 5622 5623 5624 5625 5626
          5627 5628 5629 5630 5631 5632
          5633 5682 5683 5684 5685 5686
          5687 5688 5689 5690 5691 5692
          5693 5694 5695 5696 5697 5698
          5699 5700 5701 5702 5703 5704
          5705 5706 5707 5708 5709 5710
          5711 5712 5713 5714 5715 5716
          5717 5718 5719 5720 5721 5752
          5753 5754 5755 5756 5757 5758
          5759 5760 5761 5762 5763 5764
          5765 5766 5767 5768 5769 5770
          5771 5772 5773 5774 5775 5776
          5777 5778 5779 5780 5781 5782
          5783 5784 5785 5786 5787 5788
          5789 5790 5791 5792 5793 5794
          5795 5796 5797 5798 5799 5800
          5801 5802 5803 5804 5805 5806
          5807 5808 5809 5810 5811 5812
          5813 5814 5815 5816 5817 5818
          5819 5888 5889 5890 5891 5892
          5893 5894 5895 5896 5897 5898
          5899 5900 5901 5902 5903 5904
          5905 5906 5907 5908 5909 5910
          5911 5912 5913 5914 5915 5916
          5917 5918 5919 5920 5921 5922
          5923 5924 5925 5926 5927 5928
          5929 5930 5931 5932 5933 5934
          5935 5936 5937 5938 5939 5940
          5941 5942 5943 6112 6113 6116
          6117 6146 6147 6150 6151 6177
          6178 6181 6182 6185 6187 6191
          6192 6194 6195 6198 6199 6201
          6202 6205 6206 1896 1897 1898
          1899 1903 1904 2674 2678 2675
          2679 3147 3148 3149 3152 1393
          2640 1394 3165 3166 3169 2666
          1400 5107 5108 5109 5110 5114
          5115 5117 2652 5119 5118 2653
          5120 5135 5136 5139 5140 5143
          5142 2658 5144 5157 5158 5160
          2660 5163 2661 5176 5178 5180
          2663 5257 5258 5261 5262 5265
          5264 5266 5278 5280 5282 2681
          5293 5294 5297 5299 2683 5381
          5382 5384 2694 5387 2695 5400
          5402 5404 2698 5415 5416 5418
          2700 5421 2701 5434 5436 5438
          2703 5504 5506 5508 2711 5518
          5520 5522 2713 5532 5534 5536
          2715 5546 5548 5550 2717 6106
          6110 6140 6144
        </DataArray>
        <DataArray type="Float64" Name="bounds" format="ascii" RangeMin="0" RangeMax="0">
          0 0 0 0 0 0
          0 0 0 0 0 0
          0 0 0 0 0 0
          0 0 0 0 0 0
          0 0 0 0 0 0
          0 0 0 0 0 0
          0 0 0 0 0 0
          0 0 0 0 0 0
          0 0 0 0 0 0
          0 0 0 0 0 0
          0 0 0 0 0 0
          0 0 0 0 0 0
          0 0 0 0 0 0
          0 0 0 0 0 0
          0 0 0 0 0 0
          0 0 0 0 0 0
          0 0 0 0 0 0
          0 0 0 0 0 0
          0 0 0 0 0 0
          0 0 0 0 0 0
          0 0 0 0 0 0
          0 0 0 0 0 0
          0 0 0 0 0 0
          0 0 0 0 0 0
          0 0 0 0 0 0
          0 0 0 0 0 0
          0 0 0 0 0 0
          0 0 0 0 0 0
          0 0 0 0 0 0
          0 0 0 0 0 0
          0 0 0 0 0 0
          0 0 0 0 0 0
          0 0 0 0 0 0
          0 0 0 0 0 0
          0 0 0 0 0 0
          0 0 0 0 0 0
          0 0 0 0 0 0
          0 0 0 0 0 0
          0 0 0 0 0 0
          0 0 0 0 0 0
          0 0 0 0 0 0
          0 0 0 0 0 0
          0 0 0 0 0 0
          0 0 0 0 0 0
          0 0 0 0 0 0
          0 0 0 0 0 0
          0 0 0 0 0 0
          0 0 0 0 0 0
          0 0 0 0 0 0
          0 0 0 0 0 0
          0 0 0 0 0 0
          0 0 0 0 0 0
          0 0 0 0 0 0
          0 0 0 0 0 0
          0 0 0 0 0 0
          0 0 0 0 0 0
          0 0 0 0 0 0
          0 0 0 0 0 0
          0 0 0 0 0 0
          0 0 0 0 0 0
          0 0 0 0 0 0
          0 0 0 0 0 0
          0 0 0 0 0 0
          0 0 0 0 0 0
          0 0 0 0 0 0
          0 0 0 0 0 0
          0 0 0 0 0 0
          0 0 0 0 0 0
          0 0 0 0 0 0
          0 0 0 0 0 0
          0 0 0 0 0 0
          0 0 0 0 0 0
          0 0 0 0 0 0
          0 0 0 0 0 0
          0 0 0 0 0 0
          0 0 0 0 0 0
          0 0 0 0 0 0
          0 0 0 0 0 0
          0 0 0 0 0 0
          0 0 0 0 0 0
          0 0 0 0 0 0
          0 0 0 0 0 0
          0 0 0 0 0 0
          0 0 0 0 0 0
          0 0 0 0 0 0
          0 0 0 0 0 0
          0 0 0 0 0 0
          0 0 0 0 0 0
          0 0 0 0 0 0
          0 0 0 0 0 0
          0 0 0 0 0 0
          0 0 0 0 0 0
          0 0 0 0 0 0
          0 0 0 0 0 0
          0 0 0 0 0 0
          0 0 0 0 0 0
          0 0 0 0 0 0
          0 0 0 0 0 0
          0 0 0 0 0 0
          0 0 0 0 0 0
          0 0 0 0 0 0
          0 0 0 0 0 0
          0 0 0 0 0 0
          0 0 0 0 0 0
          0 0 0
        </DataArray>
        <DataArray type="Float64" Name="gradient_error" format="ascii" RangeMin="5.431153492689095e-13" RangeMax="4.3062374827877845e-9">
          5.471837772863005e-12 1.057871557060043e-11 8.354453988549492e-12 1.0955682881200795e-11 2.2289851073420918e-9 1.0985507742011372e-10
          9.022285348236374e-12 4.714406328260161e-10 2.0855528130709443e-10 1.9765308033281456e-11 1.3372395500880632e-9 4.009746784647221e-12
          7.118632001127286e-12 7.591520017754752e-11 3.320194219240286e-11 3.157701537286641e-12 4.284290648096654e-12 4.55552924883849e-10
          2.3545096747885837e-10 1.7687110120788776e-11 2.3335612740775215e-12 2.0080670292115463e-12 2.650490288052548e-12 5.016173712717239e-12
          5.431153492689095e-13 5.933685282997007e-13 1.091020892107643e-12 1.9875347283456536e-12 2.4922288097696144e-12 1.911240325751888e-11
          1.7062514382919458e-11 7.394215275206079e-12 4.458065785420083e-11 3.758721994120773e-11 1.199659985417336e-11 2.507279342363618e-11
          3.844098395860028e-10 1.3747050838867776e-11 1.6974535085602034e-11 9.463913546025642e-12 7.642059767491252e-11 2.026441456176299e-9
          1.6843633625462187e-9 9.259798994588277e-10 2.073665745067131e-9 3.189925481595958e-10 7.092931094980305e-11 4.966138576660667e-10
          3.4199671173851263e-12 5.2588903650034365e-12 1.81266236682686e-11 1.6943156686256338e-11 6.873307765169336e-12 8.656043897528147e-12
          9.409175965281258e-12 1.0987839078909541e-11 1.4976874635120268e-11 8.023267163985891e-12 1.9800409624905002e-10 1.6104981488816966e-10
          6.16884425858336e-11 8.68914957902016e-11 1.4190277590491585e-11 1.0093231987513826e-11 5.979490211810305e-12 4.1358828491654196e-12
          5.9560395144510015e-12 4.9881145052132654e-12 3.0103507155501837e-12 3.162684673043172e-11 1.2039794889835725e-11 8.873514855866975e-12
          9.053693093133604e-10 7.441762380526698e-10 3.602396914838984e-10 2.939787780381618e-10 3.9943565545029955e-10 1.5553165709159226e-10
          1.0774124171606464e-9 9.690633301193875e-10 3.9966167044725003e-10 5.927500299218702e-10 1.3479587370828997e-10 5.1909963212735243e-11
          2.955823003707275e-11 1.1288365136206987e-11 2.1233155577562573e-10 8.242795778959533e-11 4.607649354562727e-11 3.266659040687506e-12
          3.022686548149204e-12 1.4122123703880107e-11 1.2776000611023802e-11 1.4937682717914482e-12 6.260057080119427e-12 5.55244708392887e-12
          2.4766389459044543e-12 9.222440479085632e-12 4.587772676562549e-12 2.133070863227133e-12 5.038165888123731e-12 1.4717489380939884e-12
          3.1098345373313033e-12 2.091577890256259e-12 3.061328336243697e-12 2.146025220451584e-12 7.456119184541466e-13 8.370782132336505e-13
          2.5771932587229807e-12 2.17038399194266e-12 6.424320490271028e-13 1.3801688299037982e-12 1.1309345750176815e-12 9.285445080131542e-13
          1.7635747251623405e-12 8.817003201315648e-13 1.2810871359539573e-11 2.9675834792848624e-11 2.858327953921314e-11 2.554296595799127e-11
          8.74620354634574e-12 8.452267975681964e-12 1.9653582110648927e-11 1.89152671410339e-11 5.560220314358678e-12 1.2805663651513952e-11
          1.2309485679596712e-11 7.70743016054046e-12 1.6904566593817288e-11 1.100160625849381e-11 6.796946151419071e-11 6.515941142543611e-11
          4.271690574786699e-11 5.7407199161226876e-11 9.890279900456395e-12 2.118136338045397e-11 1.6337138337144165e-11 6.817918301406776e-12
          1.4014898859218813e-11 4.885665535628199e-12 9.109839288101686e-12 5.868727375215666e-12 1.0754571220830593e-11 7.7283283217146e-12
          4.6508403841643677e-11 3.032913085800595e-11 3.460187369721622e-11 2.2921718080725066e-10 2.1871516291312737e-10 1.518345689178514e-10
          1.4487039484476564e-10 1.900451725437321e-10 1.258341087069396e-10 7.022379652229196e-10 6.676485470225366e-10 4.4799703054144974e-10
          5.736876251957906e-10 1.5059885032759444e-10 9.96797437998505e-11 1.0900113521269357e-10 7.21070225884851e-11 4.45434511794834e-10
          2.9784187166040387e-10 3.12695464047697e-10 6.620049301232603e-12 1.1704463795323945e-11 9.502170046862627e-12 4.8871738653106485e-12
          7.716508467990712e-12 4.3108605799349975e-12 6.105672554695478e-12 4.416201666940783e-12 6.321491196542169e-12 5.085907678037612e-12
          2.361248015065222e-11 1.8741546404086788e-11 1.805347573662692e-11 7.215176986814309e-11 4.763178326429348e-11 4.3776828626421345e-11
          2.8825031336119656e-11 1.98914758239922e-10 1.3231522683519251e-10 1.1519112223091664e-10 1.3292553262268403e-11 2.450572440223497e-11
          8.709717882552052e-12 1.6100811572927866e-11 7.22922052327979e-12 1.2767967740053444e-11 8.347832997003493e-12 6.11458808565604e-11
          4.0461330155791346e-11 3.000067483504281e-11 1.7083832379711338e-9 1.624718828248744e-9 1.1692043209330712e-9 1.110706283538129e-9
          1.3957395177006099e-9 9.511902789564805e-10 2.892244143610165e-9 2.7696139780500126e-9 1.936684036324573e-9 2.422085409340661e-9
          1.0797099356675594e-9 7.324911313452896e-10 7.497620135166628e-10 5.060528843787749e-10 1.9150530425466226e-9 1.3212646290985896e-9
          1.354046481055698e-9 3.2264337359704712e-9 3.1527077390707993e-9 2.3259679449538605e-9 2.2636131264821256e-9 2.8957188108873905e-9
          2.0577559530122536e-9 3.0337261294781127e-9 3.016817853775758e-9 2.2026424155470946e-9 2.882748237895202e-9 2.421478547083156e-9
          1.6982386798411476e-9 1.7959342813829253e-9 1.242694110078305e-9 2.5107946292074505e-9 1.7752818597791516e-9 1.922347637689786e-9
          4.669430902361283e-10 3.1359998505484897e-10 2.6161083897165915e-10 1.7492403085423065e-10 8.500779224574064e-10 5.764926995362051e-10
          4.736797012606215e-10 1.3285131152075636e-10 8.849636658889468e-11 6.184357538157717e-11 4.103857653383495e-11 2.3590468800664453e-10
          1.5798740577012173e-10 1.0640486219400021e-10 1.1655933295894335e-9 7.968772438324332e-10 6.608814970066109e-10 4.4750110367606364e-10
          1.2747119007621192e-9 8.744400942189536e-10 7.31829858984438e-10 3.30040466672859e-10 2.2188968672670584e-10 1.474539210615712e-10
          9.860338388783902e-11 3.674013142030224e-10 2.473665400426786e-10 1.640906337850378e-10 3.700081073212802e-12 3.753709725138807e-12
          8.207192383609456e-12 7.883080483648235e-12 2.6781893632274265e-12 5.173569572262499e-12 4.974775305469589e-12 3.73687381154293e-12
          7.0089117310260524e-12 4.8281253864375e-12 2.8698921853691986e-11 2.7466124508719322e-11 1.7273547444155875e-11 2.4096791429363896e-11
          1.760258978934085e-12 1.98405727898316e-12 3.1757438411960035e-12 3.0960314211005697e-12 1.6953194793966037e-12 2.3785077945427236e-12
          2.363667578930379e-12 2.207855579032236e-12 3.0163190010051356e-12 2.3488273633180347e-12 1.119852845333364e-11 1.0634235129469872e-11
          7.974166208675081e-12 1.1260584561640032e-11 3.650615716572863e-12 5.797474894720676e-12 3.1665957340904542e-12 4.4726604043593584e-12
          3.634822187124679e-12 5.136094911076261e-12 4.0129067267595725e-12 1.933120933202419e-11 1.494587247080283e-11 1.7380393715185243e-11
          9.855147294390529e-11 9.40653525513509e-11 6.271080838390755e-11 5.987333295419643e-11 8.17570204099249e-11 5.20629069721732e-11
          3.0907422856742045e-10 2.935948990272228e-10 1.8803476091690492e-10 2.5165780590959673e-10 3.9174674643596854e-11 3.736424511336241e-11
          2.39681031819479e-11 2.283095061150112e-11 3.241322788835764e-11 1.9750278075439843e-11 1.2399131888221485e-10 1.1773028652595704e-10
          7.207560906095542e-11 1.0078959495569352e-10 6.471125792231803e-11 4.115319439771351e-11 4.667230752450975e-11 2.9583546193756927e-11
          1.94690272754951e-10 1.244586187053201e-10 1.360889096826106e-10 1.1989742248331039e-11 2.5563323002219415e-11 7.191346161645914e-12
          1.5545188746906096e-11 8.751734418875116e-12 1.8354221483527393e-11 1.1160229345462464e-11 7.78350928794702e-11 4.761958116623961e-11
          5.429507335537306e-11 1.540254898791736e-11 3.07393878941185e-11 9.60884852788672e-12 1.9436610181031354e-11 9.598893476937614e-12
          1.8577293779696846e-11 1.1740037305036714e-11 8.617763371835805e-11 5.4952160920438126e-11 4.967137581388688e-11 5.904240685282014e-12
          1.2059226756040001e-11 3.5861503524407263e-12 7.344064561831122e-12 3.7132356342940094e-12 7.289865563701067e-12 4.441701569589063e-12
          3.430698546162903e-11 2.0969140629035462e-11 1.9724339562942427e-11 5.598434797077306e-12 1.0377810012740266e-11 3.5526589568051003e-12
          6.5522295020810285e-12 3.111141252293202e-12 5.337509317483593e-12 3.9027719217918e-12 2.627223975720448e-11 1.670419446428226e-11
          1.2744446240555845e-11 2.2248411830928083e-12 4.0526685185766185e-12 1.382510034374158e-12 2.4653636937693852e-12 1.6658380533655707e-12
          2.789622265627831e-12 1.6986140650848038e-12 1.0374564805340594e-11 6.310233814799245e-12 5.9929818975561596e-12 7.779966178341643e-10
          7.384440015383728e-10 5.039960799611651e-10 4.780691087218145e-10 6.308953315005534e-10 4.0772191819474297e-10 1.3751776779201956e-9
          1.3121176955775834e-9 8.626952699468811e-10 1.1360197021736841e-9 3.1819168807293257e-10 3.016800866312228e-10 1.9592029920933796e-10
          1.8568957267495394e-10 2.569533748309492e-10 1.580110675030191e-10 5.790738202913506e-10 5.511814500247656e-10 3.425923579054053e-10
          4.740656889176607e-10 4.841886897804665e-10 3.121266675544128e-10 3.3323844195887056e-10 2.1422373440445015e-10 8.854438081583494e-10
          5.77079664421425e-10 6.162188608766705e-10 1.9634921404482791e-10 1.2058727651121682e-10 1.344969251770375e-10 8.249092445437575e-11
          3.6615277052799704e-10 2.263554881815415e-10 2.523841662249065e-10 1.618665918753793e-9 1.569799981472566e-9 1.0895413597115561e-9
          1.05348872063737e-9 1.414466160033369e-9 9.42069497744454e-10 1.5772406660751152e-9 1.5502736841396859e-9 1.0541265292585898e-9
          1.440969374512914e-9 7.105043751610105e-10 6.852332343753255e-10 4.4952607637157313e-10 4.3259444780669744e-10 6.088173218763624e-10
          3.822653110388049e-10 7.118053692047396e-10 6.936711944426545e-10 4.42448766779803e-10 6.31678795813659e-10 1.154344126255924e-9
          7.615792120359482e-10 8.35299790275871e-10 5.460416251513523e-10 1.2155019014996364e-9 8.071121355537687e-10 9.030536316446767e-10
          4.882937884178295e-10 3.0458081859114906e-10 3.474879072578335e-10 2.154352635463145e-10 5.204471818664883e-10 3.2628508284133575e-10
          3.7856789425736267e-10 2.0575158331425556e-10 1.319211445258506e-10 1.1439260430563318e-10 7.317348848978737e-11 3.8117357621711773e-10
          2.4586932518150105e-10 2.0979975407803548e-10 8.267700419074216e-11 5.0656440173209755e-11 4.579087497892271e-11 2.803671773488159e-11
          1.5478490906579564e-10 9.513193706992987e-11 8.462058242417822e-11 5.773636111047312e-11 3.687887989327221e-11 2.6704219427841712e-11
          1.7003818814509766e-11 1.0346820637849317e-10 6.627075985783015e-11 4.628403868647934e-11 2.3039791699753818e-11 1.4088502219900884e-11
          1.0573757029915671e-11 6.435980784119382e-12 4.1516024560085745e-11 2.544162622268762e-11 1.8473640378550703e-11 5.30464527609872e-10
          3.4410209323986073e-10 2.9565914402188127e-10 1.906730657239785e-10 5.838060287776233e-10 3.7966787516172016e-10 3.287169309536403e-10
          2.1764496331042159e-10 1.3428611379396968e-10 1.2006326530457738e-10 7.383145543615823e-11 2.4067435877427616e-10 1.4878493130764973e-10
          1.33884932085867e-10 1.4579275128338025e-10 9.362964345422505e-11 6.451186834591227e-11 4.1288129475811626e-11 1.6273451774471467e-10
          1.0461893809812666e-10 7.193908307611158e-11 5.877556723093932e-11 3.6069838981753354e-11 2.5850980923721683e-11 1.5829000939422103e-11
          6.573003498459401e-11 4.036117968149936e-11 2.88694255427841e-11 2.6820702403594348e-11 1.7744051860656525e-11 4.430043604637614e-11
          2.945776995058038e-11 6.016412745635998e-11 4.009150164913558e-11 6.658589239875535e-11 4.438509563489485e-11 1.145899536414057e-11
          7.230947279397112e-12 1.9137005488342267e-11 1.2161685610246897e-11 4.4677155582739885e-12 2.7115212275858034e-12 7.549537687718614e-12
          4.581132925495095e-12 2.6191284983730728e-11 1.6735439520716634e-11 2.905639355948269e-11 1.861196848574081e-11 1.040247310331754e-11
          6.31353632270099e-12 1.1574025671817969e-11 7.020203089100794e-12 1.025491051481617e-11 8.687786634314977e-12 8.486067127691568e-12
          6.802441005241976e-12 7.0681957040752136e-12 1.5079149231264107e-11 1.6988207213567116e-11 2.1810351608537253e-11 3.1935711153172686e-11
          2.0821699778354685e-11 6.216656962928654e-12 3.053379063037987e-11 2.7612192313189722e-11 2.0244267875743715e-11 4.177507500089734e-11
          3.7235271428765267e-11 2.62895151113787e-11 4.100988795549038e-12 1.1706080411784125e-11 7.614219068080394e-12 2.1778267238299363e-11
          3.01780877219901e-11 1.9804094937862287e-11 1.9153859916294545e-11 4.4089269885629684e-11 4.247524824152044e-11 1.7287071559449935e-11
          3.796351895747466e-11 1.495437637350182e-10 1.0174741983756217e-10 9.756026010563443e-11 1.4342086524079764e-10 8.602416169566804e-11
          1.265466562714049e-10 1.4573062275033367e-11 3.14895442985978e-11 1.1628410817406122e-11 2.4336976924632818e-11 6.979741744224548e-11
          1.0280032079383484e-10 5.2134236156617945e-11 7.695821982603347e-11 3.3896341009771224e-10 3.2351165400770585e-10 2.81320430922636e-10
          1.020596747324006e-9 9.70984475290044e-10 8.359308624346033e-10 2.2308892457577884e-10 1.6156541123778543e-10 6.509106488758571e-10
          4.585064758777505e-10 9.488615763620671e-12 1.7420357909360527e-11 8.796016218322767e-12 1.4080039249112904e-11 3.572217796086432e-11
          5.296232400939095e-11 4.063559131745243e-11 1.071861646656613e-10 6.527989196407627e-11 2.927126311203771e-10 1.701067017638947e-10
          2.006279083475648e-11 3.6671485933512695e-11 1.9177894267383675e-11 9.061502072047223e-11 4.463866047026022e-11 2.423234632203861e-9
          2.307881562392324e-9 1.990648438593627e-9 3.990712778203862e-9 3.830615499871929e-9 3.3723400495791995e-9 1.5490080954247135e-9
          1.0829046834518925e-9 2.6923095317567736e-9 1.924646331056411e-9 4.3062374827877845e-9 4.229090778407465e-9 3.933375206421392e-9
          3.9568616108855885e-9 3.967003206798662e-9 3.861588222280411e-9 3.3411522877480982e-9 2.5181260599549494e-9 3.4329358662078806e-9
          2.679267542085904e-9 6.788916615654564e-10 3.826040962473947e-10 1.2211940831219889e-9 6.866665128696412e-10 1.9528639524101176e-10
          9.13414017379341e-11 3.444512695418876e-10 1.5628102111994164e-10 1.6585224350496325e-9 9.517957704028299e-10 1.806731616444455e-9
          1.0513231498177099e-9 4.796797827594682e-10 2.1578082146643635e-10 5.330799565085093e-10 2.398174602280855e-10 3.972554642961919e-11
          6.528886561391926e-11 8.849578789236253e-11 9.790830761403359e-11
        </DataArray>
        <DataArray type="Float64" Name="gradient_matprop_error" format="ascii" RangeMin="0" RangeMax="0">
          0 0 0 0 0 0
          0 0 0 0 0 0
          0 0 0 0 0 0
          0 0 0 0 0 0
          0 0 0 0 0 0
          0 0 0 0 0 0
          0 0 0 0 0 0
          0 0 0 0 0 0
          0 0 0 0 0 0
          0 0 0 0 0 0
          0 0 0 0 0 0
          0 0 0 0 0 0
          0 0 0 0 0 0
          0 0 0 0 0 0
          0 0 0 0 0 0
          0 0 0 0 0 0
          0 0 0 0 0 0
          0 0 0 0 0 0
          0 0 0 0 0 0
          0 0 0 0 0 0
          0 0 0 0 0 0
          0 0 0 0 0 0
          0 0 0 0 0 0
          0 0 0 0 0 0
          0 0 0 0 0 0
          0 0 0 0 0 0
          0 0 0 0 0 0
          0 0 0 0 0 0
          0 0 0 0 0 0
          0 0 0 0 0 0
          0 0 0 0 0 0
          0 0 0 0 0 0
          0 0 0 0 0 0
          0 0 0 0 0 0
          0 0 0 0 0 0
          0 0 0 0 0 0
          0 0 0 0 0 0
          0 0 0 0 0 0
          0 0 0 0 0 0
          0 0 0 0 0 0
          0 0 0 0 0 0
          0 0 0 0 0 0
          0 0 0 0 0 0
          0 0 0 0 0 0
          0 0 0 0 0 0
          0 0 0 0 0 0
          0 0 0 0 0 0
          0 0 0 0 0 0
          0 0 0 0 0 0
          0 0 0 0 0 0
          0 0 0 0 0 0
          0 0 0 0 0 0
          0 0 0 0 0 0
          0 0 0 0 0 0
          0 0 0 0 0 0
          0 0 0 0 0 0
          0 0 0 0 0 0
          0 0 0 0 0 0
          0 0 0 0 0 0
          0 0 0 0 0 0
          0 0 0 0 0 0
          0 0 0 0 0 0
          0 0 0 0 0 0
          0 0 0 0 0 0
          0 0 0 0 0 0
          0 0 0 0 0 0
          0 0 0 0 0 0
          0 0 0 0 0 0
          0 0 0 0 0 0
          0 0 0 0 0 0
          0 0 0 0 0 0
          0 0 0 0 0 0
          0 0 0 0 0 0
          0 0 0 0 0 0
          0 0 0 0 0 0
          0 0 0 0 0 0
          0 0 0 0 0 0
          0 0 0 0 0 0
          0 0 0 0 0 0
          0 0 0 0 0 0
          0 0 0 0 0 0
          0 0 0 0 0 0
          0 0 0 0 0 0
          0 0 0 0 0 0
          0 0 0 0 0 0
          0 0 0 0 0 0
          0 0 0 0 0 0
          0 0 0 0 0 0
          0 0 0 0 0 0
          0 0 0 0 0 0
          0 0 0 0 0 0
          0 0 0 0 0 0
          0 0 0 0 0 0
          0 0 0 0 0 0
          0 0 0 0 0 0
          0 0 0 0 0 0
          0 0 0 0 0 0
          0 0 0 0 0 0
          0 0 0 0 0 0
          0 0 0 0 0 0
          0 0 0 0 0 0
          0 0 0 0 0 0
          0 0 0 0 0 0
          0 0 0 0 0 0
          0 0 0
        </DataArray>
        <DataArray type="Float64" Name="initial_marker" format="ascii" RangeMin="0" RangeMax="2">
          0 0 0 0 2 2
          0 2 2 2 2 0
          0 2 2 0 1 2
          2 2 0 0 0 0
          0 0 0 0 0 0
          0 0 2 2 0 1.75
          2 0 1 0 2 2
          2 2 2 2 2 2
          0 0 2 1.75 0 1
          1 0 1 1 2 2
          2 2 0 0.75 0 0.25
          0 0 0 2 2 1.5
          2 2 2 2 2 2
          2 2 2 2 2 2
          2 2 2 2 2 0
          0 0 0 0 0 0
          0 0 0 0 0 0
          0 0 0 0 0 0
          0 0 0 0 0 0
          0 0 0 1 1 1
          0 0 1 1 0 1
          1 0 1 1 2 2
          2 2 0 1 1 0
          1 0 1 0 1 1
          2 2 2 2 2 2
          2 2 2 2 2 2
          2 2 2 2 2 2
          2 2 0 0.75 0.5 0
          0.5 0 0.5 0 0 0
          1.5 1.6666666666666667 1.3333333333333333 2 2 2
          2 2 2 2 1.5 1.75
          1 1.5 0.5 1.25 1 2
          2 2 2 2 2 2
          2 2 2 2 2 2
          2 2 2 2 2 2
          2 2 2 2 2 2
          2 2 2 2 2 2
          2 2 2 2 2 2
          2 2 2 2 2 2
          2 2 2 2 2 2
          2 2 2 2 2 2
          2 2 2 2 2 2
          2 2 2 2 0 0
          1 1 0 1 1 0
          1 1 2 2 2 2
          0 0 0.5 0.5 0 0
          0 0 0.5 0 1.5 1.5
          1.3333333333333333 1.6666666666666667 0 0.75 0 0.5
          0 0.5 0 1.75 1.6666666666666667 1.6666666666666667
          2 2 2 2 2 2
          2 2 2 2 2 2
          2 2 2 2 2 2
          2 2 2 2 2 2
          2 2 2 2 2 2
          2 2 2 2 2 2
          2 2 2 2 2 2
          2 1.75 2 2 2 2
          2 1.5 1.75 1 1.5 1.25
          2 2 2 1 1.5 0.5
          1.25 0 0.75 0.6666666666666666 2 2
          1.75 0 1 0 0.75 0
          1 0.5 2 1.75 2 2
          2 2 2 2 2 2
          2 2 2 2 2 2
          2 2 2 2 2 2
          2 2 2 2 2 2
          2 2 2 2 2 2
          2 2 2 2 2 2
          2 2 2 2 2 2
          2 2 2 2 2 2
          2 2 2 2 2 2
          2 2 2 2 2 2
          2 2 2 2 2 2
          2 2 2 2 2 2
          2 2 2 2 2 2
          2 2 2 2 2 2
          2 2 2 2 2 2
          2 1.75 2 2 2 2
          2 2 2 2 2 2
          2 2 2 2 2 2
          2 2 2 2 2 2
          2 2 2 2 2 2
          2 2 2 2 2 2
          2 2 2 2 2 1.75
          1.5 2 2 1.25 0.75 1.75
          1.5 2 2 2 2 2
          2 2 2 0 0 0
          0 0 0 0 0 1.25
          0.5 0 0 0 0 0
          0 0 0 0 0 0
          0 0 0 1 1 0
          1 2 2 2 2 2
          2 0 1 0 1 2
          2 2 2 2 2 2
          2 2 2 2 2 2
          2 0 1 0 1 1.75
          2 2 2 2 2 2
          2 2 1.5 2 2 2
          2 2 2 2 2 2
          2 2 2 2 2 2
          2 2 2 2 2 2
          2 2 2 2 2 2
          2 2 2 2 2 2
          2 2 2 2 2 2
          2 2 2
        </DataArray>
        <DataArray type="Float64" Name="markers_norefine" format="ascii" RangeMin="0" RangeMax="0">
          0 0 0 0 0 0
          0 0 0 0 0 0
          0 0 0 0 0 0
          0 0 0 0 0 0
          0 0 0 0 0 0
          0 0 0 0 0 0
          0 0 0 0 0 0
          0 0 0 0 0 0
          0 0 0 0 0 0
          0 0 0 0 0 0
          0 0 0 0 0 0
          0 0 0 0 0 0
          0 0 0 0 0 0
          0 0 0 0 0 0
          0 0 0 0 0 0
          0 0 0 0 0 0
          0 0 0 0 0 0
          0 0 0 0 0 0
          0 0 0 0 0 0
          0 0 0 0 0 0
          0 0 0 0 0 0
          0 0 0 0 0 0
          0 0 0 0 0 0
          0 0 0 0 0 0
          0 0 0 0 0 0
          0 0 0 0 0 0
          0 0 0 0 0 0
          0 0 0 0 0 0
          0 0 0 0 0 0
          0 0 0 0 0 0
          0 0 0 0 0 0
          0 0 0 0 0 0
          0 0 0 0 0 0
          0 0 0 0 0 0
          0 0 0 0 0 0
          0 0 0 0 0 0
          0 0 0 0 0 0
          0 0 0 0 0 0
          0 0 0 0 0 0
          0 0 0 0 0 0
          0 0 0 0 0 0
          0 0 0 0 0 0
          0 0 0 0 0 0
          0 0 0 0 0 0
          0 0 0 0 0 0
          0 0 0 0 0 0
          0 0 0 0 0 0
          0 0 0 0 0 0
          0 0 0 0 0 0
          0 0 0 0 0 0
          0 0 0 0 0 0
          0 0 0 0 0 0
          0 0 0 0 0 0
          0 0 0 0 0 0
          0 0 0 0 0 0
          0 0 0 0 0 0
          0 0 0 0 0 0
          0 0 0 0 0 0
          0 0 0 0 0 0
          0 0 0 0 0 0
          0 0 0 0 0 0
          0 0 0 0 0 0
          0 0 0 0 0 0
          0 0 0 0 0 0
          0 0 0 0 0 0
          0 0 0 0 0 0
          0 0 0 0 0 0
          0 0 0 0 0 0
          0 0 0 0 0 0
          0 0 0 0 0 0
          0 0 0 0 0 0
          0 0 0 0 0 0
          0 0 0 0 0 0
          0 0 0 0 0 0
          0 0 0 0 0 0
          0 0 0 0 0 0
          0 0 0 0 0 0
          0 0 0 0 0 0
          0 0 0 0 0 0
          0 0 0 0 0 0
          0 0 0 0 0 0
          0 0 0 0 0 0
          0 0 0 0 0 0
          0 0 0 0 0 0
          0 0 0 0 0 0
          0 0 0 0 0 0
          0 0 0 0 0 0
          0 0 0 0 0 0
          0 0 0 0 0 0
          0 0 0 0 0 0
          0 0 0 0 0 0
          0 0 0 0 0 0
          0 0 0 0 0 0
          0 0 0 0 0 0
          0 0 0 0 0 0
          0 0 0 0 0 0
          0 0 0 0 0 0
          0 0 0 0 0 0
          0 0 0 0 0 0
          0 0 0 0 0 0
          0 0 0 0 0 0
          0 0 0 0 0 0
          0 0 0 0 0 0
          0 0 0 0 0 0
          0 0 0
        </DataArray>
        <DataArray type="Float64" Name="markers_mustrefine" format="ascii" RangeMin="0" RangeMax="2">
          0 0 0 0 2 2
          0 2 2 2 2 0
          0 2 2 0 1 2
          2 2 0 0 0 0
          0 0 0 0 0 0
          0 0 2 2 0 1.75
          2 0 1 0 2 2
          2 2 2 2 2 2
          0 0 2 1.75 0 1
          1 0 1 1 2 2
          2 2 0 0.75 0 0.25