<?xml version="1.0"?>
<VTKFile type="UnstructuredGrid" version="0.1" byte_order="LittleEndian" header_type="UInt32" compressor="vtkZLibDataCompressor">
  <UnstructuredGrid>
    <Piece NumberOfPoints="367" NumberOfCells="208">
      <PointData>
        <DataArray type="Int32" Name="libmesh_node_id" format="ascii" RangeMin="367" RangeMax="3314">
          367 420 428 664 665 671
          675 676 683 684 1315 1316
          1317 1320 1323 1357 1358 1360
          1363 1379 1380 1381 1382 1383
          1384 1385 1386 1387 1388 1389
          1390 1391 1392 1393 1394 1395
          1396 1397 1398 1399 1400 1401
          1402 1403 1404 1405 1406 1407
          1408 1409 1410 1411 1412 1513
          1514 1515 1516 1517 1518 1519
          1520 1521 1522 1523 1524 1525
          1526 1527 1528 1529 1530 1531
          1532 1533 2858 2859 2860 2861
          2862 2863 2864 2865 2866 2867
          2868 2869 2870 2871 2882 2883
          2884 2885 2886 2887 2888 2889
          2890 2891 2939 2940 2941 2942
          2943 2944 2945 2946 2947 2948
          3027 3028 3029 3030 3031 3032
          3033 3034 3035 3036 3044 3045
          3046 3047 3048 3049 3050 3061
          3062 3063 3064 3065 3066 3067
          3068 3069 3070 3078 3079 3080
          3081 3082 3083 3084 3151 3152
          3153 3154 3155 3156 3175 3176
          3179 3180 3199 3200 3201 3202
          3203 3204 3205 3206 3207 3208
          3209 3210 3211 3212 3213 3214
          3215 3216 3217 3218 3219 3220
          3221 3222 3223 3224 3225 3226
          3227 3228 3229 3230 3231 3232
          3233 3234 3235 3236 3237 3238
          3239 3240 3241 3242 3243 3244
          3245 3246 3247 3248 3249 3250
          3251 3252 3253 3254 3255 3256
          3257 3258 3259 3260 3261 3262
          3263 3264 3265 3266 3267 3268
          3269 3270 3271 3272 3273 3274
          3275 3276 3277 3278 3279 3280
          3281 3282 3283 3284 3285 3286
          3287 3288 3289 3290 3291 3292
          3293 3294 3295 3296 3297 3298
          3299 3300 3301 3302 3303 3304
          3305 3306 3307 3308 3309 3310
          3311 3312 3313 3314 673 423
          677 674 678 679 424 680
          682 681 685 430 686 884
          891 892 885 663 897 888
          421 1311 1312 1313 1314 1318
          1319 1337 1335 1338 1336 1341
          1340 1342 1343 668 1344 1373
          1375 1377 429 1477 1478 1485
          1486 1604 1607 1608 1605 1611
          1610 2846 2850 2851 2853 1321
          2856 1322 2874 2875 2878 2880
          1324 2931 2932 2935 2937 3019
          3020 3022 1355 3025 1356 3038
          3040 3042 1359 3053 3054 3056
          1361 3059 1362 3072 3074 3076
          1364 3145 3147 3149 3157 1372
          3169 3177 3171 3178 3173 3181
          1376
        </DataArray>
        <DataArray type="Float64" Name="bounds" format="ascii" RangeMin="0" RangeMax="0">
          0 0 0 0 0 0
          0 0 0 0 0 0
          0 0 0 0 0 0
          0 0 0 0 0 0
          0 0 0 0 0 0
          0 0 0 0 0 0
          0 0 0 0 0 0
          0 0 0 0 0 0
          0 0 0 0 0 0
          0 0 0 0 0 0
          0 0 0 0 0 0
          0 0 0 0 0 0
          0 0 0 0 0 0
          0 0 0 0 0 0
          0 0 0 0 0 0
          0 0 0 0 0 0
          0 0 0 0 0 0
          0 0 0 0 0 0
          0 0 0 0 0 0
          0 0 0 0 0 0
          0 0 0 0 0 0
          0 0 0 0 0 0
          0 0 0 0 0 0
          0 0 0 0 0 0
          0 0 0 0 0 0
          0 0 0 0 0 0
          0 0 0 0 0 0
          0 0 0 0 0 0
          0 0 0 0 0 0
          0 0 0 0 0 0
          0 0 0 0 0 0
          0 0 0 0 0 0
          0 0 0 0 0 0
          0 0 0 0 0 0
          0 0 0 0 0 0
          0 0 0 0 0 0
          0 0 0 0 0 0
          0 0 0 0 0 0
          0 0 0 0 0 0
          0 0 0 0 0 0
          0 0 0 0 0 0
          0 0 0 0 0 0
          0 0 0 0 0 0
          0 0 0 0 0 0
          0 0 0 0 0 0
          0 0 0 0 0 0
          0 0 0 0 0 0
          0 0 0 0 0 0
          0 0 0 0 0 0
          0 0 0 0 0 0
          0 0 0 0 0 0
          0 0 0 0 0 0
          0 0 0 0 0 0
          0 0 0 0 0 0
          0 0 0 0 0 0
          0 0 0 0 0 0
          0 0 0 0 0 0
          0 0 0 0 0 0
          0 0 0 0 0 0
          0 0 0 0 0 0
          0 0 0 0 0 0
          0
        </DataArray>
        <DataArray type="Float64" Name="gradient_error" format="ascii" RangeMin="1.1819877653385052e-12" RangeMax="2.7589569036213913e-10">
          2.4877025266676998e-12 3.0078667662412135e-11 6.651587196199898e-11 2.029839454961159e-11 1.1439009690276183e-11 2.7550911872742277e-11
          6.29460676969435e-12 7.7302903256581e-12 4.879950986579818e-12 7.912515165719645e-12 2.6916471567525097e-11 2.0588464629343436e-11
          1.8720062559281597e-11 1.640699594962234e-11 1.6746562887097314e-11 4.987649425286925e-11 3.9907380298437634e-11 2.078599844890264e-11
          5.3762048393926204e-11 1.0227356173765838e-11 9.485549238472702e-12 8.131056942894001e-12 7.431382595513358e-12 4.843308039453943e-12
          7.021975324257611e-12 6.531004200970043e-12 7.72822480827919e-12 8.001270474161102e-12 5.407309678061982e-12 6.263255108600903e-12
          5.3550724070750594e-12 4.292601085959954e-12 6.521753040051804e-12 1.0367942964730098e-11 8.375196378427728e-12 3.849729947777691e-12
          3.200312398711802e-12 6.545461373888422e-12 5.148986228768252e-12 1.3807552056564614e-11 1.1155058830670212e-11 4.021468651668049e-12
          8.199014587060218e-12 9.049036719448099e-12 9.52894504268993e-12 6.156529592784046e-12 8.309680299106727e-12 9.387798377160624e-12
          1.2187439435924942e-11 6.205412545497412e-12 1.0767432195074118e-11 9.330806264683983e-12 1.3401957774015807e-11 5.851171015720946e-12
          7.842703617764402e-12 4.302603941782613e-12 4.663554396910618e-12 4.989634718063076e-12 6.396155187275123e-12 4.5525225153797484e-12
          2.717939291727479e-12 2.405588517383399e-12 3.3671244888801602e-12 2.9543588313505427e-12 1.5434062720784032e-12 1.7393181464818876e-12
          1.7055957159151124e-12 2.093237743039319e-12 2.541593173820925e-12 1.671873285348337e-12 4.016309686032842e-12 3.5031291453176865e-12
          1.8677851597518214e-12 2.9899486046025305e-12 1.5336783586998453e-11 1.472408156244597e-11 2.235579679657721e-11 2.139046913991674e-11
          7.515115709547663e-12 1.121579549340298e-11 1.0757538761640069e-11 1.307916147833147e-11 1.878477920281328e-11 9.523335001226461e-12
          4.1230768980841586e-11 3.921450956381893e-11 1.9336878962262394e-11 3.380663608353729e-11 1.0853878368831808e-11 1.528019958319266e-11
          5.708783630116257e-12 7.769230222059048e-12 8.474821887031982e-12 1.1572631437805008e-11 6.766010161223912e-12 2.667166054908232e-11
          1.3248845948419197e-11 1.938502006836971e-11 6.302588740958683e-12 8.175705757424152e-12 4.7303257007796275e-12 5.785743932208299e-12
          5.316347026747568e-12 6.622130883253313e-12 4.855602323829522e-12 1.2963521958490552e-11 7.538063718172374e-12 1.0085302858128014e-11
          7.014763227222144e-11 6.637520742533632e-11 3.394360237298821e-11 3.2160263677881115e-11 5.631611470298019e-11 2.7399564571241813e-11
          1.0402228175943921e-10 9.83258438596248e-11 4.717445212532906e-11 8.29427699921682e-11 4.313765301620805e-11 2.1150714234193528e-11
          3.0151677161475374e-11 1.487624311272787e-11 6.248669233510542e-11 3.027162787436137e-11 4.2474546678983306e-11 1.2954688327315018e-10
          1.2286245144953542e-10 6.217340804833254e-11 5.893236465250418e-11 1.0419904417406145e-10 4.999366329028139e-11 1.3825773961633762e-10
          1.314514676202435e-10 6.316255629932016e-11 1.1202190252996736e-10 7.843505337083071e-11 3.780684178036353e-11 5.273325463515067e-11
          2.5657067251775023e-11 8.453522780325553e-11 4.070384119755482e-11 5.672117108712409e-11 1.9378708284915246e-11 9.668398380955982e-12
          1.469992145178664e-11 7.46353484513367e-12 2.650463510026484e-11 1.3157908270861704e-11 3.2474710410801205e-11 1.596539228069131e-11
          3.481934604781175e-11 1.7065250286131106e-11 3.960020623768425e-12 3.832084952681863e-12 5.532851343796285e-12 5.323446387863504e-12
          2.7875729142846822e-12 3.705934173678284e-12 3.580274223481104e-12 3.4694961472720847e-12 4.744823546804774e-12 3.200994933871802e-12
          9.765673981184896e-12 9.320265896350463e-12 5.047626236549998e-12 8.115203295930288e-12 2.956784316609241e-12 3.8897519489703116e-12
          2.247051474830708e-12 2.7574905910407245e-12 2.678725620269611e-12 3.4038982362618e-12 2.5676055876217685e-12 6.426418364113301e-12
          3.5509050537819383e-12 5.207337978742196e-12 1.5955677305250915e-11 1.514057708412279e-11 7.217859683218195e-12 6.859877844285485e-12
          1.2955380538822495e-11 5.8978464630875995e-12 2.3101436644927887e-11 2.187158059822785e-11 9.827588492506526e-12 1.8562064937923085e-11
          2.4657101198501093e-12 2.3551553103347174e-12 3.1578026613500772e-12 3.0066300526015005e-12 1.5778703957198943e-12 1.9691040235708077e-12
          1.879078265355369e-12 2.0607403655183006e-12 2.6056598418058353e-12 1.6358425056684929e-12 4.523767514393955e-12 4.290983595901919e-12
          2.56609608976914e-12 3.6762943188370015e-12 1.007418371738035e-11 4.5975268782686546e-12 7.152901187425249e-12 3.8713371475833174e-12
          1.4237094735055854e-11 6.427303523002281e-12 9.928568801667875e-12 1.660637814392137e-12 2.054086285019869e-12 1.1819877653385052e-12
          1.371939664879669e-12 1.4443953985669988e-12 1.7523103302809919e-12 1.2612468255622822e-12 2.826770665939089e-12 1.7945200786545693e-12
          2.3591523716140576e-12 2.876914948012635e-11 2.7268459645882238e-11 1.2879077279930142e-11 1.220979979951368e-11 2.315729527678586e-11
          1.0388712065848327e-11 3.0821114382353116e-11 2.924918829389859e-11 1.3099226714099048e-11 2.4890966109847426e-11 5.607665045757119e-12
          5.3138491070243995e-12 3.3663554438821035e-12 3.187792208601176e-12 4.531626169409048e-12 2.7095584975480726e-12 6.017690265576373e-12
          5.703835817113244e-12 3.4236783726549156e-12 4.861243019237462e-12 1.7680536752348177e-11 7.928490720382717e-12 1.216120949887543e-11
          6.413969832736001e-12 1.9005134322450124e-11 8.505035424250645e-12 1.302461222727931e-11 3.446943049254671e-12 2.1726848509384085e-12
          2.8506669279829262e-12 1.9354816801009194e-12 3.687879522278766e-12 2.3182211089885105e-12 3.0432543747327226e-12 3.896275946565071e-12
          4.727378310132759e-12 2.8996601250371386e-12 3.286198059038941e-12 3.165113852667671e-12 3.7120374655253975e-12 2.760898346757703e-12
          6.325620628208057e-12 4.1559770350836565e-12 4.7858877988737094e-12 7.568482503490121e-12 4.920758522535546e-12 5.628798771992138e-12
          3.839766803195086e-12 8.044204424264575e-12 5.202298967944522e-12 5.944783024619983e-12 1.485015486012596e-11 1.0902644726009296e-11
          8.845023620428605e-12 1.5281937572543147e-11 4.474154552235738e-12 6.3778360073138045e-12 3.520965777221747e-11 1.9374109742465172e-11
          1.041773084723157e-11 1.926082926743015e-11 5.3884717385583095e-12 1.710162671976711e-11 2.053429541844754e-11 4.6732273660813767e-11
          2.1603997403529155e-11 2.0569236531876008e-11 5.851137523167815e-11 4.085820758205455e-11 1.953447566022286e-11 7.202053734804607e-11
          8.354572442284396e-11 3.3979287735488615e-11 4.6263068015914507e-11 3.289209440328883e-11 4.304005876595151e-11 5.8176529804639604e-11
          4.396124013089503e-11 1.7618254381376756e-11 4.784742632294572e-11 1.7543782929163452e-11 4.389734469740371e-11 1.911997103553789e-11
          5.360829798083843e-11 3.705808691023332e-11 1.9893309553148483e-11 5.480645548967883e-11 5.2243119943505726e-11 1.812147623515269e-11
          2.765527756531082e-11 1.3839146683724597e-11 2.724029984544296e-11 2.053449216983584e-12 2.3798226535920675e-12 1.9747524938201127e-12
          2.356368556163517e-12 2.807992528360106e-11 1.4693602976845417e-11 1.59156250991682e-11 2.6352709081542755e-11 1.7137647221490983e-11
          2.462549287948445e-11 2.5857118836286545e-11 4.380849650964778e-11 4.1816365849887476e-11 3.648954814781474e-11 8.125479016386364e-11
          7.71847890918259e-11 6.629987038755216e-11 2.079230728409427e-11 2.934743041066714e-11 2.1960459903831447e-11 5.1844652800429755e-11
          3.7275437488105795e-11 1.1966332918312271e-11 1.5688450917324297e-11 1.299598174281768e-11 2.5083613625565436e-11 1.402572662538929e-10
          1.3257892243255968e-10 1.1210573438497259e-10 2.0912459014623537e-10 1.9762964972119227e-10 1.6643932192339328e-10 8.524257629487797e-11
          5.8974674422121e-11 1.2479988956474247e-10 8.411899290652189e-11 2.594624036674324e-10 2.463643907754297e-10 2.0924851648891213e-10
          2.7589569036213913e-10 2.628393300569906e-10 2.2471181217360037e-10 1.572056721857133e-10 1.0495167055993624e-10 1.6950996576807813e-10
          1.130460826782617e-10 3.7916095972461456e-11 2.6623041081662632e-11 5.2194632107863694e-11 1.7321031520343682e-11 3.5978419055183984e-11
          6.380384671196047e-11 1.8767650500528343e-11 3.625888217601098e-11 1.1103896760261073e-11 6.82939628183219e-11 2.013232968407931e-11
          3.872769756343481e-11
        </DataArray>
        <DataArray type="Float64" Name="gradient_matprop_error" format="ascii" RangeMin="0" RangeMax="0">
          0 0 0 0 0 0
          0 0 0 0 0 0
          0 0 0 0 0 0
          0 0 0 0 0 0
          0 0 0 0 0 0
          0 0 0 0 0 0
          0 0 0 0 0 0
          0 0 0 0 0 0
          0 0 0 0 0 0
          0 0 0 0 0 0
          0 0 0 0 0 0
          0 0 0 0 0 0
          0 0 0 0 0 0
          0 0 0 0 0 0
          0 0 0 0 0 0
          0 0 0 0 0 0
          0 0 0 0 0 0
          0 0 0 0 0 0
          0 0 0 0 0 0
          0 0 0 0 0 0
          0 0 0 0 0 0
          0 0 0 0 0 0
          0 0 0 0 0 0
          0 0 0 0 0 0
          0 0 0 0 0 0
          0 0 0 0 0 0
          0 0 0 0 0 0
          0 0 0 0 0 0
          0 0 0 0 0 0
          0 0 0 0 0 0
          0 0 0 0 0 0
          0 0 0 0 0 0
          0 0 0 0 0 0
          0 0 0 0 0 0
          0 0 0 0 0 0
          0 0 0 0 0 0
          0 0 0 0 0 0
          0 0 0 0 0 0
          0 0 0 0 0 0
          0 0 0 0 0 0
          0 0 0 0 0 0
          0 0 0 0 0 0
          0 0 0 0 0 0
          0 0 0 0 0 0
          0 0 0 0 0 0
          0 0 0 0 0 0
          0 0 0 0 0 0
          0 0 0 0 0 0
          0 0 0 0 0 0
          0 0 0 0 0 0
          0 0 0 0 0 0
          0 0 0 0 0 0
          0 0 0 0 0 0
          0 0 0 0 0 0
          0 0 0 0 0 0
          0 0 0 0 0 0
          0 0 0 0 0 0
          0 0 0 0 0 0
          0 0 0 0 0 0
          0 0 0 0 0 0
          0 0 0 0 0 0
          0
        </DataArray>
        <DataArray type="Float64" Name="initial_marker" format="ascii" RangeMin="0" RangeMax="2">
          0 0 2 2 1 2
          0 0 1 0 0 0.5
          0 0 2 2 2 2
          2 0 0 0 0 0
          0 0 0 0 0 1
          0.75 0 0 2 2 1
          0.75 1 0 2 2 1
          1.5 0 0 0 0 0
          0 0 0 0 0 0
          0 0 0 0 0 0
          0 0 0 0 0 0
          0 0 0 0 0 0
          0 0 2 1.5 2 1.75
          0.5 1.5 1.25 1 1.5 1
          2 2 2 2 0.5 1.25
          0 0.75 0 0.75 0.3333333333333333 2
          1.75 1.75 0 0.25 0 0
          0 0 0 1 0.3333333333333333 0.5
          2 2 2 2 2 2
          2 2 2 2 2 2
          2 1.75 2 2 2 2
          2 2 2 2 2 2
          2 2 2 2 2 2
          2 2 2 2 1.75 1
          1.5 0.5 2 1.5 2 1.75
          2 2 0 0 0.5 0.5
          0 0 0 0 0.5 0
          1.5 1.5 1.3333333333333333 1.5 0 0.25
          0 0 0 0 0 1
          0.3333333333333333 0.3333333333333333 2 2 2 2
          2 1.75 2 2 2 2
          1 1 1.5 1.5 0 1
          1 0.5 1 0.5 2 2
          2 1.75 1.75 1 1 0.3333333333333333
          2 1.75 1.75 0 0.25 0
          0 0 0 0 1 0.5
          0.5 2 2 2 2 2
          2 2 2 2 2 2
          2 2 2 2 2 2
          2 2 2 2 2 2
          2 2 2 2 1.5 1
          1 0 1.5 1 1 0
          0.25 0 0 0 0 0
          0.75 0.5 0 1.25 1 0.5
          0 1.5 1 1 0 0
          0 0 0 0 0 0
          0 0 0 0 0 0
          0 0 0 0 0 0
          0 0 0 1 1 0
          0.25 0 0 0 0 0
          0 0.5 0 0 0 0.5
          0 1 0 0 0 0
          0 0 0 0 0 0
          0 1.3333333333333333 2 2 2 2
          2 2 1.5 1.75 1.25 2
          2 0 0.5 0 1.5 2
          2 2 2 2 2 2
          2 2 2 2 2 2
          2 2 2 2 2 2
          2 2 1.6666666666666667 2 1.3333333333333333 1.5
          2 1.25 1.75 1 2 1.5
          2
        </DataArray>
        <DataArray type="Float64" Name="markers_norefine" format="ascii" RangeMin="0" RangeMax="0">
          0 0 0 0 0 0
          0 0 0 0 0 0
          0 0 0 0 0 0
          0 0 0 0 0 0
          0 0 0 0 0 0
          0 0 0 0 0 0
          0 0 0 0 0 0
          0 0 0 0 0 0
          0 0 0 0 0 0
          0 0 0 0 0 0
          0 0 0 0 0 0
          0 0 0 0 0 0
          0 0 0 0 0 0
          0 0 0 0 0 0
          0 0 0 0 0 0
          0 0 0 0 0 0
          0 0 0 0 0 0
          0 0 0 0 0 0
          0 0 0 0 0 0
          0 0 0 0 0 0
          0 0 0 0 0 0
          0 0 0 0 0 0
          0 0 0 0 0 0
          0 0 0 0 0 0
          0 0 0 0 0 0
          0 0 0 0 0 0
          0 0 0 0 0 0
          0 0 0 0 0 0
          0 0 0 0 0 0
          0 0 0 0 0 0
          0 0 0 0 0 0
          0 0 0 0 0 0
          0 0 0 0 0 0
          0 0 0 0 0 0
          0 0 0 0 0 0
          0 0 0 0 0 0
          0 0 0 0 0 0
          0 0 0 0 0 0
          0 0 0 0 0 0
          0 0 0 0 0 0
          0 0 0 0 0 0
          0 0 0 0 0 0
          0 0 0 0 0 0
          0 0 0 0 0 0
          0 0 0 0 0 0
          0 0 0 0 0 0
          0 0 0 0 0 0
          0 0 0 0 0 0
          0 0 0 0 0 0
          0 0 0 0 0 0
          0 0 0 0 0 0
          0 0 0 0 0 0
          0 0 0 0 0 0
          0 0 0 0 0 0
          0 0 0 0 0 0
          0 0 0 0 0 0
          0 0 0 0 0 0
          0 0 0 0 0 0
          0 0 0 0 0 0
          0 0 0 0 0 0
          0 0 0 0 0 0
          0
        </DataArray>
        <DataArray type="Float64" Name="markers_mustrefine" format="ascii" RangeMin="0" RangeMax="2">
          0 0 2 2 1 2
          0 0 1 0 0 0.5
          0 0 2 2 2 2
          2 0 0 0 0 0
          0 0 0 0 0 1
          0.75 0 0 2 2 1
          0.75 1 0 2 2 1
          1.5 0 0 0 0 0
          0 0 0 0 0 0
          0 0 0 0 0 0
          0 0 0 0 0 0
          0 0 0 0 0 0
          0 0 2 1.5 2 1.75
          0.5 1.5 1.25 1 1.5 1
          2 2 2 2 0.5 1.25
          0 0.75 0 0.75 0.3333333333333333 2
          1.75 1.75 0 0.25 0 0
          0 0 0 1 0.3333333333333333 0.5
          2 2 2 2 2 2
          2 2 2 2 2 2
          2 1.75 2 2 2 2
          2 2 2 2 2 2
          2 2 2 2 2 2
          2 2 2 2 1.75 1
          1.5 0.5 2 1.5 2 1.75
          2 2 0 0 0.5 0.5
          0 0 0 0 0.5 0
          1.5 1.5 1.3333333333333333 1.5 0 0.25
          0 0 0 0 0 1
          0.3333333333333333 0.3333333333333333 2 2 2 2
          2 1.75 2 2 2 2
          1 1 1.5 1.5 0 1
          1 0.5 1 0.5 2 2
          2 1.75 1.75 1 1 0.3333333333333333
          2 1.75 1.75 0 0.25 0
          0 0 0 0 1 0.5
          0.5 2 2 2 2 2
          2 2 2 2 2 2
          2 2 2 2 2 2
          2 2 2 2 2 2
          2 2 2 2 1.5 1
          1 0 1.5 1 1 0
          0.25 0 0 0 0 0
          0.75 0.5 0 1.25 1 0.5
          0 1.5 1 1 0 0
          0 0 0 0 0 0
          0 0 0 0 0 0
          0 0 0 0 0 0
          0 0 0 1 1 0
          0.25 0 0 0 0 0
          0 0.5 0 0 0 0.5
          0 1 0 0 0 0
          0 0 0 0 0 0
          0 1.3333333333333333 2 2 2 2
          2 2 1.5 1.75 1.25 2
          2 0 0.5 0 1.5 2
          2 2 2 2 2 2
          2 2 2 2 2 2
          2 2 2 2 2 2
          2 2 1.6666666666666667 2 1.3333333333333333 1.5
          2 1.25 1.75 1 2 1.5
          2
        </DataArray>
        <DataArray type="Float64" Name="gradient_marker" format="ascii" RangeMin="1" RangeMax="1">
          1 1 1 1 1 1
          1 1 1 1 1 1
          1 1 1 1 1 1
          1 1 1 1 1 1
          1 1 1 1 1 1
          1 1 1 1 1 1
          1 1 1 1 1 1
          1 1 1 1 1 1
          1 1 1 1 1 1
          1 1 1 1 1 1
          1 1 1 1 1 1
          1 1 1 1 1 1
          1 1 1 1 1 1
          1 1 1 1 1 1
          1 1 1 1 1 1
          1 1 1 1 1 1
          1 1 1 1 1 1
          1 1 1 1 1 1
          1 1 1 1 1 1
          1 1 1 1 1 1
          1 1 1 1 1 1
          1 1 1 1 1 1
          1 1 1 1 1 1
          1 1 1 1 1 1
          1 1 1 1 1 1
          1 1 1 1 1 1
          1 1 1 1 1 1
          1 1 1 1 1 1
          1 1 1 1 1 1
          1 1 1 1 1 1
          1 1 1 1 1 1
          1 1 1 1 1 1
          1 1 1 1 1 1
          1 1 1 1 1 1
          1 1 1 1 1 1
          1 1 1 1 1 1
          1 1 1 1 1 1
          1 1 1 1 1 1
          1 1 1 1 1 1
          1 1 1 1 1 1
          1 1 1 1 1 1
          1 1 1 1 1 1
          1 1 1 1 1 1
          1 1 1 1 1 1
          1 1 1 1 1 1
          1 1 1 1 1 1
          1 1 1 1 1 1
          1 1 1 1 1 1
          1 1 1 1 1 1
          1 1 1 1 1 1
          1 1 1 1 1 1
          1 1 1 1 1 1
          1 1 1 1 1 1
          1 1 1 1 1 1
          1 1 1 1 1 1
          1 1 1 1 1 1
          1 1 1 1 1 1
          1 1 1 1 1 1
          1 1 1 1 1 1
          1 1 1 1 1 1
          1 1 1 1 1 1
          1
        </DataArray>
        <DataArray type="Float64" Name="gradient_matprop_marker" format="ascii" RangeMin="0" RangeMax="0">
          0 0 0 0 0 0
          0 0 0 0 0 0
          0 0 0 0 0 0
          0 0 0 0 0 0
          0 0 0 0 0 0
          0 0 0 0 0 0
          0 0 0 0 0 0
          0 0 0 0 0 0
          0 0 0 0 0 0
          0 0 0 0 0 0
          0 0 0 0 0 0
          0 0 0 0 0 0
          0 0 0 0 0 0
          0 0 0 0 0 0
          0 0 0 0 0 0
          0 0 0 0 0 0
          0 0 0 0 0 0
          0 0 0 0 0 0
          0 0 0 0 0 0
          0 0 0 0 0 0
          0 0 0 0 0 0
          0 0 0 0 0 0
          0 0 0 0 0 0
          0 0 0 0 0 0
          0 0 0 0 0 0
          0 0 0 0 0 0
          0 0 0 0 0 0
          0 0 0 0 0 0
          0 0 0 0 0 0
          0 0 0 0 0 0
          0 0 0 0 0 0
          0 0 0 0 0 0
          0 0 0 0 0 0
          0 0 0 0 0 0
          0 0 0 0 0 0
          0 0 0 0 0 0
          0 0 0 0 0 0
          0 0 0 0 0 0
          0 0 0 0 0 0
          0 0 0 0 0 0
          0 0 0 0 0 0
          0 0 0 0 0 0
          0 0 0 0 0 0
          0 0 0 0 0 0
          0 0 0 0 0 0
          0 0 0 0 0 0
          0 0 0 0 0 0
          0 0 0 0 0 0
          0 0 0 0 0 0
          0 0 0 0 0 0
          0 0 0 0 0 0
          0 0 0 0 0 0
          0 0 0 0 0 0
          0 0 0 0 0 0
          0 0 0 0 0 0
          0 0 0 0 0 0
          0 0 0 0 0 0
          0 0 0 0 0 0
          0 0 0 0 0 0
          0 0 0 0 0 0
          0 0 0 0 0 0
          0
        </DataArray>
        <DataArray type="Float64" Name="combo" format="ascii" RangeMin="1" RangeMax="1">
          1 1 1 1 1 1
          1 1 1 1 1 1
          1 1 1 1 1 1
          1 1 1 1 1 1
          1 1 1 1 1 1
          1 1 1 1 1 1
          1 1 1 1 1 1
          1 1 1 1 1 1
          1 1 1 1 1 1
          1 1 1 1 1 1
          1 1 1 1 1 1
          1 1 1 1 1 1
          1 1 1 1 1 1
          1 1 1 1 1 1
          1 1 1 1 1 1
          1 1 1 1 1 1
          1 1 1 1 1 1
          1 1 1 1 1 1
          1 1 1 1 1 1
          1 1 1 1 1 1
          1 1 1 1 1 1
          1 1 1 1 1 1
          1 1 1 1 1 1
          1 1 1 1 1 1
          1 1 1 1 1 1
          1 1 1 1 1 1
          1 1 1 1 1 1
          1 1 1 1 1 1
          1 1 1 1 1 1
          1 1 1 1 1 1
          1 1 1 1 1 1
          1 1 1 1 1 1
          1 1 1 1 1 1
          1 1 1 1 1 1
          1 1 1 1 1 1
          1 1 1 1 1 1
          1 1 1 1 1 1
          1 1 1 1 1 1
          1 1 1 1 1 1
          1 1 1 1 1 1
          1 1 1 1 1 1
          1 1 1 1 1 1
          1 1 1 1 1 1
          1 1 1 1 1 1
          1 1 1 1 1 1
          1 1 1 1 1 1
          1 1 1 1 1 1
          1 1 1 1 1 1
          1 1 1 1 1 1
          1 1 1 1 1 1
          1 1 1 1 1 1
          1 1 1 1 1 1
          1 1 1 1 1 1
          1 1 1 1 1 1
          1 1 1 1 1 1
          1 1 1 1 1 1
          1 1 1 1 1 1
          1 1 1 1 1 1
          1 1 1 1 1 1
          1 1 1 1 1 1
          1 1 1 1 1 1
          1
        </DataArray>
        <DataArray type="Float64" Name="dHdT" format="ascii" RangeMin="25.811757756733023" RangeMax="25.931206727464428">
          25.811824829292753 25.813324013833476 25.83838265225368 25.818756932451695 25.81528176322459 25.82129937565849
          25.81216147199588 25.812097529888046 25.812594537864594 25.812259555877738 25.813626204248123 25.814389057193214
          25.814174429177 25.813678532669552 25.81758838742266 25.82978814884271 25.825772172994252 25.818933915340217
          25.831887500079787 25.81252260270046 25.812489544782544 25.812573143317348 25.81252003447992 25.81216746246117
          25.812256168709084 25.812229505880556 25.812438503862836 25.812489202302125 25.812195814649897 25.81329046995458
          25.813078727668866 25.812204554034636 25.81272152015135 25.815422424022657 25.81469092169079 25.812406174195907
          25.81231466229828 25.813330343609636 25.812276507708813 25.816943674565533 25.81579077738966 25.812456058009317
          25.813745341652698 25.812581916777745 25.812729167888783 25.812253835021277 25.81235590099161 25.812565793065954
          25.812695978182997 25.812293176457544 25.812843196399236 25.81241819850053 25.812764687509492 25.812430990300708
          25.81249336246418 25.8122237107926 25.812218888676234 25.81244145974037 25.812472888507887 25.812248991104703
          25.811956894214013 25.811948046635862 25.811988870662706 25.811974797134447 25.81186546137883 25.811868432038317
          25.811870503433163 25.81193919905771 25.811960723606187 25.811872574828 25.8120208471114 25.812001547633034
          25.81187554548749 25.811982248154663 25.817622878736383 25.81744593881964 25.81980270839733 25.819500430465766
          25.814855447546474 25.81593496962383 25.815787472157627 25.81696038519805 25.81868122513464 25.81538850205115
          25.825914001291217 25.825233765760192 25.818437421155316 25.823426982354764 25.816266337630378 25.817551198569152
          25.81425511144431 25.81483966624212 25.815520320069723 25.816383138470876 25.814577383640653 25.821044612593443
          25.816460745947296 25.818696846804382 25.814869917990045 25.815406406676342 25.814079907034582 25.814413152819217
          25.814580099608193 25.814984635814152 25.8141787608632 25.816807059161412 25.814865864714136 25.816009215420593
          25.836086760772275 25.834695232971185 25.82345489879205 25.822814145566564 25.831071212444062 25.82113956345089
          25.850013481637546 25.847538490871457 25.828664794173957 25.84119077861672 25.82648201329009 25.819002298555954
          25.822161833153416 25.81698464631798 25.833394675452283 25.822193613946656 25.826345167371805 25.863434991433895
          25.859841886076033 25.835819609554438 25.834202973327265 25.85071188523402 25.830079377702546 25.869171076613082
          25.865084646943032 25.836549303897897 25.854732738484422 25.83970210143259 25.82506915488923 25.830005780848143
          25.820616861140262 25.84232571286184 25.826258408142404 25.831497156522786 25.81881414443278 25.81545944552304
          25.817429929420882 25.81484846096134 25.82110122150236 25.81651140326823 25.822997242532015 25.81736851731797
          25.823749107964673 25.817707521376278 25.8134399182494 25.813394458827347 25.813870125062998 25.813800607324204
          25.812884721997122 25.81316198774133 25.813117887138723 25.81327447535728 25.813616313234313 25.81300523187101
          25.815123704034896 25.81497995508177 25.813535626297764 25.814599317354922 25.81312382351385 25.81338342980608
          25.812729561194736 25.812879597829742 25.813047695718442 25.81326532272894 25.812822518453586 25.814106443704965
          25.813097019259203 25.813783170550977 25.817222364666183 25.816939333330318 25.814255582141183 25.814136027395516
          25.816197764688553 25.813823462105855 25.820000132378553 25.81951086404232 25.8152188380801 25.818245566694767
          25.812683560237588 25.81264923939118 25.812892912198357 25.812844998375045 25.812341079003996 25.81246770069707
          25.812441321630747 25.812561500648876 25.812720346977596 25.812372738405074 25.81334396453029 25.813264658818227
          25.81266083224397 25.813058142164653 25.815244013474643 25.813420424840835 25.814345783371383 25.81321262062301
          25.816657594005 25.814019084557795 25.815196946944294 25.81245101876238 25.8125657108554 25.812233758849462
          25.81229370041714 25.812393954771785 25.81248781230734 25.812256866588548 25.812803575817547 25.812421933677406
          25.812676220411937 25.822600211949325 25.821902884456442 25.816494048070687 25.81620678842144 25.820116177583692
          25.815468447451803 25.82369781228072 25.822909553146392 25.81662004216723 25.820896267556474 25.813760372796835
          25.81364942345905 25.812925967665894 25.812867176275034 25.81336359589195 25.812715518931316 25.8139350806922
          25.813810286640553 25.81295425231963 25.813490100760912 25.817914372135352 25.814544752668763 25.815935569584965
          25.814004934729223 25.81843173189838 25.814761474247174 25.81623553106738 25.813014963415625 25.81254047693817
          25.812841209168607 25.81245830089788 25.81310317814458 25.812590728506343 25.812911647356238 25.813461552869203
          25.813681718575 25.812952577558296 25.813073936376824 25.813274511742954 25.813420669973862 25.812930807124253
          25.81413171813851 25.813332841416592 25.813715192714973 25.814517994356592 25.81356890853856 25.813966795610128
          25.8132672913017 25.81467443671698 25.81366742943928 25.814070033995083 25.81207202817866 25.811848066835754
          25.811879614060413 25.812085708803124 25.811831252908203 25.811850201609065 25.8119301657351 25.812169464509378