<?xml version="1.0"?>
<VTKFile type="UnstructuredGrid" version="0.1" byte_order="LittleEndian" header_type="UInt32" compressor="vtkZLibDataCompressor">
  <UnstructuredGrid>
    <Piece NumberOfPoints="434" NumberOfCells="214">
      <PointData>
        <DataArray type="Int32" Name="libmesh_node_id" format="ascii" RangeMin="229" RangeMax="3520">
          229 231 233 246 247 248
          264 265 266 267 282 283
          284 300 301 302 303 318
          319 320 324 325 326 327
          328 329 330 331 332 333
          334 335 336 337 338 339
          340 341 342 343 344 346
          350 351 356 371 372 373
          374 375 376 377 378 379
          380 381 382 383 384 385
          386 387 388 389 390 391
          393 397 398 403 432 433
          436 437 439 440 442 443
          445 460 461 462 463 464
          466 467 468 469 470 471
          473 474 475 476 477 478
          479 480 481 482 483 484
          485 486 487 488 489 490
          491 492 493 494 495 496
          497 498 499 500 501 526
          527 528 529 530 531 532
          533 534 535 536 537 538
          539 540 541 542 543 544
          545 546 547 548 549 550
          551 552 553 554 555 556
          557 558 559 560 561 562
          563 566 567 568 570 572
          587 588 589 590 591 592
          593 594 595 596 597 598
          599 600 690 691 692 693
          695 696 698 699 700 703
          704 709 721 722 723 724
          725 726 727 728 729 730
          741 742 743 744 745 746
          747 748 749 750 751 752
          753 754 755 756 757 758
          759 760 761 762 763 764
          765 766 767 768 772 773
          805 806 807 808 809 810
          811 812 813 814 815 816
          817 818 819 820 821 822
          823 824 825 826 827 828
          829 830 831 832 833 834
          835 836 837 838 839 840
          841 842 843 844 845 846
          847 848 919 920 921 922
          923 924 925 926 927 928
          929 930 931 932 933 934
          935 936 937 938 939 940
          941 942 943 944 945 946
          947 948 963 964 965 966
          967 968 969 970 971 972
          973 974 975 976 977 978
          979 980 981 982 983 984
          985 986 987 988 989 990
          991 992 1003 1004 1005 1006
          1007 1008 1009 1413 1414 1415
          1416 1417 1418 1419 1420 1421
          1422 1423 1424 1425 1426 1427
          1428 1429 1430 1431 1432 1461
          1462 1463 1464 1465 1466 1467
          1468 1469 1470 1471 1472 1473
          1474 3319 3320 3323 3429 3431
          3433 3434 3436 3438 3439 3440
          3441 3442 3443 3444 3445 3446
          3447 3448 3456 3457 3458 3462
          3466 3468 3469 3470 3471 3472
          3473 3474 3475 3476 3477 3478
          3479 3480 3485 3486 3489 3493
          3495 3496 3497 3498 3499 3500
          3505 3506 3510 3513 3515 3516
          3517 3518 3519 3520 269 352
          465 472
        </DataArray>
        <DataArray type="Float64" Name="bounds" format="ascii" RangeMin="0" RangeMax="0">
          0 0 0 0 0 0
          0 0 0 0 0 0
          0 0 0 0 0 0
          0 0 0 0 0 0
          0 0 0 0 0 0
          0 0 0 0 0 0
          0 0 0 0 0 0
          0 0 0 0 0 0
          0 0 0 0 0 0
          0 0 0 0 0 0
          0 0 0 0 0 0
          0 0 0 0 0 0
          0 0 0 0 0 0
          0 0 0 0 0 0
          0 0 0 0 0 0
          0 0 0 0 0 0
          0 0 0 0 0 0
          0 0 0 0 0 0
          0 0 0 0 0 0
          0 0 0 0 0 0
          0 0 0 0 0 0
          0 0 0 0 0 0
          0 0 0 0 0 0
          0 0 0 0 0 0
          0 0 0 0 0 0
          0 0 0 0 0 0
          0 0 0 0 0 0
          0 0 0 0 0 0
          0 0 0 0 0 0
          0 0 0 0 0 0
          0 0 0 0 0 0
          0 0 0 0 0 0
          0 0 0 0 0 0
          0 0 0 0 0 0
          0 0 0 0 0 0
          0 0 0 0 0 0
          0 0 0 0 0 0
          0 0 0 0 0 0
          0 0 0 0 0 0
          0 0 0 0 0 0
          0 0 0 0 0 0
          0 0 0 0 0 0
          0 0 0 0 0 0
          0 0 0 0 0 0
          0 0 0 0 0 0
          0 0 0 0 0 0
          0 0 0 0 0 0
          0 0 0 0 0 0
          0 0 0 0 0 0
          0 0 0 0 0 0
          0 0 0 0 0 0
          0 0 0 0 0 0
          0 0 0 0 0 0
          0 0 0 0 0 0
          0 0 0 0 0 0
          0 0 0 0 0 0
          0 0 0 0 0 0
          0 0 0 0 0 0
          0 0 0 0 0 0
          0 0 0 0 0 0
          0 0 0 0 0 0
          0 0 0 0 0 0
          0 0 0 0 0 0
          0 0 0 0 0 0
          0 0 0 0 0 0
          0 0 0 0 0 0
          0 0 0 0 0 0
          0 0 0 0 0 0
          0 0 0 0 0 0
          0 0 0 0 0 0
          0 0 0 0 0 0
          0 0 0 0 0 0
          0 0
        </DataArray>
        <DataArray type="Float64" Name="gradient_error" format="ascii" RangeMin="1.0739590413048057e-10" RangeMax="0.0000010089632683982126">
          6.339370248643768e-9 2.737430386666771e-9 6.969694584975914e-10 9.428427204367441e-9 4.289377201179526e-9 1.1046065510283374e-9
          3.064313848577481e-7 8.524866403920097e-8 2.034084939058812e-8 2.413255700176326e-8 9.353780135563009e-9 4.2750837337576085e-9
          9.80124747199046e-10 8.244238561199701e-7 4.5593885451748364e-8 1.4446076809803286e-7 6.093748580547623e-9 3.5880363460348407e-9
          9.222376737042481e-10 1.0739590413048057e-10 2.855475906976155e-7 1.8707578602695144e-7 2.257982063634544e-7 7.311986215999299e-7
          5.568461110885208e-7 3.698174540830442e-7 4.1780039354550874e-7 3.173527491100312e-8 9.498372208362974e-8 1.2182201468172712e-7
          6.724570452390713e-8 5.7414317694126254e-8 9.696779401801608e-8 2.466034349073559e-8 1.1833882626338631e-7 4.586985258687028e-7
          6.369524910271345e-7 1.4734473831726072e-7 2.094884513995492e-8 1.351736289642246e-9 6.77617240937857e-9 1.4833389131903338e-8
          8.162012938314663e-9 6.615847148946277e-9 1.7282331769023402e-9 1.2191559873106984e-7 2.2555483413495513e-7 4.498566960298449e-7
          4.081226838828907e-7 2.399760364473572e-7 3.039833085156821e-7 5.191086757256931e-7 1.3278403003247557e-7 2.2171173659331097e-7
          2.2488006275886317e-7 2.599581795145698e-7 2.671276315744065e-7 4.2832213438056187e-7 1.6328587513260033e-7 1.7350134396257005e-7
          2.4574390004165347e-7 4.211554144408151e-7 2.3809808230160855e-7 1.8833914689953568e-7 5.58739701640977e-8 3.760013121371204e-8
          1.2678176583219798e-7 2.6375260626570375e-8 5.981598100084343e-8 9.438966903727972e-8 8.345970076359502e-8 1.412283377718917e-7
          4.7681182301343457e-7 3.4855506385602725e-7 1.4633392295577194e-7 1.3951063994245579e-7 5.531944664518842e-7 5.362095409045019e-7
          7.79533431632911e-8 8.472805159412665e-10 2.853457850981219e-9 9.655649546929007e-10 3.3197042682199787e-9 3.1250294317831435e-10
          4.53325125877135e-10 3.6191846511068376e-10 1.1259395162787234e-9 1.2861764618788928e-10 1.0838493934445349e-9 3.78595068545874e-9
          2.705118043442325e-10 0.0000010089632683982126 8.369915052350215e-7 5.732042274954001e-7 8.674146106767841e-7 7.714451105730833e-7
          8.090969922083246e-7 8.19876034075453e-7 4.268435536291766e-7 5.560510036639435e-7 5.316417885371711e-7 5.212518911408783e-7
          7.836517673480609e-7 8.660562858457211e-7 6.852584536987104e-7 2.376843152982427e-8 4.1403524740227226e-8 3.726949940178349e-8
          6.510093867017561e-8 1.1512468277967526e-8 1.7467067549812813e-8 5.036328515581676e-9 3.810507793317511e-9 7.75936008177749e-9
          1.9165365567342517e-9 5.077056727374272e-8 8.879835260012401e-8 2.3421666821658102e-8 2.584687071053346e-9 2.0959660540299174e-7
          2.002355422455705e-7 1.8721317881746404e-7 1.6189574506077457e-7 1.863556258460374e-7 2.072136262095445e-7 1.8094429120462244e-7
          2.2808605842663829e-7 2.2068941996031014e-7 2.4229311734341306e-7 1.8181440276645962e-7 2.0534368722301988e-7 1.8952605256970735e-7
          2.3499205791783816e-7 1.4085516718986413e-7 1.8351999753414677e-7 1.595066903862621e-7 2.177616657119036e-7 2.1386103675066266e-7
          2.7474116011343233e-7 2.575739838551625e-7 2.7062794071474543e-7 2.907643337414589e-7 2.0213463849721285e-7 1.7494068366249093e-7
          1.8427727364010652e-7 2.251604531529987e-7 2.675016287672993e-7 2.1628903093880332e-7 2.2097248471456727e-7 2.681197016997148e-7
          1.7349981303226014e-7 2.844021179762521e-7 1.533282088857651e-7 1.335735134004436e-7 6.488811564587997e-8 6.401460001456367e-8
          1.316584957324468e-7 1.3322544178264022e-7 1.531450320848801e-7 1.5651900068266464e-7 6.286450169276808e-8 1.7881400743550228e-7
          1.1021317934088455e-7 1.2728139441419648e-7 1.751349998587522e-7 1.7586381210030273e-7 9.778549331249956e-8 1.6559692749092703e-7
          6.554141883515052e-8 9.628479712576249e-8 1.1060932055322756e-7 7.771149491206363e-8 2.0236791499058093e-7 1.997834540254745e-7
          1.9537933964908384e-7 1.090396061395256e-7 5.377438397487991e-8 4.834441230358624e-8 2.841181215037962e-8 3.261369714114036e-8
          1.824415036261152e-8 1.1199346174159153e-8 8.479211997172999e-9 1.145301030740082e-8 4.154541985706789e-9 1.4226002272510561e-9
          1.377224654269107e-9 1.3318490812871577e-9 5.647936249281495e-9 5.952339274379139e-9 7.2764721880521355e-9 1.154174512777117e-8
          2.576415814911246e-9 2.3520894701684833e-9 3.319631728096764e-9 8.905008126822774e-9 1.71311509811632e-8 2.12776312542572e-9
          4.4748706094569116e-8 3.663050264925392e-8 5.7163103123124375e-8 1.0846493933068836e-7 9.051230886766056e-8 6.905283363864432e-8
          8.454684344053533e-8 1.0517918602188808e-8 5.5584061064631955e-8 4.094510033630972e-8 2.8512299203938733e-8 4.7593358409628094e-8
          6.062874755038229e-8 2.6306139607987493e-8 6.490781933390397e-8 9.032312018003475e-8 9.631419268910329e-8 1.2541242102477693e-7
          1.7447801394054892e-8 1.5265585749027426e-8 2.680628306776957e-8 1.2772056604430263e-7 1.6050172186951911e-7 1.3083370103999967e-8
          2.008388207996624e-9 3.3730879519154837e-9 2.8152787021057857e-8 2.1336084001247326e-8 4.737787695834343e-9 1.4519380981436796e-8
          9.909897542799595e-8 9.504935484935553e-8 1.0299600472524997e-7 1.5981493137902596e-7 1.6414894946996847e-7 1.4839417838823875e-7
          1.4617177630180202e-7 8.428143280430664e-8 1.6557900378206013e-7 1.4809626047452495e-7 9.09997342707151e-8 1.3263940730650906e-7
          1.3252862122457806e-7 1.1266496392939594e-7 1.4031916643539645e-7 1.3521238034317623e-7 1.5599204197307902e-7 1.5095198512859052e-7
          1.478307164904399e-7 1.648619443543539e-7 1.1694408274771243e-7 1.2936833607316983e-7 1.3331148724499948e-7 1.2363658759954754e-7
          1.7166491751076154e-7 1.6669158991400484e-7 1.818931722182679e-7 1.4179258939862723e-7 1.5126604942788176e-7 1.7160984816875868e-7
          1.0786435459055267e-7 1.1911716557109101e-7 1.9195364690963563e-7 1.3036997655162935e-7 7.439400441651586e-8 6.863468216269841e-8
          1.6149513178693678e-7 1.4282299307044943e-7 5.12924602145704e-8 1.4889688842635044e-7 1.2962331792893945e-7 5.319808729846897e-8
          9.732955543684267e-8 8.36684483773163e-8 4.9531547278044806e-8 5.315944047738385e-8 5.137498293379372e-8 4.8618218145463306e-8
          4.946850437227009e-8 4.1011729843153265e-8 4.439476360056547e-8 4.114361630040794e-8 4.873688085493802e-8 4.211112194923824e-8
          4.3646859079331715e-8 4.904472707096773e-8 4.157512800366588e-8 5.156467635360845e-8 5.022249477470665e-8 5.343338835531856e-8
          5.36976520696589e-8 5.169239637622634e-8 5.618981081579607e-8 5.4651171511865784e-8 5.6014916578206146e-8 6.277361800773756e-8
          6.123800178606295e-8 4.723763100417708e-8 5.110085623002054e-8 5.6115848597696665e-8 5.458106679546876e-8 5.47587289958846e-8
          6.534826010862348e-8 5.492689396481806e-8 4.1227400991714914e-8 4.530692511796385e-8 4.200365487070718e-8 4.755414403123242e-8
          3.7666680657869446e-8 4.152466998382214e-8 4.257897643145985e-8 5.1587213639463436e-8 5.726282851788931e-8 4.825703054559116e-8
          4.315037038099758e-8 5.0180905757225846e-8 4.39672770764159e-8 5.248475870320819e-8 3.808401057215653e-8 4.394804922499913e-8
          4.5008904605915766e-8 6.295273688249286e-8 6.868907323098865e-8 5.609252516931815e-8 4.448039572788783e-8 4.7758691408434736e-8
          4.237427044705471e-8 5.255628641384471e-8 5.4085190572909136e-8 6.439886367459443e-8 3.8480627426771366e-8 4.36098714726055e-8
          4.0976422406714984e-8 5.328067467204613e-8 5.525610795136241e-8 6.274915578941284e-8 5.33788218458882e-8 5.954454998038286e-8
          5.6724237868010775e-8 6.407728773480472e-8 5.56262419103689e-8 1.2168569120190003e-7 1.1428141977703282e-7 1.2160760781591128e-7
          1.5175605524713315e-7 1.545114087528364e-7 1.419226246916158e-7 1.3924168011116903e-7 1.068771483521656e-7 1.293338406303952e-7
          1.2672730497520487e-7 3.279912444088123e-8 4.195845448604367e-8 5.266169919786342e-8 5.995714868918557e-8 1.949623594361518e-8
          3.962635361792202e-8 2.207743419370549e-8 3.481514187600358e-8 4.3146439924163005e-8 2.2265557912739943e-8 1.72962893867039e-7
          1.6815516417918892e-7 1.4763611338012925e-7 1.4072570123436543e-7 1.459621472288099e-7 1.563207849549756e-7 1.4374787074302472e-7
          1.6334743449133882e-7 1.6667942268114126e-7 1.4677004025168403e-7 1.1896140059058082e-7 1.4448640573076227e-7 1.398596281059202e-7
          1.7001141087094374e-7 3.1716789894262334e-8 2.1204316074445127e-8 1.0691842254627916e-8 6.443508623730511e-9 1.9328609240793254e-8
          2.8727933933889796e-9 4.47748274189042e-9 3.221370985785599e-8 6.082172090391861e-9 1.1396240111565548e-7 1.3406961682179551e-7
          1.5164820226476172e-7 1.737172513533983e-7 3.925743704478815e-8 4.0825595775858116e-8 5.648838310657633e-8 1.8933400341386793e-7
          2.1336488588500108e-7 4.239375450692807e-8 9.849065462795749e-8 1.8877611986793479e-7 1.6181236091619983e-7 1.3484860196446485e-7
          4.2343186750805594e-7 1.2666091216772345e-7 1.0458338940825545e-7 1.7613298383407525e-7 1.486081163909492e-7 1.0959837149783153e-7
          1.6865348958122252e-7 1.4090974468683094e-7 8.250586664878744e-8 1.2108324894782314e-7 1.1316599979243939e-7 5.100531693021248e-7
          4.4397129788940854e-7 3.297979368424115e-7 6.216266625486375e-7 6.221099291317732e-7 4.6741459136074366e-7 6.224901904518765e-7
          7.318455780194306e-7 7.126367387297801e-7 5.000773174763396e-7 6.691898729350387e-7 7.299637250543862e-7 5.852880453124915e-7
          1.6162213509185993e-7 2.0035971906052928e-7 8.848345111448008e-8 2.3909730302919863e-7 1.49872521807934e-7 1.897651067073687e-7
          6.613008604201788e-8 7.280347790218771e-8 2.296576916068034e-7 7.947686976235756e-8 1.525238778466993e-9 1.2201042656128697e-9
          3.054378225258318e-10 2.9837270187334934e-10
        </DataArray>
        <DataArray type="Float64" Name="gradient_matprop_error" format="ascii" RangeMin="0" RangeMax="0">
          0 0 0 0 0 0
          0 0 0 0 0 0
          0 0 0 0 0 0
          0 0 0 0 0 0
          0 0 0 0 0 0
          0 0 0 0 0 0
          0 0 0 0 0 0
          0 0 0 0 0 0
          0 0 0 0 0 0
          0 0 0 0 0 0
          0 0 0 0 0 0
          0 0 0 0 0 0
          0 0 0 0 0 0
          0 0 0 0 0 0
          0 0 0 0 0 0
          0 0 0 0 0 0
          0 0 0 0 0 0
          0 0 0 0 0 0
          0 0 0 0 0 0
          0 0 0 0 0 0
          0 0 0 0 0 0
          0 0 0 0 0 0
          0 0 0 0 0 0
          0 0 0 0 0 0
          0 0 0 0 0 0
          0 0 0 0 0 0
          0 0 0 0 0 0
          0 0 0 0 0 0
          0 0 0 0 0 0
          0 0 0 0 0 0
          0 0 0 0 0 0
          0 0 0 0 0 0
          0 0 0 0 0 0
          0 0 0 0 0 0
          0 0 0 0 0 0
          0 0 0 0 0 0
          0 0 0 0 0 0
          0 0 0 0 0 0
          0 0 0 0 0 0
          0 0 0 0 0 0
          0 0 0 0 0 0
          0 0 0 0 0 0
          0 0 0 0 0 0
          0 0 0 0 0 0
          0 0 0 0 0 0
          0 0 0 0 0 0
          0 0 0 0 0 0
          0 0 0 0 0 0
          0 0 0 0 0 0
          0 0 0 0 0 0
          0 0 0 0 0 0
          0 0 0 0 0 0
          0 0 0 0 0 0
          0 0 0 0 0 0
          0 0 0 0 0 0
          0 0 0 0 0 0
          0 0 0 0 0 0
          0 0 0 0 0 0
          0 0 0 0 0 0
          0 0 0 0 0 0
          0 0 0 0 0 0
          0 0 0 0 0 0
          0 0 0 0 0 0
          0 0 0 0 0 0
          0 0 0 0 0 0
          0 0 0 0 0 0
          0 0 0 0 0 0
          0 0 0 0 0 0
          0 0 0 0 0 0
          0 0 0 0 0 0
          0 0 0 0 0 0
          0 0 0 0 0 0
          0 0
        </DataArray>
        <DataArray type="Float64" Name="initial_marker" format="ascii" RangeMin="0" RangeMax="2">
          0 0 0 0 0 0
          0 0 0 0 0 0
          0 0 0 2 0 0
          0 0 0 0 0 0
          0 0 0 0 0 0
          0 0 0 0 0 0
          0 0 0 0 0 0
          0 0 0 0 0 0
          0 0.5 0 0 0 1
          0.25 0 0 0 0 2
          1 0 1 0 0 0
          0 0 0 0 0 0
          0 0 0 0 0 0
          0 0 0 0 0 0
          0 0 0 0 0 0
          0 0 0 0 0 0
          0 0 0 0 0 0
          0 0 0 0 0 0
          0 0 0 0 0 0
          0 0 0 0 0 0
          0 0 0 0.5 0.5 0
          0.25 1.5 1.25 0 0.25 0
          0.5 1 1 0 2 0.5
          1 0.75 2 1.75 0.75 2
          2 0.3333333333333333 0.75 0.75 2 2
          2 1 1 0.5 2 2
          1 0 1 1.5 2 1.5
          0 0 0.25 0 0 0.5
          0 0 0 0 0.5 0
          1 0 0 0 0 0
          0 0 0 0 0 0
          0 0 0 0 0 0
          0 0 0 0 0 0
          0 0 0 0 0 0
          0 0 0 0 0 0
          0 0 0 0 0 0
          0 0 0 0 0 0
          0 0 0 0 0 0
          0 0 0 0 0 0
          0 0 0 0 0 0
          0 0 0 0 0 0
          0 0 0 0 0 0
          0 0 0 0 0 0
          0 0 0 0 0 0
          0 0 0 0 0 0
          0 0 2 2 2 1.5
          2 0 0.5 0 1.5 2
          2 2 2 2 2 2
          2 2 2 2 2 2
          2 1 1.5 1.5 2 2
          2 2 0 0.5 0 0.75
          0 0 0.5 1.5 1.75 1
          0.5 1.25 1 1.5 0 1
          1 2 2 2 2 2
          2 2 2 2 2 2
          2 2 2 2 2 2
          2 2 2 0 0 0
          0 0 0 0 0 0
          0 0 0 0 0 0
          0 0 0 0 0 0
          0 0 0 0 0 0
          0 0 0 0 0 0
          0 0 0 0 0 0
          0 0 0 0 0 0
          0 0 0 0 0 0
          0 0 0 0 0 0
          0 0 0 0 0 0
          0 0 0 0 0 0
          0 0 0 0 0 0
          0 0 0 0 0 0
          0 0 0 0 0 0
          0 0 0 0 0 0
          0 0
        </DataArray>
        <DataArray type="Float64" Name="markers_norefine" format="ascii" RangeMin="0" RangeMax="0">
          0 0 0 0 0 0
          0 0 0 0 0 0
          0 0 0 0 0 0
          0 0 0 0 0 0
          0 0 0 0 0 0
          0 0 0 0 0 0
          0 0 0 0 0 0
          0 0 0 0 0 0
          0 0 0 0 0 0
          0 0 0 0 0 0
          0 0 0 0 0 0
          0 0 0 0 0 0
          0 0 0 0 0 0
          0 0 0 0 0 0
          0 0 0 0 0 0
          0 0 0 0 0 0
          0 0 0 0 0 0
          0 0 0 0 0 0
          0 0 0 0 0 0
          0 0 0 0 0 0
          0 0 0 0 0 0
          0 0 0 0 0 0
          0 0 0 0 0 0
          0 0 0 0 0 0
          0 0 0 0 0 0
          0 0 0 0 0 0
          0 0 0 0 0 0
          0 0 0 0 0 0
          0 0 0 0 0 0
          0 0 0 0 0 0
          0 0 0 0 0 0
          0 0 0 0 0 0
          0 0 0 0 0 0
          0 0 0 0 0 0
          0 0 0 0 0 0
          0 0 0 0 0 0
          0 0 0 0 0 0
          0 0 0 0 0 0
          0 0 0 0 0 0
          0 0 0 0 0 0
          0 0 0 0 0 0
          0 0 0 0 0 0
          0 0 0 0 0 0
          0 0 0 0 0 0
          0 0 0 0 0 0
          0 0 0 0 0 0
          0 0 0 0 0 0
          0 0 0 0 0 0
          0 0 0 0 0 0
          0 0 0 0 0 0
          0 0 0 0 0 0
          0 0 0 0 0 0
          0 0 0 0 0 0
          0 0 0 0 0 0
          0 0 0 0 0 0
          0 0 0 0 0 0
          0 0 0 0 0 0
          0 0 0 0 0 0
          0 0 0 0 0 0
          0 0 0 0 0 0
          0 0 0 0 0 0
          0 0 0 0 0 0
          0 0 0 0 0 0
          0 0 0 0 0 0
          0 0 0 0 0 0
          0 0 0 0 0 0
          0 0 0 0 0 0
          0 0 0 0 0 0
          0 0 0 0 0 0
          0 0 0 0 0 0
          0 0 0 0 0 0
          0 0 0 0 0 0
          0 0
        </DataArray>
        <DataArray type="Float64" Name="markers_mustrefine" format="ascii" RangeMin="0" RangeMax="2">
          0 0 0 0 0 0
          0 0 0 0 0 0
          0 0 0 2 0 0
          0 0 0 0 0 0
          0 0 0 0 0 0
          0 0 0 0 0 0
          0 0 0 0 0 0
          0 0 0 0 0 0
          0 0.5 0 0 0 1
          0.25 0 0 0 0 2
          1 0 1 0 0 0
          0 0 0 0 0 0
          0 0 0 0 0 0
          0 0 0 0 0 0
          0 0 0 0 0 0
          0 0 0 0 0 0
          0 0 0 0 0 0
          0 0 0 0 0 0
          0 0 0 0 0 0
          0 0 0 0 0 0
          0 0 0 0.5 0.5 0
          0.25 1.5 1.25 0 0.25 0
          0.5 1 1 0 2 0.5
          1 0.75 2 1.75 0.75 2
          2 0.3333333333333333 0.75 0.75 2 2
          2 1 1 0.5 2 2
          1 0 1 1.5 2 1.5
          0 0 0.25 0 0 0.5
          0 0 0 0 0.5 0
          1 0 0 0 0 0
          0 0 0 0 0 0
          0 0 0 0 0 0
          0 0 0 0 0 0
          0 0 0 0 0 0
          0 0 0 0 0 0
          0 0 0 0 0 0
          0 0 0 0 0 0
          0 0 0 0 0 0
          0 0 0 0 0 0
          0 0 0 0 0 0
          0 0 0 0 0 0
          0 0 0 0 0 0
          0 0 0 0 0 0
          0 0 0 0 0 0
          0 0 0 0 0 0
          0 0 2 2 2 1.5
          2 0 0.5 0 1.5 2
          2 2 2 2 2 2
          2 2 2 2 2 2
          2 1 1.5 1.5 2 2
          2 2 0 0.5 0 0.75
          0 0 0.5 1.5 1.75 1
          0.5 1.25 1 1.5 0 1
          1 2 2 2 2 2
          2 2 2 2 2 2
          2 2 2 2 2 2
          2 2 2 0 0 0
          0 0 0 0 0 0
          0 0 0 0 0 0
          0 0 0 0 0 0
          0 0 0 0 0 0
          0 0 0 0 0 0
          0 0 0 0 0 0
          0 0 0 0 0 0
          0 0 0 0 0 0
          0 0 0 0 0 0
          0 0 0 0 0 0
          0 0 0 0 0 0
          0 0 0 0 0 0
          0 0 0 0 0 0
          0 0 0 0 0 0
          0 0 0 0 0 0
          0 0
        </DataArray>
        <DataArray type="Float64" Name="gradient_marker" format="ascii" RangeMin="0" RangeMax="1">
          1 1 1 1 1 1
          1 1 1 1 1 1
          1 1 1 0.5 1 1
          1 1 1 1 1 1
          1 1 1 1 1 0.875
          1 1 1 1 1 1
          1 1 1 1 1 0.75
          1 1 1 1 1 1
          1 1 1 1 1 0.75
          0.875 1 1 1 1 1
          1 1 0.75 1 0.75 0.5
          0.75 0.6666666666666666 0.75 1 1 1
          1 1 1 1 1 1
          1 1 1 1 1 1
          1 1 1 1 1 1
          1 1 1 1 1 1
          1 1 1 1 1 1
          1 1 1 1 1 1
          1 1 1 1 1 1
          1 1 1 1 1 1
          1 1 1 1 1 1
          1 1 1 1 1 1
          1 1 1 1 1 1
          1 1 1 1 0.75 0.75
          0.5 1 1 0.75 1 1
          0.75 1 1 0.625 1 1
          0.75 0.75 0.75 0.75 0.75 1
          0.875 1 1 1 0.75 1
          0.75 1 1 1 1 1
          1 1 1 1 1 1
          1 1 1 1 1 1
          1 1 1 1 1 1
          1 1 1 1 1 1
          1 1 1 1 1 1
          1 1 1 1 1 1
          1 1 1 1 1 1
          1 1 1 1 1 1
          1 1 1 1 1 1
          1 1 1 1 1 1
          1 1 1 1 1 1
          1 1 1 1 1 1
          1 1 1 1 1 1
          1 1 1 1 1 1
          1 1 1 1 1 0.75
          1 0.875 0.25 0.75 0.625 0.5
          0.75 0.5 0 0.5 0.25 0
          0.25 0 0 0 0 0
          0 0.25 0 0.25 0 0.5
          0.5 0.25 0.75 0.5 0.75 1
          0.875 0 0.25 0.625 0.75 0.625
          1 0.5 0 0.125 0 0.25
          0 0 0 0.375 0.75 0.25
          0 0.25 0 0.25 0 0
          0 0.75 0.75 0.5 0.25 0.25
          0.5 0.625 0.5 0.875 0 0
          0.25 0.5 0.625 1 0.5 1
          0.75 1 0.5 1 1 1
          1 1 1 1 1 1
          1 0.25 0.5 0.5 0.75 0
          0.25 0 0.25 0.5 0 1
          1 1 1 1 1 1
          1 1 1 1 1 1
          1 1 1 1 1 1
          1 1 1 1 1 1
          1 1 1 1 1 1
          1 1 1 1 1 1
          1 1 1 1 1 1
          1 1 1 1 1 1
          1 1 1 1 1 1
          1 1 1 1 1 1
          1 1 1 1 1 1
          1 1 1 1 1 1
          1 1
        </DataArray>
        <DataArray type="Float64" Name="gradient_matprop_marker" format="ascii" RangeMin="0" RangeMax="0">
          0 0 0 0 0 0
          0 0 0 0 0 0
          0 0 0 0 0 0
          0 0 0 0 0 0
          0 0 0 0 0 0
          0 0 0 0 0 0
          0 0 0 0 0 0
          0 0 0 0 0 0
          0 0 0 0 0 0
          0 0 0 0 0 0
          0 0 0 0 0 0
          0 0 0 0 0 0
          0 0 0 0 0 0
          0 0 0 0 0 0
          0 0 0 0 0 0
          0 0 0 0 0 0
          0 0 0 0 0 0
          0 0 0 0 0 0
          0 0 0 0 0 0
          0 0 0 0 0 0
          0 0 0 0 0 0
          0 0 0 0 0 0
          0 0 0 0 0 0
          0 0 0 0 0 0
          0 0 0 0 0 0
          0 0 0 0 0 0
          0 0 0 0 0 0
          0 0 0 0 0 0
          0 0 0 0 0 0
          0 0 0 0 0 0
          0 0 0 0 0 0
          0 0 0 0 0 0
          0 0 0 0 0 0
          0 0 0 0 0 0
          0 0 0 0 0 0
          0 0 0 0 0 0
          0 0 0 0 0 0
          0 0 0 0 0 0
          0 0 0 0 0 0
          0 0 0 0 0 0
          0 0 0 0 0 0
          0 0 0 0 0 0
          0 0 0 0 0 0
          0 0 0 0 0 0
          0 0 0 0 0 0
          0 0 0 0 0 0
          0 0 0 0 0 0
          0 0 0 0 0 0
          0 0 0 0 0 0
          0 0 0 0 0 0
          0 0 0 0 0 0
          0 0 0 0 0 0
          0 0 0 0 0 0
          0 0 0 0 0 0
          0 0 0 0 0 0
          0 0 0 0 0 0
          0 0 0 0 0 0
          0 0 0 0 0 0
          0 0 0 0 0 0
          0 0 0 0 0 0
          0 0 0 0 0 0
          0 0 0 0 0 0
          0 0 0 0 0 0
          0 0 0 0 0 0
          0 0 0 0 0 0
          0 0 0 0 0 0
          0 0 0 0 0 0
          0 0 0 0 0 0
          0 0 0 0 0 0
          0 0 0 0 0 0
          0 0 0 0 0 0
          0 0 0 0 0 0
          0 0
        </DataArray>
        <DataArray type="Float64" Name="combo" format="ascii" RangeMin="0" RangeMax="1">
          1 1 1 1 1 1
          1 1 1 1 1 1
          1 1 1 0.5 1 1
          1 1 1 1 1 1
          1 1 1 1 1 0.875
          1 1 1 1 1 1
          1 1 1 1 1 0.75
          1 1 1 1 1 1
          1 1 1 1 1 0.75
          0.875 1 1 1 1 1
          1 1 0.75 1 0.75 0.5
          0.75 0.6666666666666666 0.75 1 1 1
          1 1 1 1 1 1
          1 1 1 1 1 1
          1 1 1 1 1 1
          1 1 1 1 1 1
          1 1 1 1 1 1
          1 1 1 1 1 1
          1 1 1 1 1 1
          1 1 1 1 1 1
          1 1 1 1 1 1
          1 1 1 1 1 1
          1 1 1 1 1 1
          1 1 1 1 0.75 0.75
          0.5 1 1 0.75 1 1
          0.75 1 1 0.625 1 1
          0.75 0.75 0.75 0.75 0.75 1
          0.875 1 1 1 0.75 1
          0.75 1 1 1 1 1
          1 1 1 1 1 1
          1 1 1 1 1 1
          1 1 1 1 1 1
          1 1 1 1 1 1
          1 1 1 1 1 1
          1 1 1 1 1 1
          1 1 1 1 1 1
          1 1 1 1 1 1
          1 1 1 1 1 1
          1 1 1 1 1 1
          1 1 1 1 1 1
          1 1 1 1 1 1
          1 1 1 1 1 1
          1 1 1 1 1 1
          1 1 1 1 1 0.75
          1 0.875 0.25 0.75 0.625 0.5
          0.75 0.5 0 0.5 0.25 0
          0.25 0 0 0 0 0
          0 0.25 0 0.25 0 0.5
          0.5 0.25 0.75 0.5 0.75 1
          0.875 0 0.25 0.625 0.75 0.625
          1 0.5 0 0.125 0 0.25
          0 0 0 0.375 0.75 0.25
          0 0.25 0 0.25 0 0
          0 0.75 0.75 0.5 0.25 0.25
          0.5 0.625 0.5 0.875 0 0
          0.25 0.5 0.625 1 0.5 1
          0.75 1 0.5 1 1 1
          1 1 1 1 1 1
          1 0.25 0.5 0.5 0.75 0
          0.25 0 0.25 0.5 0 1
          1 1 1 1 1 1
          1 1 1 1 1 1
          1 1 1 1 1 1
          1 1 1 1 1 1
          1 1 1 1 1 1
          1 1 1 1 1 1
          1 1 1 1 1 1
          1 1 1 1 1 1
          1 1 1 1 1 1
          1 1 1 1 1 1
          1 1 1 1 1 1
          1 1 1 1 1 1
          1 1
        </DataArray>
        <DataArray type="Float64" Name="dHdT" format="ascii" RangeMin="25.796918258090475" RangeMax="39.123076859079106">
          25.811908156707634 25.811738869257944 25.811662812119373 25.81195631474558 25.811795317865727 25.81170021768537
          25.93018853361883 25.835313171785835 25.809232024866823 25.81725172769404 25.81222439956327 25.811917061718137
          25.811733148459705 33.40824768002243 25.890283794629266 37.11849448789562 25.818648057713926 25.811357448946204
          25.81175113536085 25.811707894164257 25.900900501521576 25.866997716571618 25.885722035920118 27.793697291211107
          27.39242407001465 26.36805533159008 26.531293662798497 25.818325830069224 26.54714512427512 26.059489753169363
          25.828850803909944 25.83883229794899 25.86590349402365 25.822390779148122 39.123076859079106 27.798996909755232
          28.19379158904608 26.871480241951772 25.842966633543902 25.812129897568067 25.813853918926373 25.845789358297292
          25.81396124472653 25.814835319086633 25.81418498415423 26.855316770146526 26.622553405898856 27.28922170234838
          32.784231336556104 33.39612233315324 30.01488663939536 29.91613053946738 26.360592371632652 33.22641515355781
          29.469026765227117 26.38074622966235 26.75140409820526 27.19860591189377 26.49040450831869 38.070980872865555
          34.11592729478729 33.352959244050226 34.20062608299606 27.2030442355611 26.23388972719903 26.075456045217077
          28.392507570924646 25.913261309141063 26.183543452271543 26.477904314846484 25.910927421431175 25.882077845156807
          27.90264855553056 26.673400639978617 25.8605941678051 25.900840715390146 31.793370936980693 28.1444054538933
          25.952202330958112 25.811843214137447 25.811624597116996 25.81188312012301 25.811835299064875 25.811813361239206
          25.811713424982536 25.811705958013594 25.811798538868178 25.811705516655856 25.811923026108577 25.81204600101275
          25.81169849104465 29.24644646375705 28.362737733496953 27.7531440357259 31.28104398755762 31.691101857694715
          29.86740091138508 29.928853599757176 26.881145419168213 27.53852188863417 27.58723583026918 35.93859151568928
          32.04403599926682 31.49355058478575 28.195898358100116 25.85975597132428 25.898949466399955 25.88700751300121
          25.946515380326733 25.834401374378665 25.846764413597906 25.821627427941483 25.82007129309537 25.827746198990273