<?xml version="1.0"?>
<VTKFile type="UnstructuredGrid" version="0.1" byte_order="LittleEndian" header_type="UInt32" compressor="vtkZLibDataCompressor">
  <UnstructuredGrid>
    <Piece NumberOfPoints="405" NumberOfCells="207">
      <PointData>
        <DataArray type="Int32" Name="libmesh_node_id" format="ascii" RangeMin="0" RangeMax="3744">
          0 1 2 3 4 5
          6 7 8 9 10 11
          12 13 14 15 16 17
          18 19 20 21 22 23
          48 49 50 51 52 53
          54 55 56 57 58 59
          72 73 74 75 76 77
          78 79 80 81 82 83
          96 97 98 99 100 101
          108 109 110 111 112 113
          114 115 116 117 118 119
          132 133 134 135 136 137
          144 145 146 147 148 149
          150 151 152 153 154 155
          168 169 170 171 172 173
          180 181 182 183 184 185
          186 187 188 189 190 191
          204 205 206 207 208 209
          216 217 218 219 220 221
          222 223 224 225 240 241
          242 243 244 252 253 254
          255 256 257 258 259 260
          261 276 277 278 279 280
          288 289 290 291 292 293
          294 295 296 297 312 313
          314 315 316 3325 3326 3327
          3328 3329 3330 3331 3332 3333
          3334 3335 3336 3337 3338 3339
          3340 3341 3342 3343 3344 3345
          3346 3347 3348 3349 3350 3351
          3352 3353 3354 3355 3356 3357
          3358 3359 3360 3361 3362 3363
          3364 3365 3366 3367 3368 3369
          3370 3371 3372 3373 3374 3375
          3376 3377 3378 3379 3380 3381
          3382 3383 3384 3385 3395 3396
          3397 3398 3399 3400 3401 3402
          3403 3404 3405 3406 3407 3408
          3409 3410 3411 3412 3413 3414
          3415 3416 3417 3418 3419 3420
          3421 3422 3423 3424 3425 3426
          3427 3428 3521 3522 3523 3524
          3525 3526 3527 3528 3529 3530
          3531 3532 3533 3534 3541 3542
          3543 3544 3545 3546 3547 3548
          3549 3550 3557 3558 3559 3560
          3561 3562 3563 3564 3565 3566
          3567 3568 3569 3570 3571 3572
          3573 3574 3575 3576 3577 3578
          3579 3580 3581 3582 3583 3584
          3585 3586 3587 3588 3589 3590
          3591 3592 3593 3594 3595 3596
          3597 3598 3599 3600 3601 3602
          3603 3604 3605 3606 3607 3608
          3609 3610 3611 3612 3613 3614
          3615 3616 3617 3618 3619 3620
          3621 3622 3623 3624 3625 3626
          3627 3628 3629 3630 3631 3632
          3633 3634 3635 3636 3637 3638
          3639 3640 3641 3642 3643 3644
          3645 3646 3647 3648 3649 3650
          3651 3652 3653 3654 3655 3656
          3657 3658 3659 3660 3661 3662
          3663 3664 3665 3666 3667 3668
          3669 3670 3671 3672 3673 3674
          3675 3676 3677 3678 3679 3735
          3736 3737 3738 3739 3740 3741
          3742 3743 3744
        </DataArray>
        <DataArray type="Float64" Name="bounds" format="ascii" RangeMin="0" RangeMax="0">
          0 0 0 0 0 0
          0 0 0 0 0 0
          0 0 0 0 0 0
          0 0 0 0 0 0
          0 0 0 0 0 0
          0 0 0 0 0 0
          0 0 0 0 0 0
          0 0 0 0 0 0
          0 0 0 0 0 0
          0 0 0 0 0 0
          0 0 0 0 0 0
          0 0 0 0 0 0
          0 0 0 0 0 0
          0 0 0 0 0 0
          0 0 0 0 0 0
          0 0 0 0 0 0
          0 0 0 0 0 0
          0 0 0 0 0 0
          0 0 0 0 0 0
          0 0 0 0 0 0
          0 0 0 0 0 0
          0 0 0 0 0 0
          0 0 0 0 0 0
          0 0 0 0 0 0
          0 0 0 0 0 0
          0 0 0 0 0 0
          0 0 0 0 0 0
          0 0 0 0 0 0
          0 0 0 0 0 0
          0 0 0 0 0 0
          0 0 0 0 0 0
          0 0 0 0 0 0
          0 0 0 0 0 0
          0 0 0 0 0 0
          0 0 0 0 0 0
          0 0 0 0 0 0
          0 0 0 0 0 0
          0 0 0 0 0 0
          0 0 0 0 0 0
          0 0 0 0 0 0
          0 0 0 0 0 0
          0 0 0 0 0 0
          0 0 0 0 0 0
          0 0 0 0 0 0
          0 0 0 0 0 0
          0 0 0 0 0 0
          0 0 0 0 0 0
          0 0 0 0 0 0
          0 0 0 0 0 0
          0 0 0 0 0 0
          0 0 0 0 0 0
          0 0 0 0 0 0
          0 0 0 0 0 0
          0 0 0 0 0 0
          0 0 0 0 0 0
          0 0 0 0 0 0
          0 0 0 0 0 0
          0 0 0 0 0 0
          0 0 0 0 0 0
          0 0 0 0 0 0
          0 0 0 0 0 0
          0 0 0 0 0 0
          0 0 0 0 0 0
          0 0 0 0 0 0
          0 0 0 0 0 0
          0 0 0 0 0 0
          0 0 0 0 0 0
          0 0 0
        </DataArray>
        <DataArray type="Float64" Name="gradient_error" format="ascii" RangeMin="1.1334146049059887e-10" RangeMax="0.0000012576878640358886">
          1.239555077934714e-10 1.3021845684072927e-10 1.2559351339428694e-10 1.2234789408441294e-10 1.1334146049059887e-10 1.1919155998142654e-10
          1.2263457533537346e-10 1.199603453185469e-10 1.4471975876945656e-10 1.3317358217774473e-10 1.3996398507734448e-10 1.3237570301017486e-10
          1.455111129238492e-10 1.3390529764369657e-10 1.5040444803983712e-10 1.3699236462860133e-10 1.2691600208901592e-10 1.2477532706537416e-10
          1.4332727119289515e-10 1.3316081292422106e-10 1.1851286121736518e-10 1.206723394618693e-10 1.341746572748696e-10 1.2840733690168502e-10
          1.2096856994784462e-10 1.2074028037535445e-10 1.2607759068932032e-10 1.265792301464949e-10 1.2162740558603293e-10 1.247874209430052e-10
          1.2229948236354395e-10 1.2358028121736554e-10 1.2263465204173236e-10 1.2299435465554697e-10 1.228318177063734e-10 1.2264001652850044e-10
          4.0820589361381853e-10 4.6156240445739373e-10 2.932222784651252e-10 2.656857583767379e-10 5.72319976506064e-10 3.508242256877425e-10
          5.205925109468642e-10 3.258649304038083e-10 2.9087737714799493e-10 2.0964171027618119e-10 1.524307749209404e-10 1.3949772196762314e-10
          1.248821524728566e-10 1.231656231396573e-10 1.29328474869421e-10 1.311373498607525e-10 1.284060434043674e-10 1.265646690143059e-10
          2.492676741982726e-9 2.6430959121184024e-9 1.501446338993374e-9 1.4309594669448447e-9 2.8678429739127985e-9 1.6018930493749117e-9
          2.286696050803199e-9 1.2856179180100582e-9 1.0657140482068814e-9 6.386616007478402e-10 3.946381955852589e-10 2.7883827633104973e-10
          3.597967658683461e-10 3.692421919069638e-10 3.359431248370251e-10 2.8453978521691747e-10 2.1160915328879908e-10 1.6303835707684062e-10
          1.640175519950837e-8 1.6285802370582014e-8 9.521895984807408e-9 9.682086399701955e-9 1.5422924632724606e-8 8.847015963595867e-9
          1.12043097139116e-8 6.425099058287299e-9 4.716377679264475e-9 2.8706190873265407e-9 1.3618323660557578e-9 9.911867831071852e-10
          2.7579895990328048e-9 2.9624175998955364e-9 2.2711072944671324e-9 1.6458884026629966e-9 1.0248604953886067e-9 6.205412001586121e-10
          1.0291579938059479e-7 9.818743005602353e-8 5.917860474513779e-8 6.250804890845084e-8 8.455960403087977e-8 5.011500306168624e-8
          5.7065887487918404e-8 3.382493393466995e-8 2.223237830988758e-8 1.422687237883322e-8 4.992326432289779e-9 4.234373241404311e-9
          2.0169779434252047e-8 2.210029843630687e-8 1.5670402092492712e-8 1.0583980381421498e-8 6.221366447778863e-9 3.4764200505188444e-9
          6.366761236334775e-7 5.927256442469774e-7 3.645108616505186e-7 3.9421617399614837e-7 4.795872600559339e-7 2.9009829367529134e-7
          2.3431761469266672e-7 1.4533980533469944e-7 2.6003369556197355e-8 2.773325577882859e-8 1.3629607905405972e-7 1.517562243588192e-7
          1.0060932729464882e-7 6.239779476598703e-8 3.2722839717101276e-8 0.0000010597701636245346 0.0000010545488419410723 5.51859958357047e-7
          5.779766255132052e-7 0.0000010088330004625237 4.828343808821559e-7 5.674338949641402e-7 3.3728026366134455e-7 1.2370691598317424e-7
          2.04409738342279e-7 1.3882474083805475e-7 1.5676567758483444e-7 9.96019276364481e-8 5.990815368482713e-8 3.054089219445273e-8
          8.666777034080305e-7 0.0000010016152948626373 7.396753365551227e-7 7.052922685420052e-7 1.0748415928649786e-7 7.890082391696663e-7
          1.4532095258770332e-7 2.2117299635332865e-7 2.2492512013256497e-7 1.7803671533301912e-7 4.201625116042113e-8 5.29426446260076e-8
          2.302696296818683e-8 7.849167503743988e-9 1.1036584714665098e-8 0.0000010429137275960115 8.815009174081482e-7 8.688580560844597e-7
          9.450827704311216e-7 9.73484799972881e-7 9.24248878388217e-7 9.023171012530683e-7 9.130398514550262e-7 0.0000010467680886500772
          9.803788513525855e-7 4.760668444603357e-7 5.95630443390208e-7 5.904566084036527e-7 6.081115356235867e-7 9.040558723497505e-7
          9.669968393682858e-7 9.35776146421677e-7 0.0000010477178512501451 7.151940423200801e-7 0.000001148573592809521 9.491073697334753e-7
          8.791793646866764e-7 9.178563023252746e-7 9.810935162605622e-7 6.967144212415522e-7 8.476633568744094e-7 4.754688187169615e-7
          6.208495878578045e-7 6.298250516253964e-7 5.976060269368435e-7 8.887383560748772e-7 7.152109552475273e-7 7.662303569986474e-7
          0.0000012576878640358886 0.000001008755043274184 7.423840553828442e-7 7.401678919663475e-7 5.131112155010416e-7 5.062035781310618e-7
          4.787011344062366e-7 4.578327282343467e-7 4.83538884853081e-7 3.2157814068753386e-7 1.2168888531385303e-7 4.816881821981056e-7
          2.413860397926038e-7 5.171529420276461e-7 1.3332029953656454e-7 2.503806721800857e-7 2.688813352867641e-7 3.499783013918004e-7
          2.304914774484284e-7 3.09790586987919e-7 3.5803094184303147e-7 2.84083559946453e-7 2.949668903752191e-7 2.636705919534012e-7
          1.7967698172247843e-7 2.7794040068074194e-7 3.231718056338107e-7 2.034676416619377e-7 1.3926581872690123e-7 1.4296643062909966e-7
          1.8218386173542454e-7 1.8614636338322348e-7 1.2970928399410808e-7 1.7174127115530747e-7 4.6486055753415846e-8 4.811979349398625e-8
          5.0930942034156494e-8 4.1249085118535734e-8 2.2510190474394787e-7 2.2932629613734728e-7 2.137732583165068e-7 4.975353123455665e-8
          1.1711728010739565e-7 1.5781732137357662e-7 1.0295637823635122e-7 1.419132160043787e-7 3.293806943829753e-8 3.2716164651748415e-8
          2.4175964992035875e-8 1.985173626397576e-7 1.8087005377240615e-7 3.24942598651993e-8 8.728053874121871e-8 1.2525745616072782e-7
          7.110655666375103e-8 1.0950756622558112e-7 1.871784352622314e-8 1.635705491803716e-8 1.0588867624862355e-8 1.632343735802369e-7
          1.479085757874112e-7 1.399626630985118e-8 3.267352528240311e-8 2.6050736830859212e-8 4.032883924607379e-8 8.93970839455153e-8
          8.288008008116753e-8 6.022932203061835e-8 6.73310537900778e-8 1.2005628253092507e-8 6.83632900855643e-8 4.598846027663912e-8
          1.9427948379315317e-8 3.75785639800692e-8 4.52650236346403e-8 2.3613630467713955e-8 5.5694947914326965e-8 9.289983852918235e-8
          4.0335872901731546e-8 7.371897619982274e-8 9.115800123223467e-9 8.631189674557156e-9 8.677730925593379e-9 1.3010472914403775e-7
          1.0710207949791393e-7 8.146579225890844e-9 1.7020111222474975e-7 1.674765886245142e-7 1.5327880938119696e-7 1.455946150668712e-7
          1.4490086678007076e-7 1.5601035040458376e-7 1.4932237572550596e-7 1.9055040494061104e-7 1.4971095397695697e-7 1.6992588647501678e-7
          1.647520650242786e-7 1.6711983402909678e-7 1.5305013638414075e-7 1.9014081897307662e-7 1.1960062133539176e-7 1.4454411218465335e-7
          1.4536594206981498e-7 1.4930136800942259e-7 1.6948760303391494e-7 2.0953772250421683e-7 2.0756711064888092e-7 1.6123718737184036e-7
          1.843576233372769e-7 2.2439243691815736e-7 1.743845660218264e-7 1.9838446244443365e-7 2.05596498793545e-7 2.0747805930271348e-7
          2.1037729447226347e-7 1.129366522394639e-7 1.611481360256729e-7 1.723764879707099e-7 2.0935961981188194e-7 2.4697779316016365e-7
          2.431025709858738e-7 1.8971766874589143e-7 2.1276202763167186e-7 2.371363874332409e-7 2.0451714226181083e-7 2.2833482311433339e-7
          2.0825850811976689e-7 2.165177694735903e-7 2.3330903951678465e-7 1.3245754433161922e-7 1.8242148427746994e-7 1.9566890931372384e-7
          2.2477703082741368e-7 1.492596898902638e-7 1.375092566281918e-7 1.4602035700255622e-7 1.853018192368837e-7 1.8630021787129643e-7
          1.6955963967243667e-7 1.6771402273619643e-7 1.2600671694983974e-7 1.8906324685634898e-7 1.7271565929855715e-7 1.257588233661198e-7
          1.5281906147357686e-7 1.5012622623550918e-7 1.5636807174076529e-7 2.493959302067558e-7 2.3921338360324217e-7 2.58077150645968e-7
          2.2003343189117106e-7 1.2862979599253553e-7 1.2176914067237858e-7 1.9307611147478887e-7 1.755140263472411e-7 1.1896702795274102e-7
          1.9725118655636762e-7 1.7815349010486247e-7 1.149084853522216e-7 1.5795194121969336e-7 1.5905579365335734e-7 2.886677017847708e-7
          2.755991570678805e-7 2.9371702606425557e-7 2.48107270638122e-7 2.1839662266455614e-7 2.4528750239184267e-7 2.364335613882529e-7
          2.6573927806014175e-7 2.494762573006082e-7 2.6681748215013296e-7 1.6134213076792974e-7 2.1375826029388255e-7 2.3474885647562196e-7
          2.588420165549768e-7 2.6004385697604925e-7 2.903732025373614e-7 2.879782493798108e-7 3.185732212731845e-7 2.854860965511142e-7
          3.055738556056867e-7 2.002747373395992e-7 2.588070029610655e-7 2.8705234267484173e-7 2.9930898568862786e-7 1.6737324488210772e-7
          1.6302397680416684e-7 1.8510571167139034e-7 1.7929529394734398e-7 1.7120152559195427e-7 1.9083388139457944e-7 1.327078680901592e-7
          1.4343729086069345e-7 1.441250128279746e-7 1.4307779322092347e-7 2.0283817846067294e-7 1.9556661109052107e-7 2.1046623719720458e-7
          1.541667136312277e-7 1.7442705182918057e-7 1.9617444929671303e-7 1.7695753392640718e-7 2.009962425720482e-7 1.2959351644597527e-7
          1.420792535898712e-7 1.4001296709928106e-7 2.1792184676424552e-7 2.2503495121768923e-7 1.5456499073376714e-7 1.563944157500688e-7
          1.5206849400707225e-7 1.7291632144624908e-7 1.694041043419716e-7 1.354991640721878e-7 1.4860349046276991e-7 1.524450430012346e-7
          1.894382271424294e-7 1.8673971467687097e-7 1.6170781685335203e-7
        </DataArray>
        <DataArray type="Float64" Name="gradient_matprop_error" format="ascii" RangeMin="0" RangeMax="0">
          0 0 0 0 0 0
          0 0 0 0 0 0
          0 0 0 0 0 0
          0 0 0 0 0 0
          0 0 0 0 0 0
          0 0 0 0 0 0
          0 0 0 0 0 0
          0 0 0 0 0 0
          0 0 0 0 0 0
          0 0 0 0 0 0
          0 0 0 0 0 0
          0 0 0 0 0 0
          0 0 0 0 0 0
          0 0 0 0 0 0
          0 0 0 0 0 0
          0 0 0 0 0 0
          0 0 0 0 0 0
          0 0 0 0 0 0
          0 0 0 0 0 0
          0 0 0 0 0 0
          0 0 0 0 0 0
          0 0 0 0 0 0
          0 0 0 0 0 0
          0 0 0 0 0 0
          0 0 0 0 0 0
          0 0 0 0 0 0
          0 0 0 0 0 0
          0 0 0 0 0 0
          0 0 0 0 0 0
          0 0 0 0 0 0
          0 0 0 0 0 0
          0 0 0 0 0 0
          0 0 0 0 0 0
          0 0 0 0 0 0
          0 0 0 0 0 0
          0 0 0 0 0 0
          0 0 0 0 0 0
          0 0 0 0 0 0
          0 0 0 0 0 0
          0 0 0 0 0 0
          0 0 0 0 0 0
          0 0 0 0 0 0
          0 0 0 0 0 0
          0 0 0 0 0 0
          0 0 0 0 0 0
          0 0 0 0 0 0
          0 0 0 0 0 0
          0 0 0 0 0 0
          0 0 0 0 0 0
          0 0 0 0 0 0
          0 0 0 0 0 0
          0 0 0 0 0 0
          0 0 0 0 0 0
          0 0 0 0 0 0
          0 0 0 0 0 0
          0 0 0 0 0 0
          0 0 0 0 0 0
          0 0 0 0 0 0
          0 0 0 0 0 0
          0 0 0 0 0 0
          0 0 0 0 0 0
          0 0 0 0 0 0
          0 0 0 0 0 0
          0 0 0 0 0 0
          0 0 0 0 0 0
          0 0 0 0 0 0
          0 0 0 0 0 0
          0 0 0
        </DataArray>
        <DataArray type="Float64" Name="initial_marker" format="ascii" RangeMin="0" RangeMax="0">
          0 0 0 0 0 0
          0 0 0 0 0 0
          0 0 0 0 0 0
          0 0 0 0 0 0
          0 0 0 0 0 0
          0 0 0 0 0 0
          0 0 0 0 0 0
          0 0 0 0 0 0
          0 0 0 0 0 0
          0 0 0 0 0 0
          0 0 0 0 0 0
          0 0 0 0 0 0
          0 0 0 0 0 0
          0 0 0 0 0 0
          0 0 0 0 0 0
          0 0 0 0 0 0
          0 0 0 0 0 0
          0 0 0 0 0 0
          0 0 0 0 0 0
          0 0 0 0 0 0
          0 0 0 0 0 0
          0 0 0 0 0 0
          0 0 0 0 0 0
          0 0 0 0 0 0
          0 0 0 0 0 0
          0 0 0 0 0 0
          0 0 0 0 0 0
          0 0 0 0 0 0
          0 0 0 0 0 0
          0 0 0 0 0 0
          0 0 0 0 0 0
          0 0 0 0 0 0
          0 0 0 0 0 0
          0 0 0 0 0 0
          0 0 0 0 0 0
          0 0 0 0 0 0
          0 0 0 0 0 0
          0 0 0 0 0 0
          0 0 0 0 0 0
          0 0 0 0 0 0
          0 0 0 0 0 0
          0 0 0 0 0 0
          0 0 0 0 0 0
          0 0 0 0 0 0
          0 0 0 0 0 0
          0 0 0 0 0 0
          0 0 0 0 0 0
          0 0 0 0 0 0
          0 0 0 0 0 0
          0 0 0 0 0 0
          0 0 0 0 0 0
          0 0 0 0 0 0
          0 0 0 0 0 0
          0 0 0 0 0 0
          0 0 0 0 0 0
          0 0 0 0 0 0
          0 0 0 0 0 0
          0 0 0 0 0 0
          0 0 0 0 0 0
          0 0 0 0 0 0
          0 0 0 0 0 0
          0 0 0 0 0 0
          0 0 0 0 0 0
          0 0 0 0 0 0
          0 0 0 0 0 0
          0 0 0 0 0 0
          0 0 0 0 0 0
          0 0 0
        </DataArray>
        <DataArray type="Float64" Name="markers_norefine" format="ascii" RangeMin="0" RangeMax="0">
          0 0 0 0 0 0
          0 0 0 0 0 0
          0 0 0 0 0 0
          0 0 0 0 0 0
          0 0 0 0 0 0
          0 0 0 0 0 0
          0 0 0 0 0 0
          0 0 0 0 0 0
          0 0 0 0 0 0
          0 0 0 0 0 0
          0 0 0 0 0 0
          0 0 0 0 0 0
          0 0 0 0 0 0
          0 0 0 0 0 0
          0 0 0 0 0 0
          0 0 0 0 0 0
          0 0 0 0 0 0
          0 0 0 0 0 0
          0 0 0 0 0 0
          0 0 0 0 0 0
          0 0 0 0 0 0
          0 0 0 0 0 0
          0 0 0 0 0 0
          0 0 0 0 0 0
          0 0 0 0 0 0
          0 0 0 0 0 0
          0 0 0 0 0 0
          0 0 0 0 0 0
          0 0 0 0 0 0
          0 0 0 0 0 0
          0 0 0 0 0 0
          0 0 0 0 0 0
          0 0 0 0 0 0
          0 0 0 0 0 0
          0 0 0 0 0 0
          0 0 0 0 0 0
          0 0 0 0 0 0
          0 0 0 0 0 0
          0 0 0 0 0 0
          0 0 0 0 0 0
          0 0 0 0 0 0
          0 0 0 0 0 0
          0 0 0 0 0 0
          0 0 0 0 0 0
          0 0 0 0 0 0
          0 0 0 0 0 0
          0 0 0 0 0 0
          0 0 0 0 0 0
          0 0 0 0 0 0
          0 0 0 0 0 0
          0 0 0 0 0 0
          0 0 0 0 0 0
          0 0 0 0 0 0
          0 0 0 0 0 0
          0 0 0 0 0 0
          0 0 0 0 0 0
          0 0 0 0 0 0
          0 0 0 0 0 0
          0 0 0 0 0 0
          0 0 0 0 0 0
          0 0 0 0 0 0
          0 0 0 0 0 0
          0 0 0 0 0 0
          0 0 0 0 0 0
          0 0 0 0 0 0
          0 0 0 0 0 0
          0 0 0 0 0 0
          0 0 0
        </DataArray>
        <DataArray type="Float64" Name="markers_mustrefine" format="ascii" RangeMin="0" RangeMax="0">
          0 0 0 0 0 0
          0 0 0 0 0 0
          0 0 0 0 0 0
          0 0 0 0 0 0
          0 0 0 0 0 0
          0 0 0 0 0 0
          0 0 0 0 0 0
          0 0 0 0 0 0
          0 0 0 0 0 0
          0 0 0 0 0 0
          0 0 0 0 0 0
          0 0 0 0 0 0
          0 0 0 0 0 0
          0 0 0 0 0 0
          0 0 0 0 0 0
          0 0 0 0 0 0
          0 0 0 0 0 0
          0 0 0 0 0 0
          0 0 0 0 0 0
          0 0 0 0 0 0
          0 0 0 0 0 0
          0 0 0 0 0 0
          0 0 0 0 0 0
          0 0 0 0 0 0
          0 0 0 0 0 0
          0 0 0 0 0 0
          0 0 0 0 0 0
          0 0 0 0 0 0
          0 0 0 0 0 0
          0 0 0 0 0 0
          0 0 0 0 0 0
          0 0 0 0 0 0
          0 0 0 0 0 0
          0 0 0 0 0 0
          0 0 0 0 0 0
          0 0 0 0 0 0
          0 0 0 0 0 0
          0 0 0 0 0 0
          0 0 0 0 0 0
          0 0 0 0 0 0
          0 0 0 0 0 0
          0 0 0 0 0 0
          0 0 0 0 0 0
          0 0 0 0 0 0
          0 0 0 0 0 0
          0 0 0 0 0 0
          0 0 0 0 0 0
          0 0 0 0 0 0
          0 0 0 0 0 0
          0 0 0 0 0 0
          0 0 0 0 0 0
          0 0 0 0 0 0
          0 0 0 0 0 0
          0 0 0 0 0 0
          0 0 0 0 0 0
          0 0 0 0 0 0
          0 0 0 0 0 0
          0 0 0 0 0 0
          0 0 0 0 0 0
          0 0 0 0 0 0
          0 0 0 0 0 0
          0 0 0 0 0 0
          0 0 0 0 0 0
          0 0 0 0 0 0
          0 0 0 0 0 0
          0 0 0 0 0 0
          0 0 0 0 0 0
          0 0 0
        </DataArray>
        <DataArray type="Float64" Name="gradient_marker" format="ascii" RangeMin="1" RangeMax="1">
          1 1 1 1 1 1
          1 1 1 1 1 1
          1 1 1 1 1 1
          1 1 1 1 1 1
          1 1 1 1 1 1
          1 1 1 1 1 1
          1 1 1 1 1 1
          1 1 1 1 1 1
          1 1 1 1 1 1
          1 1 1 1 1 1
          1 1 1 1 1 1
          1 1 1 1 1 1
          1 1 1 1 1 1
          1 1 1 1 1 1
          1 1 1 1 1 1
          1 1 1 1 1 1
          1 1 1 1 1 1
          1 1 1 1 1 1
          1 1 1 1 1 1
          1 1 1 1 1 1
          1 1 1 1 1 1
          1 1 1 1 1 1
          1 1 1 1 1 1
          1 1 1 1 1 1
          1 1 1 1 1 1
          1 1 1 1 1 1
          1 1 1 1 1 1
          1 1 1 1 1 1
          1 1 1 1 1 1
          1 1 1 1 1 1
          1 1 1 1 1 1
          1 1 1 1 1 1
          1 1 1 1 1 1
          1 1 1 1 1 1
          1 1 1 1 1 1
          1 1 1 1 1 1
          1 1 1 1 1 1
          1 1 1 1 1 1
          1 1 1 1 1 1
          1 1 1 1 1 1
          1 1 1 1 1 1
          1 1 1 1 1 1
          1 1 1 1 1 1
          1 1 1 1 1 1
          1 1 1 1 1 1
          1 1 1 1 1 1
          1 1 1 1 1 1
          1 1 1 1 1 1
          1 1 1 1 1 1
          1 1 1 1 1 1
          1 1 1 1 1 1
          1 1 1 1 1 1
          1 1 1 1 1 1
          1 1 1 1 1 1
          1 1 1 1 1 1
          1 1 1 1 1 1
          1 1 1 1 1 1
          1 1 1 1 1 1
          1 1 1 1 1 1
          1 1 1 1 1 1
          1 1 1 1 1 1
          1 1 1 1 1 1
          1 1 1 1 1 1
          1 1 1 1 1 1
          1 1 1 1 1 1
          1 1 1 1 1 1
          1 1 1 1 1 1
          1 1 1
        </DataArray>
        <DataArray type="Float64" Name="gradient_matprop_marker" format="ascii" RangeMin="0" RangeMax="0">
          0 0 0 0 0 0
          0 0 0 0 0 0
          0 0 0 0 0 0
          0 0 0 0 0 0
          0 0 0 0 0 0
          0 0 0 0 0 0
          0 0 0 0 0 0
          0 0 0 0 0 0
          0 0 0 0 0 0
          0 0 0 0 0 0
          0 0 0 0 0 0
          0 0 0 0 0 0
          0 0 0 0 0 0
          0 0 0 0 0 0
          0 0 0 0 0 0
          0 0 0 0 0 0
          0 0 0 0 0 0
          0 0 0 0 0 0
          0 0 0 0 0 0
          0 0 0 0 0 0
          0 0 0 0 0 0
          0 0 0 0 0 0
          0 0 0 0 0 0
          0 0 0 0 0 0
          0 0 0 0 0 0
          0 0 0 0 0 0
          0 0 0 0 0 0
          0 0 0 0 0 0
          0 0 0 0 0 0
          0 0 0 0 0 0
          0 0 0 0 0 0
          0 0 0 0 0 0
          0 0 0 0 0 0
          0 0 0 0 0 0
          0 0 0 0 0 0
          0 0 0 0 0 0
          0 0 0 0 0 0
          0 0 0 0 0 0
          0 0 0 0 0 0
          0 0 0 0 0 0
          0 0 0 0 0 0
          0 0 0 0 0 0
          0 0 0 0 0 0
          0 0 0 0 0 0
          0 0 0 0 0 0
          0 0 0 0 0 0
          0 0 0 0 0 0
          0 0 0 0 0 0
          0 0 0 0 0 0
          0 0 0 0 0 0
          0 0 0 0 0 0
          0 0 0 0 0 0
          0 0 0 0 0 0
          0 0 0 0 0 0
          0 0 0 0 0 0
          0 0 0 0 0 0
          0 0 0 0 0 0
          0 0 0 0 0 0
          0 0 0 0 0 0
          0 0 0 0 0 0
          0 0 0 0 0 0
          0 0 0 0 0 0
          0 0 0 0 0 0
          0 0 0 0 0 0
          0 0 0 0 0 0
          0 0 0 0 0 0
          0 0 0 0 0 0
          0 0 0
        </DataArray>
        <DataArray type="Float64" Name="combo" format="ascii" RangeMin="1" RangeMax="1">
          1 1 1 1 1 1
          1 1 1 1 1 1
          1 1 1 1 1 1
          1 1 1 1 1 1
          1 1 1 1 1 1
          1 1 1 1 1 1
          1 1 1 1 1 1
          1 1 1 1 1 1
          1 1 1 1 1 1
          1 1 1 1 1 1
          1 1 1 1 1 1
          1 1 1 1 1 1
          1 1 1 1 1 1
          1 1 1 1 1 1
          1 1 1 1 1 1
          1 1 1 1 1 1
          1 1 1 1 1 1
          1 1 1 1 1 1
          1 1 1 1 1 1
          1 1 1 1 1 1
          1 1 1 1 1 1
          1 1 1 1 1 1
          1 1 1 1 1 1
          1 1 1 1 1 1
          1 1 1 1 1 1
          1 1 1 1 1 1
          1 1 1 1 1 1
          1 1 1 1 1 1
          1 1 1 1 1 1
          1 1 1 1 1 1
          1 1 1 1 1 1
          1 1 1 1 1 1
          1 1 1 1 1 1
          1 1 1 1 1 1
          1 1 1 1 1 1
          1 1 1 1 1 1
          1 1 1 1 1 1
          1 1 1 1 1 1
          1 1 1 1 1 1
          1 1 1 1 1 1
          1 1 1 1 1 1
          1 1 1 1 1 1
          1 1 1 1 1 1
          1 1 1 1 1 1
          1 1 1 1 1 1
          1 1 1 1 1 1
          1 1 1 1 1 1
          1 1 1 1 1 1
          1 1 1 1 1 1
          1 1 1 1 1 1
          1 1 1 1 1 1
          1 1 1 1 1 1
          1 1 1 1 1 1
          1 1 1 1 1 1
          1 1 1 1 1 1
          1 1 1 1 1 1
          1 1 1 1 1 1
          1 1 1 1 1 1
          1 1 1 1 1 1
          1 1 1 1 1 1
          1 1 1 1 1 1
          1 1 1 1 1 1
          1 1 1 1 1 1
          1 1 1 1 1 1
          1 1 1 1 1 1
          1 1 1 1 1 1
          1 1 1 1 1 1
          1 1 1
        </DataArray>
        <DataArray type="Float64" Name="dHdT" format="ascii" RangeMin="25.80504522271045" RangeMax="29.5644212972705">
          25.811469934396474 25.81147073420199 25.81147013749698 25.811469720257726 25.811484589144115 25.81148390799213
          25.811485766792416 25.81148612535816 25.811472558601498 25.81147109817197 25.811482539516103 25.81148503491788
          25.811472504934574 25.811471119784166 25.811483467090426 25.811485456369365 25.811470074412966 25.811469928585474
          25.811486792063068 25.811487103272565 25.811469143600036 25.81146947731785 25.811488111295326 25.811487754125043
          25.811469540791975 25.811469506118982 25.811487625592694 25.81148766157221 25.811469637742444 25.811487530319653
          25.811469734633754 25.811487445648304 25.81146978275798 25.811487414482063 25.811469811035657 25.811487396954757
          25.81154553497714 25.811547312442197 25.811534983591287 25.811534066635026 25.81155021695229 25.81153652241604
          25.811543032636784 25.811532984892022 25.81152672274819 25.811524802053036 25.811520069938368 25.81152145747421
          25.811522654740365 25.81152259829291 25.811522827879788 25.81152293714725 25.81152288135787 25.811522845010053
          25.81139780367935 25.811398140878907 25.811474164776858 25.811473647940716 25.81140496326599 25.811478296434032
          25.81145348326326 25.811503433382892 25.811532155131196 25.811543677692214 25.811565373609334 25.81156082780131
          25.811550188674804 25.811549492202083 25.81155162960207 25.811553383502524 25.811555200253228 25.811556281993283
          25.81263799418014 25.81259043202907 25.812137321646496 25.812166242772953 25.81245304762111 25.81205722132619
          25.812145736600453 25.811891515192922 25.811755061973283 25.811686429572053 25.811583571615902 25.811594914285028
          25.811684211263923 25.811694491365767 25.811661395031262 25.81163729378539 25.811617797170822 25.81160625695415
          25.80504522271045 25.805515782305193 25.80816729880318 25.80788328061911 25.80671721633325 25.808877279222862
          25.808601796518438 25.809930839644785 25.81060585469988 25.81101678469354 25.8115225054539 25.811524880409547
          25.810818815301175 25.810721338527763 25.811037342112467 25.81125988277114 25.811427714687195 25.811527255365192
          25.85271789519542 25.849142249308667 25.83340863344167 25.835592471670573 25.84045793916256 25.828177661707034
          25.823133208624014 25.81867747797793 25.806038022418225 25.811313330806165 25.817675017574672 25.818467048145727
          25.815897384251507 25.81411986080908 25.812862453284296 26.28453477785076 26.284771063452013 25.983368578170857
          25.99267625645633 26.27386928876379 25.961245629560967 26.19131567603399 25.932211895092497 26.04419082491874
          25.89698498272927 25.82391599661979 25.826696958907817 25.8189689853865 25.81507937534441 25.812934579770747
          27.538987031876758 27.637146735625628 26.40857919255289 26.416927845709903 28.397821940210424 26.38608317444851
          28.876803520331315 26.21163486701889 29.5644212972705 26.128543510198725 25.828810173353496 25.83570442975845
          25.818263264086433 25.810381187903413 25.807585196404077 26.66225502434733 26.471178034676537 26.471387271196463
          27.099319517772116 27.114631595323203 26.817807509173907 26.81050894792385 26.469679951904446 27.15272690156013
          26.83589756225104 26.113329432814204 26.263877150762955 26.26695559202185 26.25596939739182 27.567008166299075
          27.164436983671273 27.149630624651238 27.202115172597637 26.414424868711713 26.67098550059626 26.46357913912749
          27.185354707329633 26.804957863600958 26.451633251058094 27.24886590169411 26.774619456546233 26.0887550019893
          26.24425246503324 26.22862087282474 27.953431658202838 27.249774753147612 27.33014077627747 26.39974992807719
          26.657978492502608 26.434519144430205 27.302666070010467 26.80031892656048 26.16512692033629 27.48447832196695
          26.85124709413466 26.050166184120627 26.16029061129073 26.08228196426743 28.62189015230622 27.513213175360626
          27.715846957664432 26.308563228172183 26.08690665988619 26.016160236495853 27.675282439639535 26.86911509941384
          25.98324539092973 27.748033063339104 26.851481367658856 25.947235795772652 26.050048854799073 26.015469842046272
          29.181437064819292 27.802169516226822 27.89228116690109 26.174297218363606 25.885758792655295 25.888458629317057
          25.918040789009908 25.921550790596662 25.87898915628714 25.909215815365975 25.82495976468792 25.829310699518505