<?xml version="1.0"?>
<VTKFile type="UnstructuredGrid" version="0.1" byte_order="LittleEndian" header_type="UInt32" compressor="vtkZLibDataCompressor">
  <UnstructuredGrid>
    <Piece NumberOfPoints="374" NumberOfCells="206">
      <PointData>
        <DataArray type="Int32" Name="libmesh_node_id" format="ascii" RangeMin="304" RangeMax="3136">
          304 409 416 629 630 631
          634 637 1199 1200 1201 1204
          1207 1222 1227 1239 1240 1241
          1242 1244 1245 1246 1247 1257
          1259 1261 1295 1325 1326 1329
          1330 1332 1334 1365 1367 1369
          1371 1620 1626 1629 1633 2243
          2244 2245 2246 2247 2248 2249
          2250 2251 2252 2253 2254 2255
          2256 2267 2268 2269 2270 2271
          2272 2273 2274 2275 2276 2287
          2288 2289 2290 2291 2292 2293
          2294 2295 2296 2304 2305 2306
          2307 2308 2309 2310 2375 2376
          2377 2378 2379 2380 2381 2382
          2383 2384 2392 2393 2394 2395
          2396 2397 2398 2409 2410 2411
          2412 2413 2414 2415 2416 2417
          2418 2489 2490 2492 2495 2497
          2498 2499 2500 2501 2502 2503
          2504 2505 2506 2508 2512 2514
          2515 2516 2517 2518 2519 2520
          2523 2524 2526 2529 2531 2532
          2533 2534 2535 2536 2537 2538
          2539 2540 2542 2546 2548 2549
          2550 2551 2552 2553 2554 2618
          2619 2620 2621 2622 2623 2624
          2632 2633 2634 2635 2636 2637
          2638 2646 2647 2648 2649 2650
          2651 2652 2660 2661 2662 2663
          2664 2665 2666 2742 2743 2744
          2745 2746 2747 2748 2749 2750
          2751 2824 2826 2899 2900 2901
          2902 2903 2904 2905 2906 2907
          2908 2919 2920 2921 2922 2923
          2924 2925 2926 2927 2928 2949
          2950 2953 2955 2956 2958 2969
          2971 2973 2975 2983 2984 2987
          2989 2990 2992 3003 3005 3007
          3009 3085 3086 3087 3088 3089
          3090 3091 3099 3100 3101 3102
          3103 3104 3105 3116 3118 3119
          3120 3122 3130 3131 3132 3133
          3134 3135 3136 1219 1221 410
          1223 1220 1225 1224 1228 1289
          1287 1258 1290 1288 1293 1292
          1294 657 1296 1509 1507 1570
          1573 1574 1571 1195 1196 1577
          1576 1202 1588 1586 2233 2234
          2235 2238 1197 2241 1198 2259
          2260 2263 2265 1203 2279 2280
          2282 1205 2285 1206 2298 2300
          2302 1208 2367 2368 2371 2373
          2386 2388 2390 1226 2401 2402
          2405 2407 2283 2284 2487 2488
          2286 2491 2493 2494 2496 2301
          2507 2303 2510 2509 2511 1243
          2513 2521 2522 2525 2527 2528
          2530 2541 2544 2543 2545 1248
          2547 2612 2614 2616 1256 2626
          2628 2630 2640 2642 2644 1260
          2654 2656 2658 1262 2733 2736
          2738 2740
        </DataArray>
        <DataArray type="Float64" Name="bounds" format="ascii" RangeMin="0" RangeMax="0">
          0 0 0 0 0 0
          0 0 0 0 0 0
          0 0 0 0 0 0
          0 0 0 0 0 0
          0 0 0 0 0 0
          0 0 0 0 0 0
          0 0 0 0 0 0
          0 0 0 0 0 0
          0 0 0 0 0 0
          0 0 0 0 0 0
          0 0 0 0 0 0
          0 0 0 0 0 0
          0 0 0 0 0 0
          0 0 0 0 0 0
          0 0 0 0 0 0
          0 0 0 0 0 0
          0 0 0 0 0 0
          0 0 0 0 0 0
          0 0 0 0 0 0
          0 0 0 0 0 0
          0 0 0 0 0 0
          0 0 0 0 0 0
          0 0 0 0 0 0
          0 0 0 0 0 0
          0 0 0 0 0 0
          0 0 0 0 0 0
          0 0 0 0 0 0
          0 0 0 0 0 0
          0 0 0 0 0 0
          0 0 0 0 0 0
          0 0 0 0 0 0
          0 0 0 0 0 0
          0 0 0 0 0 0
          0 0 0 0 0 0
          0 0 0 0 0 0
          0 0 0 0 0 0
          0 0 0 0 0 0
          0 0 0 0 0 0
          0 0 0 0 0 0
          0 0 0 0 0 0
          0 0 0 0 0 0
          0 0 0 0 0 0
          0 0 0 0 0 0
          0 0 0 0 0 0
          0 0 0 0 0 0
          0 0 0 0 0 0
          0 0 0 0 0 0
          0 0 0 0 0 0
          0 0 0 0 0 0
          0 0 0 0 0 0
          0 0 0 0 0 0
          0 0 0 0 0 0
          0 0 0 0 0 0
          0 0 0 0 0 0
          0 0 0 0 0 0
          0 0 0 0 0 0
          0 0 0 0 0 0
          0 0 0 0 0 0
          0 0 0 0 0 0
          0 0 0 0 0 0
          0 0 0 0 0 0
          0 0 0 0 0 0
          0 0
        </DataArray>
        <DataArray type="Float64" Name="gradient_error" format="ascii" RangeMin="6.062197310293688e-11" RangeMax="1.3954697779084703e-8">
          6.031565745077928e-9 4.3391104349065057e-10 4.206677193538711e-10 2.9544669584862264e-10 2.2392650702621195e-9 9.965814960331166e-10
          4.4311051374559994e-10 3.1204123625721464e-9 3.934713976947984e-10 5.77610026350469e-10 4.925088894840938e-10 3.105870595231275e-10
          1.8195333548917816e-9 2.698255757669548e-10 4.0241557658621667e-10 1.0473276053103132e-8 8.997845587514203e-9 5.4160559901488025e-9
          4.486709374916367e-9 2.3408398384345773e-9 1.03524004690393e-8 1.039250900831706e-8 5.54822456515415e-9 8.082878064204684e-10
          4.891147781861508e-10 1.0415275435326417e-9 3.828333991038511e-10 1.5801363489726579e-10 1.6478562849232135e-10 1.509214377523748e-10
          1.892623402581578e-10 1.8279022518009362e-10 2.1984666586543257e-10 3.0909409801242765e-10 2.7701653134324153e-10 3.9827078394407525e-10
          3.179988036335812e-10 1.3370626311032867e-10 2.1622560095308203e-10 2.939652010479941e-10 3.25504801966672e-10 2.8697722203909844e-10
          2.781382282901212e-10 4.3705897818396637e-10 4.2220174289626047e-10 1.8128247327317657e-10 2.8457247172660663e-10 2.748753550638878e-10
          2.5308472049269395e-10 3.8075582512714924e-10 2.479354987343395e-10 8.851347301836693e-10 8.505027210886898e-10 5.548805301919705e-10
          7.553321225392999e-10 2.169789396090088e-10 3.2146043043132506e-10 1.4201999803664855e-10 2.095140211839574e-10 1.7560281420229671e-10
          2.5482605374023385e-10 1.6609588174260824e-10 6.219142585050838e-10 4.052829181285892e-10 4.768781313315052e-10 1.7655876194487915e-9
          1.6864261295259112e-9 1.1601423802320502e-9 1.1074459314686615e-9 1.47133632936075e-9 9.646343429581208e-10 3.3630145736399788e-9
          3.196882521140917e-9 2.1256705758497704e-9 2.7467755756735373e-9 1.1770730557149026e-9 7.701338199293858e-10 8.694596845704377e-10
          5.677990200559029e-10 2.138165736230496e-9 1.409296128551309e-9 1.5194326709340107e-9 1.375254418561785e-10 1.8964648263139051e-10
          9.007869936454309e-11 1.2381483130305826e-10 1.209329280815371e-10 1.583945759992199e-10 1.0377318242130474e-10 3.409040345776318e-10
          2.2216724773551219e-10 2.596669347690725e-10 5.991723640685994e-10 3.906925609672777e-10 3.8770161583365834e-10 2.524802139256317e-10
          9.990988649131905e-10 6.527997816898278e-10 6.181129699892561e-10 1.8476935638574864e-10 2.3824142077976265e-10 1.2120477303400942e-10
          1.5512875389714955e-10 1.44711489299343e-10 1.7924306119986886e-10 1.1683259841358794e-10 3.6379183265107905e-10 2.3551991652243834e-10
          2.6422090303777667e-10 7.918120257372535e-9 7.553499900391962e-9 6.529234347822248e-9 1.0122411163299735e-8 5.670721888583925e-9
          5.392171334814829e-9 3.854000666032814e-9 3.6553232467243577e-9 4.6207691539032474e-9 3.1108728360393226e-9 7.741143037657191e-9
          7.443874575385516e-9 5.1816843434952915e-9 6.5274196349922215e-9 5.077660090819758e-9 7.1509860713826795e-9 3.551381796063919e-9
          2.368775778138033e-9 2.4552716159939553e-9 1.6224164625801939e-9 5.094571991694834e-9 3.448301075833969e-9 3.5097243096058854e-9
          1.08452351632932e-8 1.0807835714791262e-8 1.0212083438502861e-8 1.055415854419691e-8 8.31303334924752e-9 8.207845902193273e-9
          6.043532422792939e-9 5.903522535375037e-9 7.588528446548004e-9 5.331974679650667e-9 8.107241765927632e-9 8.156632355340178e-9
          5.976580764916647e-9 7.810640122975493e-9 8.52497299316582e-9 8.941032687432265e-9 6.173287401109207e-9 4.235517573270019e-9
          4.326664451050907e-9 2.909451933546154e-9 6.520122454168872e-9 4.500102141978408e-9 4.6247705727659664e-9 1.550517724925107e-9
          1.0169032594322777e-9 9.162172602616385e-10 5.973553287060269e-10 2.1666565111511513e-9 1.427924205500947e-9 1.2371349002269099e-9
          5.184590399983299e-10 3.35217626754062e-10 3.6982184270276043e-10 2.371499014135604e-10 6.773177924252074e-10 4.3890232020087776e-10
          3.985534491789269e-10 2.659866111754843e-9 1.7606834169325104e-9 1.491641264635697e-9 9.767518779888595e-10 2.8475611036197527e-9
          1.888326968053131e-9 1.5890522508344982e-9 7.997400761864874e-10 5.206382143728725e-10 4.1084640846480915e-10 3.094792038644693e-10
          8.458924673908384e-10 5.519199435675265e-10 4.3635089937640914e-10 2.041880290955524e-10 2.1351180829589742e-10 1.6529162240289478e-10
          1.6943713501872248e-10 1.629977386667152e-10 1.6010810843305945e-10 1.3210480791719723e-10 2.2283558749624247e-10 1.7358264763455017e-10
          1.572184781994036e-10 8.913373284476759e-10 6.287826112094055e-10 1.406076456856594e-10 9.925539938720252e-11 1.0731158268105545e-10
          2.4756197948808506e-10 1.5039968975841744e-10 1.5942119322215193e-10 1.1040169160309876e-10 4.123696238316415e-10 2.5070579845028804e-10
          2.540814448338807e-10 7.709001980347095e-11 9.799080927898011e-11 6.185623396029636e-11 7.63128862018065e-11 6.136452276830768e-11
          7.497296455818184e-11 6.062197310293688e-11 1.4844176104158057e-10 1.0234979868407315e-10 1.0833344955105617e-10 2.4874423677377585e-9
          2.354509894473974e-9 1.9934462524488575e-9 3.5763453898444742e-9 3.4079739191516327e-9 2.921571577440593e-9 1.5081312663486725e-9
          1.0270902840623899e-9 2.2186245560759685e-9 1.4902871953740187e-9 4.111062172642709e-9 3.984021194281851e-9 3.5345562480523477e-9
          4.173869461604281e-9 4.090657941039954e-9 3.7104217906974063e-9 2.7550114856610533e-9 1.8631126315586785e-9 2.9416420958751986e-9
          2.0033497442450287e-9 6.41995565300649e-10 3.9025743054316534e-10 3.766493692018228e-10 2.2866214717259888e-10 9.02532058778049e-10
          5.481908629756929e-10 5.087610436899583e-10 2.1060022009744604e-10 1.2830672648957768e-10 1.48659713277584e-10 9.200918037523503e-11
          2.7418623073146214e-10 1.6653268459772507e-10 1.8904850662060925e-10 1.11567349579163e-9 6.152756061690819e-10 3.734610884784782e-10
          1.1979028819809871e-9 6.563030410087717e-10 3.243881141040081e-10 1.9588059556593127e-10 2.21237435474159e-10 1.3236619339589084e-10
          3.436122836113121e-10 2.0716934611111646e-10 2.336117915082112e-10 7.052943077051586e-10 3.1940402136569703e-10 5.44931655286405e-10
          7.937889567110479e-10 6.113795567643757e-10 3.7167603102547173e-10 8.203905813538395e-10 6.883021809769259e-10 4.850698280923659e-10
          7.507437680227715e-10 6.562321276937666e-10 4.87823612656258e-10 6.074498664339629e-10 3.1870345894519386e-10 7.294511944667008e-10
          5.227050759007257e-10 8.367657451475324e-10 8.144028092959677e-10 3.0038721759736034e-10 6.390556666154548e-10 1.0063413986292406e-9
          4.6027795585135437e-10 4.232122552957518e-10 9.241889647289601e-10 9.698889872281179e-10 8.786645751980403e-10 3.303953041293289e-10
          7.197336633175888e-10 6.584678858752782e-10 2.292217278047972e-10 4.871345296368142e-10 4.1755184363517016e-10 6.524734539558656e-10
          6.3042180625216e-10 5.687910626977215e-10 1.3101084010222009e-9 1.2594499982291929e-9 1.1199927413583298e-9 3.256006688391027e-10
          4.804765218279835e-10 3.8117708830149937e-10 9.239031242602739e-10 7.098813291331719e-10 2.5800674106370155e-9 2.466938541452231e-9
          2.1584052571709325e-9 4.820918015390783e-9 4.590979607442647e-9 3.964459372177476e-9 1.7335867219560895e-9 1.2861145705561554e-9
          3.1084904539910145e-9 2.2266704094927547e-9 2.0754589456254518e-10 2.847412700902927e-10 2.388694403865652e-10 5.090683856636254e-10
          8.902805966139049e-10 5.786443857640302e-10 1.4750270338228494e-9 9.18565388825187e-10 2.783011889534182e-10 3.58393039223684e-10
          2.720019608725659e-10 5.466639297085956e-10 6.595931259138917e-9 6.295682781223862e-9 1.0551822327204404e-8 1.0092739693757444e-8
          5.470882122358038e-9 8.795103964915082e-9 1.3702772524414329e-8 1.3269947943493146e-8 1.1876975277920751e-8 4.328884513674917e-9
          6.927946979755736e-9 3.133930325216007e-9 3.555136975037788e-9 4.924804976897246e-9 9.569461409067725e-9 5.018032215005105e-9
          6.845065910077043e-9 1.3954697779084703e-8 1.3953987080826143e-8 1.3289129266203677e-8 1.3169135593474545e-8 1.3505767389978168e-8
          1.3443028773301144e-8 1.1247069561311152e-8 6.123396977773482e-9 8.25494138393939e-9 1.173276790704047e-8 6.5188743416586e-9
          8.748174258172829e-9 2.2715411894060226e-9 1.3554162714226613e-9 3.14861401459583e-9 1.8213287917547015e-9 7.774374696863485e-10
          4.873035563245536e-10 1.0091198267734631e-9 3.840846509569912e-9 2.18777228585715e-9 4.10185436863311e-9 2.327279537960351e-9
          1.1823309276634702e-9 6.171516273464005e-10 1.2464541712294693e-9 6.513470963389711e-10 3.069559014441624e-10 3.2227849964223124e-10
          2.3048546741240925e-10 3.3821411855561885e-10
        </DataArray>
        <DataArray type="Float64" Name="gradient_matprop_error" format="ascii" RangeMin="0" RangeMax="0">
          0 0 0 0 0 0
          0 0 0 0 0 0
          0 0 0 0 0 0
          0 0 0 0 0 0
          0 0 0 0 0 0
          0 0 0 0 0 0
          0 0 0 0 0 0
          0 0 0 0 0 0
          0 0 0 0 0 0
          0 0 0 0 0 0
          0 0 0 0 0 0
          0 0 0 0 0 0
          0 0 0 0 0 0
          0 0 0 0 0 0
          0 0 0 0 0 0
          0 0 0 0 0 0
          0 0 0 0 0 0
          0 0 0 0 0 0
          0 0 0 0 0 0
          0 0 0 0 0 0
          0 0 0 0 0 0
          0 0 0 0 0 0
          0 0 0 0 0 0
          0 0 0 0 0 0
          0 0 0 0 0 0
          0 0 0 0 0 0
          0 0 0 0 0 0
          0 0 0 0 0 0
          0 0 0 0 0 0
          0 0 0 0 0 0
          0 0 0 0 0 0
          0 0 0 0 0 0
          0 0 0 0 0 0
          0 0 0 0 0 0
          0 0 0 0 0 0
          0 0 0 0 0 0
          0 0 0 0 0 0
          0 0 0 0 0 0
          0 0 0 0 0 0
          0 0 0 0 0 0
          0 0 0 0 0 0
          0 0 0 0 0 0
          0 0 0 0 0 0
          0 0 0 0 0 0
          0 0 0 0 0 0
          0 0 0 0 0 0
          0 0 0 0 0 0
          0 0 0 0 0 0
          0 0 0 0 0 0
          0 0 0 0 0 0
          0 0 0 0 0 0
          0 0 0 0 0 0
          0 0 0 0 0 0
          0 0 0 0 0 0
          0 0 0 0 0 0
          0 0 0 0 0 0
          0 0 0 0 0 0
          0 0 0 0 0 0
          0 0 0 0 0 0
          0 0 0 0 0 0
          0 0 0 0 0 0
          0 0 0 0 0 0
          0 0
        </DataArray>
        <DataArray type="Float64" Name="initial_marker" format="ascii" RangeMin="0" RangeMax="2">
          2 1 1.5 0 2 2
          0.5 2 0.75 2 2 2
          2 0.5 2 2 2 2
          2 2 2 2 2 2
          1.25 2 0 0 0.25 0
          0 1.75 0 2 1 2
          1 0 0 0 0 2
          2 2 2 2 2 2
          2 2 1.75 2 2 2
          2 1 1.5 0.5 1.25 0
          1 1 2 2 2 2
          2 2 2 2 2 2
          2 2 2 2 2 2
          2 2 2 2 0 0.5
          0 0.5 0 0 0 1.5
          1.5 1 2 2 1.75 1.5
          2 2 2 0.5 0.75 0
          0.5 0 0 0 1.5 1.5
          1 2 2 2 2 2
          2 2 2 2 2 2
          2 2 2 2 2 2
          2 2 2 2 2 2
          2 2 2 2 2 2
          2 2 2 2 2 2
          2 2 2 2 2 2
          2 2 2 2 2 2
          2 2 2 2 2 2
          2 2 2 2 2 2
          2 2 2 2 2 2
          2 2 2 2 2 2
          2 2 2 1 1 1
          1 0 0 0 1 1
          0 2 2 1.25 1 0.6666666666666666
          2 1.75 1.5 1.3333333333333333 2 2
          2 0 0.5 0 0.5 0
          0 0 1.25 1 0.5 2
          2 2 2 2 2 2
          2 2 2 2 2 2
          2 2 2 2 2 2
          2 2 2 2 2 2
          2 2 1.75 1.5 1.5 1
          2 2 2 2 2 2
          2 2 2 2 2 2
          2 2 2 0 0 0
          0 1.25 0 0 0.75 0
          0 1.75 0 0 0 0
          0 0 0 0 0 0
          0 0 0 1 1 0
          0 0.25 0 0 2 2
          2 2 2 2 2 1.5
          1.75 1.25 2 2 2 2
          2 2 2 2 2 2
          2 2 0 0.75 0.5 1.75
          2 2 2 2 1 1.25
          0.5 1.75 2 2 2 2
          2 2 2 2 2 2
          2 2 2 2 2 2
          2 2 2 2 2 2
          2 2 2 2 2 2
          2 2 2 2 2 2
          1.6666666666666667 2 2 2 2 2
          2 2 2 2 1 1
          0 1
        </DataArray>
        <DataArray type="Float64" Name="markers_norefine" format="ascii" RangeMin="0" RangeMax="0">
          0 0 0 0 0 0
          0 0 0 0 0 0
          0 0 0 0 0 0
          0 0 0 0 0 0
          0 0 0 0 0 0
          0 0 0 0 0 0
          0 0 0 0 0 0
          0 0 0 0 0 0
          0 0 0 0 0 0
          0 0 0 0 0 0
          0 0 0 0 0 0
          0 0 0 0 0 0
          0 0 0 0 0 0
          0 0 0 0 0 0
          0 0 0 0 0 0
          0 0 0 0 0 0
          0 0 0 0 0 0
          0 0 0 0 0 0
          0 0 0 0 0 0
          0 0 0 0 0 0
          0 0 0 0 0 0
          0 0 0 0 0 0
          0 0 0 0 0 0
          0 0 0 0 0 0
          0 0 0 0 0 0
          0 0 0 0 0 0
          0 0 0 0 0 0
          0 0 0 0 0 0
          0 0 0 0 0 0
          0 0 0 0 0 0
          0 0 0 0 0 0
          0 0 0 0 0 0
          0 0 0 0 0 0
          0 0 0 0 0 0
          0 0 0 0 0 0
          0 0 0 0 0 0
          0 0 0 0 0 0
          0 0 0 0 0 0
          0 0 0 0 0 0
          0 0 0 0 0 0
          0 0 0 0 0 0
          0 0 0 0 0 0
          0 0 0 0 0 0
          0 0 0 0 0 0
          0 0 0 0 0 0
          0 0 0 0 0 0
          0 0 0 0 0 0
          0 0 0 0 0 0
          0 0 0 0 0 0
          0 0 0 0 0 0
          0 0 0 0 0 0
          0 0 0 0 0 0
          0 0 0 0 0 0
          0 0 0 0 0 0
          0 0 0 0 0 0
          0 0 0 0 0 0
          0 0 0 0 0 0
          0 0 0 0 0 0
          0 0 0 0 0 0
          0 0 0 0 0 0
          0 0 0 0 0 0
          0 0 0 0 0 0
          0 0
        </DataArray>
        <DataArray type="Float64" Name="markers_mustrefine" format="ascii" RangeMin="0" RangeMax="2">
          2 1 1.5 0 2 2
          0.5 2 0.75 2 2 2
          2 0.5 2 2 2 2
          2 2 2 2 2 2
          1.25 2 0 0 0.25 0
          0 1.75 0 2 1 2
          1 0 0 0 0 2
          2 2 2 2 2 2
          2 2 1.75 2 2 2
          2 1 1.5 0.5 1.25 0
          1 1 2 2 2 2
          2 2 2 2 2 2
          2 2 2 2 2 2
          2 2 2 2 0 0.5
          0 0.5 0 0 0 1.5
          1.5 1 2 2 1.75 1.5
          2 2 2 0.5 0.75 0
          0.5 0 0 0 1.5 1.5
          1 2 2 2 2 2
          2 2 2 2 2 2
          2 2 2 2 2 2
          2 2 2 2 2 2
          2 2 2 2 2 2
          2 2 2 2 2 2
          2 2 2 2 2 2
          2 2 2 2 2 2
          2 2 2 2 2 2
          2 2 2 2 2 2
          2 2 2 2 2 2
          2 2 2 2 2 2
          2 2 2 1 1 1
          1 0 0 0 1 1
          0 2 2 1.25 1 0.6666666666666666
          2 1.75 1.5 1.3333333333333333 2 2
          2 0 0.5 0 0.5 0
          0 0 1.25 1 0.5 2
          2 2 2 2 2 2
          2 2 2 2 2 2
          2 2 2 2 2 2
          2 2 2 2 2 2
          2 2 1.75 1.5 1.5 1
          2 2 2 2 2 2
          2 2 2 2 2 2
          2 2 2 0 0 0
          0 1.25 0 0 0.75 0
          0 1.75 0 0 0 0
          0 0 0 0 0 0
          0 0 0 1 1 0
          0 0.25 0 0 2 2
          2 2 2 2 2 1.5
          1.75 1.25 2 2 2 2
          2 2 2 2 2 2
          2 2 0 0.75 0.5 1.75
          2 2 2 2 1 1.25
          0.5 1.75 2 2 2 2
          2 2 2 2 2 2
          2 2 2 2 2 2
          2 2 2 2 2 2
          2 2 2 2 2 2
          2 2 2 2 2 2
          1.6666666666666667 2 2 2 2 2
          2 2 2 2 1 1
          0 1
        </DataArray>
        <DataArray type="Float64" Name="gradient_marker" format="ascii" RangeMin="1" RangeMax="1">
          1 1 1 1 1 1
          1 1 1 1 1 1
          1 1 1 1 1 1
          1 1 1 1 1 1
          1 1 1 1 1 1
          1 1 1 1 1 1
          1 1 1 1 1 1
          1 1 1 1 1 1
          1 1 1 1 1 1
          1 1 1 1 1 1
          1 1 1 1 1 1
          1 1 1 1 1 1
          1 1 1 1 1 1
          1 1 1 1 1 1
          1 1 1 1 1 1
          1 1 1 1 1 1
          1 1 1 1 1 1
          1 1 1 1 1 1
          1 1 1 1 1 1
          1 1 1 1 1 1
          1 1 1 1 1 1
          1 1 1 1 1 1
          1 1 1 1 1 1
          1 1 1 1 1 1
          1 1 1 1 1 1
          1 1 1 1 1 1
          1 1 1 1 1 1
          1 1 1 1 1 1
          1 1 1 1 1 1
          1 1 1 1 1 1
          1 1 1 1 1 1
          1 1 1 1 1 1
          1 1 1 1 1 1
          1 1 1 1 1 1
          1 1 1 1 1 1
          1 1 1 1 1 1
          1 1 1 1 1 1
          1 1 1 1 1 1
          1 1 1 1 1 1
          1 1 1 1 1 1
          1 1 1 1 1 1
          1 1 1 1 1 1
          1 1 1 1 1 1
          1 1 1 1 1 1
          1 1 1 1 1 1
          1 1 1 1 1 1
          1 1 1 1 1 1
          1 1 1 1 1 1
          1 1 1 1 1 1
          1 1 1 1 1 1
          1 1 1 1 1 1
          1 1 1 1 1 1
          1 1 1 1 1 1
          1 1 1 1 1 1
          1 1 1 1 1 1
          1 1 1 1 1 1
          1 1 1 1 1 1
          1 1 1 1 1 1
          1 1 1 1 1 1
          1 1 1 1 1 1
          1 1 1 1 1 1
          1 1 1 1 1 1
          1 1
        </DataArray>
        <DataArray type="Float64" Name="gradient_matprop_marker" format="ascii" RangeMin="0" RangeMax="0">
          0 0 0 0 0 0
          0 0 0 0 0 0
          0 0 0 0 0 0
          0 0 0 0 0 0
          0 0 0 0 0 0
          0 0 0 0 0 0
          0 0 0 0 0 0
          0 0 0 0 0 0
          0 0 0 0 0 0
          0 0 0 0 0 0
          0 0 0 0 0 0
          0 0 0 0 0 0
          0 0 0 0 0 0
          0 0 0 0 0 0
          0 0 0 0 0 0
          0 0 0 0 0 0
          0 0 0 0 0 0
          0 0 0 0 0 0
          0 0 0 0 0 0
          0 0 0 0 0 0
          0 0 0 0 0 0
          0 0 0 0 0 0
          0 0 0 0 0 0
          0 0 0 0 0 0
          0 0 0 0 0 0
          0 0 0 0 0 0
          0 0 0 0 0 0
          0 0 0 0 0 0
          0 0 0 0 0 0
          0 0 0 0 0 0
          0 0 0 0 0 0
          0 0 0 0 0 0
          0 0 0 0 0 0
          0 0 0 0 0 0
          0 0 0 0 0 0
          0 0 0 0 0 0
          0 0 0 0 0 0
          0 0 0 0 0 0
          0 0 0 0 0 0
          0 0 0 0 0 0
          0 0 0 0 0 0
          0 0 0 0 0 0
          0 0 0 0 0 0
          0 0 0 0 0 0
          0 0 0 0 0 0
          0 0 0 0 0 0
          0 0 0 0 0 0
          0 0 0 0 0 0
          0 0 0 0 0 0
          0 0 0 0 0 0
          0 0 0 0 0 0
          0 0 0 0 0 0
          0 0 0 0 0 0
          0 0 0 0 0 0
          0 0 0 0 0 0
          0 0 0 0 0 0
          0 0 0 0 0 0
          0 0 0 0 0 0
          0 0 0 0 0 0
          0 0 0 0 0 0
          0 0 0 0 0 0
          0 0 0 0 0 0
          0 0
        </DataArray>
        <DataArray type="Float64" Name="combo" format="ascii" RangeMin="1" RangeMax="1">
          1 1 1 1 1 1
          1 1 1 1 1 1
          1 1 1 1 1 1
          1 1 1 1 1 1
          1 1 1 1 1 1
          1 1 1 1 1 1
          1 1 1 1 1 1
          1 1 1 1 1 1
          1 1 1 1 1 1
          1 1 1 1 1 1
          1 1 1 1 1 1
          1 1 1 1 1 1
          1 1 1 1 1 1
          1 1 1 1 1 1
          1 1 1 1 1 1
          1 1 1 1 1 1
          1 1 1 1 1 1
          1 1 1 1 1 1
          1 1 1 1 1 1
          1 1 1 1 1 1
          1 1 1 1 1 1
          1 1 1 1 1 1
          1 1 1 1 1 1
          1 1 1 1 1 1
          1 1 1 1 1 1
          1 1 1 1 1 1
          1 1 1 1 1 1
          1 1 1 1 1 1
          1 1 1 1 1 1
          1 1 1 1 1 1
          1 1 1 1 1 1
          1 1 1 1 1 1
          1 1 1 1 1 1
          1 1 1 1 1 1
          1 1 1 1 1 1
          1 1 1 1 1 1
          1 1 1 1 1 1
          1 1 1 1 1 1
          1 1 1 1 1 1
          1 1 1 1 1 1
          1 1 1 1 1 1
          1 1 1 1 1 1
          1 1 1 1 1 1
          1 1 1 1 1 1
          1 1 1 1 1 1
          1 1 1 1 1 1
          1 1 1 1 1 1
          1 1 1 1 1 1
          1 1 1 1 1 1
          1 1 1 1 1 1
          1 1 1 1 1 1
          1 1 1 1 1 1
          1 1 1 1 1 1
          1 1 1 1 1 1
          1 1 1 1 1 1
          1 1 1 1 1 1
          1 1 1 1 1 1
          1 1 1 1 1 1
          1 1 1 1 1 1
          1 1 1 1 1 1
          1 1 1 1 1 1
          1 1 1 1 1 1
          1 1
        </DataArray>
        <DataArray type="Float64" Name="dHdT" format="ascii" RangeMin="25.82247277352238" RangeMax="37.60269040903581">
          29.797585040760985 25.873075737208474 25.915409999202097 25.852511596293365 26.63370727826387 26.17158241746673
          25.8696028545545 27.03047736025058 25.866792133823267 26.02855303060914 25.996658689727354 25.929785660787946
          26.472183022143756 25.872800858564915 25.961574775123037 32.16335329796931 30.40215332978368 28.32167093952429
          27.691086923913883 26.67604303492331 36.01993951282082 33.20075577062559 28.685365853895405 26.10656321435016
          25.899822195139322 26.192645385541585 25.850992519264153 25.824549590605816 25.835194045230036 25.823028037906777
          25.826803879170576 25.86733967178914 25.835714024900014 25.92246794525243 25.848487146464524 25.95435693772425
          25.854566979191645 25.82247277352238 25.827118974305236 25.831813950344454 25.833818102743173 25.93457724423218
          25.930863976890038 25.987707461022893 25.9817415036538 25.888946652709144 25.924983427366634 25.921209455480792
          25.920725866291956 25.965453082483144 25.91080913376868 26.148995527222315 26.13572380282866 26.01999298414883
          26.09963175028711 25.906100454567706 25.942416526150133 25.872947115097197 25.896007695377257 25.889714374983416
          25.91707942741682 25.879762582767448 26.049514697568895 25.964304110954675 25.99569481448445 26.4681262802156
          26.438232670023744 26.236542116349874 26.217005980025395 26.357665560321507 26.16436126658478 27.07721055541099
          27.008514306122787 26.589171908899676 26.82865471861575 26.248809623558316 26.09332048497708 26.13630043582774
          26.020244774422032 26.59624896316612 26.32043149614755 26.36855935051789 25.874771623964545 25.893991403434597
          25.85299891213647 25.865122576547975 25.868014384061652 25.883526385654235 25.85855259437316 25.94715739333057
          25.898862457546162 25.919443689566602 26.0381885808167 25.957052853635542 25.963272695603624 25.909279496933674
          26.18118026999798 26.049426452514314 26.044970294083154 25.89349095943465 25.911878010467213 25.865173486495074
          25.87700522127298 25.878937111551146 25.891614106010607 25.864455887591152 25.95522520340063 25.904883564048234
          25.920758203530447 29.41488064542054 29.16625695762414 28.54502879118008 31.662950534437506 28.162054098752897
          28.009969150042203 27.32209043143105 27.22767468904015 27.62244899030292 26.983870856118287 29.828745015080187
          29.519956426906067 28.142526784608602 28.76061299836067 27.80802511626772 28.9630618106346 27.147498305848327
          26.679354061478644 26.712965154781855 26.3967923693658 27.886327631936172 27.15124753399876 27.14246561427086
          34.907361849795215 34.208430267057274 32.34596830576172 35.270662899305286 31.65547744190762 31.144990909318963
          29.34477423432027 29.0680278591226 29.928769033894394 28.384775105425277 32.50225112413887 31.890615417472347
          29.475505959314514 30.450148533184922 30.134088466136326 30.654491138252318 28.60002699428498 27.595474998459952
          27.532414513496423 26.927054814109223 28.907219859773434 27.783401083286698 27.694365129515838 26.379505483827494
          26.178795900057708 26.151872106916326 26.030655566722295 26.60986139695954 26.32944075511455 26.268502436953863
          26.00928461867947 25.939610773651978 25.955888514039888 25.90614283261315 26.065638610561898 25.97556893135435
          25.9690266753047 26.807256590605057 26.458237668498786 26.363478854011948 26.168435901798183 26.88671437282699
          26.50995975499351 26.400655510263274 26.109762781818002 26.00346371232746 25.973254241590865 25.931141996293025
          26.126632234569676 26.0140809372046 25.980244330969164 25.901274933954404 25.90361980815557 25.883711574471178
          25.885164455282485 25.878791878947453 25.880003440470276 25.86710812134978 25.905964682356736 25.8866173360938
          25.88121500199309 26.12924046501132 26.035783977254784 25.86620851701552 25.84987098380769 25.855453584339333
          25.90222502430509 25.86683716515015 25.8727951909911 25.854089925826496 25.959489419322786 25.900984334079233
          25.905181688013638 25.84579583646613 25.853191994134665 25.83814099332141 25.843702851116042 25.84038171852264
          25.845648755544424 25.83814588465588 25.870620755042733 25.852677929748193 25.857681490962506 26.755598566636344
          26.697259459265084 26.54562328986697 27.363630081428198 27.256220656947356 26.98241905813997 26.354990838170878
          26.177288265903307 26.649692006913586 26.352787088736232 27.96451732455652 27.80445104582394 27.402331425494875
          28.224271313442085 28.040806967592793 27.58184789634814 26.92445900863902 26.509835096844697 27.04000186164742
          26.57435760855649 26.04022955575494 25.94900463404629 25.948118911998584 25.89432848705391 26.134787136345974
          26.005488973296615 25.99537836515831 25.89240489597987 25.861504536939748 25.872109996167488 25.84959844288585
          25.914824568284757 25.875098704859163 25.88624963148611 26.215690895419034 26.033949488082698 25.945368114709375
          26.248211431807192 26.049097072164795 25.932090081233348 25.885570843437478 25.896632716829625 25.864996983687522
          25.938687459574663 25.88956881086917 25.900538973663203 25.876269337021345 25.841136870624297 25.834127375775033
          25.86609998101434 25.95338989164093 25.84590543200713 25.886358833750265 25.93830052282143 25.84506457867905
          25.873069950461108 26.019388974267805 25.85083895428381 25.88633373665825 25.8391920410232 25.868021567227665
          25.894294441484853 25.836350174538104 25.873338224138347 25.834617559540348 25.858536359511703 25.878470484741356