<?xml version="1.0"?>
<VTKFile type="UnstructuredGrid" version="0.1" byte_order="LittleEndian" header_type="UInt32" compressor="vtkZLibDataCompressor">
  <UnstructuredGrid>
    <Piece NumberOfPoints="481" NumberOfCells="239">
      <PointData>
        <DataArray type="Int32" Name="libmesh_node_id" format="ascii" RangeMin="164" RangeMax="3895">
          194 248 255 281 360 361
          362 363 364 365 366 367
          368 369 370 371 372 373
          490 491 492 493 494 495
          496 497 498 499 524 525
          526 527 528 529 530 531
          532 533 534 535 536 537
          811 812 815 816 817 818
          819 820 823 827 828 830
          833 835 836 837 838 839
          840 841 842 843 844 845
          846 847 848 899 900 901
          902 903 904 905 906 907
          908 1020 1021 1022 1023 1024
          1025 1026 1027 1028 1029 1030
          1031 1032 1033 1034 1035 1036
          1038 1041 1043 1045 1047 1048
          1049 1050 1051 1052 1053 1054
          1055 1056 1546 1547 1548 1551
          1554 1578 1579 1581 1584 1595
          1596 1599 1601 1615 1616 1618
          1621 1631 1633 1635 1637 1638
          1639 1640 1641 1642 1643 1644
          1645 1646 1647 1648 1649 1650
          1651 1652 1653 1654 1655 1656
          1657 1658 1659 1660 1661 1662
          1663 1664 1665 1666 1667 1668
          1669 1670 1709 1710 1711 1712
          1713 1714 1715 1716 1717 1718
          1719 1720 1721 1722 1723 1724
          1725 1726 1727 1728 1729 1730
          1731 1732 1791 1792 1793 1794
          1795 1796 1797 1798 1799 1800
          1801 1802 1803 1804 1805 1806
          1807 1808 1809 1810 1811 1822
          1823 1824 1825 1826 1827 1828
          1829 1830 1831 3379 3380 3381
          3382 3383 3384 3385 3386 3387
          3388 3389 3390 3391 3392 3400
          3401 3402 3403 3404 3405 3406
          3407 3408 3409 3420 3421 3422
          3423 3424 3425 3426 3427 3428
          3429 3437 3438 3439 3440 3441
          3442 3443 3524 3614 3615 3616
          3617 3618 3619 3620 3621 3622
          3623 3631 3632 3633 3634 3635
          3636 3637 3648 3649 3650 3651
          3652 3653 3654 3655 3656 3657
          3665 3666 3667 3668 3669 3670
          3671 3736 3738 3740 3757 3759
          3761 3770 3771 3772 3773 3774
          3775 3776 3777 3778 3779 3780
          3781 3782 3783 3784 3785 3786
          3787 3788 3789 3790 3791 3792
          3793 3794 3795 3796 3797 3798
          3799 3800 3801 3802 3803 3804
          3805 3806 3807 3808 3809 3810
          3811 3812 3813 3814 3815 3816
          3817 3818 3819 3820 3821 3822
          3823 3824 3825 3826 3827 3828
          3829 3830 3831 3832 3833 3834
          3835 3836 3837 3838 3839 3840
          3841 3842 3843 3844 3845 3846
          3847 3848 3849 3850 3851 3852
          3853 3854 3855 3856 3857 3858
          3859 3860 3861 3862 3863 3864
          3865 3866 3867 3868 3869 3870
          3871 3872 3873 3874 3875 3876
          3877 3878 3879 3880 3881 3882
          3883 3884 3885 3886 3887 3888
          3889 3890 3891 3892 3893 3894
          3895 244 247 165 250 246
          249 252 251 164 271 272
          273 274 276 277 196 283
          282 279 284 195 400 403
          404 401 243 425 423 256
          430 429 484 485 486 489
          350 502 355 503 506 254
          508 1015 766 1016 1019 803
          1037 1039 1703 1704 1705 1708
          761
        </DataArray>
        <DataArray type="Float64" Name="bounds" format="ascii" RangeMin="0" RangeMax="0">
          0 0 0 0 0 0
          0 0 0 0 0 0
          0 0 0 0 0 0
          0 0 0 0 0 0
          0 0 0 0 0 0
          0 0 0 0 0 0
          0 0 0 0 0 0
          0 0 0 0 0 0
          0 0 0 0 0 0
          0 0 0 0 0 0
          0 0 0 0 0 0
          0 0 0 0 0 0
          0 0 0 0 0 0
          0 0 0 0 0 0
          0 0 0 0 0 0
          0 0 0 0 0 0
          0 0 0 0 0 0
          0 0 0 0 0 0
          0 0 0 0 0 0
          0 0 0 0 0 0
          0 0 0 0 0 0
          0 0 0 0 0 0
          0 0 0 0 0 0
          0 0 0 0 0 0
          0 0 0 0 0 0
          0 0 0 0 0 0
          0 0 0 0 0 0
          0 0 0 0 0 0
          0 0 0 0 0 0
          0 0 0 0 0 0
          0 0 0 0 0 0
          0 0 0 0 0 0
          0 0 0 0 0 0
          0 0 0 0 0 0
          0 0 0 0 0 0
          0 0 0 0 0 0
          0 0 0 0 0 0
          0 0 0 0 0 0
          0 0 0 0 0 0
          0 0 0 0 0 0
          0 0 0 0 0 0
          0 0 0 0 0 0
          0 0 0 0 0 0
          0 0 0 0 0 0
          0 0 0 0 0 0
          0 0 0 0 0 0
          0 0 0 0 0 0
          0 0 0 0 0 0
          0 0 0 0 0 0
          0 0 0 0 0 0
          0 0 0 0 0 0
          0 0 0 0 0 0
          0 0 0 0 0 0
          0 0 0 0 0 0
          0 0 0 0 0 0
          0 0 0 0 0 0
          0 0 0 0 0 0
          0 0 0 0 0 0
          0 0 0 0 0 0
          0 0 0 0 0 0
          0 0 0 0 0 0
          0 0 0 0 0 0
          0 0 0 0 0 0
          0 0 0 0 0 0
          0 0 0 0 0 0
          0 0 0 0 0 0
          0 0 0 0 0 0
          0 0 0 0 0 0
          0 0 0 0 0 0
          0 0 0 0 0 0
          0 0 0 0 0 0
          0 0 0 0 0 0
          0 0 0 0 0 0
          0 0 0 0 0 0
          0 0 0 0 0 0
          0 0 0 0 0 0
          0 0 0 0 0 0
          0 0 0 0 0 0
          0 0 0 0 0 0
          0 0 0 0 0 0
          0
        </DataArray>
        <DataArray type="Float64" Name="gradient_error" format="ascii" RangeMin="1.338583623521208e-12" RangeMax="1.1568207673716144e-9">
          3.999107881599561e-12 2.3373251124405597e-11 4.088735959212329e-11 5.634338059443006e-12 2.751268866511037e-11 7.397800951184841e-11
          2.52853740606786e-11 2.9303088625944905e-11 2.8125337187176963e-11 1.0687456144643512e-11 1.5375948318059046e-11 1.2265867129586548e-10
          1.2079231170505474e-10 3.782219693038318e-11 2.237094567020457e-10 4.710140422271623e-11 9.997036249443837e-12 1.3918133791514775e-10
          1.712162252253436e-11 2.5191134967152395e-11 1.9731106279146432e-11 6.051755947759564e-11 1.3230247737114539e-11 1.980272696341665e-11
          2.678577671776871e-11 3.326064741177043e-11 9.894450023451811e-11 3.3768826472120764e-11 6.039573349150209e-12 6.737317187574934e-12
          3.78315969637728e-12 5.9394552891926364e-12 4.285279309413232e-12 2.1947253178392574e-12 4.061142077996433e-12 7.435061025999661e-12
          8.082998440396582e-12 5.9275588381536076e-12 1.474681920679537e-12 5.147092167100899e-12 3.837004846579633e-12 8.730935854793504e-12
          3.522085658475558e-11 7.176284990529894e-11 3.11431977504608e-11 2.0084193995702675e-11 2.2567208342959373e-11 1.1006897099383696e-10
          1.3154373876646604e-10 3.868574934676025e-11 2.623230744782903e-11 9.605694995562928e-11 2.9727528506627244e-11 2.990785944662557e-11
          5.72157841745138e-11 1.1018075392905866e-11 1.1570695046752821e-11 1.6494572055529745e-11 1.2552628346921594e-11 9.147200072450039e-12
          8.883446452529158e-12 8.66373819785034e-12 1.2635803694181576e-11 1.4319505164520916e-11 8.356624509203e-12 9.60737237705304e-12
          1.1599608145091836e-11 7.062575803173771e-12 1.7738248838889727e-11 9.574642135761277e-11 1.158055724462774e-10 3.73720295094789e-11
          4.3246876811632834e-11 3.5518373403738664e-11 3.589544749117197e-11 1.9529075753941875e-11 1.3586472353494202e-10 4.9121724113786765e-11
          3.6272521578605273e-11 8.122658904543955e-12 7.80818170419377e-12 6.267976590025085e-12 9.133691518356813e-12 4.580179238214962e-12
          4.8071794187733755e-12 5.7214598165956746e-12 7.493704503843586e-12 1.1991909185315527e-11 6.635740214417972e-12 8.376041862713895e-11
          1.2304535712488794e-10 4.267875940210921e-11 5.189148900940984e-11 5.1792970006222406e-11 7.21191395482739e-11 3.9053033183854426e-11
          3.717646026199467e-11 2.9774563614997465e-11 3.948310964395913e-11 3.465246554754065e-11 1.2238303760401812e-11 1.5486656918850543e-11
          8.11206037379395e-12 8.678290481106946e-12 1.0247023946844664e-11 1.2187569219421617e-11 9.646260744448831e-12 1.8735010077299278e-11
          9.244520588419939e-12 1.4128114491998568e-11 8.216819322559381e-12 2.4119319490159088e-11 2.0140855553752232e-11 1.5084152250579678e-11
          2.412909257186075e-11 3.368747754761966e-11 2.7669606574606927e-11 2.5840162907001365e-11 6.877515447156869e-11 2.1855621328620787e-11
          2.4948516606737937e-11 1.7159429607233144e-11 2.7543220563418617e-11 1.8123352612445215e-10 1.2920507462823806e-10 4.713671370370334e-11
          1.598190920747202e-10 3.5904714469947486e-11 4.3905665851882434e-11 4.12706770862818e-11 8.807337287869471e-12 1.1672961334441549e-11
          1.4267943983684459e-11 1.5475751930108665e-11 6.8092729608693364e-12 1.984601760708651e-11 1.658152576242048e-11 1.3030952785066516e-11
          1.6481259130293174e-11 1.0223673676765229e-11 2.1739233419593354e-11 1.6543948076381647e-11 1.145218198497684e-11 1.3384425363207338e-11
          2.972829081008464e-11 2.1732309701079313e-11 8.005228723907079e-12 6.332417401442496e-12 1.1867841588069154e-11 8.360594542628526e-12
          3.640067997726781e-11 2.653725969626345e-11 7.530438850246815e-12 1.4040280882490882e-11 1.3474356068353129e-11 1.324517847207056e-11
          8.217538299821755e-12 1.1249847362016525e-11 1.119397364957818e-11 1.602181121111975e-11 6.417148295521072e-12 1.5077901377091932e-11
          1.2644293177057334e-11 1.8093631503396e-11 2.1832034927054117e-11 2.7385079210007688e-11 3.013297334776965e-11 3.942374690264442e-11
          1.5823845172410916e-11 1.2410270851791315e-11 2.1770788724006668e-11 3.293812349296126e-11 4.871452045751919e-11 3.1131306596222025e-11
          2.5581467233554705e-12 2.2957857504437455e-12 2.7753929480185814e-12 2.500950468510598e-12 1.4161526296688437e-12 1.338583623521208e-12
          1.3956193444969969e-12 2.0334247775320204e-12 2.2265079890026144e-12 1.4526550654727855e-12 2.9926391726816914e-12 2.70611518657745e-12
          1.3750860593251498e-12 2.4195912004732084e-12 7.58268290473245e-12 1.157441469973677e-11 4.443942371466624e-12 5.511808712067209e-12
          5.06858792683005e-12 6.7532721535714585e-12 3.893303988358413e-12 5.7304128887582084e-12 4.8257629626335e-12 6.558649353061686e-12
          5.49777435627907e-12 3.1134099189776697e-12 3.44218013045535e-12 3.0665776316260167e-12 3.921113036508791e-12 4.436899359496455e-12
          2.6909751327966833e-12 7.386885817365163e-12 6.169785749924641e-12 3.0197453442743637e-12 4.9526856824841184e-12 4.267701648968199e-12
          4.095256261255118e-12 7.65179795064629e-12 6.725384925286515e-12 2.6944225214400695e-12 3.596893470961246e-12 3.679884448515497e-12
          3.922810873542037e-12 5.7989718999267426e-12 3.762875426069747e-12 2.438265169466356e-11 2.278518384744041e-11 3.8025330057269387e-11
          3.5268407030263885e-11 1.0496204843680249e-11 1.7250231758028662e-11 1.5900713154224726e-11 1.854171790036418e-11 2.8178378697437166e-11
          1.4715382224481695e-11 7.531234775838034e-11 6.955675204435504e-11 3.1007669245086336e-11 5.480268868517902e-11 1.3459488801996433e-11
          1.9596810493032198e-11 9.073630251030529e-12 1.27434620002441e-11 1.1023257803481766e-11 1.5348347594448448e-11 1.0443166427884695e-11
          3.703997617593383e-11 2.003152841953812e-11 2.536013170202764e-11 1.3561661853581776e-10 1.2479168844233383e-10 5.971054624124952e-11
          5.508185499621416e-11 9.707349418283005e-11 4.320258262653718e-11 2.2072959122290902e-10 2.0269221780500272e-10 8.839845271066504e-11
          1.5625843787594664e-10 6.449770803849327e-11 2.9071206584423977e-11 3.732639741532651e-11 2.033323195862568e-11 1.018776878910607e-10
          4.5649282848194165e-11 5.7791792963356554e-11 1.595122293768731e-11 3.2234903409232693e-10 2.962415977328677e-10 1.3916398256723295e-10
          1.280506484122798e-10 2.2782061760731935e-10 9.922997881159101e-11 4.215635815916703e-10 3.881636044627778e-10 1.6690504208601535e-10
          2.9870922242528646e-10 1.4637850741135104e-10 6.502955111509593e-11 8.115972346483702e-11 3.694415317866197e-11 1.9028308512105905e-10
          8.391380726751381e-11 1.0375468002988305e-10 4.943623560773647e-10 4.560672523069752e-10 2.1226850161242084e-10 1.9569641816971652e-10
          3.5157580011437384e-10 1.5153148024625213e-10 5.211129846849745e-10 4.811275585531698e-10 2.063407365376568e-10 3.712141653307324e-10
          2.2311052869997245e-10 9.79721788734159e-11 1.2050126376056161e-10 5.450333846723757e-11 2.3530612210759424e-10 1.031790471598773e-10
          1.2667834443463716e-10 1.8923483862486825e-11 1.2495120231986161e-11 2.3726112440277237e-11 2.7075749519968053e-11 1.7150554086800737e-11
          2.832190925614556e-11 5.004790390114242e-12 4.883382114558471e-12 7.607909546277859e-12 7.103079710516153e-12 3.352346782821222e-12
          4.611636409414064e-12 4.622648140010812e-12 4.7619738390027e-12 6.598249874754447e-12 4.633659870607561e-12 1.4636979905364398e-11
          1.3434964984980716e-11 8.2429806228197e-12 1.1981106063732326e-11 2.544862128323555e-11 2.348774673329289e-11 1.4990990722203413e-11
          1.3895087962519274e-11 1.8510649811467566e-11 1.1058513148442591e-11 4.038851758482089e-11 3.728806841095658e-11 1.7648764819854008e-11
          2.932385983640268e-11 9.440106634273568e-12 1.2574644457834047e-11 6.138953268169313e-12 7.809495050853283e-12 7.402795206544228e-12
          9.654861476083202e-12 6.301149007656519e-12 1.9731851042099553e-11 9.673623518878585e-12 1.3188631166467935e-11 5.7814509386553e-11
          5.3328550529078835e-11 2.2974117928486338e-11 2.1267860264624306e-11 4.173341824830371e-11 1.6850309925174592e-11 7.46547018135014e-11
          6.887153824855551e-11 2.7502007441289707e-11 5.3794375685305044e-11 7.374282286649943e-12 6.854693328180644e-12 8.883311624873644e-12
          8.254212113511993e-12 4.434022984497708e-12 5.2119212240491815e-12 4.8527054915611075e-12 5.549894808424232e-12 6.647256165278475e-12
          3.930234722057107e-12 1.1536784150592351e-11 1.070573344743762e-11 5.896168244045542e-12 8.566737003538975e-12 2.7965594855361442e-11
          1.1548921867859577e-11 1.633714279413459e-11 8.366455353876777e-12 3.584439529328398e-11 1.4776333723232482e-11 2.082057195606318e-11
          3.958056408771318e-12 4.6547881379417095e-12 2.6548366038656445e-12 2.8704443508515616e-12 3.151427570405517e-12 3.6401765474768156e-12
          2.3739090166619412e-12 5.8959721392661465e-12 3.4155717205690818e-12 4.53315301573723e-12 8.724878098651357e-11 8.052109454378357e-11
          3.460374926232206e-11 3.2005409519676123e-11 6.283719834393693e-11 2.5240886827595317e-11 9.187445340767233e-11 8.480841762979881e-11
          3.366795954454021e-11 6.617166562365555e-11 1.3363173392732583e-11 1.2388881749411462e-11 7.379711068887113e-12 6.855982537239849e-12
          9.882119667621071e-12 5.480443757329107e-12 1.4045119447377808e-11 1.3020027502791026e-11 7.1910165850131225e-12 1.0375382850296909e-11
          4.165203041487009e-11 1.7071122493255622e-11 2.3950086226893228e-11 1.200956220701301e-11 4.379194015109052e-11 1.7917004414216185e-11
          2.5103831253038444e-11 6.760848858596379e-12 3.9181034190356045e-12 5.172048488040952e-12 3.207573329005582e-12 7.081273305772565e-12
          4.091115494770525e-12 5.406716469155558e-12 7.492750655455004e-12 8.6854456632859e-12 5.21618566152677e-12 5.678418784281807e-12
          5.426811108478225e-12 6.003550624022764e-12 4.175124479197777e-12 1.0804710334966089e-11 6.757910363846587e-12 7.156690657373304e-12
          1.2268070999504696e-11 7.683895075016565e-12 8.059041788142835e-12 5.474185745695715e-12 1.2804862000194012e-11 7.992621329376802e-12
          8.384992401106365e-12 8.958023730353902e-10 9.445624738030557e-11 1.734120252228539e-10 1.1568207673716144e-9 9.11326764687291e-10
          7.47519907240674e-11 9.348526690565098e-11 9.055978322574755e-10 4.80359948109346e-11 3.13809469959901e-11 2.9075886165325902e-11
          1.8773583016254846e-11 2.584255579985938e-11 1.2635409871626829e-11 1.3201512055991738e-11 4.223176190142074e-11 1.2254010974405004e-11
          2.2651028691514345e-11 3.2132192076215215e-11 3.749355881776872e-11 4.342749233810259e-11 2.891355451914827e-10 5.0467025330419005e-11
          6.416260760802525e-11 3.1107257019106747e-10 3.011842574109253e-10 5.965487771634424e-11 3.224020029729154e-10 3.2002835248963065e-10
          4.425475670667107e-11 2.9774362607216666e-10 1.4859886847497554e-10 1.0024082103701007e-10 2.3017063619193048e-10 3.653285821417345e-10
          4.767825166236948e-10 3.922997513284226e-10 6.417307597292998e-10 4.800248666541602e-10 1.6950512578330655e-10 1.0352251779804325e-9
          5.677499819798978e-10 2.508327200220314e-10 6.185524179623407e-10 4.613533954798804e-10 2.0761389421827195e-10 5.452745504733054e-10
          1.2613574971795892e-10 1.226027134007922e-10 7.733506049804028e-11 1.0065221361979463e-10 9.001029154414562e-11 7.936836946849666e-11
          2.9178968183823417e-10
        </DataArray>
        <DataArray type="Float64" Name="gradient_matprop_error" format="ascii" RangeMin="0" RangeMax="0">
          0 0 0 0 0 0
          0 0 0 0 0 0
          0 0 0 0 0 0
          0 0 0 0 0 0
          0 0 0 0 0 0
          0 0 0 0 0 0
          0 0 0 0 0 0
          0 0 0 0 0 0
          0 0 0 0 0 0
          0 0 0 0 0 0
          0 0 0 0 0 0
          0 0 0 0 0 0
          0 0 0 0 0 0
          0 0 0 0 0 0
          0 0 0 0 0 0
          0 0 0 0 0 0
          0 0 0 0 0 0
          0 0 0 0 0 0
          0 0 0 0 0 0
          0 0 0 0 0 0
          0 0 0 0 0 0
          0 0 0 0 0 0
          0 0 0 0 0 0
          0 0 0 0 0 0
          0 0 0 0 0 0
          0 0 0 0 0 0
          0 0 0 0 0 0
          0 0 0 0 0 0
          0 0 0 0 0 0
          0 0 0 0 0 0
          0 0 0 0 0 0
          0 0 0 0 0 0
          0 0 0 0 0 0
          0 0 0 0 0 0
          0 0 0 0 0 0
          0 0 0 0 0 0
          0 0 0 0 0 0
          0 0 0 0 0 0
          0 0 0 0 0 0
          0 0 0 0 0 0
          0 0 0 0 0 0
          0 0 0 0 0 0
          0 0 0 0 0 0
          0 0 0 0 0 0
          0 0 0 0 0 0
          0 0 0 0 0 0
          0 0 0 0 0 0
          0 0 0 0 0 0
          0 0 0 0 0 0
          0 0 0 0 0 0
          0 0 0 0 0 0
          0 0 0 0 0 0
          0 0 0 0 0 0
          0 0 0 0 0 0
          0 0 0 0 0 0
          0 0 0 0 0 0
          0 0 0 0 0 0
          0 0 0 0 0 0
          0 0 0 0 0 0
          0 0 0 0 0 0
          0 0 0 0 0 0
          0 0 0 0 0 0
          0 0 0 0 0 0
          0 0 0 0 0 0
          0 0 0 0 0 0
          0 0 0 0 0 0
          0 0 0 0 0 0
          0 0 0 0 0 0
          0 0 0 0 0 0
          0 0 0 0 0 0
          0 0 0 0 0 0
          0 0 0 0 0 0
          0 0 0 0 0 0
          0 0 0 0 0 0
          0 0 0 0 0 0
          0 0 0 0 0 0
          0 0 0 0 0 0
          0 0 0 0 0 0
          0 0 0 0 0 0
          0 0 0 0 0 0
          0
        </DataArray>
        <DataArray type="Float64" Name="initial_marker" format="ascii" RangeMin="0" RangeMax="2">
          0 0 0 0 0 0
          0.5 0 0 0 0 0
          0 0 2 0 0 0
          0 0 0 0 0 0
          0 0 0 0 0 0
          0 0 0 0 0 0
          0 0 0 0 0 0
          0 0 0 0 0 0
          0 0 0 2 1.75 0
          2 0 0 0 0 0
          0 0 0 0 0 0
          0 0 0 0 0 0
          0 0 0 0 0 0
          0 0 0 0 0 0
          0 0 0 0 0 0
          0 0 0 0 0 0
          0 0 0 0 0 0
          0 0 0 0 0 0
          0 0 0 0 0 0
          0 2 1.75 0.25 2 0
          0 0 0 2 2 2
          2 0.5 0 0.5 0 0
          0.5 0 0 0 0 0
          0 0 1.5 1.25 0 0.25
          2 2 0 0 0.5 0
          2 2 0 0.5 0 0
          0 0 0 0 0 0
          0 0 0 0 0 0
          0 0 0 0 0 0
          0 0 0 0 0 0
          0 0 0 0 0 0
          0 0 0 0 0 0
          0 0 0 0 0 0
          0 0 0 0 0 0
          0 0 0 0 0 0
          0 0 0 0 0 0
          0 0 0 2 1.5 2
          1.75 0.5 1.5 1.25 1 1.5
          1 2 2 2 2 0.5
          1 0 0.5 0 0.5 0
          1.75 1.3333333333333333 1.3333333333333333 2 2 2
          2 2 2 2 2 2
          2 2 1.75 1.75 1.3333333333333333 2
          2 2 1 2 2 2
          2 2 2 2 2 2
          2 2 2 2 2 2
          2 2 2 2 2 2
          2 2 2 2 2 2
          2 2 2 2 2 2
          2 1.25 0.5 1.5 1.5 1
          1.5 0 0 0.5 0.5 0
          0 0 0 0.5 0 1.5
          1.25 0.5 1 2 1.75 2
          1.5 1.5 1 2 2 2
          2 0.5 1 0 0.5 0
          0.5 0 1.75 1 1.3333333333333333 2
          2 2 2 2 1.75 2
          2 2 2 1 1 1
          1 0 0 0 0.5 0.75
          0 1 1 0 1 2
          1.25 1.5 0.6666666666666666 2 1.5 1.5
          0 0.25 0 0 0 0
          0 0.5 0 0 2 2
          2 2 2 2 2 2
          2 2 1 1 0 0
          1 0 1 1 0 1
          2 1.5 1.5 0.6666666666666666 2 1.5
          1.5 0.5 0 0 0 0.5
          0 0 0.5 0.5 0 0
          0 0 0 0.5 0 0
          0.5 0 0 0 0.5 0
          0 0 0 0 0 0
          0 0 0 0 0 0
          0 0 0 0 0 0
          0 0 0 0 0 0
          0 0 0 0 0 0
          0 0 0 0 0 0
          0 0 0 0 0 0
          0 0 0 0 0 0
          0 0 0 0 0 0
          0
        </DataArray>
        <DataArray type="Float64" Name="markers_norefine" format="ascii" RangeMin="0" RangeMax="0">
          0 0 0 0 0 0
          0 0 0 0 0 0
          0 0 0 0 0 0
          0 0 0 0 0 0
          0 0 0 0 0 0
          0 0 0 0 0 0
          0 0 0 0 0 0
          0 0 0 0 0 0
          0 0 0 0 0 0
          0 0 0 0 0 0
          0 0 0 0 0 0
          0 0 0 0 0 0
          0 0 0 0 0 0
          0 0 0 0 0 0
          0 0 0 0 0 0
          0 0 0 0 0 0
          0 0 0 0 0 0
          0 0 0 0 0 0
          0 0 0 0 0 0
          0 0 0 0 0 0
          0 0 0 0 0 0
          0 0 0 0 0 0
          0 0 0 0 0 0
          0 0 0 0 0 0
          0 0 0 0 0 0
          0 0 0 0 0 0
          0 0 0 0 0 0
          0 0 0 0 0 0
          0 0 0 0 0 0
          0 0 0 0 0 0
          0 0 0 0 0 0
          0 0 0 0 0 0
          0 0 0 0 0 0
          0 0 0 0 0 0
          0 0 0 0 0 0
          0 0 0 0 0 0
          0 0 0 0 0 0
          0 0 0 0 0 0
          0 0 0 0 0 0
          0 0 0 0 0 0
          0 0 0 0 0 0
          0 0 0 0 0 0
          0 0 0 0 0 0
          0 0 0 0 0 0
          0 0 0 0 0 0
          0 0 0 0 0 0
          0 0 0 0 0 0
          0 0 0 0 0 0
          0 0 0 0 0 0
          0 0 0 0 0 0
          0 0 0 0 0 0
          0 0 0 0 0 0
          0 0 0 0 0 0
          0 0 0 0 0 0
          0 0 0 0 0 0
          0 0 0 0 0 0
          0 0 0 0 0 0
          0 0 0 0 0 0
          0 0 0 0 0 0
          0 0 0 0 0 0
          0 0 0 0 0 0
          0 0 0 0 0 0
          0 0 0 0 0 0
          0 0 0 0 0 0
          0 0 0 0 0 0
          0 0 0 0 0 0
          0 0 0 0 0 0
          0 0 0 0 0 0
          0 0 0 0 0 0
          0 0 0 0 0 0
          0 0 0 0 0 0
          0 0 0 0 0 0
          0 0 0 0 0 0
          0 0 0 0 0 0
          0 0 0 0 0 0
          0 0 0 0 0 0
          0 0 0 0 0 0
          0 0 0 0 0 0
          0 0 0 0 0 0
          0 0 0 0 0 0
          0
        </DataArray>
        <DataArray type="Float64" Name="markers_mustrefine" format="ascii" RangeMin="0" RangeMax="2">
          0 0 0 0 0 0
          0.5 0 0 0 0 0
          0 0 2 0 0 0
          0 0 0 0 0 0
          0 0 0 0 0 0
          0 0 0 0 0 0
          0 0 0 0 0 0
          0 0 0 0 0 0
          0 0 0 2 1.75 0
          2 0 0 0 0 0
          0 0 0 0 0 0
          0 0 0 0 0 0
          0 0 0 0 0 0
          0 0 0 0 0 0
          0 0 0 0 0 0
          0 0 0 0 0 0
          0 0 0 0 0 0
          0 0 0 0 0 0
          0 0 0 0 0 0
          0 2 1.75 0.25 2 0
          0 0 0 2 2 2
          2 0.5 0 0.5 0 0
          0.5 0 0 0 0 0
          0 0 1.5 1.25 0 0.25
          2 2 0 0 0.5 0
          2 2 0 0.5 0 0
          0 0 0 0 0 0
          0 0 0 0 0 0
          0 0 0 0 0 0
          0 0 0 0 0 0
          0 0 0 0 0 0
          0 0 0 0 0 0
          0 0 0 0 0 0
          0 0 0 0 0 0
          0 0 0 0 0 0
          0 0 0 0 0 0
          0 0 0 2 1.5 2
          1.75 0.5 1.5 1.25 1 1.5
          1 2 2 2 2 0.5
          1 0 0.5 0 0.5 0
          1.75 1.3333333333333333 1.3333333333333333 2 2 2
          2 2 2 2 2 2
          2 2 1.75 1.75 1.3333333333333333 2
          2 2 1 2 2 2
          2 2 2 2 2 2
          2 2 2 2 2 2
          2 2 2 2 2 2
          2 2 2 2 2 2
          2 2 2 2 2 2
          2 1.25 0.5 1.5 1.5 1
          1.5 0 0 0.5 0.5 0
          0 0 0 0.5 0 1.5
          1.25 0.5 1 2 1.75 2
          1.5 1.5 1 2 2 2
          2 0.5 1 0 0.5 0
          0.5 0 1.75 1 1.3333333333333333 2
          2 2 2 2 1.75 2
          2 2 2 1 1 1
          1 0 0 0 0.5 0.75
          0 1 1 0 1 2
          1.25 1.5 0.6666666666666666 2 1.5 1.5
          0 0.25 0 0 0 0
          0 0.5 0 0 2 2
          2 2 2 2 2 2
          2 2 1 1 0 0
          1 0 1 1 0 1
          2 1.5 1.5 0.6666666666666666 2 1.5
          1.5 0.5 0 0 0 0.5
          0 0 0.5 0.5 0 0
          0 0 0 0.5 0 0
          0.5 0 0 0 0.5 0
          0 0 0 0 0 0
          0 0 0 0 0 0
          0 0 0 0 0 0
          0 0 0 0 0 0
          0 0 0 0 0 0
          0 0 0 0 0 0
          0 0 0 0 0 0
          0 0 0 0 0 0
          0 0 0 0 0 0
          0
        </DataArray>
        <DataArray type="Float64" Name="gradient_marker" format="ascii" RangeMin="1" RangeMax="1">
          1 1 1 1 1 1
          1 1 1 1 1 1
          1 1 1 1 1 1
          1 1 1 1 1 1
          1 1 1 1 1 1
          1 1 1 1 1 1
          1 1 1 1 1 1
          1 1 1 1 1 1
          1 1 1 1 1 1
          1 1 1 1 1 1
          1 1 1 1 1 1
          1 1 1 1 1 1
          1 1 1 1 1 1
          1 1 1 1 1 1
          1 1 1 1 1 1
          1 1 1 1 1 1
          1 1 1 1 1 1
          1 1 1 1 1 1
          1 1 1 1 1 1
          1 1 1 1 1 1
          1 1 1 1 1 1
          1 1 1 1 1 1
          1 1 1 1 1 1
          1 1 1 1 1 1
          1 1 1 1 1 1
          1 1 1 1 1 1
          1 1 1 1 1 1
          1 1 1 1 1 1
          1 1 1 1 1 1
          1 1 1 1 1 1
          1 1 1 1 1 1
          1 1 1 1 1 1
          1 1 1 1 1 1
          1 1 1 1 1 1
          1 1 1 1 1 1
          1 1 1 1 1 1
          1 1 1 1 1 1
          1 1 1 1 1 1
          1 1 1 1 1 1
          1 1 1 1 1 1
          1 1 1 1 1 1
          1 1 1 1 1 1
          1 1 1 1 1 1
          1 1 1 1 1 1
          1 1 1 1 1 1
          1 1 1 1 1 1
          1 1 1 1 1 1
          1 1 1 1 1 1
          1 1 1 1 1 1
          1 1 1 1 1 1
          1 1 1 1 1 1
          1 1 1 1 1 1
          1 1 1 1 1 1
          1 1 1 1 1 1
          1 1 1 1 1 1
          1 1 1 1 1 1
          1 1 1 1 1 1
          1 1 1 1 1 1
          1 1 1 1 1 1
          1 1 1 1 1 1
          1 1 1 1 1 1
          1 1 1 1 1 1
          1 1 1 1 1 1
          1 1 1 1 1 1
          1 1 1 1 1 1
          1 1 1 1 1 1
          1 1 1 1 1 1
          1 1 1 1 1 1
          1 1 1 1 1 1
          1 1 1 1 1 1
          1 1 1 1 1 1
          1 1 1 1 1 1
          1 1 1 1 1 1
          1 1 1 1 1 1
          1 1 1 1 1 1
          1 1 1 1 1 1
          1 1 1 1 1 1
          1 1 1 1 1 1
          1 1 1 1 1 1
          1 1 1 1 1 1
          1
        </DataArray>
        <DataArray type="Float64" Name="gradient_matprop_marker" format="ascii" RangeMin="0" RangeMax="0">
          0 0 0 0 0 0
          0 0 0 0 0 0
          0 0 0 0 0 0
          0 0 0 0 0 0
          0 0 0 0 0 0
          0 0 0 0 0 0
          0 0 0 0 0 0
          0 0 0 0 0 0
          0 0 0 0 0 0
          0 0 0 0 0 0
          0 0 0 0 0 0
          0 0 0 0 0 0
          0 0 0 0 0 0
          0 0 0 0 0 0
          0 0 0 0 0 0
          0 0 0 0 0 0
          0 0 0 0 0 0
          0 0 0 0 0 0
          0 0 0 0 0 0
          0 0 0 0 0 0
          0 0 0 0 0 0
          0 0 0 0 0 0
          0 0 0 0 0 0
          0 0 0 0 0 0
          0 0 0 0 0 0
          0 0 0 0 0 0
          0 0 0 0 0 0
          0 0 0 0 0 0
          0 0 0 0 0 0
          0 0 0 0 0 0
          0 0 0 0 0 0
          0 0 0 0 0 0
          0 0 0 0 0 0
          0 0 0 0 0 0
          0 0 0 0 0 0
          0 0 0 0 0 0
          0 0 0 0 0 0
          0 0 0 0 0 0
          0 0 0 0 0 0
          0 0 0 0 0 0
          0 0 0 0 0 0
          0 0 0 0 0 0
          0 0 0 0 0 0
          0 0 0 0 0 0
          0 0 0 0 0 0
          0 0 0 0 0 0
          0 0 0 0 0 0
          0 0 0 0 0 0
          0 0 0 0 0 0
          0 0 0 0 0 0
          0 0 0 0 0 0
          0 0 0 0 0 0
          0 0 0 0 0 0
          0 0 0 0 0 0
          0 0 0 0 0 0
          0 0 0 0 0 0
          0 0 0 0 0 0
          0 0 0 0 0 0
          0 0 0 0 0 0
          0 0 0 0 0 0
          0 0 0 0 0 0
          0 0 0 0 0 0
          0 0 0 0 0 0
          0 0 0 0 0 0
          0 0 0 0 0 0
          0 0 0 0 0 0
          0 0 0 0 0 0
          0 0 0 0 0 0
          0 0 0 0 0 0
          0 0 0 0 0 0
          0 0 0 0 0 0
          0 0 0 0 0 0
          0 0 0 0 0 0
          0 0 0 0 0 0
          0 0 0 0 0 0
          0 0 0 0 0 0
          0 0 0 0 0 0
          0 0 0 0 0 0
          0 0 0 0 0 0
          0 0 0 0 0 0
          0
        </DataArray>
        <DataArray type="Float64" Name="combo" format="ascii" RangeMin="1" RangeMax="1">
          1 1 1 1 1 1
          1 1 1 1 1 1
          1 1 1 1 1 1
          1 1 1 1 1 1
          1 1 1 1 1 1
          1 1 1 1 1 1
          1 1 1 1 1 1
          1 1 1 1 1 1
          1 1 1 1 1 1
          1 1 1 1 1 1
          1 1 1 1 1 1
          1 1 1 1 1 1
          1 1 1 1 1 1
          1 1 1 1 1 1
          1 1 1 1 1 1
          1 1 1 1 1 1
          1 1 1 1 1 1
          1 1 1 1 1 1
          1 1 1 1 1 1
          1 1 1 1 1 1
          1 1 1 1 1 1
          1 1 1 1 1 1
          1 1 1 1 1 1
          1 1 1 1 1 1
          1 1 1 1 1 1
          1 1 1 1 1 1
          1 1 1 1 1 1
          1 1 1 1 1 1
          1 1 1 1 1 1
          1 1 1 1 1 1
          1 1 1 1 1 1
          1 1 1 1 1 1
          1 1 1 1 1 1
          1 1 1 1 1 1
          1 1 1 1 1 1
          1 1 1 1 1 1
          1 1 1 1 1 1
          1 1 1 1 1 1
          1 1 1 1 1 1
          1 1 1 1 1 1
          1 1 1 1 1 1
          1 1 1 1 1 1
          1 1 1 1 1 1
          1 1 1 1 1 1
          1 1 1 1 1 1