<?xml version="1.0"?>
<VTKFile type="UnstructuredGrid" version="0.1" byte_order="LittleEndian" header_type="UInt32" compressor="vtkZLibDataCompressor">
  <UnstructuredGrid>
    <Piece NumberOfPoints="408" NumberOfCells="234">
      <PointData>
        <DataArray type="Int32" Name="libmesh_node_id" format="ascii" RangeMin="348" RangeMax="3110">
          348 356 357 753 767 771
          772 773 774 775 776 777
          778 779 780 781 782 787
          788 792 794 798 799 1301
          1307 1308 1309 1330 1331 1332
          1370 1371 1373 1376 1378 1379
          1380 1381 1382 1383 1384 1385
          1386 1387 1389 1393 1395 1396
          1399 1400 1401 1404 1405 1407
          1410 1412 1413 1414 1415 1416
          1417 1418 1419 1420 1421 1423
          1425 1427 1429 1430 1431 1432
          1433 1434 1435 1436 1437 1438
          1439 1440 1441 1442 1443 1444
          1445 1456 1460 1470 1471 1472
          1473 1474 1475 1476 1477 1478
          1479 1490 1494 2318 2325 2326
          2327 2328 2475 2489 2490 2492
          2495 2501 2503 2504 2505 2506
          2507 2508 2509 2510 2511 2512
          2513 2514 2515 2516 2517 2518
          2519 2520 2521 2522 2523 2524
          2525 2526 2527 2528 2529 2530
          2531 2532 2533 2534 2535 2536
          2549 2550 2552 2555 2565 2567
          2569 2583 2584 2586 2589 2599
          2601 2603 2605 2606 2607 2608
          2609 2610 2611 2612 2613 2614
          2615 2616 2617 2618 2619 2620
          2621 2622 2623 2624 2625 2626
          2627 2628 2629 2630 2631 2632
          2633 2634 2635 2636 2637 2638
          2639 2640 2641 2642 2643 2644
          2645 2646 2647 2648 2649 2650
          2651 2652 2653 2654 2655 2656
          2657 2658 2659 2660 2661 2662
          2663 2664 2665 2666 2667 2668
          2669 2670 2671 2672 2673 2674
          2675 2676 2677 2678 2679 2680
          2681 2682 2683 2684 2685 2686
          2687 2688 2689 2692 2697 2698
          2699 2700 2701 2702 2703 2704
          2705 2706 2707 2708 2709 2710
          2711 2712 2713 2714 2715 2716
          2717 2718 2719 2720 2721 2722
          2723 2724 2725 2726 2727 2728
          2729 2730 2731 2772 2773 2775
          2790 2792 2802 2807 2808 2809
          2820 2821 2822 2823 2824 2825
          2827 2828 2829 2878 2902 2903
          2904 2905 2906 2907 2908 2909
          2910 2911 2912 2913 2914 2915
          2916 2917 2918 2919 2920 2921
          2922 2923 2924 2925 2926 2927
          2928 2929 2930 2931 2932 2933
          2934 2935 2936 2937 2938 2939
          2940 2941 2942 2943 2944 2945
          2946 2947 2948 2949 2950 2951
          2952 2953 2954 2955 2956 2957
          2958 2959 2960 2961 2962 2963
          2964 2965 2966 2967 2968 2969
          2970 2971 2974 2976 2977 2979
          2990 2992 2994 2996 3004 3005
          3008 3010 3011 3013 3024 3026
          3028 3030 3038 3039 3040 3041
          3042 3043 3045 3046 3047 3058
          3059 3060 3061 3062 3063 3065
          3066 3067 3078 3082 3106 3110
        </DataArray>
        <DataArray type="Float64" Name="bounds" format="ascii" RangeMin="0" RangeMax="0">
          0 0 0 0 0 0
          0 0 0 0 0 0
          0 0 0 0 0 0
          0 0 0 0 0 0
          0 0 0 0 0 0
          0 0 0 0 0 0
          0 0 0 0 0 0
          0 0 0 0 0 0
          0 0 0 0 0 0
          0 0 0 0 0 0
          0 0 0 0 0 0
          0 0 0 0 0 0
          0 0 0 0 0 0
          0 0 0 0 0 0
          0 0 0 0 0 0
          0 0 0 0 0 0
          0 0 0 0 0 0
          0 0 0 0 0 0
          0 0 0 0 0 0
          0 0 0 0 0 0
          0 0 0 0 0 0
          0 0 0 0 0 0
          0 0 0 0 0 0
          0 0 0 0 0 0
          0 0 0 0 0 0
          0 0 0 0 0 0
          0 0 0 0 0 0
          0 0 0 0 0 0
          0 0 0 0 0 0
          0 0 0 0 0 0
          0 0 0 0 0 0
          0 0 0 0 0 0
          0 0 0 0 0 0
          0 0 0 0 0 0
          0 0 0 0 0 0
          0 0 0 0 0 0
          0 0 0 0 0 0
          0 0 0 0 0 0
          0 0 0 0 0 0
          0 0 0 0 0 0
          0 0 0 0 0 0
          0 0 0 0 0 0
          0 0 0 0 0 0
          0 0 0 0 0 0
          0 0 0 0 0 0
          0 0 0 0 0 0
          0 0 0 0 0 0
          0 0 0 0 0 0
          0 0 0 0 0 0
          0 0 0 0 0 0
          0 0 0 0 0 0
          0 0 0 0 0 0
          0 0 0 0 0 0
          0 0 0 0 0 0
          0 0 0 0 0 0
          0 0 0 0 0 0
          0 0 0 0 0 0
          0 0 0 0 0 0
          0 0 0 0 0 0
          0 0 0 0 0 0
          0 0 0 0 0 0
          0 0 0 0 0 0
          0 0 0 0 0 0
          0 0 0 0 0 0
          0 0 0 0 0 0
          0 0 0 0 0 0
          0 0 0 0 0 0
          0 0 0 0 0 0
        </DataArray>
        <DataArray type="Float64" Name="gradient_error" format="ascii" RangeMin="3.3075208526143474e-9" RangeMax="2.8279156947074463e-7">
          1.63612375121271e-7 2.7237135828308617e-8 8.014640432735435e-8 2.8279156947074463e-7 5.891630789813453e-9 4.872349089430098e-8
          2.0997144202223775e-7 5.8110901140615776e-8 1.648591585632237e-7 1.230160051811877e-7 5.6871122709528013e-8 2.223344570539384e-8
          2.042990940067491e-7 1.7505972263803032e-7 1.6790283424455797e-7 4.515317341292289e-8 1.6632210366004466e-8 4.6581467343210734e-8
          3.3692679746893155e-8 8.487893863547553e-8 3.307705055596422e-8 1.070121463474012e-7 4.228594066163233e-8 1.8762689779469967e-7
          1.974734859415251e-7 1.6746564125841826e-7 1.0332211853202944e-7 5.107028248118654e-8 4.248033178535552e-8 4.52203296253158e-9
          1.3350637815000691e-7 1.8813341009957948e-7 1.857519023716916e-7 1.2092418225122762e-7 1.2417553647568674e-7 1.7558858788487934e-7
          1.0658949569860621e-7 1.5071074466375193e-7 1.6814471998419483e-7 1.409102787044905e-7 5.545600611506029e-8 1.233978794601008e-7
          1.1558031396953694e-7 1.9501054214595008e-7 9.088061930689756e-8 1.5812481944325951e-7 7.462540862374947e-8 5.7457722225302844e-8
          1.3600217893375828e-7 1.0796484035182987e-7 6.87788028526194e-8 4.0997568389879414e-8 5.4212164143395685e-8 1.8701118634001178e-7
          5.37064375703382e-8 4.7228077706930885e-8 6.479304149985746e-8 5.4688073388037546e-8 7.099095136047001e-8 1.7856928598145765e-7
          1.5473737521236283e-7 1.9555838150803987e-8 6.479297253667409e-8 7.312475602667413e-8 1.9838424814812e-7 2.1771341286210248e-7
          1.191072688655876e-7 2.409233836157707e-7 1.9376195607319297e-7 1.5789357905318092e-7 9.443942167148568e-8 5.131670615805841e-8
          2.170721405388761e-7 1.788396398142013e-7 1.0464192625089889e-7 6.035513454534768e-8 7.825891788835115e-8 2.0597508468914897e-8
          1.6041003113565574e-8 6.821213371146945e-8 7.0891681774199525e-9 5.4993176295902574e-8 7.730206979054933e-8 3.867852280421808e-8
          8.433993427246523e-8 2.6482803909714775e-8 5.056522785300493e-8 5.671458334792586e-8 6.941347073063827e-8 4.8706450388408127e-8
          5.8140131920696586e-8 8.665433194631284e-8 2.8083996007335485e-8 4.478630193043055e-8 7.409856392886743e-8 6.321586771687671e-8
          1.0037284043720397e-7 7.518944853798671e-8 8.581768231266292e-8 8.984899980029005e-9 8.259717302810803e-9 7.679445646378628e-9
          5.511279748267985e-9 6.379048576187765e-9 4.905234108893808e-8 4.956353142760542e-8 4.941722671451918e-8 4.927092200143294e-8
          4.963071835421864e-8 5.38771773009566e-8 5.0782756692123724e-8 4.9960124775606416e-8 4.979813286228946e-8 4.913749285908911e-8
          4.9569234851793405e-8 4.812769557773686e-8 4.4755252970071015e-8 4.66861563036803e-8 5.1684060366741146e-8 5.12739167811637e-8
          5.295030666420756e-8 5.226750838605606e-8 5.0863773195586255e-8 5.1584710107904575e-8 5.247669491214404e-8 5.338365800007243e-8
          5.644168430571231e-8 5.529923760712257e-8 5.32381605178782e-8 5.2190945639402824e-8 5.2160033483101614e-8 5.064390782819083e-8
          5.114373076092744e-8 4.912778217328005e-8 5.7395471707160934e-8 5.8519779129074715e-8 5.9144637471823125e-8 6.031388279781413e-8
          5.6289409332757605e-8 5.7459535392889986e-8 5.526234802014915e-8 5.7128560389615674e-8 5.500752977160474e-8 5.2603645487765996e-8
          4.7014979888053414e-8 4.964291564283153e-8 5.3018339868443946e-8 4.70002854961945e-8 5.470655514054501e-8 5.564728194181176e-8
          5.656207075284401e-8 2.9106035301610404e-8 3.988831166232372e-8 5.4221379716948504e-8 3.558255924958447e-8 5.797147751459259e-8
          5.81707836183252e-8 5.835474650363057e-8 5.159134679894131e-8 5.4558765112577164e-8 5.5536960113332734e-8 5.883106058362681e-8
          5.7806311057931745e-8 6.191654738172306e-8 4.447711591496614e-8 5.168618141558639e-8 5.576712528673329e-8 5.982217792521541e-8
          5.834777145105229e-8 6.189020199075797e-8 5.968672963830114e-8 6.330229819624962e-8 6.490357366266881e-8 6.624068518167692e-8
          5.059699031354729e-8 5.9574711625087895e-8 6.278776394752428e-8 6.864526302516989e-8 5.792565834866881e-8 6.013701422515437e-8
          5.7764878007687164e-8 5.8566094740783503e-8 6.104086906735112e-8 6.46669958105971e-8 6.133262920047809e-8 6.096573627220214e-8
          5.988076314057068e-8 5.75569577495303e-8 5.419802267198559e-8 6.703800245202958e-8 6.748508611854715e-8 6.533791179034784e-8
          2.966531719918976e-8 4.305224451653079e-8 2.9413529624777054e-8 4.5799733647756274e-8 6.000424231177649e-8 6.5382076894315e-8
          2.1191070383400328e-8 3.767004921361925e-8 3.958085318769764e-8 5.93229212443435e-8 3.159066469196306e-8 4.9606901760491347e-8
          3.77479572927498e-8 5.4850354866538315e-8 6.98650401276192e-8 7.300207104428672e-8 2.079903442857728e-8 4.30594216952422e-8
          4.8973065973191704e-8 6.957652994260233e-8 6.323087474198151e-8 6.757130386142359e-8 6.289243669428187e-8 6.656439160495268e-8
          6.394191871384079e-8 6.862310915907177e-8 6.338702298283276e-8 7.053824529595358e-8 7.157830158257621e-8 6.896954916568843e-8
          6.910521351690584e-8 7.180339784263664e-8 7.294042743759473e-8 6.977354476197578e-8 1.6894947960775794e-8 1.5606344253378198e-8
          1.3029160239179405e-8 4.159891757797438e-8 4.015154680145627e-8 2.9355990251162595e-8 3.8704176024938175e-8 1.4972533079764938e-8
          1.3942130424686582e-8 1.1617831452247126e-8 1.0896283830936775e-8 1.1590731959734279e-8 8.926153452151649e-9 2.4699856958127185e-8
          2.3373148710460195e-8 1.9430132391291845e-8 1.9838526026487234e-8 1.697009583265597e-8 1.495361586202013e-8 1.1402981523193227e-8
          9.709710126392896e-9 4.928701659282505e-8 4.7363250998748194e-8 4.4770575339472764e-8 4.276694247477881e-8 4.543948540467134e-8
          3.7329514854171325e-8 5.738821342697408e-8 5.7998150843153387e-8 5.511292353504424e-8 5.865930196709632e-8 3.9223890177703124e-8
          3.741482204428309e-8 3.304170814484945e-8 3.142771944186012e-8 3.1698857269656825e-8 2.6206324718429808e-8 5.089692813910943e-8
          5.056055669469629e-8 4.4291557408131184e-8 4.5293798159808174e-8 2.628463032267529e-8 1.706881771669948e-8 5.0897890506615714e-8
          4.055477905029124e-8 4.3034051630607876e-8 2.3518073863365975e-8 1.8546088060829738e-8 1.4997761544180658e-8 1.1341290682340756e-8
          3.367045140452765e-8 2.7650182490521373e-8 2.097756518538737e-8 3.788698282446846e-8 3.665730643883063e-8 3.117401149278417e-8
          2.1758853946816614e-8 1.2701917535870484e-8 6.893074701465629e-9 5.810004041376544e-9 4.0047617930625705e-9 3.3075208526143474e-9
          1.018674296943374e-8 5.971856509487194e-9 1.3986292133656529e-8 8.736150823927306e-9 6.249763632252831e-9 4.921505974136207e-9
          1.2192341698112778e-8 9.023817386143525e-9 6.814330431731991e-9 6.553688919117269e-9 5.945942261463191e-8 6.302917525505974e-8
          5.756224820282349e-8 6.10145453226361e-8 6.553977932322233e-8 6.263834829243111e-8 5.716100895061394e-8 6.401422749238894e-8
          6.262695457580717e-8 7.140256929572143e-8 5.417869952555891e-8 5.72780867161077e-8 4.9906365003370785e-8 5.210640239988602e-8
          5.750824692125105e-8 5.034072908597112e-8 5.350980180236802e-8 5.9042667671432315e-8 5.409681466009298e-8 6.490247671698206e-8
          5.659209407534629e-8 5.15706580494516e-8 4.8703557399735526e-8 3.5391611365216885e-8 6.555054021976401e-8 6.131870718767299e-8
          5.9163387882249096e-8 4.5192872535427603e-8 3.77442197898307e-8 2.7737930850638314e-8 2.2504234010628704e-8 5.492203911712651e-8
          4.6677963928167e-8 3.4253685309824944e-8 4.482660175102947e-8 5.928974205009166e-8 4.997627838077774e-8 6.094401015492671e-8
          7.429563562912772e-8 7.294954249473288e-8 3.6448719583822446e-8 5.5188033135258256e-8 5.893502955188538e-8 7.496413575481498e-8
          5.114027416159378e-8 5.908971355706154e-8 4.718897997287779e-8 5.417578596983091e-8 6.865077280107036e-8 6.20512045493154e-8
          4.9023447174036996e-8 5.8587914913607964e-8 5.408761431626865e-8 6.987967931154434e-8 7.037256787084103e-8 6.673339674123688e-8
          6.590674683258049e-8 4.923091834868653e-8 7.193035294623094e-8 6.847333178933139e-8 6.785978106952595e-8 6.071307761546827e-8
          5.2510016604612604e-8 3.901505780380244e-8 3.217754421218856e-8 6.256574854686762e-8 5.448864491088638e-8 4.080568620577106e-8
          4.484391621670005e-8 4.5597763815710817e-8 4.176492936371829e-8 4.4582755943470984e-8 4.879843553683308e-8 4.972146312298686e-8
          3.000829772304332e-8 1.7430688393663756e-8 3.757803911146206e-8 2.18621992734809e-8 4.1915974832727e-8 4.863158376597152e-8
          5.400241233868117e-8 4.086310885330541e-8 4.8282047304614317e-8 5.527668828045784e-8 4.28386119395753e-8 2.506653326312651e-8
          4.472512085620406e-8 2.6240434742987504e-8 1.846065818168684e-8 1.0702093418544678e-8 2.2282576614005262e-8 1.6104598742304528e-8
          1.203262536480101e-8 8.932917190154497e-9 1.956266851208845e-8 1.4807225642439984e-8 1.0809156383540368e-8 2.4985555901603088e-8
          1.4448959549195708e-8 2.6184145971979715e-8 2.2023479547501985e-8 1.6791486502798546e-8 1.2123441831396963e-8 2.3025656254032573e-8
          1.7513041418531886e-8 1.2649224927817456e-8 8.897095817892164e-9 1.106608392058157e-8 1.2611223496081278e-8 1.3172817153284147e-8
        </DataArray>
        <DataArray type="Float64" Name="gradient_matprop_error" format="ascii" RangeMin="0" RangeMax="0">
          0 0 0 0 0 0
          0 0 0 0 0 0
          0 0 0 0 0 0
          0 0 0 0 0 0
          0 0 0 0 0 0
          0 0 0 0 0 0
          0 0 0 0 0 0
          0 0 0 0 0 0
          0 0 0 0 0 0
          0 0 0 0 0 0
          0 0 0 0 0 0
          0 0 0 0 0 0
          0 0 0 0 0 0
          0 0 0 0 0 0
          0 0 0 0 0 0
          0 0 0 0 0 0
          0 0 0 0 0 0
          0 0 0 0 0 0
          0 0 0 0 0 0
          0 0 0 0 0 0
          0 0 0 0 0 0
          0 0 0 0 0 0
          0 0 0 0 0 0
          0 0 0 0 0 0
          0 0 0 0 0 0
          0 0 0 0 0 0
          0 0 0 0 0 0
          0 0 0 0 0 0
          0 0 0 0 0 0
          0 0 0 0 0 0
          0 0 0 0 0 0
          0 0 0 0 0 0
          0 0 0 0 0 0
          0 0 0 0 0 0
          0 0 0 0 0 0
          0 0 0 0 0 0
          0 0 0 0 0 0
          0 0 0 0 0 0
          0 0 0 0 0 0
          0 0 0 0 0 0
          0 0 0 0 0 0
          0 0 0 0 0 0
          0 0 0 0 0 0
          0 0 0 0 0 0
          0 0 0 0 0 0
          0 0 0 0 0 0
          0 0 0 0 0 0
          0 0 0 0 0 0
          0 0 0 0 0 0
          0 0 0 0 0 0
          0 0 0 0 0 0
          0 0 0 0 0 0
          0 0 0 0 0 0
          0 0 0 0 0 0
          0 0 0 0 0 0
          0 0 0 0 0 0
          0 0 0 0 0 0
          0 0 0 0 0 0
          0 0 0 0 0 0
          0 0 0 0 0 0
          0 0 0 0 0 0
          0 0 0 0 0 0
          0 0 0 0 0 0
          0 0 0 0 0 0
          0 0 0 0 0 0
          0 0 0 0 0 0
          0 0 0 0 0 0
          0 0 0 0 0 0
        </DataArray>
        <DataArray type="Float64" Name="initial_marker" format="ascii" RangeMin="0.25" RangeMax="2">
          2 2 2 2 2 2
          2 2 2 1.5 1.5 2
          2 2 2 2 2 2
          2 0.5 0.25 1 0.5 2
          2 2 2 2 2 2
          2 2 2 2 2 2
          2 2 2 2 2 2
          2 2 2 2 2 2
          2 2 2 2 2 2
          2 2 2 2 2 2
          2 2 2 2 2 2
          2 2 2 2 2 2
          2 2 2 2 2 2
          2 2 2 2 2 2
          2 2 2 2 2 2
          2 2 2 2 2 2
          2 2 2 2 2 2
          2 2 2 2 2 2
          2 2 2 2 2 2
          2 2 2 2 2 2
          2 2 2 2 2 2
          2 2 2 2 2 2
          2 2 2 2 2 2
          2 2 2 2 2 2
          2 2 2 2 2 2
          2 2 2 2 2 2
          2 2 2 2 2 2
          2 2 2 2 2 2
          2 2 2 2 2 2
          2 2 2 2 2 2
          2 2 2 2 2 2
          2 2 2 2 2 2
          2 2 2 2 2 2
          2 2 2 2 2 2
          2 2 2 2 2 2
          2 2 2 2 2 2
          2 2 2 2 2 2
          2 2 2 2 2 2
          2 2 2 2 2 2
          2 2 2 2 2 2
          2 2 2 2 2 2
          2 2 2 2 2 2
          2 2 2 2 2 2
          2 2 2 2 2 2
          2 2 2 2 2 2
          2 2 2 2 2 2
          2 2 2 2 2 2
          2 2 2 2 2 2
          2 2 2 2 2 2
          2 2 2 2 2 2
          2 2 2 2 2 2
          2 2 2 2 2 2
          2 2 2 2 2 2
          2 2 2 2 2 2
          2 2 2 2 2 2
          2 2 2 2 2 2
          2 2 2 2 2 2
          2 2 2 2 2 2
          2 2 2 2 2 2
          2 2 2 2 2 2
          2 2 2 2 2 2
          2 2 2 2 2 2
          2 2 2 2 2 2
          2 2 2 2 2 2
          2 2 2 2 2 2
          2 2 2 2 2 2
          2 2 2 2 2 2
          2 2 2 2 2 2
        </DataArray>
        <DataArray type="Float64" Name="markers_norefine" format="ascii" RangeMin="0" RangeMax="2">
          0 2 0 0 0 2
          0 2 0 0 0 2
          1 1 0 0.5 0 2
          0 0 0 0 0 0
          0 0 0 0 0 0
          0 0 0 1.5 0 0
          0 0 0 0 2 1.5
          1.25 0 0 0 0 0
          0 0 0 2 2 1
          2 2 2 2 2 1
          0.25 2 2 2 1 0
          0 0 0 0 0 0
          0 0 0 0 0 0
          0 0 0 1 0.5 0
          0 0 0 2 1.75 2
          0.75 0 0 2 2 1.5
          0 0 0 0 0 0
          0 0 0 1 1 1
          2 1 0 0 0 0
          0 0 0 0 1 1
          1 1 1 1 2 2
          2 2 1 1 1 0.75
          1 0.5 2 2 1.75 2
          1 1 0 1 1 0
          2 2 2 2 1.5 1
          2 2 2 2 2 2
          2 2 2 2 2 2
          2 2 2 2 2 2
          2 2 2 2 2 2
          2 2 2 2 1.5 1.5
          1 1 2 2 2 1.25
          1 0.5 0 1.75 1.25 1.5
          2 2 2 2 2 2
          2 2 2 2 2 2
          2 2 2 2 2 2
          2 2 2 2 2 2
          2 2 2 2 1.75 2
          1.5 2 2 2 0 0
          0 0 0 0 0 0
          0 0 0 0 0 0
          0 0 0 0 0 0
          0 0.5 0.25 0 0 0
          0 1.5 1.25 1 1 0
          0 0 0 0 0 1
          0.75 0.25 0.25 0 0 0.5
          0 0 0 0 0 0
          0 0 0 0 0 0
          0 0 0 0 0 0
          0 0 0 0 0 0
          0 0 0 0 2 2
          2 2 1.75 1.25 2 2
          2 2 2 1.75 1.5 1
          0.75 0.25 2 2 1.75 1.25
          0.75 0.25 0 0 1 0.75
          0 0 0 0 0 0.25
          0 0 2 2 2 2
          2 2 2 2 2 2
          2 2 2 2 1.75 1.25
          2 2 2 2 1.25 1
          0.5 0 1.5 1 1 0.75
          0.25 0 0 1 0.5 0
          0.5 0.25 0 1.5 1 0.25
          0 0 0 0 2 1.5
          0.5 2 1.5 0.5 0 0
          0 0 0 0 0 0
          0 0 0 0 0 0
          0 0 0 0 0 0
          0 0 0 0 0 0
        </DataArray>
        <DataArray type="Float64" Name="markers_mustrefine" format="ascii" RangeMin="0.25" RangeMax="2">
          2 2 2 2 2 2
          2 2 2 1.5 1.5 2
          2 2 2 2 2 2
          2 0.5 0.25 1 0.5 2
          2 2 2 2 2 2
          2 2 2 2 2 2
          2 2 2 2 2 2
          2 2 2 2 2 2
          2 2 2 2 2 2
          2 2 2 2 2 2
          2 2 2 2 2 2
          2 2 2 2 2 2
          2 2 2 2 2 2
          2 2 2 2 2 2
          2 2 2 2 2 2
          2 2 2 2 2 2
          2 2 2 2 2 2
          2 2 2 2 2 2
          2 2 2 2 2 2
          2 2 2 2 2 2
          2 2 2 2 2 2
          2 2 2 2 2 2
          2 2 2 2 2 2
          2 2 2 2 2 2
          2 2 2 2 2 2
          2 2 2 2 2 2
          2 2 2 2 2 2
          2 2 2 2 2 2
          2 2 2 2 2 2
          2 2 2 2 2 2
          2 2 2 2 2 2
          2 2 2 2 2 2
          2 2 2 2 2 2
          2 2 2 2 2 2
          2 2 2 2 2 2
          2 2 2 2 2 2
          2 2 2 2 2 2
          2 2 2 2 2 2
          2 2 2 2 2 2
          2 2 2 2 2 2
          2 2 2 2 2 2
          2 2 2 2 2 2
          2 2 2 2 2 2
          2 2 2 2 2 2
          2 2 2 2 2 2
          2 2 2 2 2 2
          2 2 2 2 2 2
          2 2 2 2 2 2
          2 2 2 2 2 2
          2 2 2 2 2 2
          2 2 2 2 2 2
          2 2 2 2 2 2
          2 2 2 2 2 2
          2 2 2 2 2 2
          2 2 2 2 2 2
          2 2 2 2 2 2
          2 2 2 2 2 2
          2 2 2 2 2 2
          2 2 2 2 2 2
          2 2 2 2 2 2
          2 2 2 2 2 2
          2 2 2 2 2 2
          2 2 2 2 2 2
          2 2 2 2 2 2
          2 2 2 2 2 2
          2 2 2 2 2 2
          2 2 2 2 2 2
          2 2 2 2 2 2
        </DataArray>
        <DataArray type="Float64" Name="gradient_marker" format="ascii" RangeMin="0" RangeMax="1">
          0.75 0 0.25 1 1 0
          0.75 0 0.625 0.375 0.125 0
          0.5 0.5 0.75 1 1 1
          1 0.375 0.375 0.5 0.5 1
          1 0.75 0.3333333333333333 0.75 0.625 1
          0.5 0.75 0.75 0.25 0.5 0.625
          0.5 0.5 0.625 0.375 0 0.25
          0.25 0.75 0.25 0.5 0.25 0.125
          0.5 0.375 0 0 0 0.5
          0 0 0 0 0 0.5
          0.5 0 0 0 0.5 0.625
          0.25 0.75 0.5 0.5 0 0
          0.5 0.5 0 0.75 0.75 1
          1 0.625 1 0.5 0.625 1
          0.75 0.5 0.625 0.5 0.5 1
          1 0.75 1 0.5 0.5 1
          0.75 0.75 0.75 1 1 1
          1 1 0 0 0 0
          0 0 0 0 0 0
          0 0 0 0 0 0
          0 0 0 0 0 0
          0 0 0 0 0 0
          0 0 0 0 0 0
          0 0 0 0 0 0
          0 0 0 0 0 0
          0 0 0 0 0 0
          0 0 0 0 0 0
          0 0 0 0 0 0
          0 0 0 0 0 0
          0 0 0 0 0 0
          0 0 0 0 0 0
          0 0 0 0 0 0
          0 0 0 0 0 0
          0 0 0 0 0 0
          0 0 0 0 0 0
          0 0 0 0 0 0
          0 0 0 0 0 0
          0 0 0 0 1 1
          1 0 0 0.6666666666666666 0 1
          1 1 1 1 1 1
          1 1 1 1 1 1
          1 0 0 0.5 0.5 0
          0.6666666666666666 0 0 0.5 0 1
          1 1 1 1 1 1
          1 1 1 1 1 0
          0.6666666666666666 0 1 1 1 1
          1 1 1 1 1 1
          1 1 1 1 1 1
          1 1 1 1 1 1
          1 1 1 1 0 0
          0.5 0.5 0 0.5 0 0
          0.5 0 1 1 1 1
          1 1 1 1 1 1
          0 0.5 0 0.6666666666666666 0 0.5
          0 1 1 1 1 1
          1 1 0 0 0.5 0.5
          0 0.5 0 0 0.5 0
          1 1 1 1 1 1
          1 1 1 1 0 0.5
          0 0.6666666666666666 0 0.5 0 1
          1 1 1 1 1 1
          1 1 1 1 1 1
          1 1 1 1 1 1
          1 1 1 1 1 1
          1 1 1 1 1 1
          1 1 1 1 1 1
          1 1 1 1 1 1
          1 1 1 1 1 1
        </DataArray>
        <DataArray type="Float64" Name="gradient_matprop_marker" format="ascii" RangeMin="0" RangeMax="0">
          0 0 0 0 0 0
          0 0 0 0 0 0
          0 0 0 0 0 0
          0 0 0 0 0 0
          0 0 0 0 0 0
          0 0 0 0 0 0
          0 0 0 0 0 0
          0 0 0 0 0 0
          0 0 0 0 0 0
          0 0 0 0 0 0
          0 0 0 0 0 0
          0 0 0 0 0 0
          0 0 0 0 0 0
          0 0 0 0 0 0
          0 0 0 0 0 0
          0 0 0 0 0 0
          0 0 0 0 0 0
          0 0 0 0 0 0
          0 0 0 0 0 0
          0 0 0 0 0 0
          0 0 0 0 0 0
          0 0 0 0 0 0
          0 0 0 0 0 0
          0 0 0 0 0 0
          0 0 0 0 0 0
          0 0 0 0 0 0
          0 0 0 0 0 0
          0 0 0 0 0 0
          0 0 0 0 0 0
          0 0 0 0 0 0
          0 0 0 0 0 0
          0 0 0 0 0 0
          0 0 0 0 0 0
          0 0 0 0 0 0
          0 0 0 0 0 0
          0 0 0 0 0 0
          0 0 0 0 0 0
          0 0 0 0 0 0
          0 0 0 0 0 0
          0 0 0 0 0 0
          0 0 0 0 0 0
          0 0 0 0 0 0
          0 0 0 0 0 0
          0 0 0 0 0 0
          0 0 0 0 0 0
          0 0 0 0 0 0
          0 0 0 0 0 0
          0 0 0 0 0 0
          0 0 0 0 0 0
          0 0 0 0 0 0
          0 0 0 0 0 0
          0 0 0 0 0 0
          0 0 0 0 0 0
          0 0 0 0 0 0
          0 0 0 0 0 0
          0 0 0 0 0 0
          0 0 0 0 0 0
          0 0 0 0 0 0
          0 0 0 0 0 0
          0 0 0 0 0 0
          0 0 0 0 0 0
          0 0 0 0 0 0
          0 0 0 0 0 0
          0 0 0 0 0 0
          0 0 0 0 0 0
          0 0 0 0 0 0
          0 0 0 0 0 0
          0 0 0 0 0 0
        </DataArray>
        <DataArray type="Float64" Name="combo" format="ascii" RangeMin="0" RangeMax="2">
          0.75 2 0.25 1 1 2
          0.75 2 0.625 0.375 0.125 2
          1.5 1.5 0.75 1.25 1 2
          1 0.375 0.375 0.5 0.5 1
          1 0.75 0.3333333333333333 0.75 0.625 1
          0.5 0.75 0.75 1.75 0.5 0.625
          0.5 0.5 0.625 0.375 2 1.75
          1.5 0.75 0.25 0.5 0.25 0.125
          0.5 0.375 0 2 2 1.5
          2 2 2 2 2 1.5
          0.75 2 2 2 1.5 0.625
          0.25 0.75 0.5 0.5 0 0
          0.5 0.5 0 0.75 0.75 1
          1 0.625 1 1.25 1 1
          0.75 0.5 0.625 2 1.875 2
          1.375 0.75 1 2 2 1.75
          0.75 0.75 0.75 1 1 1
          1 1 0 1 1 1
          2 1 0 0 0 0
          0 0 0 0 1 1
          1 1 1 1 2 2
          2 2 1 1 1 0.75
          1 0.5 2 2 1.75 2
          1 1 0 1 1 0
          2 2 2 2 1.5 1
          2 2 2 2 2 2
          2 2 2 2 2 2
          2 2 2 2 2 2
          2 2 2 2 2 2
          2 2 2 2 1.5 1.5
          1 1 2 2 2 1.25
          1 0.5 0 1.75 1.25 1.5
          2 2 2 2 2 2
          2 2 2 2 2 2
          2 2 2 2 2 2
          2 2 2 2 2 2
          2 2 2 2 1.75 2
          1.5 2 2 2 1 1
          1 0 0 0.6666666666666666 0 1
          1 1 1 1 1 1
          1 1 1 1 1 1
          1 0.5 0.25 0.5 0.5 0
          0.6666666666666666 1.5 1.25 1.25 1 1
          1 1 1 1 1 1.5
          1.375 1.125 1.125 1 1 0.5
          0.6666666666666666 0 1 1 1 1
          1 1 1 1 1 1
          1 1 1 1 1 1
          1 1 1 1 1 1
          1 1 1 1 2 2
          2 2 1.75 1.5 2 2
          2 2 2 1.875 1.75 1.5
          1.375 1.125 2 2 1.875 1.625
          0.75 0.75 0 0.6666666666666666 1 1.125
          0 1 1 1 1 1.125
          1 1 2 2 2 2
          2 2 2 2 2 2
          2 2 2 2 1.875 1.625
          2 2 2 2 1.25 1.25
          0.5 0.6666666666666666 1.5 1.25 1 1.375
          1.125 1 1 1.5 1.25 1
          1.25 1.125 1 1.75 1.5 1.125
          1 1 1 1 2 1.75
          1.25 2 1.75 1.25 1 1
          1 1 1 1 1 1
          1 1 1 1 1 1
          1 1 1 1 1 1
          1 1 1 1 1 1
        </DataArray>
        <DataArray type="Float64" Name="dHdT" format="ascii" RangeMin="26.001762815683442" RangeMax="56.20232744911064">
          29.68775660042914 46.324445731610766 27.444903871713656 30.869251022584073 26.95386925251728 51.52224661464406
          39.147445324049656 51.64722201851852 33.89487439545725 27.832701906624273 26.843484792686727 46.324272911576685
          47.385810841848304 42.468563276709624 29.064516261127135 40.83758816695307 29.397909445022606 50.48968825192172
          33.39958221298856 26.23801321150129 26.001762815683442 26.366314053602316 26.063413094286485 33.08401227332445
          33.290451053344356 32.144746015542516 29.60906493679903 28.53931875548258 27.944541209973966 26.66440367948501
          39.371587335865186 36.906525716963664 33.56124151483322 50.53343162710645 38.34704853542035 35.2433431471874
          34.84572989714066 33.44061525188984 32.05614266539389 30.6180177643313 52.159804693337534 48.38393316913328
          45.44280914907465 36.38720321637124 29.217322917847408 31.935418011983113 28.46287336051602 27.696581193342254
          30.680143871558236 29.37761707583848 28.14136691053965 46.30765325797364 49.17022376601689 45.586498224286814
          46.51654886663237 46.310784248493725 49.219853626933784 46.2909019464097 50.03400235799239 43.34590564222899
          39.91206594527091 46.32461363532866 48.23145068522631 48.28682241583949 45.05585139264699 34.753013858145486
          30.581137801641933 36.07344945297142 33.065699071182785 31.164633725811253 29.22600291275981 27.514780937758434
          34.26175210517229 32.02764853664635 29.733282942815528 33.807229391179135 32.126772031110846 31.313494263458438
          29.434254667350434 29.010195073698945 27.138261541326187 48.650146344118546 41.099389276459924 36.072164496919434
          32.264457586854846 26.941033841314542 28.099016674453203 48.20036783756646 50.26674818571402 54.11816008234486
          45.334956253582014 35.92840188267981 32.32459636028074 46.31029931370533 49.627979224517276 49.36568305893605
          38.36894655498774 29.284449217221617 29.77859624531117 27.602203138658467 27.44838299465563 27.32936874069658
          26.870329437446046 27.050010648665182 42.81199903443312 50.081701378607946 48.673385004976666 47.2650686313454
          52.74040733611313 50.05039346093569 44.27749222461154 42.37139458287253 41.207097003201426 40.46529694113353
          40.48817752026106 38.846786619312155 37.016042383461226 37.20539571836325 49.34232391021428 47.95177135393786
          48.39656660067796 46.78586343059718 46.56121879766144 45.17516026051641 51.97438404191169 52.483709865559284
          52.1852686273424 52.83602613512315 46.40109954617102 44.734944023454254 44.39543599084996 42.918139460429444
          43.068788500737504 41.44084293000893 51.628830543897024 51.33613595026314 50.51885201322873 50.624792853114684
          48.31834876327551 46.439286808326884 44.11469049959531 44.55931322828448 42.482694094289094 39.33113061048345
          46.94161824467404 48.59932165865391 51.98453660208959 46.280574397770366 51.34014765129065 48.9682471710359
          52.167529264195636 46.322250270301545 46.31283659433383 47.43880479763143 46.317124013728744 51.00641900376493
          53.43865133063312 50.30768132078418 47.92035513237106 48.842918891370786 48.6143879929097 49.34292984572641
          51.349694082566685 51.233501532267816 46.31072870423475 46.28063042424654 46.49464823779119 49.12560986055911