<?xml version="1.0"?>
<VTKFile type="UnstructuredGrid" version="0.1" byte_order="LittleEndian" header_type="UInt32" compressor="vtkZLibDataCompressor">
  <UnstructuredGrid>
    <Piece NumberOfPoints="1601" NumberOfCells="1080">
      <PointData>
        <DataArray type="Int32" Name="libmesh_node_id" format="ascii" RangeMin="2013" RangeMax="15634">
          2282 2286 2287 2290 2292 2550
          2552 2555 2558 2567 2576 2577
          2580 2582 2584 2588 3502 3503
          3504 3519 3520 3521 3522 3523
          3524 3525 3526 3527 3528 3544
          3556 3557 3558 3559 3560 3561
          3562 3601 3602 3605 3606 3608
          3610 3631 3632 3633 3634 3635
          3636 3637 3638 3639 3640 3641
          3642 3645 3646 3648 3650 3815
          3817 3818 3819 3820 3821 4054
          4055 4056 4058 4059 4061 4065
          4075 4076 4077 4078 4079 4080
          4081 5384 5385 5386 5389 5410
          5411 5412 5413 5414 5415 5416
          5418 5419 5517 5518 5521 5551
          5552 5555 5619 5620 5621 5623
          5624 5625 5626 5627 5628 5629
          5630 5631 5632 5633 5634 5635
          5636 5637 5638 5639 5640 5641
          5642 5643 5644 5645 5646 5647
          5648 5649 5650 5651 5652 5653
          5654 5656 5657 5658 5660 5661
          5662 5663 5664 5665 5666 5667
          5668 5669 5670 5671 5672 5673
          5674 5675 5676 5677 5678 5679
          5680 5681 5682 5701 5702 5706
          5733 5737 5770 5774 5864 5865
          5866 5867 5868 5869 5870 5871
          5872 5873 5878 5879 5883 5884
          5885 5886 5887 5888 5889 5890
          5891 5892 5893 5894 5895 5898
          5899 5901 5903 5904 5905 5906
          5907 5908 5909 5910 5913 5917
          5918 5919 5920 5921 5922 5923
          5924 5925 5927 5929 5931 6027
          6028 6029 6030 6031 6032 6033
          6034 6035 6036 6037 6038 6039
          6040 6041 6042 6043 6044 6045
          6046 6047 6048 6049 6050 6051
          6052 6053 6054 6055 6056 6057
          6058 6059 6060 6061 6062 6063
          6064 6065 6066 6067 6068 6069
          6070 6071 6072 6075 6076 6078
          6080 6183 6184 6185 6186 6187
          6188 6189 6210 6212 6213 6214
          6215 6216 6218 6219 6247 6248
          6249 6250 6251 6252 6253 6254
          6255 6256 6257 6258 6259 6260
          6261 6262 6263 6391 6392 6393
          6394 6395 6396 6397 6398 6399
          6400 6401 6402 6403 6404 6405
          6406 6407 6408 6409 6410 6411
          6463 6464 6465 6466 6467 6468
          6469 6470 6471 6472 6473 6474
          6475 6476 6477 6478 6479 6480
          6481 6482 6483 6484 6485 6486
          6487 6488 6489 6599 6600 6601
          6602 6603 6604 6605 6610 6611
          6612 6613 6614 6615 6616 6617
          6618 6619 11475 12271 12277 12278
          12281 12299 12305 12306 12309 12519
          12525 12526 12529 12547 12553 12554
          12557 13043 13051 13052 13053 13056
          13059 13060 13061 13062 13063 13065
          13066 13077 13083 13084 13087 13089
          13090 13091 13093 13094 13097 13098
          13099 13100 13101 13103 13104 13105
          13106 13107 13108 13109 13110 13111
          13112 13113 13114 13115 13116 13117
          13118 13119 13120 13121 13122 13123
          13124 13125 13126 13127 13128 13129
          13130 13131 13132 13133 13134 13136
          13137 13138 13140 13141 13142 13143
          13144 13145 13146 13147 13148 13149
          13150 13151 13152 13153 13154 13155
          13156 13157 13158 13159 13160 13161
          13162 13163 13164 13165 13166 13167
          13168 13169 13170 13171 13172 13173
          13174 13175 13176 13177 13178 13179
          13180 13181 13182 13183 13184 13185
          13186 13187 13188 13189 13190 13191
          13192 13193 13194 13195 13196 13197
          13198 13199 13200 13201 13202 13203
          13204 13205 13206 13207 13208 13209
          13210 13211 13212 13213 13214 13215
          13216 13217 13218 13219 13220 13221
          13222 13223 13224 13225 13226 13227
          13228 13229 13230 13231 13232 13233
          13234 13235 13236 13237 13238 13239
          13240 13241 13242 13243 13244 13245
          13246 13247 13248 13249 13250 13251
          13252 13253 13254 13255 13256 13257
          13258 13259 13260 13261 13262 13263
          13264 13265 13266 13267 13268 13269
          13270 13271 13272 13273 13274 13275
          13276 13277 13288 13294 13295 13298
          13300 13301 13302 13304 13305 13316
          13322 13323 13326 13328 13329 13330
          13332 13333 13335 13336 13337 13339
          13340 13341 13342 13343 13344 13345
          13346 13347 13348 13349 13350 13351
          13352 13353 13354 13355 13356 13357
          13358 13359 13360 13361 13363 13364
          13365 13367 13368 13369 13370 13371
          13372 13373 13374 13375 13376 13377
          13378 13379 13380 13381 13382 13383
          13384 13385 13386 13387 13388 13389
          13390 13391 13392 13393 13394 13395
          13396 13397 13398 13399 13400 13401
          13402 13403 13404 13405 13406 13407
          13408 13409 13410 13411 13412 13413
          13414 13415 13416 13417 13418 13419
          13420 13421 13422 13423 13424 13425
          13426 13427 13428 13429 13430 13431
          13432 13433 13434 13435 13436 13437
          13438 13439 13440 13441 13442 13443
          13444 13445 13446 13447 13448 13449
          13450 13451 13452 13453 13454 13455
          13456 13457 13458 13459 13460 13461
          13462 13463 13464 13465 13466 13467
          13468 13469 13470 13471 13472 13473
          13474 13475 13476 13477 13478 13479
          13480 13481 13482 13483 13484 13485
          13486 13487 13488 13489 13490 13491
          13492 13493 13494 13495 13496 13497
          13498 13499 13500 13501 13731 13732
          13733 13736 13763 13764 13767 13995
          13996 13999 14023 14024 14027 14601
          14602 14603 14604 14605 14606 14607
          14608 14609 14610 14611 14612 14613
          14614 14615 14616 14617 14618 14619
          14620 14621 14622 14623 14624 14625
          14626 14627 14628 14629 14630 14631
          14632 14633 14634 14635 14636 14637
          14638 14639 14640 14641 14642 14643
          14644 14645 14646 14647 14648 14649
          14650 14651 14652 14653 14654 14655
          14656 14657 14658 14659 14660 14661
          14662 14663 14664 14665 14666 14667
          14668 14669 14670 14673 14674 14678
          14689 14690 14691 14692 14693 14694
          14695 14696 14697 14698 14701 14705
          14713 14714 14715 14716 14717 14718
          14719 14720 14721 14724 14725 14727
          14729 14730 14731 14732 14733 14734
          14735 14736 14737 14738 14739 14740
          14741 14742 14743 14744 14745 14746
          14747 14748 14749 14750 14751 14752
          14753 14754 14755 14756 14757 14758
          14759 14760 14761 14762 14763 14764
          14765 14766 14767 14768 14769 14770
          14771 14772 14773 14774 14775 14776
          14777 14778 14779 14780 14781 14782
          14783 14784 14785 14786 14787 14788
          14791 14792 14794 14796 14797 14798
          14799 14800 14801 14802 14803 14804
          14805 14806 14807 14808 14809 14810
          14811 14812 14813 14814 14815 14816
          14817 14818 14819 14820 14821 14822
          14823 14824 14825 14826 14827 14828
          14829 14830 14831 14832 14833 14834
          14835 14836 14837 14838 14839 14840
          14841 14842 14843 14844 14845 14846
          14847 14848 14849 14850 14851 14852
          14855 14859 14867 14868 14869 14870
          14871 14872 14873 14874 14876 14878
          14880 14883 14887 14895 14896 14897
          14898 14899 14900 14901 14902 14904
          14906 14908 14909 14910 14911 14912
          14913 14914 14915 14916 14917 14918
          14919 14920 14921 14922 14923 14924
          14925 14926 14927 14928 14929 14930
          14931 14932 14933 14934 14935 14936
          14937 14938 14939 14940 14941 14942
          14943 14944 14945 14946 14947 14948
          14949 14950 14951 14952 14953 14954
          14955 14956 14957 14958 14959 14960
          14961 14962 14963 14964 14965 14966
          14967 14968 14969 14970 14971 14972
          14974 14976 14978 14979 14980 14981
          14982 14983 14984 14985 14986 14987
          14988 14989 14990 14993 14994 14996
          14998 14999 15000 15001 15002 15003
          15004 15005 15006 15008 15010 15012
          15013 15014 15015 15016 15017 15018
          15019 15020 15022 15024 15026 15458
          15459 15460 15461 15462 15463 15464
          15465 15466 15467 15468 15469 15470
          15471 15472 15473 15474 15475 15476
          15477 15478 15479 15480 15481 15482
          15483 15484 15485 15486 15487 15488
          15489 15490 15491 15492 15493 15494
          15495 15496 15497 15498 15499 15500
          15501 15502 15503 15504 15505 15506
          15507 15508 15509 15510 15511 15512
          15513 15514 15515 15516 15517 15518
          15519 15520 15521 15522 15523 15524
          15525 15526 15527 15528 15529 15530
          15531 15532 15533 15534 15535 15536
          15537 15538 15539 15540 15541 15542
          15543 15544 15545 15546 15547 15548
          15549 15550 15551 15552 15553 15554
          15555 15556 15557 15558 15559 15560
          15561 15562 15563 15564 15565 15566
          15567 15568 15569 15570 15571 15572
          15573 15574 15575 15576 15577 15578
          15579 15580 15581 15582 15583 15584
          15585 15586 15587 15588 15589 15590
          15591 15592 15593 15594 15595 15596
          15597 15598 15599 15600 15601 15602
          15603 15604 15605 15606 15607 15608
          15609 15610 15611 15612 15613 15614
          15615 15616 15617 15618 15619 15620
          15621 15622 15623 15624 15625 15626
          15627 15628 15629 15630 15631 15632
          15633 15634 2013 2341 2333 2274
          2342 2334 2015 2343 2288 2344
          2131 2349 2348 2346 2337 2339
          2350 2166 2574 2578 2575 2579
          2285 2586 2568 2569 2587 2585
          2589 2590 2591 2593 2638 2645
          2650 2641 2269 2280 2648 2651
          2283 2759 2762 2765 2764 2547
          2553 2769 2774 2561 2772 2775
          2564 3511 3490 3512 3515 3623
          3624 3627 3643 3607 3644 3647
          3649 2763 3810 2755 3816 3811
          3814 2538 3570 3571 3572 4057
          4060 3603 4051 4052 4062 4063
          4053 4064 4066 4067 4070 4071
          4074 2554 5402 5403 5406 5874
          5876 5875 5877 5880 5896 5897
          5900 5902 6005 5586 6006 6009
          6011 6073 5928 6074 6077 2573
          6079 2773 3872 2542 6211 3873
          3876 2583 6217 3878 6239 6240
          6243 2581 6245 6386 6387 6390
          3517 5582 6455 6023 6456 6459
          3629 6461 5703 3576 6426 6606
          6427 6607 6608 6609 5742 12753
          12641 12754 12757 5566 12759 5583
          12773 12774 12777 12779 12669 12789
          12791 3550 12793 5588 12803 12805
          12807 3552 12889 12985 12987 5600
          12989 5612 12999 13001 13003 5614
          12917 13013 13015 3554 13017 5616
          13027 13029 13031 2559 13741 13742
          13743 13746 5734 13770 13771 13774
          3581 13799 13800 14671 13801 14672
          14675 13804 14676 5743 14677 13831
          14699 14700 14702 13835 14703 14704
          5881 14688 14708 14722 14709 14723
          14726 14712 5882 14728 3604 14789
          14790 14793 14795 14002 14003 14006
          5771 14030 14031 14034 3586 14051
          14853 14854 14856 14055 14857 14858
          5911 14862 14863 14875 14877 14866
          5912 14879 5914 14079 14881 14882
          14884 14083 14885 14886 5915 14890
          14891 14903 14905 14894 5916 14907
          3609 14973 14975 14977 5926 14991
          14992 14995 14997 15007 15009 15011
          5930 15021 15023 15025 15329 15330
          15333 15335 15404 15406 15408 6021
          15422 15423 15426 15428 15438 15440
          15442 6025 15452 15454 15456
        </DataArray>
        <DataArray type="Float64" Name="bounds" format="ascii" RangeMin="0" RangeMax="0">
          0 0 0 0 0 0
          0 0 0 0 0 0
          0 0 0 0 0 0
          0 0 0 0 0 0
          0 0 0 0 0 0
          0 0 0 0 0 0
          0 0 0 0 0 0
          0 0 0 0 0 0
          0 0 0 0 0 0
          0 0 0 0 0 0
          0 0 0 0 0 0
          0 0 0 0 0 0
          0 0 0 0 0 0
          0 0 0 0 0 0
          0 0 0 0 0 0
          0 0 0 0 0 0
          0 0 0 0 0 0
          0 0 0 0 0 0
          0 0 0 0 0 0
          0 0 0 0 0 0
          0 0 0 0 0 0
          0 0 0 0 0 0
          0 0 0 0 0 0
          0 0 0 0 0 0
          0 0 0 0 0 0
          0 0 0 0 0 0
          0 0 0 0 0 0
          0 0 0 0 0 0
          0 0 0 0 0 0
          0 0 0 0 0 0
          0 0 0 0 0 0
          0 0 0 0 0 0
          0 0 0 0 0 0
          0 0 0 0 0 0
          0 0 0 0 0 0
          0 0 0 0 0 0
          0 0 0 0 0 0
          0 0 0 0 0 0
          0 0 0 0 0 0
          0 0 0 0 0 0
          0 0 0 0 0 0
          0 0 0 0 0 0
          0 0 0 0 0 0
          0 0 0 0 0 0
          0 0 0 0 0 0
          0 0 0 0 0 0
          0 0 0 0 0 0
          0 0 0 0 0 0
          0 0 0 0 0 0
          0 0 0 0 0 0
          0 0 0 0 0 0
          0 0 0 0 0 0
          0 0 0 0 0 0
          0 0 0 0 0 0
          0 0 0 0 0 0
          0 0 0 0 0 0
          0 0 0 0 0 0
          0 0 0 0 0 0
          0 0 0 0 0 0
          0 0 0 0 0 0
          0 0 0 0 0 0
          0 0 0 0 0 0
          0 0 0 0 0 0
          0 0 0 0 0 0
          0 0 0 0 0 0
          0 0 0 0 0 0
          0 0 0 0 0 0
          0 0 0 0 0 0
          0 0 0 0 0 0
          0 0 0 0 0 0
          0 0 0 0 0 0
          0 0 0 0 0 0
          0 0 0 0 0 0
          0 0 0 0 0 0
          0 0 0 0 0 0
          0 0 0 0 0 0
          0 0 0 0 0 0
          0 0 0 0 0 0
          0 0 0 0 0 0
          0 0 0 0 0 0
          0 0 0 0 0 0
          0 0 0 0 0 0
          0 0 0 0 0 0
          0 0 0 0 0 0
          0 0 0 0 0 0
          0 0 0 0 0 0
          0 0 0 0 0 0
          0 0 0 0 0 0
          0 0 0 0 0 0
          0 0 0 0 0 0
          0 0 0 0 0 0
          0 0 0 0 0 0
          0 0 0 0 0 0
          0 0 0 0 0 0
          0 0 0 0 0 0
          0 0 0 0 0 0
          0 0 0 0 0 0
          0 0 0 0 0 0
          0 0 0 0 0 0
          0 0 0 0 0 0
          0 0 0 0 0 0
          0 0 0 0 0 0
          0 0 0 0 0 0
          0 0 0 0 0 0
          0 0 0 0 0 0
          0 0 0 0 0 0
          0 0 0 0 0 0
          0 0 0 0 0 0
          0 0 0 0 0 0
          0 0 0 0 0 0
          0 0 0 0 0 0
          0 0 0 0 0 0
          0 0 0 0 0 0
          0 0 0 0 0 0
          0 0 0 0 0 0
          0 0 0 0 0 0
          0 0 0 0 0 0
          0 0 0 0 0 0
          0 0 0 0 0 0
          0 0 0 0 0 0
          0 0 0 0 0 0
          0 0 0 0 0 0
          0 0 0 0 0 0
          0 0 0 0 0 0
          0 0 0 0 0 0
          0 0 0 0 0 0
          0 0 0 0 0 0
          0 0 0 0 0 0
          0 0 0 0 0 0
          0 0 0 0 0 0
          0 0 0 0 0 0
          0 0 0 0 0 0
          0 0 0 0 0 0
          0 0 0 0 0 0
          0 0 0 0 0 0
          0 0 0 0 0 0
          0 0 0 0 0 0
          0 0 0 0 0 0
          0 0 0 0 0 0
          0 0 0 0 0 0
          0 0 0 0 0 0
          0 0 0 0 0 0
          0 0 0 0 0 0
          0 0 0 0 0 0
          0 0 0 0 0 0
          0 0 0 0 0 0
          0 0 0 0 0 0
          0 0 0 0 0 0
          0 0 0 0 0 0
          0 0 0 0 0 0
          0 0 0 0 0 0
          0 0 0 0 0 0
          0 0 0 0 0 0
          0 0 0 0 0 0
          0 0 0 0 0 0
          0 0 0 0 0 0
          0 0 0 0 0 0
          0 0 0 0 0 0
          0 0 0 0 0 0
          0 0 0 0 0 0
          0 0 0 0 0 0
          0 0 0 0 0 0
          0 0 0 0 0 0
          0 0 0 0 0 0
          0 0 0 0 0 0
          0 0 0 0 0 0
          0 0 0 0 0 0
          0 0 0 0 0 0
          0 0 0 0 0 0
          0 0 0 0 0 0
          0 0 0 0 0 0
          0 0 0 0 0 0
          0 0 0 0 0 0
          0 0 0 0 0 0
          0 0 0 0 0 0
          0 0 0 0 0 0
          0 0 0 0 0 0
          0 0 0 0 0 0
          0 0 0 0 0 0
          0 0 0 0 0 0
          0 0 0 0 0 0
          0 0 0 0 0 0
          0 0 0 0 0 0
          0 0 0 0 0 0
          0 0 0 0 0 0
          0 0 0 0 0 0
          0 0 0 0 0 0
          0 0 0 0 0 0
          0 0 0 0 0 0
          0 0 0 0 0 0
          0 0 0 0 0 0
          0 0 0 0 0 0
          0 0 0 0 0 0
          0 0 0 0 0 0
          0 0 0 0 0 0
          0 0 0 0 0 0
          0 0 0 0 0 0
          0 0 0 0 0 0
          0 0 0 0 0 0
          0 0 0 0 0 0
          0 0 0 0 0 0
          0 0 0 0 0 0
          0 0 0 0 0 0
          0 0 0 0 0 0
          0 0 0 0 0 0
          0 0 0 0 0 0
          0 0 0 0 0 0
          0 0 0 0 0 0
          0 0 0 0 0 0
          0 0 0 0 0 0
          0 0 0 0 0 0
          0 0 0 0 0 0
          0 0 0 0 0 0
          0 0 0 0 0 0
          0 0 0 0 0 0
          0 0 0 0 0 0
          0 0 0 0 0 0
          0 0 0 0 0 0
          0 0 0 0 0 0
          0 0 0 0 0 0
          0 0 0 0 0 0
          0 0 0 0 0 0
          0 0 0 0 0 0
          0 0 0 0 0 0
          0 0 0 0 0 0
          0 0 0 0 0 0
          0 0 0 0 0 0
          0 0 0 0 0 0
          0 0 0 0 0 0
          0 0 0 0 0 0
          0 0 0 0 0 0
          0 0 0 0 0 0
          0 0 0 0 0 0
          0 0 0 0 0 0
          0 0 0 0 0 0
          0 0 0 0 0 0
          0 0 0 0 0 0
          0 0 0 0 0 0
          0 0 0 0 0 0
          0 0 0 0 0 0
          0 0 0 0 0 0
          0 0 0 0 0 0
          0 0 0 0 0 0
          0 0 0 0 0 0
          0 0 0 0 0 0
          0 0 0 0 0 0
          0 0 0 0 0 0
          0 0 0 0 0 0
          0 0 0 0 0 0
          0 0 0 0 0 0
          0 0 0 0 0 0
          0 0 0 0 0 0
          0 0 0 0 0 0
          0 0 0 0 0 0
          0 0 0 0 0 0
          0 0 0 0 0 0
          0 0 0 0 0 0
          0 0 0 0 0 0
          0 0 0 0 0 0
          0 0 0 0 0 0
          0 0 0 0 0 0
          0 0 0 0 0 0
          0 0 0 0 0 0
          0 0 0 0 0 0
          0 0 0 0 0 0
          0 0 0 0 0 0
          0 0 0 0 0
        </DataArray>
        <DataArray type="Float64" Name="gradient_error" format="ascii" RangeMin="1.5043674204427677e-14" RangeMax="9.30177471627515e-11">
          1.0551038817417318e-12 5.009512519979491e-13 3.604346361805201e-13 1.1427456757773572e-12 1.4444839727816335e-13 2.7132395064070312e-12
          1.629922403123603e-12 6.542310406033082e-13 5.7049720347771686e-11 2.370238269887849e-13 3.4599933982289175e-13 3.568661992427005e-13
          2.208303926296172e-13 3.3617191662641953e-13 1.0335034514266193e-13 6.934599144702212e-14 4.630499053862744e-12 3.416849838886518e-12
          1.1339618560709091e-12 2.2367330857396107e-12 1.5417762221745279e-12 8.084941260554076e-13 5.575894463188085e-13 8.504282732013153e-13
          1.1058625071040936e-12 4.0955663620251753e-13 2.076708199987437e-12 6.980531943347073e-13 1.8872057197350034e-12 1.6115201592589522e-11
          9.112192585337025e-12 3.243286310884544e-12 1.1082997032938664e-12 5.993251907314907e-13 3.059402791048129e-11 1.1440400294329232e-11
          3.1739155114461466e-12 4.2501502764676536e-13 1.0273149563817419e-12 3.44925943291007e-13 3.892248226663898e-13 3.782807756726024e-12
          3.646198292411497e-13 1.2749934585112507e-12 1.0296922375146529e-12 4.713027081661861e-13 5.607552423745143e-13 8.288076758886302e-13
          6.377558369686833e-13 4.212435823070261e-13 5.243096963707314e-13 8.328627117707489e-13 2.95669319936501e-13 2.549615363057625e-13
          3.7245937844136044e-13 1.5904815241971562e-13 3.8736923419068216e-13 4.4838315326472835e-13 5.382689685021326e-13 4.709890375852938e-13
          2.128788842059137e-13 3.3257349928121187e-13 2.0385325684836927e-13 3.9430593452492264e-13 1.287265993980183e-13 2.8088074408225734e-13
          2.535849884591233e-13 9.468898455860526e-14 1.1856613670430048e-13 1.9803660118617502e-13 3.158420700309415e-14 2.429995572358033e-14
          2.990701989346662e-13 8.708871793255866e-13 1.2941207896081157e-13 3.3089580876544144e-13 2.0681031451922606e-13 3.710669009892078e-13
          1.543788581728765e-13 1.2199552781622496e-12 1.8520435182892346e-12 1.3793255918967247e-12 2.324384447956053e-12 2.359370235610676e-12
          3.2346681578193526e-12 1.347967560012132e-12 2.5171379580553243e-12 1.3878106717186394e-12 3.4326743637489157e-12 2.043374837893601e-12
          2.828910819637499e-12 3.5082630895611426e-12 6.518230259807369e-12 3.777810854053999e-12 2.713733862889763e-11 7.641204242188893e-11
          4.6367425377809656e-11 9.30177471627515e-11 5.745317808673567e-12 4.3698472116693035e-12 2.649712994662509e-12 2.1601201148816458e-11
          1.4643935123686828e-11 2.2647659922438464e-12 3.409999371551644e-12 1.3094896688843354e-12 1.970339223552582e-12 1.2146664048367452e-12
          1.5654684528180687e-12 8.999102666872817e-13 1.3148398857843248e-11 7.774516723632617e-12 5.513747540032947e-12 2.1032148366449205e-12
          2.1734993432391944e-12 1.7074287125924915e-12 1.7196229900459125e-12 1.865699162385671e-12 1.4739784099792691e-12 1.3301221379126242e-12
          5.4643992677071835e-12 3.373152477748698e-12 1.8179947824095442e-12 1.0091601995776086e-12 1.0186576256547384e-12 5.665246243421858e-13
          5.79435508589621e-13 1.0355849341764214e-12 9.45572215824284e-13 6.958039570340865e-13 2.025084000188472e-12 1.1825945929701673e-12
          7.900678741984271e-13 5.769118335413891e-11 3.6362418876586047e-11 2.3116442780739964e-11 7.389426632506263e-11 4.779950002681005e-11
          3.5875236573146014e-11 2.1621240392310232e-11 1.4262846291667089e-11 8.538638624736393e-12 4.631816990992326e-11 2.8121802344880176e-11
          1.899638727328906e-11 1.2639897404930496e-11 7.960220366588962e-12 3.864008316608579e-12 2.4069614799997447e-12 1.6753850030820378e-11
          1.0617737959818937e-11 5.05985871494039e-12 4.870593309751e-12 2.8942386184053446e-12 1.4561099005694659e-12 8.556627959910038e-13
          6.535005887846643e-12 3.90479248481586e-12 1.932933460538317e-12 3.787955160419097e-13 1.1044259610990324e-12 1.2229345002773922e-12
          2.1301981051047703e-12 9.288608534634048e-12 2.7234113403546455e-11 3.384129151303821e-11 7.30315615473477e-13 1.1073658134196715e-12
          3.9553669135349813e-13 6.0437848542398e-13 4.953494722019499e-13 6.005453894771563e-13 4.3147090579013367e-13 4.464139816772192e-12
          2.488461553279827e-12 1.8526859012917785e-12 3.2361970096358995e-13 2.958756626803462e-13 5.524620194401502e-13 4.2242836671099764e-13
          4.322205871000759e-13 4.276517245595573e-13 4.2908043046820706e-13 3.286790480628812e-13 3.8544954241007785e-13 3.348543699187771e-13
          6.705999013749824e-13 4.362943476987299e-13 3.334258407564616e-13 3.014114818905743e-13 3.134719868791044e-13 1.8054779050334602e-13
          3.6736815968013415e-13 3.063915810126485e-13 3.6469021258289134e-13 1.262851242851384e-11 7.1477123804578784e-12 4.958379811670704e-12
          2.7920934104603196e-12 1.6540107521954345e-11 9.424147857116385e-12 6.681160150943633e-12 1.5241846042844154e-12 2.0762593096741805e-12
          1.6700832736183139e-12 9.34199356146532e-13 4.879354763338346e-13 3.2105819668553506e-13 2.2644928285610887e-12 1.2744809286745727e-12
          6.557457316720923e-13 5.060746783438183e-13 2.841600770626026e-13 6.947288446647741e-13 3.000109204041076e-13 1.3110241511188268e-12
          1.162090432885198e-12 7.811680008984156e-13 6.918037224149906e-13 7.419806929117901e-13 1.2043970456607494e-12 7.176222256750456e-13
          8.779046646723482e-13 6.92803881056168e-13 9.303494114730672e-13 4.623843195085785e-13 5.69302214533517e-13 2.7299453410517804e-13
          4.970943750784935e-13 2.614230355271756e-13 4.1523330467159674e-13 2.4961855676553045e-13 7.417268437881496e-13 5.983653150766522e-13
          6.970027140744133e-13 1.0586239057542749e-12 7.959396193982483e-13 7.278923212044968e-13 6.091577972132623e-13 1.3555250400688158e-12
          8.355728645276896e-13 8.842759616789596e-13 7.900960151282223e-13 6.287000819693602e-13 6.861330334877264e-13 7.154379786540112e-13
          7.908402586371724e-13 7.741169517678595e-13 6.144527331498597e-13 3.397010202706826e-13 3.63489268282637e-13 2.780428440088993e-13
          2.6151390095812334e-13 3.269735770414625e-13 5.581938892133026e-13 3.0021850447534256e-13 4.4794745814660485e-13 2.413384346110881e-13
          6.735182068561875e-13 2.855400442357691e-13 2.635382266918341e-13 1.3684611614455432e-13 1.5902501150552628e-13 2.435289754000733e-13
          1.8120390686649826e-13 8.011032309189671e-14 9.252140218065938e-14 4.420491817614311e-14 4.142889525837486e-14 4.853255389833103e-14
          4.446437886599723e-14 2.7548366317431406e-14 2.8052070768374124e-13 1.4373866718673342e-13 1.7679957993312836e-13 2.194381060806138e-13
          3.9293796024520953e-13 2.1902299120132337e-13 2.0986049267952333e-13 5.664378144098052e-13 1.3462506881596895e-13 1.780009860388857e-13
          9.023399919209162e-14 1.0715613558450105e-13 8.440955429636046e-14 7.69684139189318e-14 5.342673252651585e-14 2.2137690326180246e-13
          1.240782719769105e-13 6.952727354150316e-14 5.476053559002913e-14 1.1437178139473532e-13 3.8346737576784325e-14 5.644117041173385e-14
          4.484284312917076e-14 6.323482404468507e-14 4.0757385346934114e-14 7.677882110278716e-13 2.107668034466898e-12 4.671550910353631e-13
          1.23691445045483e-12 5.08092783994073e-13 1.20237326067692e-12 6.985769931558661e-13 8.320827471010594e-13 1.7263407034468264e-12
          5.141653710681832e-13 1.0351957545249635e-12 6.073612784824626e-13 1.0603599046979393e-12 6.283874758322756e-13 3.012258412649254e-13
          6.059606497794364e-13 1.7612464199880204e-13 3.415141211356141e-13 2.1618555977095912e-13 3.7269716907357883e-13 2.147481931245686e-13
          6.13530474887208e-13 7.229104609917903e-13 3.5970535550328485e-13 4.270590163491157e-13 3.60310588811488e-13 3.509508795914888e-13
          2.224046907884151e-13 8.322904470963726e-13 4.944126771949465e-13 3.415911703714896e-13 2.068010571001921e-13 2.428091616549962e-13
          1.5980967103540844e-13 1.7831307669863647e-13 1.478009073637907e-13 1.5365585305009618e-13 1.3258406375025691e-13 2.788172662098003e-13
          1.968164823618645e-13 1.595107987364017e-13 1.7022368819421952e-13 2.8874501925084096e-13 1.326491903215522e-13 2.0695811863705974e-13
          1.0933177146321353e-13 1.6020467698786043e-13 1.275858398367964e-13 2.812947821665381e-13 7.006652747766204e-13 1.7191447957843366e-13
          3.885122623781238e-13 1.8546875838321899e-13 3.853256630217906e-13 2.4157457515011356e-13 8.846395709023333e-14 1.4334627165454918e-13
          9.675325228370017e-14 1.0869920510858032e-13 1.8606718288078302e-13 8.752556628666285e-14 1.3032932742511927e-13 7.862285684511644e-14
          1.2234497048205166e-13 9.213190979705734e-14 1.2297590259599042e-12 3.1019012564951295e-12 2.3566094123066135e-12 1.7792689277258232e-12
          4.9795255722497264e-12 1.3506443013253365e-11 1.0381513888679832e-11 7.92322080498267e-12 2.0990139757139947e-11 4.998009879419096e-11
          3.8893060811821617e-11 3.002936467757844e-11 5.976752713250929e-11 9.098277449148415e-11 7.143612675425128e-11 5.5621638104609364e-11
          7.315316003784523e-11 2.864597367791896e-12 1.9771604248657494e-12 2.9153468300663684e-12 2.2779609657125896e-12 5.558456889900215e-12
          1.3307878995426885e-12 2.0043476961243033e-12 1.1884481999048621e-12 1.767961017061863e-12 1.3639283445057398e-12 3.9638324765241884e-12
          3.413903679543246e-12 1.1321812186409153e-11 1.028737070732258e-11 8.143048120360625e-12 1.8371957545389875e-11 7.648721223144136e-12
          6.403028736504534e-12 5.001288648316567e-12 1.4272875677551829e-11 1.1591813706172918e-11 1.490666608382446e-12 2.3123586228564645e-12
          1.4381897726447745e-12 2.1941653947516136e-12 1.668845914916473e-12 4.794258617201809e-12 4.4410757424308784e-12 1.123891230110743e-12
          1.7529612282575042e-12 8.452947465153977e-13 1.3218242168618249e-12 8.146239150399203e-13 1.2639928572546296e-12 9.526302479362917e-13
          3.659434230135983e-12 2.774241470348835e-12 2.6007978675311427e-12 1.0137082864949119e-12 1.536562320030604e-12 7.6770999529101e-13
          1.170527313509972e-12 6.986118051968936e-13 1.046156732981701e-12 7.981054223508726e-13 3.0608302115091516e-12 2.3479398619963836e-12
          2.04335143152041e-12 5.797293997229364e-13 8.869004000596176e-13 4.3716587323280807e-13 6.683505928481385e-13 4.0341774825200184e-13
          6.047050594129587e-13 4.549139012506201e-13 1.7892040260929398e-12 1.3543904845770106e-12 1.1914177519542406e-12 9.757112854120548e-12
          8.807569727695163e-12 6.804556683880313e-12 1.924643925133049e-11 1.6913806685068957e-11 7.493162236037981e-12 5.714072150918816e-12
          5.220692601581473e-12 3.977565078452794e-12 1.4870906117484584e-11 1.1405858616818603e-11 1.0147437049344941e-11 5.942924230557035e-12
          4.586159445909158e-12 3.880227321539694e-12 2.9903121595837946e-12 1.1159570344127143e-11 8.663447685272202e-12 7.1131268480509046e-12
          3.5150356137350285e-12 2.6759666174355755e-12 2.2890751537105244e-12 1.7408973357828038e-12 6.677648794712914e-12 5.110026570781525e-12
          4.2438882544987456e-12 1.3456140916124927e-12 1.942365924657243e-12 1.055300311742179e-12 1.5129616507402337e-12 9.06814403723485e-13
          1.2495214297308314e-12 1.0709377189512258e-12 3.629740382607845e-12 2.8490181936885922e-12 2.2834635879931496e-12 8.162123413872524e-13
          1.1672557331922711e-12 6.257619818949151e-13 8.966749970524444e-13 6.741708691361668e-13 9.160104342754495e-13 7.008960119409594e-13
          2.2146085292903822e-12 1.7107241927084298e-12 1.5967833577131326e-12 6.018695503873196e-13 7.904679973561349e-13 5.436905220651836e-13