<?xml version="1.0"?>
<VTKFile type="UnstructuredGrid" version="0.1" byte_order="LittleEndian" header_type="UInt32" compressor="vtkZLibDataCompressor">
  <UnstructuredGrid>
    <Piece NumberOfPoints="413" NumberOfCells="227">
      <PointData>
        <DataArray type="Int32" Name="libmesh_node_id" format="ascii" RangeMin="351" RangeMax="3781">
          351 449 468 796 827 828
          835 836 837 838 1719 1720
          1721 1727 1761 1762 1767 1813
          1814 1815 1816 1817 1818 1819
          1820 1821 1822 1823 1824 1825
          1826 1827 1828 1829 1830 1831
          1832 1833 1834 1835 1836 1837
          1838 1839 1840 1841 1842 1843
          1844 1845 1846 1847 1848 1849
          1850 1851 1852 1853 1854 1855
          1856 1857 1858 1859 1860 1962
          1963 1964 1965 1966 1967 1968
          1969 1970 1971 1972 1973 1974
          1975 1976 1977 1978 2013 2014
          2015 2016 2017 2018 2019 2020
          2021 2022 3196 3197 3198 3199
          3200 3201 3202 3203 3204 3205
          3206 3207 3208 3209 3220 3221
          3222 3223 3227 3228 3358 3359
          3360 3361 3362 3363 3364 3365
          3366 3367 3375 3376 3379 3380
          3392 3393 3394 3395 3396 3397
          3398 3399 3400 3401 3409 3410
          3413 3414 3622 3623 3624 3625
          3626 3627 3628 3629 3630 3631
          3632 3633 3634 3635 3636 3637
          3638 3639 3640 3641 3642 3643
          3644 3645 3646 3647 3648 3649
          3650 3651 3652 3653 3654 3655
          3656 3657 3658 3659 3660 3661
          3662 3663 3664 3665 3666 3667
          3668 3669 3670 3671 3672 3673
          3674 3675 3676 3677 3678 3679
          3680 3681 3682 3683 3684 3685
          3686 3687 3688 3689 3690 3691
          3692 3693 3694 3695 3696 3697
          3698 3699 3700 3701 3702 3703
          3704 3705 3706 3707 3708 3709
          3710 3711 3712 3713 3714 3715
          3716 3717 3718 3719 3720 3721
          3722 3723 3724 3725 3726 3727
          3728 3729 3730 3731 3732 3733
          3734 3735 3736 3737 3738 3739
          3740 3741 3742 3743 3744 3745
          3746 3747 3748 3749 3750 3751
          3752 3753 3754 3755 3756 3757
          3758 3759 3760 3761 3762 3763
          3764 3765 3766 3767 3768 3769
          3770 3771 3772 3773 3774 3775
          3776 3777 3778 3779 3780 3781
          825 460 829 826 830 831
          461 832 834 833 1130 1137
          1138 1131 795 1143 1134 450
          1147 1148 1155 1156 1153 1158
          469 1159 817 800 1160 818
          1162 1167 1166 1164 821 823
          1168 352 1715 1716 1717 1718
          1722 1724 1723 1747 1777 1779
          1741 1742 1745 797 1954 1955
          1958 456 1960 3186 3187 3188
          3191 1725 3194 1726 3212 3213
          3224 3225 3216 3226 3218 3229
          1728 3350 3351 3353 1759 3356
          1760 3369 3377 3371 3378 3373
          3381 1763 1764 3384 3385 3387
          1765 3390 1766 3403 3411 3405
          3412 3407 3415 1768 803 3278
          3483 3485 3487 3517 3519 3521
          1781 3507 3531 3533 3535
        </DataArray>
        <DataArray type="Float64" Name="bounds" format="ascii" RangeMin="0" RangeMax="0">
          0 0 0 0 0 0
          0 0 0 0 0 0
          0 0 0 0 0 0
          0 0 0 0 0 0
          0 0 0 0 0 0
          0 0 0 0 0 0
          0 0 0 0 0 0
          0 0 0 0 0 0
          0 0 0 0 0 0
          0 0 0 0 0 0
          0 0 0 0 0 0
          0 0 0 0 0 0
          0 0 0 0 0 0
          0 0 0 0 0 0
          0 0 0 0 0 0
          0 0 0 0 0 0
          0 0 0 0 0 0
          0 0 0 0 0 0
          0 0 0 0 0 0
          0 0 0 0 0 0
          0 0 0 0 0 0
          0 0 0 0 0 0
          0 0 0 0 0 0
          0 0 0 0 0 0
          0 0 0 0 0 0
          0 0 0 0 0 0
          0 0 0 0 0 0
          0 0 0 0 0 0
          0 0 0 0 0 0
          0 0 0 0 0 0
          0 0 0 0 0 0
          0 0 0 0 0 0
          0 0 0 0 0 0
          0 0 0 0 0 0
          0 0 0 0 0 0
          0 0 0 0 0 0
          0 0 0 0 0 0
          0 0 0 0 0 0
          0 0 0 0 0 0
          0 0 0 0 0 0
          0 0 0 0 0 0
          0 0 0 0 0 0
          0 0 0 0 0 0
          0 0 0 0 0 0
          0 0 0 0 0 0
          0 0 0 0 0 0
          0 0 0 0 0 0
          0 0 0 0 0 0
          0 0 0 0 0 0
          0 0 0 0 0 0
          0 0 0 0 0 0
          0 0 0 0 0 0
          0 0 0 0 0 0
          0 0 0 0 0 0
          0 0 0 0 0 0
          0 0 0 0 0 0
          0 0 0 0 0 0
          0 0 0 0 0 0
          0 0 0 0 0 0
          0 0 0 0 0 0
          0 0 0 0 0 0
          0 0 0 0 0 0
          0 0 0 0 0 0
          0 0 0 0 0 0
          0 0 0 0 0 0
          0 0 0 0 0 0
          0 0 0 0 0 0
          0 0 0 0 0 0
          0 0 0 0 0
        </DataArray>
        <DataArray type="Float64" Name="gradient_error" format="ascii" RangeMin="8.962877939712447e-13" RangeMax="2.785418065687897e-9">
          6.330474221226771e-10 2.082688259356474e-11 3.3786761890954554e-12 7.637338827475242e-11 1.0788995820659376e-11 9.041902991422982e-12
          1.5367129247308115e-11 7.080744230383185e-12 2.27635339779172e-12 6.302082266816946e-12 1.722135325296347e-11 1.4397781697807642e-11
          1.2423576673686844e-11 5.920468272715311e-11 4.047148296114481e-10 3.1136360591031193e-10 5.108914036283501e-10 4.655298428631873e-12
          4.17242990157173e-12 6.666696702799012e-12 5.722231976798553e-12 1.4913478437473257e-12 7.797320983750783e-12 6.716202773122552e-12
          3.0017846424953607e-12 6.544996861429599e-12 4.360223633795374e-12 1.6404577413933763e-11 1.302694196286515e-11 9.111015987871501e-12
          1.2086408127124784e-11 6.91576368861717e-11 5.324635123960555e-11 1.2089358448217705e-11 9.547365792634997e-12 2.568271284780772e-11
          8.4853584766131e-12 1.1019885237471986e-10 8.740109405718777e-11 1.2124005094236484e-11 3.915838692462166e-11 8.245202870308247e-12
          6.895858943315367e-12 5.567865403525966e-12 4.651314622151389e-12 2.100652547644609e-12 2.9116042934533314e-12 2.5385118439966653e-12
          4.132865605837595e-12 3.745245448589471e-12 1.7736257729841604e-12 3.0592165062133772e-12 2.536072320695254e-12 2.976371140348721e-12
          3.395712997601818e-12 1.4093019304671014e-11 1.5068052235556468e-11 7.949632695025039e-12 8.46893948132148e-12 1.089721535216892e-11
          1.1481013628658103e-11 5.62016248107256e-12 1.2698334571252107e-11 7.0452580406397085e-12 9.402674802791448e-12 2.3041061027283306e-12
          6.09781986401352e-12 1.5142580065936965e-12 2.726253922521137e-12 2.294204294977525e-12 3.900693097098843e-12 2.3671451399458488e-12
          2.1592545444725597e-12 2.7939324542019327e-12 1.0329647077386163e-12 1.1595424209671947e-12 1.5992928935924172e-12 1.784787415538341e-12
          9.372526905060679e-13 3.428610363931306e-12 1.2861201341957732e-12 1.970281937484265e-12 4.684816118370266e-12 5.958389137919538e-12
          2.8117408651657123e-12 2.842838134203808e-12 3.407503899707062e-12 4.013067186416333e-12 2.1966233125112985e-12 7.231962157468811e-12
          2.873935403241903e-12 4.618630473125605e-12 1.8849411265027622e-11 1.7940485891409604e-11 4.751736290229792e-11 4.489639447464238e-11
          8.750757659448803e-12 2.225673801280791e-11 2.1042530639492588e-11 1.5559271217072182e-11 3.791981877717042e-11 1.784625573325409e-11
          1.6705430462888809e-10 1.5660555590021362e-10 7.166113464523385e-11 1.2900524417838817e-10 1.2457637340239564e-11 2.8712025291116193e-11
          6.324942273392728e-12 1.3536959308819765e-11 9.363327241924827e-11 4.312490176131983e-11 4.570343713637106e-10 4.272238227741116e-10
          2.060178597342749e-10 1.9262510665455682e-10 3.4801881251821244e-10 1.571374594461519e-10 8.981107997481548e-10 8.437016097378939e-10
          3.7972478698597775e-10 6.931737229674573e-10 2.462810122481363e-10 1.117293691816645e-10 4.902067716730265e-10 2.2035595492594909e-10
          1.2586758495168624e-9 1.1970715608664798e-9 5.739415127492324e-10 5.438031506041857e-10 1.008579300862097e-9 4.548431753194392e-10
          1.3772755475466283e-9 1.3198287390628426e-9 6.034189748745984e-10 1.129118658806197e-9 7.267940828715232e-10 3.263956213702785e-10
          8.234365152967623e-10 3.7003724407359496e-10 4.5764631494394234e-12 4.348744675499074e-12 9.91363837804458e-12 9.38327962195327e-12
          3.00959239129521e-12 5.943166524511912e-12 5.6345395644656e-12 3.782926113643237e-12 8.000590767783669e-12 4.816651494403353e-12
          3.3271974591854314e-11 3.124839605610824e-11 1.6102294262377235e-11 2.5923770234259754e-11 3.2469971534026827e-12 6.141174304801795e-12
          2.2309880940765492e-12 3.825809497437875e-12 3.0491682810776157e-12 5.134087939898214e-12 3.3442286104883317e-12 1.8944177703441626e-11
          9.90420820513533e-12 1.4728954588145062e-11 8.820874461916531e-11 8.253033650060574e-11 3.5880324535786424e-11 3.360137159939614e-11
          6.749662501908455e-11 2.758358962636069e-11 1.7193366750325128e-10 1.6123851873450344e-10 6.48603742427742e-11 1.3218601222784143e-10
          8.351079821540247e-12 7.838936176165759e-12 1.3784162021724246e-11 1.2921769881232774e-11 4.437190210007474e-12 7.459727521656364e-12
          7.0013049217191154e-12 6.5182160165056595e-12 1.0664550854478204e-11 5.790737199866778e-12 2.6450075503205966e-11 2.4811967524406582e-11
          1.0713337973197735e-11 2.0419321390935446e-11 4.8291213092985904e-11 1.979592025398705e-11 3.0151619842017555e-11 1.4767566308460053e-11
          9.399420006944609e-11 3.799467995097391e-11 5.77272177287852e-11 4.903079075932229e-12 7.70572442949658e-12 2.897615377242304e-12
          4.347997085309132e-12 4.096518649644411e-12 6.1417248907780515e-12 3.6574020926665775e-12 1.45610429211518e-11 6.413298880680882e-12
          1.0322012607160523e-11 2.455115492807463e-10 2.320199042674645e-10 9.905141039028181e-11 9.345229632475627e-11 1.932036502365054e-10
          7.764741303226601e-11 2.722801172162617e-10 2.585444665233245e-10 1.0436288933800856e-10 2.1739924100890162e-10 3.791605200629503e-11
          3.573654565959746e-11 1.3695248866740655e-11 1.29027705864223e-11 2.966614067286842e-11 1.0716464635605968e-11 4.214919722808638e-11
          3.9853759856681546e-11 1.4518244029763378e-11 3.3304524256316703e-11 1.3863883248106187e-10 5.586753064500026e-11 8.503940905044319e-11
          3.446360066745366e-11 1.5701868705852105e-10 6.319154503872341e-11 9.644369424449293e-11 2.1439373582550104e-11 7.786399366101095e-12
          1.3304572012996967e-11 5.938183883183339e-12 2.4265031105857545e-11 8.852039807868845e-12 1.5219590681208996e-11 4.0372717954357814e-12
          3.7926393961289845e-12 4.7075568230530785e-12 4.434960191777293e-12 2.1937000329719526e-12 2.5047035331359757e-12 2.3596153607377306e-12
          3.163861503931178e-12 3.700695436808702e-12 1.966471481333943e-12 5.3778418506703765e-12 5.077280987425602e-12 2.5255306885035083e-12
          4.237529369686226e-12 2.3329534299165164e-12 2.69044990363685e-12 1.3859380173534565e-12 1.4717567002908401e-12 1.8861908487928625e-12
          2.1418724941578046e-12 1.2250976262532795e-12 3.0479463773571845e-12 1.557575383228224e-12 2.3975541395227474e-12 1.0637571122324437e-11
          1.6645060908195968e-11 6.622522005233918e-12 9.936945337870843e-12 7.619543397665506e-12 1.1427986662205702e-11 7.065351586878647e-12
          3.099463924850928e-11 1.5128269527598345e-11 1.7373563291637956e-11 4.5335639076319766e-11 1.8631408532793643e-11 2.1306902253718683e-11
          1.0953816506579239e-11 5.133455034968847e-11 2.1196097109443654e-11 2.417167453335338e-11 6.300375310754628e-12 7.24646264153791e-12
          3.774051331662462e-12 4.085218276894488e-12 4.549318012107516e-12 4.9872863893451546e-12 2.8562084384273594e-12 8.192549972321192e-12
          4.396385222126514e-12 5.425254766582792e-12 8.156504845547669e-12 9.210591723330731e-12 5.284259096021386e-12 5.700259617053099e-12
          5.581497193007611e-12 5.798462734272837e-12 3.7971361451269065e-12 1.0264678601113794e-11 6.116260138084812e-12 6.015428275538062e-12
          5.596406793464311e-12 3.7228407957721195e-12 3.664935270440097e-12 4.768069194830899e-12 4.459884292829934e-12 3.430669642569179e-12
          5.4861362102025266e-12 6.019336070027644e-12 2.883028635998572e-12 6.035057035420236e-12 1.2319674317493893e-11 3.076203030200059e-12
          2.8452946484100326e-12 1.2104296211701753e-11 1.584340602727932e-11 2.614386266620006e-12 1.0776431855752384e-11 2.8786093778207874e-11
          1.620092961775838e-12 1.2581903778735412e-12 2.0106433374811993e-12 1.5616544437069897e-12 8.962877939712447e-13 1.1126655499327805e-12
          3.3523197986448995e-12 8.466344857875473e-12 3.837755918662738e-11 3.5204209183878824e-11 7.632653058268716e-12 3.668032910653997e-11
          4.8652448392358e-12 6.096423827246516e-12 6.86070979686592e-12 8.364783876526103e-12 3.1099518310483284e-11 2.628753452186353e-11
          1.0140296315496166e-11 8.297935430589475e-11 6.941709249496925e-11 6.085598457708318e-11 5.356876452657603e-11 4.5945948732863535e-11
          4.130803762570567e-11 1.090720627060628e-11 2.953120912313322e-11 1.944290029840671e-11 3.6928004635919814e-11 2.484229772232508e-11
          7.571370161173805e-12 1.2750801988924228e-11 1.4369661685861441e-11 2.992690763753238e-11 1.6341883333340814e-11 2.166596287985442e-11
          1.0449355515172941e-11 2.770211818574143e-11 2.699004242636803e-11 3.591893007765329e-11 9.708684688841116e-11 9.167345317470621e-11
          7.723389393352028e-11 3.4777503476130424e-10 3.258369757159342e-10 2.679146084184953e-10 2.4488108635431562e-11 5.825563046685891e-11
          9.270366347592417e-12 1.9522408231265606e-11 3.95468020399408e-11 1.0719967059568725e-11 1.9358000310179122e-10 6.012637219626388e-11
          1.236358401565675e-10 9.587367200663972e-10 8.964895902183874e-10 7.303787608813791e-10 1.87033481922483e-9 1.7607842190966964e-9
          1.4530482897138303e-9 5.156875619444078e-10 1.5192643366020005e-10 3.1628779232272665e-10 6.944404941664423e-11 1.0305189615955845e-9
          2.971137908794217e-10 6.23658177156436e-10 1.3426980818718987e-10 2.573855538154366e-9 2.460731415404118e-9 2.0960309868715453e-9
          2.785418065687897e-9 2.688627597891509e-9 2.3343255742195944e-9 1.5238169599742266e-9 4.419645227312176e-10 9.290274639972127e-10
          1.9894246464602032e-10 1.7228342667408039e-9 5.030760367464029e-10 1.0573817014731926e-9 2.2623435679770208e-10 1.9691659564912197e-11
          3.8271809549001897e-11 2.2627060438178405e-11 7.165674055243135e-11 1.0461162668767329e-10 4.854484130822599e-11 1.1848348850944905e-10
          5.483689393425604e-11 1.7101930539398626e-11 2.0498837025455056e-11 1.2015996078581883e-11 2.299234659427545e-11
        </DataArray>
        <DataArray type="Float64" Name="gradient_matprop_error" format="ascii" RangeMin="0" RangeMax="0">
          0 0 0 0 0 0
          0 0 0 0 0 0
          0 0 0 0 0 0
          0 0 0 0 0 0
          0 0 0 0 0 0
          0 0 0 0 0 0
          0 0 0 0 0 0
          0 0 0 0 0 0
          0 0 0 0 0 0
          0 0 0 0 0 0
          0 0 0 0 0 0
          0 0 0 0 0 0
          0 0 0 0 0 0
          0 0 0 0 0 0
          0 0 0 0 0 0
          0 0 0 0 0 0
          0 0 0 0 0 0
          0 0 0 0 0 0
          0 0 0 0 0 0
          0 0 0 0 0 0
          0 0 0 0 0 0
          0 0 0 0 0 0
          0 0 0 0 0 0
          0 0 0 0 0 0
          0 0 0 0 0 0
          0 0 0 0 0 0
          0 0 0 0 0 0
          0 0 0 0 0 0
          0 0 0 0 0 0
          0 0 0 0 0 0
          0 0 0 0 0 0
          0 0 0 0 0 0
          0 0 0 0 0 0
          0 0 0 0 0 0
          0 0 0 0 0 0
          0 0 0 0 0 0
          0 0 0 0 0 0
          0 0 0 0 0 0
          0 0 0 0 0 0
          0 0 0 0 0 0
          0 0 0 0 0 0
          0 0 0 0 0 0
          0 0 0 0 0 0
          0 0 0 0 0 0
          0 0 0 0 0 0
          0 0 0 0 0 0
          0 0 0 0 0 0
          0 0 0 0 0 0
          0 0 0 0 0 0
          0 0 0 0 0 0
          0 0 0 0 0 0
          0 0 0 0 0 0
          0 0 0 0 0 0
          0 0 0 0 0 0
          0 0 0 0 0 0
          0 0 0 0 0 0
          0 0 0 0 0 0
          0 0 0 0 0 0
          0 0 0 0 0 0
          0 0 0 0 0 0
          0 0 0 0 0 0
          0 0 0 0 0 0
          0 0 0 0 0 0
          0 0 0 0 0 0
          0 0 0 0 0 0
          0 0 0 0 0 0
          0 0 0 0 0 0
          0 0 0 0 0 0
          0 0 0 0 0
        </DataArray>
        <DataArray type="Float64" Name="initial_marker" format="ascii" RangeMin="0" RangeMax="2">
          2 0 0 2 0 0
          2 0.5 0 0 0 0
          0 2 2 2 2 0
          0 0 0 0 0 0
          0 0 0 1 1 0
          0.25 2 2 1.5 1.5 1.75
          0.25 2 2 2 2 0
          0 0 0 0 0 0
          0 0 0 0 0 0
          0 0 0.25 0 0 0
          0 0 0.5 0 0 0
          0 0 0 0 0 0
          0 0 0 0 0 0
          0 0 0 0 0 0
          0 0 0 0 0 0
          0 0 0 0 1 1
          0 1 1 0 1 1
          2 2 2 2 0 1
          0 0.75 2 1.75 2 2
          2 2 2 2 2 2
          2 2 2 2 2 2
          2 2 2 2 2 2
          2 2 2 2 2 2
          2 2 0 0 0.5 0.5
          0 0 0 0 0.5 0
          1.5 1.5 1.3333333333333333 1.5 0 0.25
          0 0 0 0 0 1.25
          1 1 2 2 2 2
          2 2 2 2 2 2
          1 1 1.5 1.5 0 1
          1 1 1.5 1 2 2
          2 2 2 1.75 1.75 1.3333333333333333
          2 2 2 0.5 1 0
          0.5 0 0.5 0 1.75 1.3333333333333333
          1.3333333333333333 2 2 2 2 2
          2 2 2 2 2 2
          2 2 2 2 2 2
          2 2 2 2 2 2
          2 2 2 2 2 1.5
          1.5 0.6666666666666666 2 1.5 1.5 1
          1 1 1 0 0 0
          1 1 0 1 1 0
          1 0.5 0.5 0 0 0
          0 0 0.5 0 0 0.5
          1 0 0.5 0 0.5 0
          1.75 1.3333333333333333 1 2 1.5 1.25
          0.6666666666666666 2 1.5 1.5 0.5 0.5
          0 0 0 0 0 0.5
          0 0 0 0.25 0 0
          0 0 0 0.5 0 0
          0 0 0 0 0 0
          0 0 0 0 0 0
          0 0 0 0 0 0
          0 0 0 0 0 0
          0 0 0 0 0 0
          0 0 0 0 0 0
          0 0 0 0 0.5 0.5
          0 0 0 0.25 1.25 0
          0 0 0 1.25 0 0
          0 0 0 1 1.5 1.5
          1.5 2 2 2 0.5 1.25
          0 0.75 1 0.3333333333333333 2 1.75
          2 2 2 2 2 2
          2 2 2 2 2 2
          2 2 2 2 2 2
          2 2 2 2 2 2
          2 2 2 2 2 1
          1.75 1 2 2 1.75 2
          2 0.3333333333333333 0.75 0 1
        </DataArray>
        <DataArray type="Float64" Name="markers_norefine" format="ascii" RangeMin="0" RangeMax="0">
          0 0 0 0 0 0
          0 0 0 0 0 0
          0 0 0 0 0 0
          0 0 0 0 0 0
          0 0 0 0 0 0
          0 0 0 0 0 0
          0 0 0 0 0 0
          0 0 0 0 0 0
          0 0 0 0 0 0
          0 0 0 0 0 0
          0 0 0 0 0 0
          0 0 0 0 0 0
          0 0 0 0 0 0
          0 0 0 0 0 0
          0 0 0 0 0 0
          0 0 0 0 0 0
          0 0 0 0 0 0
          0 0 0 0 0 0
          0 0 0 0 0 0
          0 0 0 0 0 0
          0 0 0 0 0 0
          0 0 0 0 0 0
          0 0 0 0 0 0
          0 0 0 0 0 0
          0 0 0 0 0 0
          0 0 0 0 0 0
          0 0 0 0 0 0
          0 0 0 0 0 0
          0 0 0 0 0 0
          0 0 0 0 0 0
          0 0 0 0 0 0
          0 0 0 0 0 0
          0 0 0 0 0 0
          0 0 0 0 0 0
          0 0 0 0 0 0
          0 0 0 0 0 0
          0 0 0 0 0 0
          0 0 0 0 0 0
          0 0 0 0 0 0
          0 0 0 0 0 0
          0 0 0 0 0 0
          0 0 0 0 0 0
          0 0 0 0 0 0
          0 0 0 0 0 0
          0 0 0 0 0 0
          0 0 0 0 0 0
          0 0 0 0 0 0
          0 0 0 0 0 0
          0 0 0 0 0 0
          0 0 0 0 0 0
          0 0 0 0 0 0
          0 0 0 0 0 0
          0 0 0 0 0 0
          0 0 0 0 0 0
          0 0 0 0 0 0
          0 0 0 0 0 0
          0 0 0 0 0 0
          0 0 0 0 0 0
          0 0 0 0 0 0
          0 0 0 0 0 0
          0 0 0 0 0 0
          0 0 0 0 0 0
          0 0 0 0 0 0
          0 0 0 0 0 0
          0 0 0 0 0 0
          0 0 0 0 0 0
          0 0 0 0 0 0
          0 0 0 0 0 0
          0 0 0 0 0
        </DataArray>
        <DataArray type="Float64" Name="markers_mustrefine" format="ascii" RangeMin="0" RangeMax="2">
          2 0 0 2 0 0
          2 0.5 0 0 0 0
          0 2 2 2 2 0
          0 0 0 0 0 0
          0 0 0 1 1 0
          0.25 2 2 1.5 1.5 1.75
          0.25 2 2 2 2 0
          0 0 0 0 0 0
          0 0 0 0 0 0
          0 0 0.25 0 0 0
          0 0 0.5 0 0 0
          0 0 0 0 0 0
          0 0 0 0 0 0
          0 0 0 0 0 0
          0 0 0 0 0 0
          0 0 0 0 1 1
          0 1 1 0 1 1
          2 2 2 2 0 1
          0 0.75 2 1.75 2 2
          2 2 2 2 2 2
          2 2 2 2 2 2
          2 2 2 2 2 2
          2 2 2 2 2 2
          2 2 0 0 0.5 0.5
          0 0 0 0 0.5 0
          1.5 1.5 1.3333333333333333 1.5 0 0.25
          0 0 0 0 0 1.25
          1 1 2 2 2 2
          2 2 2 2 2 2
          1 1 1.5 1.5 0 1
          1 1 1.5 1 2 2
          2 2 2 1.75 1.75 1.3333333333333333
          2 2 2 0.5 1 0
          0.5 0 0.5 0 1.75 1.3333333333333333
          1.3333333333333333 2 2 2 2 2
          2 2 2 2 2 2
          2 2 2 2 2 2
          2 2 2 2 2 2
          2 2 2 2 2 1.5
          1.5 0.6666666666666666 2 1.5 1.5 1
          1 1 1 0 0 0
          1 1 0 1 1 0
          1 0.5 0.5 0 0 0
          0 0 0.5 0 0 0.5
          1 0 0.5 0 0.5 0
          1.75 1.3333333333333333 1 2 1.5 1.25
          0.6666666666666666 2 1.5 1.5 0.5 0.5
          0 0 0 0 0 0.5
          0 0 0 0.25 0 0
          0 0 0 0.5 0 0
          0 0 0 0 0 0
          0 0 0 0 0 0
          0 0 0 0 0 0
          0 0 0 0 0 0
          0 0 0 0 0 0
          0 0 0 0 0 0
          0 0 0 0 0.5 0.5
          0 0 0 0.25 1.25 0
          0 0 0 1.25 0 0
          0 0 0 1 1.5 1.5
          1.5 2 2 2 0.5 1.25
          0 0.75 1 0.3333333333333333 2 1.75
          2 2 2 2 2 2
          2 2 2 2 2 2
          2 2 2 2 2 2
          2 2 2 2 2 2
          2 2 2 2 2 1
          1.75 1 2 2 1.75 2
          2 0.3333333333333333 0.75 0 1
        </DataArray>
        <DataArray type="Float64" Name="gradient_marker" format="ascii" RangeMin="1" RangeMax="1">
          1 1 1 1 1 1
          1 1 1 1 1 1
          1 1 1 1 1 1
          1 1 1 1 1 1
          1 1 1 1 1 1
          1 1 1 1 1 1
          1 1 1 1 1 1
          1 1 1 1 1 1
          1 1 1 1 1 1
          1 1 1 1 1 1
          1 1 1 1 1 1
          1 1 1 1 1 1
          1 1 1 1 1 1
          1 1 1 1 1 1
          1 1 1 1 1 1
          1 1 1 1 1 1
          1 1 1 1 1 1
          1 1 1 1 1 1
          1 1 1 1 1 1
          1 1 1 1 1 1
          1 1 1 1 1 1
          1 1 1 1 1 1
          1 1 1 1 1 1
          1 1 1 1 1 1
          1 1 1 1 1 1
          1 1 1 1 1 1
          1 1 1 1 1 1
          1 1 1 1 1 1
          1 1 1 1 1 1
          1 1 1 1 1 1
          1 1 1 1 1 1
          1 1 1 1 1 1
          1 1 1 1 1 1
          1 1 1 1 1 1
          1 1 1 1 1 1
          1 1 1 1 1 1
          1 1 1 1 1 1
          1 1 1 1 1 1
          1 1 1 1 1 1
          1 1 1 1 1 1
          1 1 1 1 1 1
          1 1 1 1 1 1
          1 1 1 1 1 1
          1 1 1 1 1 1
          1 1 1 1 1 1
          1 1 1 1 1 1
          1 1 1 1 1 1
          1 1 1 1 1 1
          1 1 1 1 1 1
          1 1 1 1 1 1
          1 1 1 1 1 1
          1 1 1 1 1 1
          1 1 1 1 1 1
          1 1 1 1 1 1
          1 1 1 1 1 1
          1 1 1 1 1 1
          1 1 1 1 1 1
          1 1 1 1 1 1
          1 1 1 1 1 1
          1 1 1 1 1 1
          1 1 1 1 1 1
          1 1 1 1 1 1
          1 1 1 1 1 1
          1 1 1 1 1 1
          1 1 1 1 1 1
          1 1 1 1 1 1
          1 1 1 1 1 1
          1 1 1 1 1 1
          1 1 1 1 1
        </DataArray>
        <DataArray type="Float64" Name="gradient_matprop_marker" format="ascii" RangeMin="0" RangeMax="0">
          0 0 0 0 0 0
          0 0 0 0 0 0
          0 0 0 0 0 0
          0 0 0 0 0 0
          0 0 0 0 0 0
          0 0 0 0 0 0
          0 0 0 0 0 0
          0 0 0 0 0 0
          0 0 0 0 0 0
          0 0 0 0 0 0
          0 0 0 0 0 0
          0 0 0 0 0 0
          0 0 0 0 0 0
          0 0 0 0 0 0
          0 0 0 0 0 0
          0 0 0 0 0 0
          0 0 0 0 0 0
          0 0 0 0 0 0
          0 0 0 0 0 0
          0 0 0 0 0 0
          0 0 0 0 0 0
          0 0 0 0 0 0
          0 0 0 0 0 0
          0 0 0 0 0 0
          0 0 0 0 0 0
          0 0 0 0 0 0
          0 0 0 0 0 0
          0 0 0 0 0 0
          0 0 0 0 0 0
          0 0 0 0 0 0
          0 0 0 0 0 0
          0 0 0 0 0 0
          0 0 0 0 0 0
          0 0 0 0 0 0
          0 0 0 0 0 0
          0 0 0 0 0 0
          0 0 0 0 0 0
          0 0 0 0 0 0
          0 0 0 0 0 0
          0 0 0 0 0 0
          0 0 0 0 0 0
          0 0 0 0 0 0
          0 0 0 0 0 0
          0 0 0 0 0 0
          0 0 0 0 0 0
          0 0 0 0 0 0
          0 0 0 0 0 0
          0 0 0 0 0 0
          0 0 0 0 0 0
          0 0 0 0 0 0
          0 0 0 0 0 0
          0 0 0 0 0 0
          0 0 0 0 0 0
          0 0 0 0 0 0
          0 0 0 0 0 0
          0 0 0 0 0 0
          0 0 0 0 0 0
          0 0 0 0 0 0
          0 0 0 0 0 0
          0 0 0 0 0 0
          0 0 0 0 0 0
          0 0 0 0 0 0
          0 0 0 0 0 0
          0 0 0 0 0 0
          0 0 0 0 0 0
          0 0 0 0 0 0
          0 0 0 0 0 0
          0 0 0 0 0 0
          0 0 0 0 0
        </DataArray>
        <DataArray type="Float64" Name="combo" format="ascii" RangeMin="1" RangeMax="1">
          1 1 1 1 1 1
          1 1 1 1 1 1
          1 1 1 1 1 1
          1 1 1 1 1 1
          1 1 1 1 1 1
          1 1 1 1 1 1
          1 1 1 1 1 1
          1 1 1 1 1 1
          1 1 1 1 1 1
          1 1 1 1 1 1
          1 1 1 1 1 1
          1 1 1 1 1 1
          1 1 1 1 1 1
          1 1 1 1 1 1
          1 1 1 1 1 1
          1 1 1 1 1 1
          1 1 1 1 1 1
          1 1 1 1 1 1
          1 1 1 1 1 1
          1 1 1 1 1 1
          1 1 1 1 1 1
          1 1 1 1 1 1
          1 1 1 1 1 1
          1 1 1 1 1 1
          1 1 1 1 1 1
          1 1 1 1 1 1
          1 1 1 1 1 1
          1 1 1 1 1 1
          1 1 1 1 1 1
          1 1 1 1 1 1
          1 1 1 1 1 1
          1 1 1 1 1 1
          1 1 1 1 1 1
          1 1 1 1 1 1
          1 1 1 1 1 1
          1 1 1 1 1 1
          1 1 1 1 1 1
          1 1 1 1 1 1
          1 1 1 1 1 1
          1 1 1 1 1 1
          1 1 1 1 1 1
          1 1 1 1 1 1
          1 1 1 1 1 1
          1 1 1 1 1 1
          1 1 1 1 1 1
          1 1 1 1 1 1
          1 1 1 1 1 1
          1 1 1 1 1 1
          1 1 1 1 1 1
          1 1 1 1 1 1
          1 1 1 1 1 1
          1 1 1 1 1 1
          1 1 1 1 1 1
          1 1 1 1 1 1
          1 1 1 1 1 1
          1 1 1 1 1 1
          1 1 1 1 1 1
          1 1 1 1 1 1
          1 1 1 1 1 1
          1 1 1 1 1 1
          1 1 1 1 1 1
          1 1 1 1 1 1
          1 1 1 1 1 1
          1 1 1 1 1 1
          1 1 1 1 1 1
          1 1 1 1 1 1
          1 1 1 1 1 1
          1 1 1 1 1 1
          1 1 1 1 1
        </DataArray>
        <DataArray type="Float64" Name="dHdT" format="ascii" RangeMin="25.81147072888056" RangeMax="26.64496206262632">
          25.98234157414972 25.811855136781382 25.811555393668307 25.82488315116405 25.81192072376904 25.81174585579157
          25.815018129616178 25.812493055170247 25.81151905711978 25.811657634118458 25.8120456110594 25.81269919328347
          25.812513975095467 25.821666738891096 25.899006061689285 25.873706238788362 25.93056006848976 25.811660841075195
          25.81164270171736 25.811821437697848 25.811774101649462 25.811555753372275 25.81172364497193 25.811691996649856
          25.81160899726357 25.81173579852878 25.811631745600497 25.81382656723548 25.813305442768794 25.811945610737386
          25.812425762184564 25.825820920677764 25.8218734003891 25.813349490545544 25.812881636232603 25.815592150961557
          25.812143715509837 25.838668876442306 25.830754282509236 25.814058148408876 25.818774146675587 25.81174459813289
          25.81170082148482 25.811771791177062 25.811715154396826 25.811562894649022 25.81159725384184 25.811578930050075
          25.811617854119007 25.81163118679284 25.811544027019558 25.811833605183157 25.81175203575934 25.81159496545112
          25.811653459994222 25.812002278585766 25.81262936042935 25.81172653642739 25.811793635719372 25.81185868181204
          25.811938518692514 25.811674708712147 25.813184474942407 25.811833418850117 25.811971788037308 25.811588690221612
          25.811701048839712 25.811544003580593 25.811591310813647 25.811583948275597 25.811655750035847 25.811579478754084
          25.811554055083743 25.81157447050717 25.81151094806003 25.81151627929043 25.81152944676623 25.81154076028962
          25.811505110800052 25.811594885930596 25.811521610520835 25.81155207381302 25.8116978159221 25.811727520272882
          25.81159319115659 25.81159907175112 25.811644635460528 25.811654337890612 25.81157056343099 25.811757224623666
          25.811604952345654 25.8116640403207 25.815112778600103 25.814942386785447 25.81986036088281 25.819382378734648
          25.813201487598263 25.81544446166431 25.815226092251464 25.81448597656567 25.81812638058094 25.81464955914551
          25.840939501694017 25.83891123829552 25.823983230628865 25.83370124561695 25.813878768917608 25.816508256059592
          25.812705576835764 25.813915455533632 25.82728343245543 25.818792412444036 25.89913939292689 25.89230712803479
          25.850444187108064 25.84746961967896 25.875062483872874 25.839940976550647 26.011088157632223 25.994371855909062
          25.891781657358315 25.952589955730407 25.854596303227147 25.830945774185107 25.904076239300863 25.85264108605147
          26.1419440930486 26.113412239240855 25.95581180983955 25.94340488608873 26.04229334852103 25.91255364579395
          26.202719596464014 26.16869491682597 25.967469932465676 26.083896046689297 25.960291477978608 25.8770570854044
          25.986193962100486 25.888264056419505 25.81236391821318 25.812326176081676 25.813294888849192 25.81319883951223
          25.81205056397602 25.81261009210459 25.812551725984303 25.81222260901467 25.81294487894886 25.81239891257885