<?xml version="1.0"?>
<VTKFile type="UnstructuredGrid" version="0.1" byte_order="LittleEndian" header_type="UInt32" compressor="vtkZLibDataCompressor">
  <UnstructuredGrid>
    <Piece NumberOfPoints="404" NumberOfCells="229">
      <PointData>
        <DataArray type="Int32" Name="libmesh_node_id" format="ascii" RangeMin="352" RangeMax="3621">
          456 791 792 793 794 795
          797 799 800 801 802 803
          804 823 1705 1706 1707 1708
          1709 1710 1713 1714 1715 1716
          1717 1718 1722 1723 1724 1725
          1726 1728 1731 1732 1735 1736
          1737 1739 1740 1741 1742 1743
          1744 1745 1746 1747 1748 1751
          1752 1753 1754 1757 1758 1759
          1760 1763 1764 1765 1766 1768
          1769 1770 1772 1773 1774 1776
          1777 1778 1779 1780 1781 1782
          1805 1806 1809 1811 1947 1948
          1951 1952 1953 1954 1955 1956
          1957 1958 1959 1960 1961 3148
          3149 3150 3151 3152 3153 3154
          3155 3156 3157 3158 3159 3160
          3161 3168 3172 3173 3174 3175
          3176 3177 3178 3179 3180 3181
          3182 3183 3184 3185 3186 3187
          3188 3189 3190 3191 3192 3193
          3194 3195 3210 3211 3212 3213
          3214 3215 3216 3217 3218 3219
          3224 3225 3226 3229 3232 3233
          3238 3240 3241 3242 3243 3244
          3245 3246 3247 3248 3249 3260
          3261 3262 3263 3264 3265 3266
          3267 3268 3269 3270 3271 3272
          3273 3274 3275 3276 3277 3278
          3279 3290 3291 3292 3293 3294
          3295 3296 3297 3298 3299 3303
          3307 3308 3309 3310 3311 3312
          3313 3324 3325 3326 3327 3328
          3329 3330 3331 3332 3333 3337
          3341 3342 3343 3344 3345 3346
          3347 3348 3349 3350 3351 3352
          3353 3354 3355 3356 3357 3368
          3369 3370 3371 3372 3373 3374
          3377 3378 3381 3382 3383 3384
          3385 3386 3387 3388 3389 3390
          3391 3402 3403 3404 3405 3406
          3407 3408 3411 3412 3415 3417
          3419 3421 3423 3424 3425 3426
          3427 3428 3429 3437 3438 3439
          3440 3441 3442 3443 3444 3445
          3446 3448 3450 3452 3454 3455
          3456 3457 3458 3459 3460 3468
          3469 3470 3471 3472 3473 3474
          3475 3476 3477 3478 3479 3480
          3481 3482 3483 3484 3485 3486
          3487 3488 3489 3490 3491 3492
          3493 3494 3495 3496 3497 3498
          3499 3500 3501 3502 3503 3504
          3505 3506 3507 3508 3509 3510
          3511 3512 3513 3514 3515 3516
          3517 3518 3519 3520 3521 3522
          3523 3524 3525 3526 3527 3528
          3529 3530 3531 3532 3533 3534
          3535 3536 3612 3613 3614 3615
          3616 3617 3618 3619 3620 3621
          798 450 817 815 818 816
          821 820 822 352 824 1128
          1131 1134 1133 1729 1730 1733
          1734 1738 1803 1771 1804 1807
          1808 1810 1812 1945 1946 1949
          1950 3236 3258 3431 3433 3435
          3462 3464 3466 1775 3603 3606
          3608 3610
        </DataArray>
        <DataArray type="Float64" Name="bounds" format="ascii" RangeMin="0" RangeMax="0">
          0 0 0 0 0 0
          0 0 0 0 0 0
          0 0 0 0 0 0
          0 0 0 0 0 0
          0 0 0 0 0 0
          0 0 0 0 0 0
          0 0 0 0 0 0
          0 0 0 0 0 0
          0 0 0 0 0 0
          0 0 0 0 0 0
          0 0 0 0 0 0
          0 0 0 0 0 0
          0 0 0 0 0 0
          0 0 0 0 0 0
          0 0 0 0 0 0
          0 0 0 0 0 0
          0 0 0 0 0 0
          0 0 0 0 0 0
          0 0 0 0 0 0
          0 0 0 0 0 0
          0 0 0 0 0 0
          0 0 0 0 0 0
          0 0 0 0 0 0
          0 0 0 0 0 0
          0 0 0 0 0 0
          0 0 0 0 0 0
          0 0 0 0 0 0
          0 0 0 0 0 0
          0 0 0 0 0 0
          0 0 0 0 0 0
          0 0 0 0 0 0
          0 0 0 0 0 0
          0 0 0 0 0 0
          0 0 0 0 0 0
          0 0 0 0 0 0
          0 0 0 0 0 0
          0 0 0 0 0 0
          0 0 0 0 0 0
          0 0 0 0 0 0
          0 0 0 0 0 0
          0 0 0 0 0 0
          0 0 0 0 0 0
          0 0 0 0 0 0
          0 0 0 0 0 0
          0 0 0 0 0 0
          0 0 0 0 0 0
          0 0 0 0 0 0
          0 0 0 0 0 0
          0 0 0 0 0 0
          0 0 0 0 0 0
          0 0 0 0 0 0
          0 0 0 0 0 0
          0 0 0 0 0 0
          0 0 0 0 0 0
          0 0 0 0 0 0
          0 0 0 0 0 0
          0 0 0 0 0 0
          0 0 0 0 0 0
          0 0 0 0 0 0
          0 0 0 0 0 0
          0 0 0 0 0 0
          0 0 0 0 0 0
          0 0 0 0 0 0
          0 0 0 0 0 0
          0 0 0 0 0 0
          0 0 0 0 0 0
          0 0 0 0 0 0
          0 0
        </DataArray>
        <DataArray type="Float64" Name="gradient_error" format="ascii" RangeMin="4.668621308412996e-12" RangeMax="1.3587952295101895e-8">
          2.770211818574143e-11 1.0900208813119784e-10 9.007688737550519e-11 1.2898124555577058e-9 4.5485553706033726e-10 1.584340602727932e-11
          2.992690763753238e-11 1.7001659781985556e-10 3.5204209183878824e-11 8.850407479816747e-9 3.881593184219754e-9 2.2623435679770208e-10
          1.8528743616656774e-10 2.628753452186353e-11 1.2158214324051386e-10 1.6721969132433633e-10 1.441487116940901e-10 2.2683846052839946e-10
          2.6000478683901394e-10 9.390778859096251e-11 9.934470140258957e-10 1.3804915997247113e-9 6.941709249496925e-11 6.085598457708318e-11
          5.356876452657603e-11 4.5945948732863535e-11 4.130803762570567e-11 2.953120912313322e-11 1.090720627060628e-11 3.4777503476130424e-10
          2.679146084184953e-10 1.236358401565675e-10 6.460235071542535e-11 1.098118091265694e-10 1.215375881720348e-10 4.438993402505881e-10
          1.8742583308873493e-10 2.342691041157891e-11 3.557160625917212e-11 7.571370161173805e-12 1.2750801988924228e-11 1.6532622230943584e-11
          5.074522187702854e-11 1.4369661685861441e-11 5.4092957640902116e-11 1.944290029840671e-11 5.950410996003063e-11 6.551998653379033e-9
          5.224942768707668e-9 6.694863110677439e-9 2.3160830468922108e-9 7.954871566825158e-9 1.0805312049539387e-8 1.87033481922483e-9
          1.4530482897138303e-9 6.23658177156436e-10 1.3426980818718987e-10 2.785418065687897e-9 2.3343255742195944e-9 1.0573817014731926e-9
          1.7015640480588769e-9 5.61341858991261e-10 1.6514125661542482e-10 2.7603817112510142e-9 9.174263564510619e-10 1.5194049900848344e-10
          3.6928004635919814e-11 7.412299987917473e-11 2.484229772232508e-11 2.4713181620233377e-10 5.483689393425604e-11 1.00272196024457e-10
          1.1427458410861094e-10 1.2076323720930053e-10 5.59465830257817e-11 9.987275610401027e-11 2.695797774648939e-11 4.3036690615517117e-11
          2.9655916719240585e-11 4.995538272191472e-11 6.678294066059632e-11 1.6341883333340814e-11 2.166596287985442e-11 2.184020971006803e-11
          2.205157348055926e-11 1.0449355515172941e-11 8.36104985992779e-11 2.699004242636803e-11 2.226293725105049e-11 2.4874880277959675e-10
          2.3570759296428297e-10 6.378509994875849e-10 6.013951997332091e-10 1.2977378080910599e-10 3.5565081422561075e-10 3.354594411480561e-10
          2.0097870811965733e-10 5.044133499887557e-10 2.816712681159377e-10 2.285769990209997e-9 2.143939995130222e-9 1.2086333683906015e-9
          1.7664123991807165e-9 4.3583409530482627e-10 1.551048545250382e-10 3.7757142750824856e-10 8.663049110685614e-11 2.1122092442154986e-10
          1.1003309784188166e-10 2.542494851576925e-10 1.4242737814557455e-10 1.2763717169982956e-9 7.160194738576123e-10 8.122577123557528e-10
          7.27818991433912e-11 6.926635716907619e-11 1.898528391231666e-10 1.7916257214608171e-10 3.591893007765329e-11 9.708684688841116e-11
          9.167345317470621e-11 5.968106277605113e-11 1.5065510897453192e-10 7.723389393352028e-11 6.87864344081954e-10 6.443792675889883e-10
          3.258369757159342e-10 5.293965712567075e-10 4.676076671768752e-11 1.1325808288291687e-10 2.4488108635431562e-11 5.825563046685891e-11
          3.360465635868795e-11 7.660638460845851e-11 3.95468020399408e-11 3.816250872401559e-10 1.9358000310179122e-10 2.427823913381325e-10
          9.270366347592417e-12 1.9522408231265606e-11 1.0719967059568725e-11 6.012637219626388e-11 1.2709886955051743e-10 2.663455360442716e-10
          7.885442075344722e-10 7.534916162794702e-11 1.5469391902972174e-10 4.276356586797029e-11 8.669544155332512e-11 6.155080353186154e-11
          1.1214442276187768e-10 6.290350749722694e-11 4.6030306036922575e-10 2.56908252135681e-10 2.848236309594411e-10 2.3382427403435126e-11
          4.685332121246397e-11 1.2480864420419795e-11 2.445124740619517e-11 1.9465765167528304e-11 3.417212619377758e-11 1.811242326018727e-11
          1.3743540187160762e-10 7.052284474215996e-11 8.474629787659661e-11 6.522947691385873e-12 1.208172819756566e-11 4.668621308412996e-12
          7.901897142536166e-12 5.33345545171326e-12 8.978479007478516e-12 6.063353940983382e-12 3.4519706214263385e-11 1.9691659564912197e-11
          2.1568689720232582e-11 6.066732893742999e-9 5.705011904301946e-9 3.507640717051145e-9 3.289407705086061e-9 4.712185585621931e-9
          2.69778546843852e-9 1.0860115334469241e-8 1.0371674908605892e-8 6.2160189547936286e-9 8.861423789375405e-9 3.4991299687033797e-9
          3.3759330638836447e-9 1.9158008517243914e-9 2.0882644543281334e-9 1.1758923820365458e-9 6.531778667869854e-9 3.778847805595652e-9
          4.069543699565907e-9 1.331712435641341e-8 1.3121037743734047e-8 8.472029154867531e-9 8.234547607568438e-9 1.1945062262030102e-8
          7.27202222917935e-9 1.3502897047149914e-8 1.3587952295101895e-8 8.739751080427546e-9 1.2866671310049677e-8 9.637975643525184e-9
          9.28822177770402e-9 5.478663101499502e-9 5.953841707152791e-9 3.424357425893476e-9 1.0312046913930488e-8 6.135004705277503e-9
          6.719075371592032e-9 1.893964869381671e-9 1.772791027766432e-9 9.587367200663972e-10 8.964895902183874e-10 1.44732832252276e-9
          7.303787608813791e-10 3.6351581892351173e-9 3.4332797930615287e-9 1.7607842190966964e-9 2.8543231359274536e-9 1.0229417758488444e-9
          5.156875619444078e-10 6.262462243066305e-10 3.1628779232272665e-10 2.038814706866154e-9 1.0305189615955845e-9 1.237897038824593e-9
          1.5192643366020005e-10 6.944404941664423e-11 2.971137908794217e-10 4.873909021151306e-9 4.692567596060757e-9 2.573855538154366e-9
          2.460731415404118e-9 4.0587035798128465e-9 2.0960309868715453e-9 5.196626493534754e-9 5.064457913476432e-9 2.688627597891509e-9
          4.4862535454759046e-9 2.9935161345939607e-9 1.5238169599742266e-9 1.8408753578679107e-9 9.290274639972127e-10 3.371791631721137e-9
          1.7228342667408039e-9 2.09249241688186e-9 4.419645227312176e-10 1.9894246464602032e-10 5.030760367464029e-10 1.912620257197029e-9
          9.330246461402946e-10 3.6163618634676496e-9 1.129003106825205e-9 6.323314246252147e-10 5.458872024902172e-10 3.0476549201622135e-10
          2.1571304537827905e-9 1.2141674303399568e-9 1.0025526657893565e-9 1.6254445926453542e-10 2.446070470050909e-10 9.079113418164224e-11
          1.3617033505758252e-10 1.0685668907584848e-10 1.4970286540821193e-10 8.289323095277987e-11 4.2697410218496976e-10 2.381941361191265e-10
          1.9904845852559741e-10 5.263898439273517e-9 2.4468933729294965e-9 5.948817453474874e-9 3.166976405774428e-9 1.7909778352815776e-9
          1.447291254546001e-9 8.114241720549249e-10 3.591130673326731e-9 2.0350944721009892e-9 1.6353851570505085e-9 5.991981216465164e-10
          3.357670081201494e-10 2.2959522380574175e-10 1.551820252905881e-10 6.7111767366874e-10 3.7669527993556854e-10 2.56892280693375e-10
          3.368676512702213e-10 1.7104919173686293e-10 1.6265960544404713e-10 8.309751775077186e-11 6.464420134559811e-10 3.2641489480804044e-10
          2.9916180687574144e-10 8.300675583618939e-11 3.8271809549001897e-11 4.053195293960458e-11 2.2627060438178405e-11 1.5682590042694793e-10
          7.165674055243135e-11 7.361462466805801e-11 4.8132195823724645e-11 7.241191747451273e-11 2.4445265623515156e-11 3.684608555116995e-11
          3.133998627739829e-11 4.359157079147499e-11 2.1879996925503592e-11 1.267421346848281e-10 6.446214594970168e-11 7.26351436462902e-11
          1.2131976128713339e-11 1.8059781484034584e-11 8.405400970918704e-12 1.1850268837922638e-11 7.95694647524566e-12 1.1153975085198982e-11
          7.962742982468565e-12 3.1414097200311535e-11 1.7101930539398626e-11 1.8381681298330708e-11 9.546705094146477e-10 4.812158536305746e-10
          4.320523951515791e-10 2.188248756615129e-10 1.0856457057360533e-9 5.47076242026445e-10 4.884201842348882e-10 2.3010182328870352e-10
          1.0461162668767329e-10 1.0564803176061217e-10 4.854484130822599e-11 2.6116645367110856e-10 1.1848348850944905e-10 1.190894367655905e-10
          1.7826569593777342e-10 9.024028527579718e-11 1.0086818519829892e-10 5.038683735452535e-11 1.9973876163119152e-10 1.0080318413101575e-10
          1.1230923840956915e-10 4.391254666187406e-11 2.0498837025455056e-11 2.4700467152444467e-11 1.2015996078581883e-11 4.8984485762480884e-11
          2.299234659427545e-11 2.698857540337982e-11 7.893416826071878e-11 8.711589147611666e-11 5.78412826950231e-11 6.263986887052442e-11
          5.6644202857517326e-11 5.6394629187578315e-11 4.428225350189466e-11 9.529761469151454e-11 6.743845504602575e-11 5.6145055517639304e-11
          6.25500086288321e-11 2.8786093778207874e-11 3.837755918662738e-11 6.889737399260586e-11 3.668032910653997e-11 1.282118115603836e-10
          3.1099518310483284e-11 1.9158791024419243e-10 1.7351281235556193e-10 8.297935430589475e-11 2.801983148296982e-10 3.266318783071977e-11
          1.2104296211701753e-11 1.0776431855752384e-11 4.114764300973942e-11 1.7755947747411442e-10 1.759241302837766e-10 7.552111583814557e-11
          1.4143847257330717e-10 2.111667588496546e-10 1.4236256642895145e-10 3.2386712785471564e-10 1.5967721458097518e-10 9.145466824345123e-11
          1.671894518552404e-10 1.4929690417148065e-10 2.0912685422724858e-10 4.012728397730925e-11 8.021793297667538e-11 3.221701325105169e-11
          4.493715012736094e-11 1.719523622766893e-10 2.329716341354127e-10 4.2135886822820484e-10 2.1204274845888207e-10 7.307767447813399e-10
          1.0199365869990458e-9 3.9684493082607895e-10 1.1399589468024055e-9 4.4156463842770333e-10 1.2838612651141275e-10 1.5063867544024444e-10
          8.764865714217019e-11 1.657495514994553e-10
        </DataArray>
        <DataArray type="Float64" Name="gradient_matprop_error" format="ascii" RangeMin="0" RangeMax="0">
          0 0 0 0 0 0
          0 0 0 0 0 0
          0 0 0 0 0 0
          0 0 0 0 0 0
          0 0 0 0 0 0
          0 0 0 0 0 0
          0 0 0 0 0 0
          0 0 0 0 0 0
          0 0 0 0 0 0
          0 0 0 0 0 0
          0 0 0 0 0 0
          0 0 0 0 0 0
          0 0 0 0 0 0
          0 0 0 0 0 0
          0 0 0 0 0 0
          0 0 0 0 0 0
          0 0 0 0 0 0
          0 0 0 0 0 0
          0 0 0 0 0 0
          0 0 0 0 0 0
          0 0 0 0 0 0
          0 0 0 0 0 0
          0 0 0 0 0 0
          0 0 0 0 0 0
          0 0 0 0 0 0
          0 0 0 0 0 0
          0 0 0 0 0 0
          0 0 0 0 0 0
          0 0 0 0 0 0
          0 0 0 0 0 0
          0 0 0 0 0 0
          0 0 0 0 0 0
          0 0 0 0 0 0
          0 0 0 0 0 0
          0 0 0 0 0 0
          0 0 0 0 0 0
          0 0 0 0 0 0
          0 0 0 0 0 0
          0 0 0 0 0 0
          0 0 0 0 0 0
          0 0 0 0 0 0
          0 0 0 0 0 0
          0 0 0 0 0 0
          0 0 0 0 0 0
          0 0 0 0 0 0
          0 0 0 0 0 0
          0 0 0 0 0 0
          0 0 0 0 0 0
          0 0 0 0 0 0
          0 0 0 0 0 0
          0 0 0 0 0 0
          0 0 0 0 0 0
          0 0 0 0 0 0
          0 0 0 0 0 0
          0 0 0 0 0 0
          0 0 0 0 0 0
          0 0 0 0 0 0
          0 0 0 0 0 0
          0 0 0 0 0 0
          0 0 0 0 0 0
          0 0 0 0 0 0
          0 0 0 0 0 0
          0 0 0 0 0 0
          0 0 0 0 0 0
          0 0 0 0 0 0
          0 0 0 0 0 0
          0 0 0 0 0 0
          0 0
        </DataArray>
        <DataArray type="Float64" Name="initial_marker" format="ascii" RangeMin="0" RangeMax="2">
          0 0 0 2 2 0
          1.25 0 0 2 2 2
          1 0 0 1 1 0
          1 0.5 2 2 0 0
          0.5 0.5 0 0 0 2
          2 2 0 0 0 1.75
          1.5 0 0 0 0 0
          0 0 0.75 0.25 0 2
          2 2 2 2 2 2
          2 2 2 2 2 2
          2 2 1 2 2 2
          1.25 0.25 0 2 2 1
          0 0 0 0 0 0
          0 0 0 0 0 0
          0 0 0 0 0 2
          2 2 2 2 2 2
          2 2 2 2 2 2
          2 2 2 2 2 2
          1.5 1.75 1.5 2 2 2
          2 2 2 2 1 1.5
          1.5 2 2 1.5 2 2
          2 2 1.5 1.75 0.5 1.25
          0.5 1.25 1 2 2 2
          0 0.75 0.3333333333333333 1.75 1 1.5
          2 0.5 1.25 0 1 0
          1 1 2 2 2 0
          0.75 0 0.5 0 0.5 0
          1.75 1.5 1.6666666666666667 0 0.25 0
          0 0 0 0 1.25 1
          0.6666666666666666 2 2 2 2 2
          2 2 2 2 2 2
          2 2 2 2 2 2
          2 2 2 2 2 2
          2 2 2 2 2 2
          2 2 2 2 2 2
          2 2 2 2 2 2
          2 2 2 2 2 2
          2 2 2 2 2 2
          2 2 2 2 2 2
          2 2 2 2 2 2
          2 2 2 2 2 2
          2 2 2 2 2 2
          2 2 2 2 2 2
          2 2 2 1.5 1.75 1
          1.5 1 1.5 1 2 2
          1.6666666666666667 2 2 2 2 2
          2 2 2 2 2 2
          2 1.5 1.3333333333333333 2 2 1.5
          2 2 2 1.75 2 2
          2 2 1.75 1.25 1 2
          2 1.75 1 1.25 0.5 0.75
          0 0.5 0 1.75 1.25 1.5
          0 0.25 0 0 0 0
          0 0.75 0.3333333333333333 0 2 2
          2 2 2 2 2 2
          2 2 1.75 2 2 2
          2 1.75 2 1.5 2 2
          2 1.25 0.75 0.5 0 1.5
          1 1 0.5 0.5 0 0
          0 0 0 0.5 0 0
          0 0 0 0 0 0
          0 0 0 0 0 0
          0 0 0 0 0 0
          0 0.5 0 1.5 0 0
          0 0 0 0 0 0
          0 1 1.6666666666666667 2 1.3333333333333333 2
          2 2 2 2 0.6666666666666666 1
          0 1
        </DataArray>
        <DataArray type="Float64" Name="markers_norefine" format="ascii" RangeMin="0" RangeMax="0">
          0 0 0 0 0 0
          0 0 0 0 0 0
          0 0 0 0 0 0
          0 0 0 0 0 0
          0 0 0 0 0 0
          0 0 0 0 0 0
          0 0 0 0 0 0
          0 0 0 0 0 0
          0 0 0 0 0 0
          0 0 0 0 0 0
          0 0 0 0 0 0
          0 0 0 0 0 0
          0 0 0 0 0 0
          0 0 0 0 0 0
          0 0 0 0 0 0
          0 0 0 0 0 0
          0 0 0 0 0 0
          0 0 0 0 0 0
          0 0 0 0 0 0
          0 0 0 0 0 0
          0 0 0 0 0 0
          0 0 0 0 0 0
          0 0 0 0 0 0
          0 0 0 0 0 0
          0 0 0 0 0 0
          0 0 0 0 0 0
          0 0 0 0 0 0
          0 0 0 0 0 0
          0 0 0 0 0 0
          0 0 0 0 0 0
          0 0 0 0 0 0
          0 0 0 0 0 0
          0 0 0 0 0 0
          0 0 0 0 0 0
          0 0 0 0 0 0
          0 0 0 0 0 0
          0 0 0 0 0 0
          0 0 0 0 0 0
          0 0 0 0 0 0
          0 0 0 0 0 0
          0 0 0 0 0 0
          0 0 0 0 0 0
          0 0 0 0 0 0
          0 0 0 0 0 0
          0 0 0 0 0 0
          0 0 0 0 0 0
          0 0 0 0 0 0
          0 0 0 0 0 0
          0 0 0 0 0 0
          0 0 0 0 0 0
          0 0 0 0 0 0
          0 0 0 0 0 0
          0 0 0 0 0 0
          0 0 0 0 0 0
          0 0 0 0 0 0
          0 0 0 0 0 0
          0 0 0 0 0 0
          0 0 0 0 0 0
          0 0 0 0 0 0
          0 0 0 0 0 0
          0 0 0 0 0 0
          0 0 0 0 0 0
          0 0 0 0 0 0
          0 0 0 0 0 0
          0 0 0 0 0 0
          0 0 0 0 0 0
          0 0 0 0 0 0
          0 0
        </DataArray>
        <DataArray type="Float64" Name="markers_mustrefine" format="ascii" RangeMin="0" RangeMax="2">
          0 0 0 2 2 0
          1.25 0 0 2 2 2
          1 0 0 1 1 0
          1 0.5 2 2 0 0
          0.5 0.5 0 0 0 2
          2 2 0 0 0 1.75
          1.5 0 0 0 0 0
          0 0 0.75 0.25 0 2
          2 2 2 2 2 2
          2 2 2 2 2 2
          2 2 1 2 2 2
          1.25 0.25 0 2 2 1
          0 0 0 0 0 0
          0 0 0 0 0 0
          0 0 0 0 0 2
          2 2 2 2 2 2
          2 2 2 2 2 2
          2 2 2 2 2 2
          1.5 1.75 1.5 2 2 2
          2 2 2 2 1 1.5
          1.5 2 2 1.5 2 2
          2 2 1.5 1.75 0.5 1.25
          0.5 1.25 1 2 2 2
          0 0.75 0.3333333333333333 1.75 1 1.5
          2 0.5 1.25 0 1 0
          1 1 2 2 2 0
          0.75 0 0.5 0 0.5 0
          1.75 1.5 1.6666666666666667 0 0.25 0
          0 0 0 0 1.25 1
          0.6666666666666666 2 2 2 2 2
          2 2 2 2 2 2
          2 2 2 2 2 2
          2 2 2 2 2 2
          2 2 2 2 2 2
          2 2 2 2 2 2
          2 2 2 2 2 2
          2 2 2 2 2 2
          2 2 2 2 2 2
          2 2 2 2 2 2
          2 2 2 2 2 2
          2 2 2 2 2 2
          2 2 2 2 2 2
          2 2 2 2 2 2
          2 2 2 1.5 1.75 1
          1.5 1 1.5 1 2 2
          1.6666666666666667 2 2 2 2 2
          2 2 2 2 2 2
          2 1.5 1.3333333333333333 2 2 1.5
          2 2 2 1.75 2 2
          2 2 1.75 1.25 1 2
          2 1.75 1 1.25 0.5 0.75
          0 0.5 0 1.75 1.25 1.5
          0 0.25 0 0 0 0
          0 0.75 0.3333333333333333 0 2 2
          2 2 2 2 2 2
          2 2 1.75 2 2 2
          2 1.75 2 1.5 2 2
          2 1.25 0.75 0.5 0 1.5
          1 1 0.5 0.5 0 0
          0 0 0 0.5 0 0
          0 0 0 0 0 0
          0 0 0 0 0 0
          0 0 0 0 0 0
          0 0.5 0 1.5 0 0
          0 0 0 0 0 0
          0 1 1.6666666666666667 2 1.3333333333333333 2
          2 2 2 2 0.6666666666666666 1
          0 1
        </DataArray>
        <DataArray type="Float64" Name="gradient_marker" format="ascii" RangeMin="1" RangeMax="1">
          1 1 1 1 1 1
          1 1 1 1 1 1
          1 1 1 1 1 1
          1 1 1 1 1 1
          1 1 1 1 1 1
          1 1 1 1 1 1
          1 1 1 1 1 1
          1 1 1 1 1 1
          1 1 1 1 1 1
          1 1 1 1 1 1
          1 1 1 1 1 1
          1 1 1 1 1 1
          1 1 1 1 1 1
          1 1 1 1 1 1
          1 1 1 1 1 1
          1 1 1 1 1 1
          1 1 1 1 1 1
          1 1 1 1 1 1
          1 1 1 1 1 1
          1 1 1 1 1 1
          1 1 1 1 1 1
          1 1 1 1 1 1
          1 1 1 1 1 1
          1 1 1 1 1 1
          1 1 1 1 1 1
          1 1 1 1 1 1
          1 1 1 1 1 1
          1 1 1 1 1 1
          1 1 1 1 1 1
          1 1 1 1 1 1
          1 1 1 1 1 1
          1 1 1 1 1 1
          1 1 1 1 1 1
          1 1 1 1 1 1
          1 1 1 1 1 1
          1 1 1 1 1 1
          1 1 1 1 1 1
          1 1 1 1 1 1
          1 1 1 1 1 1
          1 1 1 1 1 1
          1 1 1 1 1 1
          1 1 1 1 1 1
          1 1 1 1 1 1
          1 1 1 1 1 1
          1 1 1 1 1 1
          1 1 1 1 1 1
          1 1 1 1 1 1
          1 1 1 1 1 1
          1 1 1 1 1 1
          1 1 1 1 1 1
          1 1 1 1 1 1
          1 1 1 1 1 1
          1 1 1 1 1 1
          1 1 1 1 1 1
          1 1 1 1 1 1
          1 1 1 1 1 1
          1 1 1 1 1 1
          1 1 1 1 1 1
          1 1 1 1 1 1
          1 1 1 1 1 1
          1 1 1 1 1 1
          1 1 1 1 1 1
          1 1 1 1 1 1
          1 1 1 1 1 1
          1 1 1 1 1 1
          1 1 1 1 1 1
          1 1 1 1 1 1
          1 1
        </DataArray>
        <DataArray type="Float64" Name="gradient_matprop_marker" format="ascii" RangeMin="0" RangeMax="0">
          0 0 0 0 0 0
          0 0 0 0 0 0
          0 0 0 0 0 0
          0 0 0 0 0 0
          0 0 0 0 0 0
          0 0 0 0 0 0
          0 0 0 0 0 0
          0 0 0 0 0 0
          0 0 0 0 0 0
          0 0 0 0 0 0
          0 0 0 0 0 0
          0 0 0 0 0 0
          0 0 0 0 0 0
          0 0 0 0 0 0
          0 0 0 0 0 0
          0 0 0 0 0 0
          0 0 0 0 0 0
          0 0 0 0 0 0
          0 0 0 0 0 0
          0 0 0 0 0 0
          0 0 0 0 0 0
          0 0 0 0 0 0
          0 0 0 0 0 0
          0 0 0 0 0 0
          0 0 0 0 0 0
          0 0 0 0 0 0
          0 0 0 0 0 0
          0 0 0 0 0 0
          0 0 0 0 0 0
          0 0 0 0 0 0
          0 0 0 0 0 0
          0 0 0 0 0 0
          0 0 0 0 0 0
          0 0 0 0 0 0
          0 0 0 0 0 0
          0 0 0 0 0 0
          0 0 0 0 0 0
          0 0 0 0 0 0
          0 0 0 0 0 0
          0 0 0 0 0 0
          0 0 0 0 0 0
          0 0 0 0 0 0
          0 0 0 0 0 0
          0 0 0 0 0 0
          0 0 0 0 0 0
          0 0 0 0 0 0
          0 0 0 0 0 0
          0 0 0 0 0 0
          0 0 0 0 0 0
          0 0 0 0 0 0
          0 0 0 0 0 0
          0 0 0 0 0 0
          0 0 0 0 0 0
          0 0 0 0 0 0
          0 0 0 0 0 0
          0 0 0 0 0 0
          0 0 0 0 0 0
          0 0 0 0 0 0
          0 0 0 0 0 0
          0 0 0 0 0 0
          0 0 0 0 0 0
          0 0 0 0 0 0
          0 0 0 0 0 0
          0 0 0 0 0 0
          0 0 0 0 0 0
          0 0 0 0 0 0
          0 0 0 0 0 0
          0 0
        </DataArray>
        <DataArray type="Float64" Name="combo" format="ascii" RangeMin="1" RangeMax="1">
          1 1 1 1 1 1
          1 1 1 1 1 1
          1 1 1 1 1 1
          1 1 1 1 1 1
          1 1 1 1 1 1
          1 1 1 1 1 1
          1 1 1 1 1 1
          1 1 1 1 1 1
          1 1 1 1 1 1
          1 1 1 1 1 1
          1 1 1 1 1 1
          1 1 1 1 1 1
          1 1 1 1 1 1
          1 1 1 1 1 1
          1 1 1 1 1 1
          1 1 1 1 1 1
          1 1 1 1 1 1
          1 1 1 1 1 1
          1 1 1 1 1 1
          1 1 1 1 1 1
          1 1 1 1 1 1
          1 1 1 1 1 1
          1 1 1 1 1 1
          1 1 1 1 1 1
          1 1 1 1 1 1
          1 1 1 1 1 1
          1 1 1 1 1 1
          1 1 1 1 1 1
          1 1 1 1 1 1
          1 1 1 1 1 1
          1 1 1 1 1 1
          1 1 1 1 1 1
          1 1 1 1 1 1
          1 1 1 1 1 1
          1 1 1 1 1 1
          1 1 1 1 1 1
          1 1 1 1 1 1
          1 1 1 1 1 1
          1 1 1 1 1 1
          1 1 1 1 1 1
          1 1 1 1 1 1
          1 1 1 1 1 1
          1 1 1 1 1 1
          1 1 1 1 1 1
          1 1 1 1 1 1
          1 1 1 1 1 1
          1 1 1 1 1 1
          1 1 1 1 1 1
          1 1 1 1 1 1
          1 1 1 1 1 1
          1 1 1 1 1 1
          1 1 1 1 1 1
          1 1 1 1 1 1
          1 1 1 1 1 1
          1 1 1 1 1 1
          1 1 1 1 1 1
          1 1 1 1 1 1
          1 1 1 1 1 1
          1 1 1 1 1 1
          1 1 1 1 1 1
          1 1 1 1 1 1
          1 1 1 1 1 1
          1 1 1 1 1 1
          1 1 1 1 1 1
          1 1 1 1 1 1
          1 1 1 1 1 1
          1 1 1 1 1 1
          1 1
        </DataArray>
        <DataArray type="Float64" Name="dHdT" format="ascii" RangeMin="25.811531247071795" RangeMax="32.12795319315073">
          25.813455960995917 25.814447207559457 25.81352148600687 26.04585278082409 25.88791310047268 25.81173793790578
          25.816100969362957 25.81799397073242 25.812287837476717 29.03392030173034 26.58411832394983 25.854072612301294
          25.835124950592924 25.81192099798844 25.815069833901834 25.826654808911318 25.824176837928192 25.81804476126086
          25.833384123264516 25.81908043129048 25.986529173174883 26.04809443465658 25.813529427458434 25.81330116632594
          25.81608052583404 25.81533348051019 25.81276057263403 25.8138301642442 25.812175391603958 25.87327705489128
          25.85782580716775 25.83209973098997 25.813534469824084 25.815933052732195 25.815057899174164 25.879237476028713
          25.83376907894248 25.812285933672754 25.813034556308644 25.811778107989603 25.81201357927504 25.812123627270893
          25.813048229700087 25.812009999460543 25.817909976633008 25.813076817583454 25.814326362710716 27.4255141748773
          26.949411995701688 27.092748967245225 26.233899062227877 28.020032138053296 28.191296261668302 26.237722759277297
          26.113065801472057 25.922854075047873 25.8351610601906 26.64496206262632 26.392901257788424 26.015967217754763
          26.104147246296712 25.90609991188871 25.827627296317882 26.29985943754918 25.9705304054911 25.836938449951838
          25.817152727661984 25.816621677665413 25.812949612351765 25.853778109256023 25.820893683864714 25.818690318022547
          25.815265808943536 25.816154628015653 25.814179451024657 25.816622982458135 25.812602702553484 25.81334273036504
          25.81284462532806 25.81322024351658 25.813674717924727 25.81213089057379 25.812266392238442 25.81246305635309
          25.812587901270735 25.811958522689125 25.814129192332878 25.812401893903093 25.81271274618838 25.854890283461128
          25.85279811985169 25.924004631148733 25.917177990423088 25.835002192300692 25.874021713351535 25.870271530347054
          25.847180308798233 25.899411233565413 25.860465007626033 26.231717613365056 26.201851819211974 26.02918467470036
          26.125801387215528 25.887010386367145 25.839596313286062 25.87683004315368 25.82745946027555 25.847952598592222
          25.831791982212696 25.855415378336474 25.836095344520217 26.032684863330235 25.934342074418563 25.949172599633123
          25.82504320676631 25.82437585215372 25.84484240521096 25.842859694992335 25.818284842982422 25.82854516291822
          25.827547807787216 25.822608138358454 25.837673369422863 25.824934137397978 25.93512110959869 25.926338741604397
          25.868940489735344 25.903822719580077 25.820242860179054 25.83104564517749 25.81613557368842 25.82158252930617
          25.81785604529772 25.824762435354923 25.81839646859587 25.876379075297674 25.844228345042506 25.852053302050543
          25.813281630937347 25.81496824011511 25.81347598896166 25.821514148919317 25.83475225441003 25.85814778328345
          25.94469335053241 25.82544024962867 25.83895618260738 25.819598732734942 25.82711607031218 25.822834500049858
          25.832270577415784 25.823537980858877 25.88893811374121 25.85474793301048 25.859932116708507 25.81602892166115
          25.820036867594972 25.81395770886269 25.815994613751226 25.815323693909193 25.81817040076305 25.815043526783302
          25.834652416016834 25.823377540531457 25.82634692991965 25.812817492950455 25.81379564538664 25.812439413033566
          25.81305206424208 25.812629303700884 25.813322958086836 25.81275519282889 25.817338602020982 25.81486470158173