<?xml version="1.0"?>
<VTKFile type="UnstructuredGrid" version="0.1" byte_order="LittleEndian" header_type="UInt32" compressor="vtkZLibDataCompressor">
  <UnstructuredGrid>
    <Piece NumberOfPoints="356" NumberOfCells="202">
      <PointData>
        <DataArray type="Int32" Name="libmesh_node_id" format="ascii" RangeMin="410" RangeMax="3040">
          410 596 599 600 604 1205
          1208 1209 1212 1213 1214 1216
          1217 1218 1219 1220 1221 1222
          1223 1224 1230 1231 1235 1240
          1245 1246 1247 1250 1251 1253
          1257 1301 1302 1322 1323 1326
          1327 1577 1580 1582 1584 1586
          1587 1596 1609 1613 2227 2234
          2245 2246 2247 2248 2249 2250
          2251 2252 2253 2254 2256 2258
          2260 2262 2263 2264 2265 2266
          2267 2268 2279 2280 2281 2282
          2286 2287 2289 2290 2291 2292
          2293 2294 2295 2296 2297 2298
          2299 2300 2301 2302 2303 2304
          2305 2306 2307 2308 2309 2310
          2311 2312 2313 2314 2315 2316
          2317 2318 2319 2320 2321 2322
          2323 2324 2325 2326 2330 2331
          2333 2334 2335 2336 2340 2341
          2366 2372 2373 2376 2400 2406
          2407 2410 2433 2434 2437 2440
          2441 2444 2467 2468 2471 2474
          2478 2480 2482 2484 2486 2487
          2488 2489 2490 2491 2492 2500
          2501 2504 2505 2508 2510 2512
          2514 2515 2516 2517 2518 2519
          2520 2528 2529 2532 2533 2535
          2536 2537 2538 2539 2540 2541
          2542 2543 2544 2545 2546 2548
          2549 2550 2553 2554 2556 2557
          2560 2563 2564 2565 2566 2567
          2568 2569 2570 2572 2574 2576
          2577 2578 2581 2582 2584 2588
          2717 2757 2823 2824 2825 2826
          2827 2828 2829 2830 2831 2832
          2833 2835 2837 2839 2850 2851
          2857 2912 3026 3028 3040 1206
          1210 1207 1211 1562 1563 1575
          1185 594 1579 1572 1199 1573
          597 2146 2147 2149 2148 2150
          2151 2152 2221 2223 2225 2222
          2224 2226 2228 2230 2232 2229
          2231 2233 2113 2237 2105 2114
          2238 2115 2241 1186 2118 2243
          1187 2108 2242 2141 2142 2255
          2244 2257 2145 1191 2259 2261
          2271 2269 2272 2270 2277 2276
          2185 2186 2187 2190 1200 2195
          2196 2197 2200 1201 2143 2144
          2363 2364 2365 2367 2368 2369
          2370 2371 2374 2375 2397 2398
          2399 2401 2402 2403 2404 2405
          2408 2409 2431 2432 2435 2436
          2438 2439 2442 2465 2466 2469
          2470 2472 2476 2479 2481 2483
          2485 2494 2493 2498 2497 2507
          2509 2511 2513 2522 2521 2526
          2525 2751 2753 2755 2715 2716
          2720 2910
        </DataArray>
        <DataArray type="Float64" Name="bounds" format="ascii" RangeMin="0" RangeMax="0">
          0 0 0 0 0 0
          0 0 0 0 0 0
          0 0 0 0 0 0
          0 0 0 0 0 0
          0 0 0 0 0 0
          0 0 0 0 0 0
          0 0 0 0 0 0
          0 0 0 0 0 0
          0 0 0 0 0 0
          0 0 0 0 0 0
          0 0 0 0 0 0
          0 0 0 0 0 0
          0 0 0 0 0 0
          0 0 0 0 0 0
          0 0 0 0 0 0
          0 0 0 0 0 0
          0 0 0 0 0 0
          0 0 0 0 0 0
          0 0 0 0 0 0
          0 0 0 0 0 0
          0 0 0 0 0 0
          0 0 0 0 0 0
          0 0 0 0 0 0
          0 0 0 0 0 0
          0 0 0 0 0 0
          0 0 0 0 0 0
          0 0 0 0 0 0
          0 0 0 0 0 0
          0 0 0 0 0 0
          0 0 0 0 0 0
          0 0 0 0 0 0
          0 0 0 0 0 0
          0 0 0 0 0 0
          0 0 0 0 0 0
          0 0 0 0 0 0
          0 0 0 0 0 0
          0 0 0 0 0 0
          0 0 0 0 0 0
          0 0 0 0 0 0
          0 0 0 0 0 0
          0 0 0 0 0 0
          0 0 0 0 0 0
          0 0 0 0 0 0
          0 0 0 0 0 0
          0 0 0 0 0 0
          0 0 0 0 0 0
          0 0 0 0 0 0
          0 0 0 0 0 0
          0 0 0 0 0 0
          0 0 0 0 0 0
          0 0 0 0 0 0
          0 0 0 0 0 0
          0 0 0 0 0 0
          0 0 0 0 0 0
          0 0 0 0 0 0
          0 0 0 0 0 0
          0 0 0 0 0 0
          0 0 0 0 0 0
          0 0 0 0 0 0
          0 0
        </DataArray>
        <DataArray type="Float64" Name="gradient_error" format="ascii" RangeMin="7.943563168448092e-11" RangeMax="2.1273031432012086e-8">
          9.60941985575313e-10 4.451004415421327e-9 1.1933984105327707e-9 3.469563144964128e-9 1.0656980913486779e-8 2.4869753577807766e-9
          2.1247650281908736e-9 1.7111943990231918e-9 2.4640116119706838e-9 3.5278347148071886e-9 2.140965578725011e-9 1.1074599237572651e-9
          8.895866061752747e-10 5.365249611688748e-10 4.20680558345974e-10 1.2632954652908472e-9 1.2815061309528455e-9 6.152574210083404e-10
          1.1455788081012859e-9 5.38158757792631e-10 1.2744379406891798e-8 8.649441176254542e-9 1.555031950806438e-8 5.119786091197703e-9
          6.4740312588739024e-9 5.962720035684432e-9 3.797713497990321e-9 7.172090258659722e-9 4.654763534779368e-9 2.1007228150260305e-9
          2.6119379244862705e-9 2.563617918729075e-10 2.161346317413652e-10 2.832031823153957e-10 2.2379024150290716e-10 2.778343943692323e-10
          2.74036923497107e-10 1.5400402458216622e-9 1.2318558891102552e-9 8.091928442521734e-10 4.0558811962696837e-10 6.470947537190501e-10
          3.343388275328887e-10 2.5471491980896966e-10 1.8741812017720764e-10 1.56461835589347e-10 3.3903655169484104e-9 1.7557260855964377e-9
          8.125978927790009e-10 1.0536391299595754e-9 6.011864525678377e-10 7.852541479870847e-10 7.283688966763904e-10 9.074653521365777e-10
          6.744336051231717e-10 1.7120911026295807e-9 1.2926283521384552e-9 1.3768319982131183e-9 3.4356708711976123e-9 2.4560525996688953e-9
          5.062877890035756e-9 2.7117591951340632e-9 2.0780709698101236e-9 1.91106376495474e-9 1.4476636839241244e-9 4.071656853187996e-9
          3.1709205250480437e-9 2.7897821083939465e-9 1.0444214302065271e-9 1.288674303289289e-9 7.77663672644863e-10 9.65302258226699e-10
          1.8324518668169197e-9 1.386724456133006e-9 4.3503711456999714e-10 5.710872328712133e-10 3.093351447663263e-10 4.0639122964978685e-10
          3.894630567205641e-10 4.896291908372949e-10 3.492062576141112e-10 9.486232375480844e-10 6.772163351604853e-10 7.539032999505619e-10
          2.1217621184375928e-10 2.8016496679534334e-10 1.4405997536088327e-10 1.8959943196882776e-10 1.8944429525479704e-10 2.397830496105673e-10
          1.62782666395632e-10 4.693497608798979e-10 3.168879891426117e-10 3.7097198765646605e-10 1.5428930571333624e-9 1.1094819577810121e-9
          1.0650349330326152e-9 7.612373333812328e-10 2.3860973606193698e-9 1.7329523142085412e-9 1.5918532771963333e-9 7.726490601094898e-10
          5.218006140206553e-10 5.276960050136071e-10 3.5577798622962327e-10 1.2146012816504692e-9 8.220337506186549e-10 7.980510435489215e-10
          5.650840337226505e-10 7.042777271141048e-10 4.025582974532296e-10 5.016666657713481e-10 1.019119255891105e-9 7.279399132476073e-10
          2.760461253356672e-10 3.458374341056068e-10 1.8662211918020188e-10 2.3309988235202503e-10 5.053268204638601e-10 3.3995656936043616e-10
          9.811022519560563e-9 8.13836002785192e-9 6.536643530021859e-9 1.0652453655167318e-8 1.483439367999705e-8 1.243792825961627e-8
          1.0143757883903028e-8 1.3054594647113827e-8 5.060869317199013e-9 3.765384626233716e-9 6.788756812086656e-9 2.6879472613318354e-9
          1.8402843972144293e-9 3.6971633755708393e-9 8.03082809633783e-9 6.119830812573981e-9 8.461349600656576e-9 4.460481095595989e-9
          4.736095020157445e-9 7.018968392801002e-9 4.7617419713167806e-9 8.964408157706481e-9 5.738848196428184e-9 4.537323175687801e-9
          3.819953011122895e-9 2.968166649605792e-9 7.416686015689013e-9 5.936304631123148e-9 4.838134822152045e-9 2.439910441127621e-9
          1.8641397611853936e-9 3.016794784936753e-9 2.3228598035552383e-9 1.0397105387453964e-8 6.84695470835994e-9 1.0918809234097687e-8
          8.654234064375104e-9 6.981553604722908e-9 5.596242309927468e-9 4.422243393669598e-9 9.103495336001671e-9 7.363510327228699e-9
          5.87671721739693e-9 3.4422259298548446e-9 2.6639813083734535e-9 3.5987066148296353e-9 2.790014463549741e-9 3.459675702126607e-9
          2.5396394864811e-9 2.2291661543416163e-9 1.616662563372976e-9 4.578558924484422e-9 3.3942927968432285e-9 2.8770270776193235e-9
          1.7934647831220583e-9 1.2188112991639535e-9 1.1316181031802593e-9 7.648706424624261e-10 2.415462265024053e-9 1.4774528539079608e-9
          1.3806644233737e-9 9.914983495232592e-10 1.7315494755922614e-9 1.2491638649670472e-9 6.923593242053994e-10 4.665863818461506e-10
          8.743864370072744e-10 5.42803014152259e-9 4.052810728538384e-9 3.369823376091531e-9 2.472165680966522e-9 5.7417761074337936e-9
          4.298388767709727e-9 3.554330929851382e-9 2.901201321442394e-9 1.7448236978703283e-9 3.0839574359859724e-9 1.8458707377130945e-9
          1.9937812078542066e-9 1.4420404918710015e-9 2.0910252199946392e-9 1.513645160448679e-9 1.008561171921172e-9 1.0580432201864205e-9
          1.1239734667851337e-10 7.816613475564429e-10 9.567691348976919e-11 1.2419711668478083e-10 7.943563168448092e-11 9.949436050632752e-11
          8.562379890606745e-11 1.068456543416843e-10 8.81015958459722e-11 2.078905133698207e-10 1.5074350335831177e-10 1.642782122406736e-10
          3.4240774626649137e-10 2.3310393290341593e-10 5.376502954137556e-10 3.518197358210673e-10 1.2248861868288953e-10 1.5223617337810836e-10
          2.2070325574177036e-10 1.2095091264501392e-9 7.980312766952891e-10 4.997642813982452e-10 3.022975331774263e-10 3.800331536746076e-9
          4.314951591090108e-9 3.014116785743397e-9 4.403081750847452e-9 3.869817760412114e-9 2.173281994326194e-9 2.7379724917473565e-9
          3.450567104787237e-9 1.92717955896038e-9 2.1694244785986496e-9 1.1415280195025031e-9 1.0042503325718054e-9 5.592910755757366e-10
          4.818056969301822e-10 4.620892715143689e-9 3.615478338267956e-9 2.8224682964253278e-9 3.642285029683022e-9 7.319262191197233e-9
          5.848393949457e-9 5.636598209673167e-9 2.7319461075365214e-9 2.1151801862839295e-9 4.504553959340385e-9 1.9910609485123163e-9
          1.5315492519185554e-9 3.336225111678294e-9 1.3992398788560757e-9 1.0715666453911194e-9 2.373096437306125e-9 9.489504596108844e-10
          7.251658904556799e-10 1.6210315992999656e-9 9.997853354139796e-10 1.0805325108719751e-9 1.7572164355045037e-9 1.3488881286987457e-9
          1.3852134877268132e-9 1.0108798093885186e-9 1.2007549938234316e-9 2.87547382236155e-9 2.251219589745568e-9 2.2100012189523233e-9
          1.7132497495548426e-9 3.5843603526215557e-9 2.7880810296093185e-9 5.5399983926554565e-9 4.554954015167073e-9 4.24189261597552e-9
          2.2829968133171445e-9 3.0823900548404436e-9 8.20962086896198e-9 6.9035683309493595e-9 6.118185160137922e-9 4.346005669780281e-9
          1.3765386789456712e-9 1.7679836441739385e-9 1.6820373993573436e-9 2.1443013924373517e-9 2.3577443599500806e-9 2.9639811780951075e-9
          5.377950013795502e-10 7.374508538113191e-10 5.244658151602162e-10 1.2656338235789627e-9 9.067327610153445e-10 2.6305071654297625e-10
          3.629025148248719e-10 2.451807023164832e-10 6.304351876263281e-10 4.254874265197695e-10 1.043834394825251e-8 8.864112104111028e-9
          1.4964430284038687e-8 1.2871380393031469e-8 1.1501765965303252e-8 1.9061447059088623e-8 1.6716786962386078e-8 1.4814502135770406e-8
          1.0754951729608707e-8 8.726426290963183e-9 1.4108443370396153e-8 1.1519252908965518e-8 2.0990067510400044e-8 1.887077007569615e-8
          1.711230919161994e-8 2.1273031432012086e-8 1.935497621163839e-8 1.7870793872741812e-8 1.6162895575563507e-8 1.3248787186935134e-8
          1.6716559824940808e-8 1.3739661609252019e-8 6.844541171167988e-9 5.160213555719093e-9 9.14231619087657e-9 7.008691514794598e-9
          3.726048838047995e-9 2.5736197527561013e-9 5.1449749698909626e-9 1.057263069436683e-8 8.205614157839423e-9 1.0982999576090356e-8
          8.564013267935527e-9 6.112923708950496e-9 6.420655575749263e-9 8.334534976833052e-9 5.7696578105546276e-9 1.0533549043685862e-8
          7.134773149390845e-9 3.1022717717684812e-9 3.845705542794132e-9 3.799911885912986e-9 4.658253886728186e-9 1.2167982696199502e-8
          8.130578931786655e-9 1.2768048584824293e-8 8.495560024021385e-9 4.309845899339683e-9 5.246729431836215e-9 4.496458970259212e-9
          5.461018960314873e-9 6.221139065046364e-10 4.760984160460626e-10 1.0644042180963068e-9 1.1815020315892137e-10 1.6058821941679025e-10
          2.79576992610473e-10 1.7009700729726481e-9
        </DataArray>
        <DataArray type="Float64" Name="gradient_matprop_error" format="ascii" RangeMin="0" RangeMax="0">
          0 0 0 0 0 0
          0 0 0 0 0 0
          0 0 0 0 0 0
          0 0 0 0 0 0
          0 0 0 0 0 0
          0 0 0 0 0 0
          0 0 0 0 0 0
          0 0 0 0 0 0
          0 0 0 0 0 0
          0 0 0 0 0 0
          0 0 0 0 0 0
          0 0 0 0 0 0
          0 0 0 0 0 0
          0 0 0 0 0 0
          0 0 0 0 0 0
          0 0 0 0 0 0
          0 0 0 0 0 0
          0 0 0 0 0 0
          0 0 0 0 0 0
          0 0 0 0 0 0
          0 0 0 0 0 0
          0 0 0 0 0 0
          0 0 0 0 0 0
          0 0 0 0 0 0
          0 0 0 0 0 0
          0 0 0 0 0 0
          0 0 0 0 0 0
          0 0 0 0 0 0
          0 0 0 0 0 0
          0 0 0 0 0 0
          0 0 0 0 0 0
          0 0 0 0 0 0
          0 0 0 0 0 0
          0 0 0 0 0 0
          0 0 0 0 0 0
          0 0 0 0 0 0
          0 0 0 0 0 0
          0 0 0 0 0 0
          0 0 0 0 0 0
          0 0 0 0 0 0
          0 0 0 0 0 0
          0 0 0 0 0 0
          0 0 0 0 0 0
          0 0 0 0 0 0
          0 0 0 0 0 0
          0 0 0 0 0 0
          0 0 0 0 0 0
          0 0 0 0 0 0
          0 0 0 0 0 0
          0 0 0 0 0 0
          0 0 0 0 0 0
          0 0 0 0 0 0
          0 0 0 0 0 0
          0 0 0 0 0 0
          0 0 0 0 0 0
          0 0 0 0 0 0
          0 0 0 0 0 0
          0 0 0 0 0 0
          0 0 0 0 0 0
          0 0
        </DataArray>
        <DataArray type="Float64" Name="initial_marker" format="ascii" RangeMin="0" RangeMax="2">
          0 2 2 0 2 2
          0 1.5 0 2 2 0
          1.25 0 0.5 0 0 0
          2 2 2 2 2 2
          2 2 2 2 2 2
          2 0 1.5 0 0.5 0
          0 0 0 0 0 0
          0 0 0 0 2 2
          0 1 0 1 0 1
          1 2 2 2 2 2
          2 2 2 2 2 2
          2 2 1 1.5 1 1.5
          2 2 0 1 0 0.75
          0 1 0.5 2 1.75 2
          0 0.5 0 0.5 0 0
          0 1.5 1.5 1 2 2
          2 2 2 2 2 2
          2 1.75 1.5 2 2 2
          1 1.5 1 1.5 2 2
          0.5 1 0 0.5 1.75 1.5
          2 2 2 2 2 2
          2 2 2 2 2 2
          2 2 2 2 2 2
          2 2 2 2 2 2
          2 2 2 2 2 2
          2 2 2 2 2 2
          2 2 2 2 2 2
          2 2 2 2 2 2
          2 2 2 2 2 2
          2 2 2 2 2 2
          2 2 2 2 2 2
          2 2 2 2 2 2
          2 2 2 2 2 2
          2 2 2 2 2 2
          0.6666666666666666 2 0 0.25 0 0
          0 0 0 1.25 1.3333333333333333 0.6666666666666666
          2 1.5 2 2 0 0.5
          1.5 2 2 2 2 0
          0 1.5 0 0 0 0
          0.5 0.5 0 0 0 0
          0 2 2 2 2 2
          2 2 2 2 2 2
          2 2 2 2 2 2
          2 2 1 0 1.5 1.5
          1 1.5 1 2 2 2
          2 2 2 2 2 2
          2 2 2 2 2 2
          1 1 1.5 1.5 2 2
          0.5 1.25 1 2 2 0
          1 1 2 2 2 2
          2 2 2 2 2 2
          2 2 2 2 2 2
          2 2 2 2 2 2
          2 2 2 2 2 2
          2 2 2 2 2 2
          2 2 2 2 2 2
          2 2 2 2 2 2
          2 2 2 2 2 2
          2 2 2 2 0 0.75
          1.75 2
        </DataArray>
        <DataArray type="Float64" Name="markers_norefine" format="ascii" RangeMin="0" RangeMax="0">
          0 0 0 0 0 0
          0 0 0 0 0 0
          0 0 0 0 0 0
          0 0 0 0 0 0
          0 0 0 0 0 0
          0 0 0 0 0 0
          0 0 0 0 0 0
          0 0 0 0 0 0
          0 0 0 0 0 0
          0 0 0 0 0 0
          0 0 0 0 0 0
          0 0 0 0 0 0
          0 0 0 0 0 0
          0 0 0 0 0 0
          0 0 0 0 0 0
          0 0 0 0 0 0
          0 0 0 0 0 0
          0 0 0 0 0 0
          0 0 0 0 0 0
          0 0 0 0 0 0
          0 0 0 0 0 0
          0 0 0 0 0 0
          0 0 0 0 0 0
          0 0 0 0 0 0
          0 0 0 0 0 0
          0 0 0 0 0 0
          0 0 0 0 0 0
          0 0 0 0 0 0
          0 0 0 0 0 0
          0 0 0 0 0 0
          0 0 0 0 0 0
          0 0 0 0 0 0
          0 0 0 0 0 0
          0 0 0 0 0 0
          0 0 0 0 0 0
          0 0 0 0 0 0
          0 0 0 0 0 0
          0 0 0 0 0 0
          0 0 0 0 0 0
          0 0 0 0 0 0
          0 0 0 0 0 0
          0 0 0 0 0 0
          0 0 0 0 0 0
          0 0 0 0 0 0
          0 0 0 0 0 0
          0 0 0 0 0 0
          0 0 0 0 0 0
          0 0 0 0 0 0
          0 0 0 0 0 0
          0 0 0 0 0 0
          0 0 0 0 0 0
          0 0 0 0 0 0
          0 0 0 0 0 0
          0 0 0 0 0 0
          0 0 0 0 0 0
          0 0 0 0 0 0
          0 0 0 0 0 0
          0 0 0 0 0 0
          0 0 0 0 0 0
          0 0
        </DataArray>
        <DataArray type="Float64" Name="markers_mustrefine" format="ascii" RangeMin="0" RangeMax="2">
          0 2 2 0 2 2
          0 1.5 0 2 2 0
          1.25 0 0.5 0 0 0
          2 2 2 2 2 2
          2 2 2 2 2 2
          2 0 1.5 0 0.5 0
          0 0 0 0 0 0
          0 0 0 0 2 2
          0 1 0 1 0 1
          1 2 2 2 2 2
          2 2 2 2 2 2
          2 2 1 1.5 1 1.5
          2 2 0 1 0 0.75
          0 1 0.5 2 1.75 2
          0 0.5 0 0.5 0 0
          0 1.5 1.5 1 2 2
          2 2 2 2 2 2
          2 1.75 1.5 2 2 2
          1 1.5 1 1.5 2 2
          0.5 1 0 0.5 1.75 1.5
          2 2 2 2 2 2
          2 2 2 2 2 2
          2 2 2 2 2 2
          2 2 2 2 2 2
          2 2 2 2 2 2
          2 2 2 2 2 2
          2 2 2 2 2 2
          2 2 2 2 2 2
          2 2 2 2 2 2
          2 2 2 2 2 2
          2 2 2 2 2 2
          2 2 2 2 2 2
          2 2 2 2 2 2
          2 2 2 2 2 2
          0.6666666666666666 2 0 0.25 0 0
          0 0 0 1.25 1.3333333333333333 0.6666666666666666
          2 1.5 2 2 0 0.5
          1.5 2 2 2 2 0
          0 1.5 0 0 0 0
          0.5 0.5 0 0 0 0
          0 2 2 2 2 2
          2 2 2 2 2 2
          2 2 2 2 2 2
          2 2 1 0 1.5 1.5
          1 1.5 1 2 2 2
          2 2 2 2 2 2
          2 2 2 2 2 2
          1 1 1.5 1.5 2 2
          0.5 1.25 1 2 2 0
          1 1 2 2 2 2
          2 2 2 2 2 2
          2 2 2 2 2 2
          2 2 2 2 2 2
          2 2 2 2 2 2
          2 2 2 2 2 2
          2 2 2 2 2 2
          2 2 2 2 2 2
          2 2 2 2 2 2
          2 2 2 2 0 0.75
          1.75 2
        </DataArray>
        <DataArray type="Float64" Name="gradient_marker" format="ascii" RangeMin="1" RangeMax="1">
          1 1 1 1 1 1
          1 1 1 1 1 1
          1 1 1 1 1 1
          1 1 1 1 1 1
          1 1 1 1 1 1
          1 1 1 1 1 1
          1 1 1 1 1 1
          1 1 1 1 1 1
          1 1 1 1 1 1
          1 1 1 1 1 1
          1 1 1 1 1 1
          1 1 1 1 1 1
          1 1 1 1 1 1
          1 1 1 1 1 1
          1 1 1 1 1 1
          1 1 1 1 1 1
          1 1 1 1 1 1
          1 1 1 1 1 1
          1 1 1 1 1 1
          1 1 1 1 1 1
          1 1 1 1 1 1
          1 1 1 1 1 1
          1 1 1 1 1 1
          1 1 1 1 1 1
          1 1 1 1 1 1
          1 1 1 1 1 1
          1 1 1 1 1 1
          1 1 1 1 1 1
          1 1 1 1 1 1
          1 1 1 1 1 1
          1 1 1 1 1 1
          1 1 1 1 1 1
          1 1 1 1 1 1
          1 1 1 1 1 1
          1 1 1 1 1 1
          1 1 1 1 1 1
          1 1 1 1 1 1
          1 1 1 1 1 1
          1 1 1 1 1 1
          1 1 1 1 1 1
          1 1 1 1 1 1
          1 1 1 1 1 1
          1 1 1 1 1 1
          1 1 1 1 1 1
          1 1 1 1 1 1
          1 1 1 1 1 1
          1 1 1 1 1 1
          1 1 1 1 1 1
          1 1 1 1 1 1
          1 1 1 1 1 1
          1 1 1 1 1 1
          1 1 1 1 1 1
          1 1 1 1 1 1
          1 1 1 1 1 1
          1 1 1 1 1 1
          1 1 1 1 1 1
          1 1 1 1 1 1
          1 1 1 1 1 1
          1 1 1 1 1 1
          1 1
        </DataArray>
        <DataArray type="Float64" Name="gradient_matprop_marker" format="ascii" RangeMin="0" RangeMax="0">
          0 0 0 0 0 0
          0 0 0 0 0 0
          0 0 0 0 0 0
          0 0 0 0 0 0
          0 0 0 0 0 0
          0 0 0 0 0 0
          0 0 0 0 0 0
          0 0 0 0 0 0
          0 0 0 0 0 0
          0 0 0 0 0 0
          0 0 0 0 0 0
          0 0 0 0 0 0
          0 0 0 0 0 0
          0 0 0 0 0 0
          0 0 0 0 0 0
          0 0 0 0 0 0
          0 0 0 0 0 0
          0 0 0 0 0 0
          0 0 0 0 0 0
          0 0 0 0 0 0
          0 0 0 0 0 0
          0 0 0 0 0 0
          0 0 0 0 0 0
          0 0 0 0 0 0
          0 0 0 0 0 0
          0 0 0 0 0 0
          0 0 0 0 0 0
          0 0 0 0 0 0
          0 0 0 0 0 0
          0 0 0 0 0 0
          0 0 0 0 0 0
          0 0 0 0 0 0
          0 0 0 0 0 0
          0 0 0 0 0 0
          0 0 0 0 0 0
          0 0 0 0 0 0
          0 0 0 0 0 0
          0 0 0 0 0 0
          0 0 0 0 0 0
          0 0 0 0 0 0
          0 0 0 0 0 0
          0 0 0 0 0 0
          0 0 0 0 0 0
          0 0 0 0 0 0
          0 0 0 0 0 0
          0 0 0 0 0 0
          0 0 0 0 0 0
          0 0 0 0 0 0
          0 0 0 0 0 0
          0 0 0 0 0 0
          0 0 0 0 0 0
          0 0 0 0 0 0
          0 0 0 0 0 0
          0 0 0 0 0 0
          0 0 0 0 0 0
          0 0 0 0 0 0
          0 0 0 0 0 0
          0 0 0 0 0 0
          0 0 0 0 0 0
          0 0
        </DataArray>
        <DataArray type="Float64" Name="combo" format="ascii" RangeMin="1" RangeMax="1">
          1 1 1 1 1 1
          1 1 1 1 1 1
          1 1 1 1 1 1
          1 1 1 1 1 1
          1 1 1 1 1 1
          1 1 1 1 1 1
          1 1 1 1 1 1
          1 1 1 1 1 1
          1 1 1 1 1 1
          1 1 1 1 1 1
          1 1 1 1 1 1
          1 1 1 1 1 1
          1 1 1 1 1 1
          1 1 1 1 1 1
          1 1 1 1 1 1
          1 1 1 1 1 1
          1 1 1 1 1 1
          1 1 1 1 1 1
          1 1 1 1 1 1
          1 1 1 1 1 1
          1 1 1 1 1 1
          1 1 1 1 1 1
          1 1 1 1 1 1
          1 1 1 1 1 1
          1 1 1 1 1 1
          1 1 1 1 1 1
          1 1 1 1 1 1
          1 1 1 1 1 1
          1 1 1 1 1 1
          1 1 1 1 1 1
          1 1 1 1 1 1
          1 1 1 1 1 1
          1 1 1 1 1 1
          1 1 1 1 1 1
          1 1 1 1 1 1
          1 1 1 1 1 1
          1 1 1 1 1 1
          1 1 1 1 1 1
          1 1 1 1 1 1
          1 1 1 1 1 1
          1 1 1 1 1 1
          1 1 1 1 1 1
          1 1 1 1 1 1
          1 1 1 1 1 1
          1 1 1 1 1 1
          1 1 1 1 1 1
          1 1 1 1 1 1
          1 1 1 1 1 1
          1 1 1 1 1 1
          1 1 1 1 1 1
          1 1 1 1 1 1
          1 1 1 1 1 1
          1 1 1 1 1 1
          1 1 1 1 1 1
          1 1 1 1 1 1
          1 1 1 1 1 1
          1 1 1 1 1 1
          1 1 1 1 1 1
          1 1 1 1 1 1
          1 1
        </DataArray>
        <DataArray type="Float64" Name="dHdT" format="ascii" RangeMin="25.827878168246333" RangeMax="41.77747933336166">
          25.85562204032947 27.877039804247854 26.30685990145792 25.972531624660867 32.49067429394426 26.88304449091151
          26.034470129125772 26.266298108099235 26.06743046282911 27.556376381268542 26.80156017287418 25.92692958437422
          26.042219124656473 25.86788654967379 25.918179497496453 25.910637944795905 25.943583957721962 25.875791407631453
          26.319979062075628 26.044031383466727 33.94141567604058 30.520908547048766 35.914215274292076 28.14460900643345
          29.03798186546602 28.88631373218341 27.560226550436074 29.682285864286936 27.994722108254912 26.71935823080789
          26.945066980424798 25.844693422320525 25.88704743439562 25.837962288864816 25.856362188498508 25.83533319872375
          25.841254323075425 25.93892284881248 25.92024411868091 25.8802670800155 25.847281429534785 25.871038112137366
          25.84321686747824 25.83342550421814 25.82951058951864 25.827878168246333 27.317596203475038 26.551827579813086
          26.25150006863807 26.366032704256916 26.1345367186922 26.219591944014283 26.208419324629975 26.304326750866316
          26.174011248360703 26.65880087087536 26.43829902629322 26.513202838917948 27.51325074718417 27.04084440565008
          28.363771046229292 27.10593631725168 26.77528433700151 26.741985865230408 26.50111308508977 27.756227375777325
          27.264331731311994 27.140016663397073 26.363962621221305 26.468495992622664 26.218601091839957 26.296323659623454
          26.70395354802472 26.47240752348304 26.043137855750782 26.10475656284209 25.97438165143445 26.01727200081983
          26.02054451009473 26.07174170094021 25.99415450662093 26.264072902988637 26.129692760372386 26.18454762861836
          25.923995045680165 25.952798551862042 25.887826735911315 25.90658138283093 25.91350260517428 25.93730750633163
          25.896555522819945 26.029149534314676 25.956563415205476 25.990733094472677 26.511374776923027 26.30618370752422
          26.31023092810866 26.16271391888334 26.87110749561403 26.563992742452562 26.53071837426066 26.150932760918067
          26.03737155384273 26.051949609564655 25.971824987250475 26.33003174760239 26.157599038360598 26.160582466633592
          26.10416136005686 26.160694615442495 26.016884022932018 26.056698402639 26.289241634015447 26.14754478777595
          25.95283151975495 25.979627022483474 25.90708411408331 25.924524113544443 26.04121420085475 25.964757666265392
          31.62425731504336 30.189950824409323 29.016985260324937 32.211166853164926 35.44727072127425 33.84700754601001
          31.919147270366935 34.43271324233598 28.124400123707428 27.45048482181516 29.14753528811638 26.94385765420046
          26.570184900979832 27.414189810719193 30.116545162808418 28.774716036541935 30.533361043459813 27.83069500628949
          28.001824863417276 29.55146141447822 28.195910513276154 31.0062767314767 28.638210339583313 27.91617648226005
          27.63028287982137 27.171127104261544 29.697594523151878 28.67245841048865 28.15153592941136 26.978247608052
          26.6791534175089 27.249484123136178 26.88415273443707 32.260004314004405 29.455789181821675 32.74486270541433
          30.65669754876138 29.33640256839069 28.574764515277213 27.87263649286089 31.057008211459383 29.610195608453125
          28.74127416521555 27.45511990139104 27.03931672653927 27.532889040588298 27.097865999663064 27.34663995805035
          26.90393542168117 26.802867239162538 26.51472251843647 27.887380321491264 27.285559842210485 27.088610608932008
          26.566265611367747 26.316616379589753 26.29576687749031 26.134642858191967 26.830449037494226 26.4380802305108
          26.44090068676794 26.255469020669892 26.59180396023486 26.363443691741253 26.115186343140365 26.013418523217744
          26.189990682947396 28.35010159152076 27.60701938403145 27.316290447066436 26.881999465542727 28.53748648273381
          27.73594868660802 27.404767265255238 27.051269369270763 26.55106987388893 27.13927690233447 26.59470388963447
          26.70623171770315 26.445483109341023 26.749401491269694 26.476440083333404 26.247263757124642 26.26891295813771
          25.86584339472994 26.13200282742855 25.86225786953962 25.874072891399866 25.851940283120744 25.860879591792138
          25.857974091798077 25.867715192440638 25.856041028470273 25.905785225837846 25.879325402305216 25.890021311256987
          25.95761821271077 25.91594675027295 26.035189755888048 25.962223558558485 25.87486484146534 25.886109211758402
          25.91195814074598 26.303102326657182 26.138299185329267 26.020434169394687 25.94306213356328 26.213815941430262
          26.148318714478904 26.630322754762233 26.272749154896637 26.111700588165586 25.979745250912778 26.036872951114212
          26.37196884862184 26.121070546593266 26.00189828149959 25.900764438143057 25.969481544361933 25.856648810395054
          25.886270971485708 28.055305171101622 27.485803760620833 27.11274903687195 27.554563744778296 29.634937382506102
          28.622703800109385 28.586996804049956 27.032664296106052 26.75950337727943 27.849071903467497 26.67902777890966
          26.483607028262906 27.257646754419717 26.409990718234358 26.274009111296603 26.811165785941256 26.21138690153975
          26.119838787387923 26.481457390376235 26.342308440792326 26.39946304238178 26.721801147077233 26.496401802910448
          26.550548552020224 26.316398418559512 26.46904739684465 27.249294475271384 26.902249419329053 26.93305437608297
          26.621157576592232 27.67462331409992 27.27070192314877 28.77057208002226 28.099306802610798 28.012104058286916
          27.028936277334243 27.40766863974691 30.613377915283095 29.484767262608603 29.1153806507916 28.066953243367372
          26.547472282067872 26.777274196888364 26.68442798063123 26.95260816215985 26.990977729306532 27.343962738056153
          26.091510417826562 26.175111431972326 26.066836344632875 26.397992873533 26.22495704632685 25.946674855515404
          25.986298606432904 25.92846497098171 26.09459312822084 25.99980792692388 32.39708445523177 30.9216982086571
          35.37651265484723 33.91679589974557 33.17944217117949 37.56177660565321 36.285745631846 35.41271868896266
          32.21123122863186 30.536637662449944 34.907908868326786 33.01962767573908 40.147244802809965 37.738246047555506
          36.52651870812471 41.77747933336166 38.41020817305363 36.810387573403005 36.44041233901439 34.98208102394936
          36.838586119091985 35.66029517866224 29.15989296380844 28.149861416550237 31.000170822051444 29.355557203493625
          27.41700822427195 26.885774617141188 28.200972118445918 32.763813230246214 30.551446725598787 33.49058059540306
          31.076773305830113 28.941683848359574 29.257255694593276 30.697523974865426 28.893315778866985 32.50887890796956
          29.803814904835534 27.346576423174202 27.797408801962106 27.69840483387022 28.24709692599767 33.85087629582217