<?xml version="1.0"?>
<VTKFile type="UnstructuredGrid" version="0.1" byte_order="LittleEndian" header_type="UInt32" compressor="vtkZLibDataCompressor">
  <UnstructuredGrid>
    <Piece NumberOfPoints="346" NumberOfCells="202">
      <PointData>
        <DataArray type="Int32" Name="libmesh_node_id" format="ascii" RangeMin="304" RangeMax="2948">
          304 409 593 594 595 597
          598 603 1182 1183 1184 1187
          1190 1192 1193 1194 1195 1196
          1197 1198 1199 1200 1201 1202
          1203 1204 1228 1229 1232 1233
          1234 1236 1237 1238 1239 1242
          1243 1244 1559 1560 1563 1566
          1567 1569 1570 1572 1573 2085
          2086 2087 2088 2089 2090 2091
          2092 2093 2094 2095 2096 2097
          2098 2109 2110 2111 2112 2113
          2114 2115 2116 2117 2118 2129
          2130 2131 2132 2133 2134 2135
          2136 2137 2138 2146 2147 2148
          2149 2150 2151 2152 2153 2154
          2155 2156 2157 2158 2159 2160
          2161 2162 2163 2164 2165 2166
          2167 2168 2169 2170 2171 2172
          2173 2174 2175 2176 2177 2178
          2179 2180 2181 2182 2183 2184
          2185 2186 2187 2188 2189 2190
          2191 2192 2193 2194 2195 2196
          2197 2198 2199 2200 2201 2202
          2203 2204 2205 2206 2207 2208
          2209 2210 2211 2212 2213 2214
          2215 2216 2217 2218 2219 2220
          2221 2222 2223 2224 2225 2226
          2228 2229 2230 2231 2232 2233
          2353 2354 2355 2356 2357 2358
          2359 2360 2361 2362 2370 2371
          2374 2375 2379 2380 2382 2385
          2387 2388 2389 2390 2391 2392
          2393 2394 2395 2396 2398 2402
          2404 2405 2408 2409 2411 2412
          2413 2414 2415 2416 2417 2418
          2419 2420 2421 2422 2423 2424
          2425 2426 2427 2428 2429 2430
          2431 2432 2435 2436 2438 2439
          2442 2443 2445 2446 2447 2448
          2449 2450 2451 2452 2453 2454
          2455 2456 2457 2458 2459 2460
          2461 2462 2463 2464 2465 2466
          2469 2470 2472 2473 2476 2477
          2683 2684 2685 2686 2690 2691
          2693 2694 2696 2711 2712 2715
          2716 2718 2720 2731 2732 2735
          2737 2738 2740 2751 2753 2755
          2890 2891 2894 2896 2897 2899
          2910 2914 2924 2925 2928 2930
          2931 2933 2944 2948 1556 1557
          1178 1179 1562 1185 2075 2076
          2077 2080 1180 2083 1181 2101
          2102 2105 2107 1186 2121 2122
          2124 1188 2127 1189 2140 2142
          2144 1191 2345 2346 2348 1226
          2351 1227 2364 2368 2349 2350
          2377 2378 2352 2381 2383 2384
          2386 2367 2397 2401
        </DataArray>
        <DataArray type="Float64" Name="bounds" format="ascii" RangeMin="0" RangeMax="0">
          0 0 0 0 0 0
          0 0 0 0 0 0
          0 0 0 0 0 0
          0 0 0 0 0 0
          0 0 0 0 0 0
          0 0 0 0 0 0
          0 0 0 0 0 0
          0 0 0 0 0 0
          0 0 0 0 0 0
          0 0 0 0 0 0
          0 0 0 0 0 0
          0 0 0 0 0 0
          0 0 0 0 0 0
          0 0 0 0 0 0
          0 0 0 0 0 0
          0 0 0 0 0 0
          0 0 0 0 0 0
          0 0 0 0 0 0
          0 0 0 0 0 0
          0 0 0 0 0 0
          0 0 0 0 0 0
          0 0 0 0 0 0
          0 0 0 0 0 0
          0 0 0 0 0 0
          0 0 0 0 0 0
          0 0 0 0 0 0
          0 0 0 0 0 0
          0 0 0 0 0 0
          0 0 0 0 0 0
          0 0 0 0 0 0
          0 0 0 0 0 0
          0 0 0 0 0 0
          0 0 0 0 0 0
          0 0 0 0 0 0
          0 0 0 0 0 0
          0 0 0 0 0 0
          0 0 0 0 0 0
          0 0 0 0 0 0
          0 0 0 0 0 0
          0 0 0 0 0 0
          0 0 0 0 0 0
          0 0 0 0 0 0
          0 0 0 0 0 0
          0 0 0 0 0 0
          0 0 0 0 0 0
          0 0 0 0 0 0
          0 0 0 0 0 0
          0 0 0 0 0 0
          0 0 0 0 0 0
          0 0 0 0 0 0
          0 0 0 0 0 0
          0 0 0 0 0 0
          0 0 0 0 0 0
          0 0 0 0 0 0
          0 0 0 0 0 0
          0 0 0 0 0 0
          0 0 0 0 0 0
          0 0 0 0
        </DataArray>
        <DataArray type="Float64" Name="gradient_error" format="ascii" RangeMin="1.1815020315892137e-10" RangeMax="2.2211521684948945e-8">
          5.908791368014077e-9 6.755338589732254e-10 2.70108280045863e-9 1.92717955896038e-9 8.350569441952016e-9 4.818056969301822e-10
          2.4448678873160297e-9 1.438285651563625e-8 2.4792771987212144e-9 2.8662543145551063e-9 2.51404868897242e-9 1.7132497495548426e-9
          7.128542795126494e-9 1.4122667331978362e-9 1.2945572017182192e-9 1.5542461331848331e-9 1.353840680237055e-9 6.197650161920719e-10
          7.353260536359901e-10 6.387561151667207e-10 1.0042503325718054e-9 9.067327610153445e-10 4.254874265197695e-10 4.9192653860264754e-9
          4.136298788201344e-9 2.0330091580466582e-9 1.5767347577049675e-8 1.3920670362185291e-8 1.3473297869856789e-8 1.9379133046336117e-8
          1.5383820081402218e-8 9.818975180253886e-9 8.592907909328415e-9 5.3790449670708505e-9 4.552601622004953e-9 9.65366738229018e-9
          9.758721610269132e-9 5.5070713789218065e-9 2.91628893367825e-9 2.7073141598987843e-9 2.173281994326194e-9 1.5341533457522546e-9
          1.422959224985982e-9 7.484971879785128e-10 6.951209637044691e-10 1.1415280195025031e-9 5.592910755757366e-10 1.5150567185648652e-9
          1.4754747050999282e-9 2.1075742684314383e-9 2.0484944710002505e-9 1.1051258048172708e-9 1.5984105254833188e-9 1.5523024498270916e-9
          1.3622950852780684e-9 1.8812937218185275e-9 1.4222211196165068e-9 3.7001692807980326e-9 3.5846680460332376e-9 2.7734009298129457e-9
          3.2611175510016446e-9 1.1957206304337472e-9 1.6355680598414555e-9 8.922080570168927e-10 1.2319663964940944e-9 9.997853354139796e-10
          1.3488881286987457e-9 1.0108798093885186e-9 2.7904622908766956e-9 2.139076521103392e-9 2.251219589745568e-9 6.324192310163607e-9
          6.105693732589576e-9 5.017813302605895e-9 4.836262282790732e-9 5.49629051893168e-9 4.332610564970227e-9 1.0313473107989023e-8
          9.924866186989685e-9 8.0276099489495e-9 8.848706669112736e-9 4.620892715143689e-9 3.615478338267956e-9 3.642285029683022e-9
          2.8224682964253278e-9 7.319262191197233e-9 5.848393949457e-9 5.636598209673167e-9 8.263566643019919e-10 8.039907675654769e-10
          1.1761536839670045e-9 1.1415264498958098e-9 5.713398064752195e-10 8.40862602850369e-10 8.157922677790315e-10 7.40260065705071e-10
          1.0439781610647827e-9 7.452411981585902e-10 2.1473061672540803e-9 2.0756101636719175e-9 1.5011913482796867e-9 1.8759759689702367e-9
          4.05103501334006e-10 3.9405112595538037e-10 5.830959841435818e-10 5.655860810797533e-10 2.6618660781118656e-10 3.934420355433408e-10
          3.8158672501806114e-10 3.62648619078918e-10 5.164231464324233e-10 3.484730570643837e-10 1.0872005362660265e-9 1.049562611317074e-9
          7.096830905982413e-10 9.452420989991418e-10 6.469370454604252e-10 9.017067695112285e-10 4.5905974182411057e-10 6.42557946122228e-10
          5.377950013795502e-10 7.374508538113191e-10 5.244658151602162e-10 1.588986281590221e-9 1.1429934768403487e-9 1.2656338235789627e-9
          3.167458961171561e-10 4.4501413025927314e-10 2.1478241186811906e-10 3.0057995336346433e-10 2.6305071654297625e-10 3.629025148248719e-10
          2.451807023164832e-10 7.964544129835419e-10 5.37900616317696e-10 6.304351876263281e-10 3.838687172994067e-9 3.6943327084457523e-9
          2.8266809532924376e-9 2.7169638117674855e-9 3.2955184052803832e-9 2.4149234179969277e-9 6.538935051325014e-9 6.2739824700288276e-9
          4.7105531209107e-9 5.539728138854074e-9 2.0017172994104224e-9 1.922107932802738e-9 1.363497857650718e-9 1.3084484794583202e-9
          1.7037501984993369e-9 1.1578904239883804e-9 3.5446482479220466e-9 3.388696121730984e-9 2.334228644954906e-9 2.961930637773351e-9
          2.7319461075365214e-9 1.9910609485123163e-9 2.1151801862839295e-9 1.5315492519185554e-9 4.504553959340385e-9 3.336225111678294e-9
          1.3992398788560757e-9 9.489504596108844e-10 1.0715666453911194e-9 7.251658904556799e-10 2.373096437306125e-9 1.6210315992999656e-9
          1.5373199885545714e-8 1.4794221553119214e-8 1.2546273108249618e-8 1.206565398679404e-8 1.314336507244035e-8 1.0704672151415383e-8
          1.8774443761446348e-8 1.840334582458887e-8 1.5343918567557618e-8 1.692345654941761e-8 1.0754951729608707e-8 8.726426290963183e-9
          1.4108443370396153e-8 1.1519252908965518e-8 1.7070110585910658e-8 1.8403859586093984e-8 2.0121132157000863e-8 1.5778254766148784e-8
          1.717838939890943e-8 1.7856873218413128e-8 1.558082546863863e-8 1.57563066316736e-8 1.8198614882058288e-8 1.5305042359377594e-8
          1.4875482707068714e-8 1.630933112992082e-8 1.502606600471353e-8 1.8010271766155638e-8 1.887077007569615e-8 1.935497621163839e-8
          1.6162895575563507e-8 1.3248787186935134e-8 1.6716559824940808e-8 1.3739661609252019e-8 9.955111793740438e-9 9.567757355195086e-9
          7.65748116546772e-9 7.343076568227476e-9 8.462770468909875e-9 6.4506282617141546e-9 1.2567907920986008e-8 1.2220741602041685e-8
          9.531880902322206e-9 1.1080120445131546e-8 5.647348253146498e-9 5.399954828164184e-9 3.969049413680394e-9 3.786170359841456e-9
          4.7071862528248336e-9 3.2794396193677453e-9 7.45046037834018e-9 7.199090018111157e-9 5.172940250186391e-9 6.410625260265082e-9
          6.844541171167988e-9 5.160213555719093e-9 9.14231619087657e-9 7.008691514794598e-9 3.726048838047995e-9 2.5736197527561013e-9
          5.1449749698909626e-9 3.6022083874816538e-9 1.2688834269643309e-8 1.2728008261408353e-8 1.0087953212681297e-8 1.0076069859962535e-8
          1.2244559820456056e-8 9.614510942823602e-9 1.198291889725744e-8 1.2318590310839665e-8 9.845214465972649e-9 1.2361744539805408e-8
          7.915985290635003e-9 7.83885223389094e-9 5.924491390770426e-9 5.808076555320108e-9 7.3315838401052635e-9 5.3146853448011605e-9
          7.726571828280499e-9 7.784253523601418e-9 5.8686736599856306e-9 7.519642262569648e-9 1.057263069436683e-8 8.205614157839423e-9
          1.0982999576090356e-8 8.564013267935527e-9 6.112923708950496e-9 4.334334999170186e-9 6.420655575749263e-9 4.57790671173452e-9
          1.7870033506490975e-10 1.7368030596115138e-10 2.574220101972984e-10 2.496367714705848e-10 1.6017991397567722e-10 2.2806765203537126e-10
          4.815476942285353e-10 4.647745332930683e-10 4.182173486996906e-10 1.4113496466916663e-10 1.9695581556628715e-10 1.1815020315892137e-10
          1.6058821941679025e-10 3.526956129000939e-10 2.79576992610473e-10 8.945571202455885e-10 8.582045513277473e-10 7.588833334499934e-10
          1.614773368279365e-9 1.5403819029391425e-9 1.3386472030853577e-9 6.221139065046364e-10 4.760984160460626e-10 1.0644042180963068e-9
          2.6577979260332956e-9 2.5305085649649092e-9 2.1809864839830558e-9 3.6809448184688795e-9 3.5264179510001487e-9 3.0741252178204525e-9
          1.7009700729726481e-9 2.4048184066526525e-9 4.170906580169392e-9 4.057908867099337e-9 3.6502606533750826e-9 4.228135176272679e-9
          4.155688429299285e-9 3.814236792500327e-9 2.92377810412048e-9 3.1026643583608296e-9 5.150599864187194e-9 4.7918574400576795e-9
          4.778434713677537e-9 4.400437055499723e-9 3.869817760412114e-9 3.450567104787237e-9 1.9233748161949346e-9 2.703278224999618e-9
          2.630315532012835e-9 2.4230902867686334e-9 4.62859387554723e-9 4.4904152708854916e-9 4.101952539595543e-9 1.5678654215726262e-9
          2.116794311945013e-9 1.7572164355045037e-9 3.533311665820071e-9 2.87547382236155e-9 7.709560245641278e-9 7.455290575823267e-9
          6.744541672584434e-9 1.2394066694818059e-8 1.1931311605600614e-8 1.0656046125222063e-8 5.716686768250054e-9 4.554954015167073e-9
          8.864112104111028e-9 6.9035683309493595e-9 1.8152913155193124e-8 1.7514524881869773e-8 1.564880314343291e-8 2.088989749181989e-8
          2.0731448908141894e-8 1.9599984766029848e-8 1.2871380393031469e-8 1.6716786962386078e-8 2.210587240013948e-8 2.2211521684948945e-8
          1.6642263292150305e-8 1.8317673479697503e-8 2.1643174031418655e-8 2.112274637156621e-8 1.2473084759040616e-8 1.5019854148316215e-8
          1.9805625897117623e-8 1.9061447059088623e-8 2.0990067510400044e-8 2.1273031432012086e-8
        </DataArray>
        <DataArray type="Float64" Name="gradient_matprop_error" format="ascii" RangeMin="0" RangeMax="0">
          0 0 0 0 0 0
          0 0 0 0 0 0
          0 0 0 0 0 0
          0 0 0 0 0 0
          0 0 0 0 0 0
          0 0 0 0 0 0
          0 0 0 0 0 0
          0 0 0 0 0 0
          0 0 0 0 0 0
          0 0 0 0 0 0
          0 0 0 0 0 0
          0 0 0 0 0 0
          0 0 0 0 0 0
          0 0 0 0 0 0
          0 0 0 0 0 0
          0 0 0 0 0 0
          0 0 0 0 0 0
          0 0 0 0 0 0
          0 0 0 0 0 0
          0 0 0 0 0 0
          0 0 0 0 0 0
          0 0 0 0 0 0
          0 0 0 0 0 0
          0 0 0 0 0 0
          0 0 0 0 0 0
          0 0 0 0 0 0
          0 0 0 0 0 0
          0 0 0 0 0 0
          0 0 0 0 0 0
          0 0 0 0 0 0
          0 0 0 0 0 0
          0 0 0 0 0 0
          0 0 0 0 0 0
          0 0 0 0 0 0
          0 0 0 0 0 0
          0 0 0 0 0 0
          0 0 0 0 0 0
          0 0 0 0 0 0
          0 0 0 0 0 0
          0 0 0 0 0 0
          0 0 0 0 0 0
          0 0 0 0 0 0
          0 0 0 0 0 0
          0 0 0 0 0 0
          0 0 0 0 0 0
          0 0 0 0 0 0
          0 0 0 0 0 0
          0 0 0 0 0 0
          0 0 0 0 0 0
          0 0 0 0 0 0
          0 0 0 0 0 0
          0 0 0 0 0 0
          0 0 0 0 0 0
          0 0 0 0 0 0
          0 0 0 0 0 0
          0 0 0 0 0 0
          0 0 0 0 0 0
          0 0 0 0
        </DataArray>
        <DataArray type="Float64" Name="initial_marker" format="ascii" RangeMin="0" RangeMax="2">
          2 1 1 0.5 2 0
          2 2 1 2 2 2
          2 1 1 2 2 0.25
          2 2 0 2 2 2
          2 2 2 2 2 2
          2 2 2 2 2 2
          2 2 0 0 0 0
          0 0 0 0 0 2
          2 2 2 2 2 2
          2 2 2 2 2 2
          2 2 2 2 2 1
          1.5 1.5 2 2 2 2
          2 2 2 2 2 2
          2 2 2 2 2 2
          2 2 2 2 2 2
          2 2 2 2 2 2
          2 2 2 2 2 2
          2 2 2 2 1.5 2
          1.75 1.5 1.75 1.25 2 2
          2 2 1.5 1.75 1 1.5
          0.5 1.25 1 2 2 2
          0.5 1.25 0 1 0 1
          1 2 2 2 2 2
          2 2 2 2 2 2
          2 2 2 2 2 2
          2 2 2 2 2 2
          2 2 2 2 2 2
          2 2 2 2 2 2
          2 2 2 2 2 2
          2 2 2 2 2 2
          2 2 2 2 2 2
          2 2 2 2 2 2
          2 2 2 2 2 2
          2 2 2 2 2 2
          2 2 2 2 2 2
          2 2 2 2 2 2
          2 2 2 2 2 2
          2 2 2 2 2 2
          2 2 2 2 2 2
          2 2 2 2 2 2
          2 2 2 2 2 2
          2 2 2 2 2 2
          2 2 2 2 2 2
          1 0.5 1.5 1.25 0 1
          2 2 2 0 1 0
          0.75 2 1.75 2 2 2
          2 2 2 2 2 2
          2 2 2 2 2 2
          2 2 2 2 2 2
          2 2 2 2 0 0
          1 1 0 0.5 2 2
          2 2 2 2 2 2
          2 1.5 2 2 2 2
          2 2 2 2 2 2
          2 2 2 2 2 2
          2 2 2 2 2 2
          2 2 2 2 2 2
          2 2 2 2
        </DataArray>
        <DataArray type="Float64" Name="markers_norefine" format="ascii" RangeMin="0" RangeMax="2">
          0 0 0 0 0 0
          0 0 0 0 0 0
          0 0 0 0 0 0
          0 0 0 0 0 0
          0 0 0 0 1 0.5
          0 0 0 0 0 0
          0 0 0 0 0 0
          0 0 0 0 0 0
          0 0 0 0 0 0
          0 0 0 0 0 0
          0 0 0 0 0 0
          0 0 0 0 0 0
          0 0 0 0 0 0
          0 0 0 0 0 0
          0 0 0 0 0 0
          0 0 0 0 0 0
          0 0 0 0 0 0
          0 0 0 0 0 0
          0 0 0 0 0 0
          0 0 0 0 0 0
          0 0 0 0 0 0
          0 0 0 0 0 0
          0 0 0 0 0 0
          0 0 0 0 0 0
          0 0 0 0 0 0
          0 0 0 0 0 0
          0 0 0 0 0 0
          0 0 0 0 0 0
          0 0 0 0 0 0
          0 0 0 0 0 0
          0 0 1 0.75 0.25 1
          0 0 0 0 0 0
          0 0 0 0 0 0
          0 0 0 0 0 0
          0 0 0 0 0 0
          0 0 0 0 0 0
          0 0 0 0 0 0
          0 0 0 0 0 0
          0 0 0 0 0 0
          0 0 0 0 0 0
          0 0 0 0 0 0
          0 0 0 0 0 0
          0 0 0 0 0 0
          0 0 0 0 0 0
          0 0 0 0 0 0
          0 0 0 0 0 0
          0 0 0 0 0 0
          0 0 0 0 0 0
          0 0 0 0 0 0
          0 0 0 0 0 0
          0 0 0 0 0 0
          0 0 0 0 0 0
          0 0 0 0 0 0
          0 0 0 0 0 0
          0 0 0 0 0 0.5
          0.25 0 0 0 1 0.75
          2 1.75 0.25 0.75 2 2
          1 0 0 0
        </DataArray>
        <DataArray type="Float64" Name="markers_mustrefine" format="ascii" RangeMin="0" RangeMax="2">
          2 1 1 0.5 2 0
          2 2 1 2 2 2
          2 1 1 2 2 0.25
          2 2 0 2 2 2
          2 2 2 2 2 2
          2 2 2 2 2 2
          2 2 0 0 0 0
          0 0 0 0 0 2
          2 2 2 2 2 2
          2 2 2 2 2 2
          2 2 2 2 2 1
          1.5 1.5 2 2 2 2
          2 2 2 2 2 2
          2 2 2 2 2 2
          2 2 2 2 2 2
          2 2 2 2 2 2
          2 2 2 2 2 2
          2 2 2 2 1.5 2
          1.75 1.5 1.75 1.25 2 2
          2 2 1.5 1.75 1 1.5
          0.5 1.25 1 2 2 2
          0.5 1.25 0 1 0 1
          1 2 2 2 2 2
          2 2 2 2 2 2
          2 2 2 2 2 2
          2 2 2 2 2 2
          2 2 2 2 2 2
          2 2 2 2 2 2
          2 2 2 2 2 2
          2 2 2 2 2 2
          2 2 2 2 2 2
          2 2 2 2 2 2
          2 2 2 2 2 2
          2 2 2 2 2 2
          2 2 2 2 2 2
          2 2 2 2 2 2
          2 2 2 2 2 2
          2 2 2 2 2 2
          2 2 2 2 2 2
          2 2 2 2 2 2
          2 2 2 2 2 2
          2 2 2 2 2 2
          2 2 2 2 2 2
          1 0.5 1.5 1.25 0 1
          2 2 2 0 1 0
          0.75 2 1.75 2 2 2
          2 2 2 2 2 2
          2 2 2 2 2 2
          2 2 2 2 2 2
          2 2 2 2 0 0
          1 1 0 0.5 2 2
          2 2 2 2 2 2
          2 1.5 2 2 2 2
          2 2 2 2 2 2
          2 2 2 2 2 2
          2 2 2 2 2 2
          2 2 2 2 2 2
          2 2 2 2
        </DataArray>
        <DataArray type="Float64" Name="gradient_marker" format="ascii" RangeMin="1" RangeMax="1">
          1 1 1 1 1 1
          1 1 1 1 1 1
          1 1 1 1 1 1
          1 1 1 1 1 1
          1 1 1 1 1 1
          1 1 1 1 1 1
          1 1 1 1 1 1
          1 1 1 1 1 1
          1 1 1 1 1 1
          1 1 1 1 1 1
          1 1 1 1 1 1
          1 1 1 1 1 1
          1 1 1 1 1 1
          1 1 1 1 1 1
          1 1 1 1 1 1
          1 1 1 1 1 1
          1 1 1 1 1 1
          1 1 1 1 1 1
          1 1 1 1 1 1
          1 1 1 1 1 1
          1 1 1 1 1 1
          1 1 1 1 1 1
          1 1 1 1 1 1
          1 1 1 1 1 1
          1 1 1 1 1 1
          1 1 1 1 1 1
          1 1 1 1 1 1
          1 1 1 1 1 1
          1 1 1 1 1 1
          1 1 1 1 1 1
          1 1 1 1 1 1
          1 1 1 1 1 1
          1 1 1 1 1 1
          1 1 1 1 1 1
          1 1 1 1 1 1
          1 1 1 1 1 1
          1 1 1 1 1 1
          1 1 1 1 1 1
          1 1 1 1 1 1
          1 1 1 1 1 1
          1 1 1 1 1 1
          1 1 1 1 1 1
          1 1 1 1 1 1
          1 1 1 1 1 1
          1 1 1 1 1 1
          1 1 1 1 1 1
          1 1 1 1 1 1
          1 1 1 1 1 1
          1 1 1 1 1 1
          1 1 1 1 1 1
          1 1 1 1 1 1
          1 1 1 1 1 1
          1 1 1 1 1 1
          1 1 1 1 1 1
          1 1 1 1 1 1
          1 1 1 1 1 1
          1 1 1 1 1 1
          1 1 1 1
        </DataArray>
        <DataArray type="Float64" Name="gradient_matprop_marker" format="ascii" RangeMin="0" RangeMax="0">
          0 0 0 0 0 0
          0 0 0 0 0 0
          0 0 0 0 0 0
          0 0 0 0 0 0
          0 0 0 0 0 0
          0 0 0 0 0 0
          0 0 0 0 0 0
          0 0 0 0 0 0
          0 0 0 0 0 0
          0 0 0 0 0 0
          0 0 0 0 0 0
          0 0 0 0 0 0
          0 0 0 0 0 0
          0 0 0 0 0 0
          0 0 0 0 0 0
          0 0 0 0 0 0
          0 0 0 0 0 0
          0 0 0 0 0 0
          0 0 0 0 0 0
          0 0 0 0 0 0
          0 0 0 0 0 0
          0 0 0 0 0 0
          0 0 0 0 0 0
          0 0 0 0 0 0
          0 0 0 0 0 0
          0 0 0 0 0 0
          0 0 0 0 0 0
          0 0 0 0 0 0
          0 0 0 0 0 0
          0 0 0 0 0 0
          0 0 0 0 0 0
          0 0 0 0 0 0
          0 0 0 0 0 0
          0 0 0 0 0 0
          0 0 0 0 0 0
          0 0 0 0 0 0
          0 0 0 0 0 0
          0 0 0 0 0 0
          0 0 0 0 0 0
          0 0 0 0 0 0
          0 0 0 0 0 0
          0 0 0 0 0 0
          0 0 0 0 0 0
          0 0 0 0 0 0
          0 0 0 0 0 0
          0 0 0 0 0 0
          0 0 0 0 0 0
          0 0 0 0 0 0
          0 0 0 0 0 0
          0 0 0 0 0 0
          0 0 0 0 0 0
          0 0 0 0 0 0
          0 0 0 0 0 0
          0 0 0 0 0 0
          0 0 0 0 0 0
          0 0 0 0 0 0
          0 0 0 0 0 0
          0 0 0 0
        </DataArray>
        <DataArray type="Float64" Name="combo" format="ascii" RangeMin="1" RangeMax="2">
          1 1 1 1 1 1
          1 1 1 1 1 1
          1 1 1 1 1 1
          1 1 1 1 1 1
          1 1 1 1 1.5 1.25
          1 1 1 1 1 1
          1 1 1 1 1 1
          1 1 1 1 1 1
          1 1 1 1 1 1
          1 1 1 1 1 1
          1 1 1 1 1 1
          1 1 1 1 1 1
          1 1 1 1 1 1
          1 1 1 1 1 1
          1 1 1 1 1 1
          1 1 1 1 1 1
          1 1 1 1 1 1
          1 1 1 1 1 1
          1 1 1 1 1 1
          1 1 1 1 1 1
          1 1 1 1 1 1
          1 1 1 1 1 1
          1 1 1 1 1 1
          1 1 1 1 1 1
          1 1 1 1 1 1
          1 1 1 1 1 1
          1 1 1 1 1 1
          1 1 1 1 1 1
          1 1 1 1 1 1
          1 1 1 1 1 1
          1 1 1.5 1.375 1.125 1.5
          1 1 1 1 1 1
          1 1 1 1 1 1
          1 1 1 1 1 1
          1 1 1 1 1 1
          1 1 1 1 1 1
          1 1 1 1 1 1
          1 1 1 1 1 1
          1 1 1 1 1 1
          1 1 1 1 1 1
          1 1 1 1 1 1
          1 1 1 1 1 1
          1 1 1 1 1 1
          1 1 1 1 1 1
          1 1 1 1 1 1
          1 1 1 1 1 1
          1 1 1 1 1 1
          1 1 1 1 1 1
          1 1 1 1 1 1
          1 1 1 1 1 1
          1 1 1 1 1 1
          1 1 1 1 1 1
          1 1 1 1 1 1
          1 1 1 1 1 1
          1 1 1 1 1 1.25
          1.125 1 1 1 1.5 1.375
          2 1.875 1.125 1.375 2 2
          1.5 1 1 1
        </DataArray>
        <DataArray type="Float64" Name="dHdT" format="ascii" RangeMin="25.856648810395054" RangeMax="65.56352291503148">
          30.119186011528583 25.917574896654177 26.253305192374526 26.121070546593266 30.30195142899247 25.886270971485708
          26.83310180518783 37.2673904362138 26.21406118920882 27.153895949762422 26.98726719270585 26.621157576592232
          29.410884141454456 26.037677979763775 26.017284593351135 26.505000200718023 26.417295150442943 25.90815513650357
          26.130234664605297 26.089122336540807 25.969481544361933 26.22495704632685 25.99980792692388 28.033475808052543
          27.633931326363776 26.65434746957611 36.61938572967382 35.1985862290441 61.462869141187866 44.71519133254954
          37.24493253609626 32.566404279303676 30.815878944287437 28.61901392301952 27.96419760021208 36.295976443434
          33.59392905142268 28.993666926575393 26.032100106099488 26.0169945144905 25.979745250912778 25.927766212297144
          25.919899520344813 25.869526571043842 25.86573910012131 25.900764438143057 25.856648810395054 26.589555102313668
          26.569864922999805 26.857499522035702 26.828671784921127 26.371668468973 26.58771719818227 26.56597373371087
          26.515472186071943 26.748084686700484 26.505310631912277 27.61080261847446 27.551933897253775 27.109711484388743
          27.38889765478267 26.435402848698217 26.63069513688389 26.271109175692796 26.417007596018117 26.342308440792326
          26.496401802910448 26.316398418559512 27.157803140903773 26.813496390012272 26.902249419329053 29.03529425853502
          28.90022566056138 28.20077767381452 28.103370920348716 28.539054829800683 27.841194417761564 31.968993604443927
          31.643601484808023 30.050217012931064 30.764364980734253 28.055305171101622 27.485803760620833 27.554563744778296
          27.11274903687195 29.634937382506102 28.622703800109385 28.586996804049956 26.226680340150487 26.21590023884916
          26.37360289709274 26.357623407889374 26.095793538554044 26.20801752139924 26.196618485679725 26.18617320943891
          26.313223330645105 26.164949705126656 26.789509680457467 26.756949852625162 26.481714956572432 26.667014345296014
          26.011660048702968 26.006395097334007 26.08361714768665 26.075674095305427 25.942343278244543 25.993132259222065
          25.98781646572271 25.991922893809043 26.053685069022045 25.973150981873506 26.28908402916737 26.272814848145234
          26.119271225060633 26.227964516345846 26.142257957788132 26.248627090902442 26.043655955558577 26.118981577270063
          26.091510417826562 26.175111431972326 26.066836344632875 26.539335578948624 26.325898909721058 26.397992873533
          25.9707889332489 26.02197335529662 25.918562693028374 25.95206199532259 25.946674855515404 25.986298606432904
          25.92846497098171 26.164495927854244 26.046521097461746 26.09459312822084 27.55027923374407 27.480355062363195
          27.047269253220506 26.997677784971298 27.29104520743722 26.863228122541937 28.982419566030796 28.81912533334704
          27.923411500838636 28.39338949734386 26.665606153348 26.63124480830819 26.38353254892749 26.360447362058473
          26.53804718795575 26.29768815894277 27.3379715133737 27.264244344260128 26.78449083872892 27.068679556338108
          27.032664296106052 26.67902777890966 26.75950337727943 26.483607028262906 27.849071903467497 27.257646754419717
          26.409990718234358 26.21138690153975 26.274009111296603 26.119838787387923 26.811165785941256 26.481457390376235
          35.44163378080161 35.10733733753413 33.7646449612665 33.35465838253873 34.03271484683264 32.17335655102422
          38.2439292851689 37.72981020377222 36.32714365752704 36.64460133175569 32.21123122863186 30.536637662449944
          34.907908868326786 33.01962767573908 54.075995852880574 49.90049974899992 42.20447664008465 55.5727643140595
          42.42814375221646 40.654982670490455 37.34898861386428 37.33959368343442 38.04682091211778 36.86483463168237
          45.28813650868934 42.561878812346364 37.38138066139881 38.622150430286034 37.738246047555506 38.41020817305363
          36.44041233901439 34.98208102394936 36.838586119091985 35.66029517866224 31.705924892318194 31.32831949281999
          29.81455128419127 29.55929643242434 30.346175813161675 28.91917846941761 35.09091018884385 34.57763933507065
          32.07251813684562 33.07405500795719 28.48381592442129 28.325633782487156 27.577475815872916 27.476357838034744
          27.9204516611235 27.215621668810275 30.190180189725506 29.876639069505345 28.433236139206635 29.10296304320292
          29.15989296380844 28.149861416550237 31.000170822051444 29.355557203493625 27.41700822427195 26.885774617141188
          28.200972118445918 27.396753660928866 37.19945234006212 36.83360602215372 35.23477080314911 34.56574593602531
          35.38146633333429 32.75404606067979 37.70615951561956 37.47647868951768 35.58759455113391 36.20873045852353
          32.019209815291106 31.512032777734483 29.66072317417812 29.381217826776428 30.29370702863391 28.684388117428536
          32.85836656825796 32.25537930651509 29.795339300947784 30.820644767887643 32.763813230246214 30.551446725598787
          33.49058059540306 31.076773305830113 28.941683848359574 27.866463291099926 29.257255694593276 28.06334661964484
          25.899828450163533 25.897579660256575 25.929837163332017 25.92645239097225 25.891308690008948 25.917032319475585
          26.01760006145495 26.01057614632628 25.991119503342574 25.882066518632957 25.90335484913571 25.871694087439398
          25.888071634145913 25.963512539143757 25.93336449378512 26.181852679241338 26.16684449584851 26.12600619669732
          26.47422830203581 26.442518191752107 26.357834862361614 26.069874923421196 26.01056931357715 26.245514676582317
          26.95110435399527 26.8868899165197 26.720221876783654 27.597538479313393 27.48423203484706 27.193962630230256
          26.507647658468276 26.83552574380328 28.22209534180903 28.057507575053435 27.638731714093076 28.491216940983463
          28.303156350680325 27.826841532221422 27.132968641596257 27.256519707551213 26.20432424141161 26.177938898506966
          26.604002818754417 26.535746752246247 26.111700588165586 26.37196884862184 26.81821555416283 27.19166001875743
          27.15421318561009 27.049626821003343 28.175676910143892 28.097919060306324 27.884221853004277 26.642691350908606
          26.897019938251297 26.721801147077233 27.582237187476952 27.249294475271384 30.11284723402111 29.921976916543777
          29.420296708200148 33.61344965035626 33.30010972372061 32.34856554273343 28.764068904408795 28.099306802610798
          30.9216982086571 29.484767262608603 36.590567296692214 36.35925193496535 35.55069784973519 42.02860021737511
          40.74242306798105 38.2610086798921 33.91679589974557 36.285745631846 47.921650912638526 45.816621948912534
          60.24628098252142 57.33101866009987 41.11437687007616 48.73782578363574 65.56352291503148 62.66594977570689
          52.99171485333585 37.56177660565321 40.147244802809965 41.77747933336166
        </DataArray>
        <DataArray type="Float64" Name="dk/dtemperature" format="ascii" RangeMin="0.0067608559506686485" RangeMax="0.04467541864814553">
          0.011350484483251393 0.015804580349343192 0.015329054100294259 0.015574868462897861 0.011397403636502781 0.015804580349343192
          0.01458280327381015 0.008284191276333189 0.015409000378408172 0.01417268654605718 0.01434837047100432 0.014820064044466796
          0.011970613425164589 0.015762814551807676 0.015773256001191557 0.014977441437307022 0.015091102274877312 0.015804580349343192
          0.015574868462897861 0.015668841507352767 0.015804580349343192 0.015399754034676668 0.015783697450575434 0.013124133495771998