<?xml version="1.0"?>
<VTKFile type="UnstructuredGrid" version="0.1" byte_order="LittleEndian" header_type="UInt32" compressor="vtkZLibDataCompressor">
  <UnstructuredGrid>
    <Piece NumberOfPoints="437" NumberOfCells="213">
      <PointData>
        <DataArray type="Int32" Name="libmesh_node_id" format="ascii" RangeMin="192" RangeMax="3464">
          192 193 194 195 196 197
          210 211 212 228 229 230
          231 232 233 246 247 248
          264 265 266 267 268 269
          282 283 284 300 301 302
          303 305 318 319 320 324
          325 326 327 328 329 330
          331 332 333 334 335 336
          337 338 339 340 341 342
          343 344 347 349 350 351
          352 356 371 372 373 374
          375 376 377 378 379 380
          381 382 383 384 385 386
          387 388 389 390 446 447
          448 449 450 451 452 453
          454 455 456 457 458 459
          471 473 476 477 478 479
          481 483 486 487 488 489
          490 492 493 518 519 520
          521 522 523 524 525 526
          527 528 529 530 531 532
          533 534 535 536 537 538
          539 540 544 545 548 550
          665 666 667 668 669 670
          671 672 673 674 675 676
          677 678 679 680 681 682
          683 684 685 686 687 688
          713 714 715 716 717 718
          719 720 721 722 723 724
          725 726 727 728 729 730
          731 732 733 734 735 736
          737 738 739 740 741 742
          743 744 745 746 747 748
          749 750 751 752 753 754
          755 756 757 758 759 760
          761 762 763 765 768 771
          772 775 776 777 778 780
          791 792 793 794 795 796
          797 798 799 800 801 802
          803 804 805 806 807 808
          809 810 811 812 813 814
          815 816 817 818 819 820
          821 822 823 824 825 826
          827 828 829 830 831 832
          833 834 835 836 837 840
          841 843 844 853 854 855
          856 857 858 923 924 925
          926 927 928 929 930 931
          932 933 934 935 936 937
          938 939 940 941 942 943
          944 945 946 947 948 949
          950 951 957 964 965 966
          967 968 969 970 971 974
          975 980 981 984 985 986
          987 989 1000 1001 1002 1003
          1004 1005 1006 1434 1435 1436
          1437 1440 1441 1442 3445 3446
          3447 3448 3449 3450 3451 3452
          3453 3454 3455 3456 3457 3458
          3459 3460 3461 3462 3463 3464
          346 397 470 398 472 474
          475 403 480 482 484 485
          491 764 766 767 769 770
          391 345 394 773 774 779
          838 839 842 392 541 393
          845 846 847 848 849 850
          851 852 566 546 568 573
          401 576 952 953 954 955
          956 958 959 960 961 963
          972 973 976 977 543 978
          979 982 983 547 988 990
          991 994 997 999 1007 1009
          1011 1013 1438 1439 1443
        </DataArray>
        <DataArray type="Float64" Name="bounds" format="ascii" RangeMin="0" RangeMax="0">
          0 0 0 0 0 0
          0 0 0 0 0 0
          0 0 0 0 0 0
          0 0 0 0 0 0
          0 0 0 0 0 0
          0 0 0 0 0 0
          0 0 0 0 0 0
          0 0 0 0 0 0
          0 0 0 0 0 0
          0 0 0 0 0 0
          0 0 0 0 0 0
          0 0 0 0 0 0
          0 0 0 0 0 0
          0 0 0 0 0 0
          0 0 0 0 0 0
          0 0 0 0 0 0
          0 0 0 0 0 0
          0 0 0 0 0 0
          0 0 0 0 0 0
          0 0 0 0 0 0
          0 0 0 0 0 0
          0 0 0 0 0 0
          0 0 0 0 0 0
          0 0 0 0 0 0
          0 0 0 0 0 0
          0 0 0 0 0 0
          0 0 0 0 0 0
          0 0 0 0 0 0
          0 0 0 0 0 0
          0 0 0 0 0 0
          0 0 0 0 0 0
          0 0 0 0 0 0
          0 0 0 0 0 0
          0 0 0 0 0 0
          0 0 0 0 0 0
          0 0 0 0 0 0
          0 0 0 0 0 0
          0 0 0 0 0 0
          0 0 0 0 0 0
          0 0 0 0 0 0
          0 0 0 0 0 0
          0 0 0 0 0 0
          0 0 0 0 0 0
          0 0 0 0 0 0
          0 0 0 0 0 0
          0 0 0 0 0 0
          0 0 0 0 0 0
          0 0 0 0 0 0
          0 0 0 0 0 0
          0 0 0 0 0 0
          0 0 0 0 0 0
          0 0 0 0 0 0
          0 0 0 0 0 0
          0 0 0 0 0 0
          0 0 0 0 0 0
          0 0 0 0 0 0
          0 0 0 0 0 0
          0 0 0 0 0 0
          0 0 0 0 0 0
          0 0 0 0 0 0
          0 0 0 0 0 0
          0 0 0 0 0 0
          0 0 0 0 0 0
          0 0 0 0 0 0
          0 0 0 0 0 0
          0 0 0 0 0 0
          0 0 0 0 0 0
          0 0 0 0 0 0
          0 0 0 0 0 0
          0 0 0 0 0 0
          0 0 0 0 0 0
          0 0 0 0 0 0
          0 0 0 0 0
        </DataArray>
        <DataArray type="Float64" Name="gradient_error" format="ascii" RangeMin="1.5896343301883348e-10" RangeMax="8.175619717003053e-7">
          2.9972569033192263e-9 2.9278127263486403e-9 1.415635533119208e-9 1.442275395226445e-9 5.999915407170185e-10 6.178172813132785e-10
          2.8583685493780544e-9 1.4689152573336823e-9 6.356430219095384e-10 4.710109580294714e-9 9.18503657566803e-9 1.893501307600014e-9
          4.126445626304804e-9 4.2041742783012747e-10 1.2151634409266753e-9 1.4089439565463592e-8 6.256821840428475e-9 1.9252205837902377e-9
          4.237418855749574e-8 1.0496793317308062e-7 8.598466590178225e-9 3.3544490923304356e-8 6.436560585078998e-10 3.0342199659107383e-9
          1.3372261825414287e-8 5.907044334923763e-9 1.6287494855451154e-9 6.09196534673911e-7 7.740079820178805e-8 1.1011255852021116e-7
          1.436901871802423e-8 1.4695771536001739e-9 4.369088898771769e-9 9.477163601599333e-10 1.5896343301883348e-10 2.1714806335509824e-8
          7.471946819347968e-8 1.1829864170009429e-7 4.997135175678499e-7 5.807179392993755e-7 3.0007625497796745e-7 3.3918216788560674e-7
          3.647062910069742e-8 1.1433154351464808e-7 1.5245789441876688e-7 8.371407251825418e-8 7.730791852568493e-8 1.2963074724132243e-7
          3.6365422381718095e-8 5.058826441773803e-7 6.650843514946647e-7 5.493192513293952e-7 1.7461980230322642e-7 3.9915536096427385e-8
          2.4380760977537215e-9 1.1869557079473873e-8 2.349739835487195e-9 3.5546361957388164e-9 1.4050335857576914e-8 1.2149070812888959e-8
          2.7483110699533975e-9 4.407317626724767e-9 3.6815654571746544e-7 3.636493685744078e-7 4.842731883423992e-7 7.246459584810169e-7
          3.971713813693657e-7 5.012728251734449e-7 7.690543652558388e-7 1.5475957050371034e-7 1.850245118268561e-7 2.4756346452414906e-7
          2.935150299954639e-7 4.136224135141902e-7 5.389311012576823e-7 1.9192932182595196e-7 1.3164485076465965e-7 4.212671264246478e-7
          7.579261111730901e-7 1.9767470243371761e-7 4.46403461911213e-7 7.580304471646242e-8 1.1146946301685184e-9 1.8252832474820022e-9
          1.725248531307623e-9 4.171984605188265e-9 6.274409740686349e-10 7.057601166820915e-10 6.936869568576182e-10 5.110299891803274e-10
          1.2640700373357804e-9 1.9257152830672916e-10 2.3358024324467275e-9 6.518685962894527e-9 7.84079259295548e-10 3.2837302150303643e-10
          6.302751432744824e-8 9.12200279343937e-8 9.64418593567308e-9 8.738526906115458e-9 1.7045886283134546e-8 4.6595801934349746e-9
          1.1941254154133917e-7 7.832867876557838e-9 2.455080980844414e-9 3.574944843244993e-9 2.389581432025466e-9 2.608204276166442e-9
          1.3130912298743878e-9 4.694808705645572e-9 2.8268271203074178e-9 2.2002933219292372e-7 2.0809285098995493e-7 1.9185443957334066e-7
          1.7382931742619458e-7 2.101432047142992e-7 2.2811763055051386e-7 1.912441260927468e-7 2.047891432314725e-7 1.3509563327853363e-7
          1.7711275862964986e-7 1.8571945274239444e-7 2.1616526392315604e-7 1.9584474046019946e-7 2.1618955402227795e-7 1.670740831691105e-7
          2.076774729413494e-7 1.7156909324968868e-7 1.3357750341587523e-7 2.279560934897723e-7 1.3710176723837287e-7 1.552073445279446e-7
          5.0660672429272745e-8 8.337028028318904e-8 1.6216042972977641e-7 1.7154315792381228e-7 4.9204295005365556e-8 1.580978175176656e-7
          3.1526254505506023e-9 3.0679383335593067e-9 4.148547492488983e-9 1.969689783491156e-8 1.2181463033015821e-8 1.024968932264275e-8
          1.4412231908450156e-8 1.7212306442641996e-9 6.076418790078945e-9 5.4980729503728086e-9 2.9832512165680116e-9 8.317915612269683e-9
          9.127565981988749e-9 4.919727110666674e-9 4.832347867725151e-10 6.383167372579082e-10 1.8605459046437705e-9 1.8150509096017497e-9
          1.8008615665877651e-10 3.335690452365981e-10 3.874119193479169e-10 7.933986877433015e-10 1.7695559145597287e-9 4.4125479345923576e-10
          3.3194660894905958e-9 7.784764675713115e-9 9.74344850289051e-9 2.095763799649248e-8 2.592341751994248e-9 2.438285940309536e-9
          3.830165873608126e-9 1.6167430916290427e-8 3.413051131727184e-8 2.284230128624824e-9 1.3317952845115786e-8 1.7209826433769146e-8
          2.639562854310032e-8 1.2606118617678405e-7 9.69962188379824e-8 7.96464475780084e-8 1.0600014703372397e-7 1.0068471772383693e-8
          6.995466185794266e-8 5.540792062735995e-8 2.1101700022422507e-8 6.229667631803441e-8 8.59391078906639e-8 4.086117939677726e-8
          5.437031145894784e-7 4.6535782564789564e-7 4.376711209273454e-7 6.572829369888073e-7 7.984496830655688e-7 7.634458386434119e-7
          6.502031556296582e-7 3.3114743560556255e-7 5.095222577261982e-7 4.734760012394349e-7 7.805034094226783e-7 8.175619717003053e-7
          6.680224494818396e-7 6.082041715180771e-7 9.019571059895468e-8 1.164482514366062e-7 1.2383391935886975e-7 1.5347075242311184e-7
          2.8233927849111817e-8 2.986748300806988e-8 4.573592267044561e-8 1.5747212811878487e-7 1.9049325340961749e-7 3.150103816702794e-8
          2.6818191368151016e-9 5.1265871655302996e-9 4.296218815190954e-8 2.6316805995607803e-9 7.571355194245496e-9 1.2413136746218586e-9
          1.4567462223276412e-9 7.32965829632533e-10 2.392889809360834e-9 1.98698527439636e-9 1.6721787700334243e-9 1.5810807394318862e-9
          1.1300866072144519e-7 1.0559001706155549e-7 1.14442970670117e-7 1.4723655649193084e-7 1.4992749942390235e-7 1.3660896544089352e-7
          1.3408398575926453e-7 9.04924529461966e-8 1.541317145397306e-7 1.3998254344995523e-7 9.817137340166579e-8 1.2329043145788467e-7
          1.2093141502659827e-7 1.1098071584192847e-7 1.7657946273230426e-7 1.7070444607930446e-7 1.4784108957251937e-7 1.4235233170643923e-7
          1.5057062739831656e-7 1.5990966810008043e-7 1.446619541524166e-7 1.6482942942630472e-7 1.6924870880184425e-7 1.46971576598394e-7
          1.2456179206432886e-7 1.4911489012085635e-7 1.4148281873231385e-7 1.7366798817738384e-7 1.3817086053142661e-7 1.3316843336089641e-7
          1.5554184416185952e-7 1.5025235952469625e-7 1.243076292772318e-7 1.6442400712849926e-7 1.1149610240964212e-7 1.248452168641353e-7
          1.3028836718739219e-7 1.153306559656218e-7 1.7291282779229237e-7 1.673362856884961e-7 1.8370196223605568e-7 1.3819433131862853e-7
          8.305346671366779e-8 7.694459117698383e-8 1.5472551237163233e-7 1.3910284871029494e-7 6.162990194582511e-8 6.034292462670327e-8
          1.0002507727012791e-7 5.122162571628004e-8 4.574572589011625e-8 1.1255121608102765e-7 1.6904446581323578e-7 7.343677552622507e-8
          1.0520326687113554e-7 1.9186085863022495e-7 1.1799189565194841e-7 3.972807031810151e-8 4.1847069053438385e-8 4.0669813281372046e-8
          3.94925575093057e-8 3.8486817639803396e-8 3.282547671857719e-8 3.3908613138848455e-8 3.817693461800581e-8 3.2455147242732695e-8
          3.9421245678923524e-8 4.0657302896114736e-8 3.995248611533757e-8 4.189336011330595e-8 4.327476080538804e-8 4.208867275880159e-8
          4.459785735888698e-8 4.357079620799459e-8 4.658953235120784e-8 5.0684889700453725e-8 4.9615806679495684e-8 4.090258471221515e-8
          4.2543735057102215e-8 4.7627766366414865e-8 4.2378684036419965e-8 4.261410064217323e-8 5.128928619339367e-8 4.3383580703472633e-8
          5.24386732378358e-8 5.0733684413237796e-8 4.570780563640987e-8 3.776647278874803e-8 4.1891329159744236e-8 3.7992806537319154e-8
          4.2969452591922424e-8 4.8564422543974154e-8 4.1487197569279964e-8 3.845852745070568e-8 4.337784496254818e-8 3.453013921723142e-8
          3.892354441524522e-8 3.450255486012821e-8 3.7013039990112626e-8 4.217343187127644e-8 5.074005547460685e-8 3.016869555980239e-8
          3.3850798353066386e-8 4.136393538833858e-8 4.390969124888945e-8 5.07137684732497e-8 4.2996043875323074e-8 4.8853352246768074e-8
          4.484992990585648e-8 5.1588995895908384e-8 4.450489018136618e-8 3.8759935894238484e-8 4.7284993447485154e-8 5.881714753002361e-8
          6.495788861864742e-8 2.7669738175370328e-8 4.1064325568748906e-8 4.8640374431869235e-8 3.4732060063439574e-8 3.829930569074856e-8
          5.20856170812941e-8 1.7199515038203797e-7 1.5287116626696857e-7 1.2984262570001081e-7 1.4752199857925405e-7 4.186655131805755e-8
          1.0681408513305307e-7 1.2304884677647013e-7 1.382195364405958e-7 1.5430789092659468e-7 1.7710274868292773e-7 1.9282889572250394e-7
          5.702183947712998e-8 6.360297613471377e-8 8.18291632366472e-8 2.1598596092525964e-7 2.313499005184132e-7 7.018411279229754e-8
          2.5530526000420155e-8 4.262901193752513e-8 3.8840459563884993e-8 8.306006269708432e-8 5.787955600258071e-8 1.9745811083283078e-8
          2.948306517162633e-8 1.2469011896730672e-7 7.691865244127641e-8 3.922031925996958e-8 7.750955284963863e-9 1.1640078280623285e-8
          1.552920127628271e-8 3.3957787046058575e-8 2.055482017258178e-8 1.6681471717779786e-8 2.4953385940207613e-8 1.280812326297779e-8
          5.364376029646463e-8 3.701535941764692e-8 2.6160745448254342e-8 7.860064722065355e-9 6.357480624730752e-9 4.854896527396149e-9
          1.4805282518905382e-7 1.312183557921271e-7 8.98662378404771e-8 1.4235827650818563e-7 1.2454356465858557e-7 1.2691161012898348e-7
          1.3116960379275925e-7 1.1446808650598012e-7 3.082255179313254e-8 1.0475428812694251e-7 9.006394861530963e-8 3.226590438839682e-8
          7.461820577706686e-8 5.5983561252123654e-8 1.0416435770264636e-7 1.4652978862042405e-7 1.6597526186305936e-7 9.050172906929404e-8
          1.722609799434312e-7 1.9220571144324e-7 5.7467854713034435e-8 5.597381541751896e-8 5.4696638239103505e-8 6.449838118545885e-8
          6.246475873435751e-8 5.1155960815927315e-8 5.607374487918057e-8 6.120687663612688e-8 6.129935393684211e-8 5.9230317276394434e-8
          3.972919345719211e-8 4.614310329691124e-8 4.056985311871751e-8 5.24469026566525e-8 6.839019417742881e-8 5.8194831239823597e-8
          4.7825001998073464e-8 4.055724170442474e-8 4.473158397695355e-8 3.335694150406257e-8 3.9526676574903294e-8 4.1019598094405664e-8
          5.0523172263394256e-8 6.081866984826797e-8 3.9779212550707215e-8 5.978082113919181e-8 5.8022788751952005e-8 5.4557683627472676e-8
          5.944893466498969e-8 5.6782312872057436e-8 2.580784082063208e-8 4.719587197152306e-8 2.904315465729226e-8
        </DataArray>
        <DataArray type="Float64" Name="gradient_matprop_error" format="ascii" RangeMin="0" RangeMax="0">
          0 0 0 0 0 0
          0 0 0 0 0 0
          0 0 0 0 0 0
          0 0 0 0 0 0
          0 0 0 0 0 0
          0 0 0 0 0 0
          0 0 0 0 0 0
          0 0 0 0 0 0
          0 0 0 0 0 0
          0 0 0 0 0 0
          0 0 0 0 0 0
          0 0 0 0 0 0
          0 0 0 0 0 0
          0 0 0 0 0 0
          0 0 0 0 0 0
          0 0 0 0 0 0
          0 0 0 0 0 0
          0 0 0 0 0 0
          0 0 0 0 0 0
          0 0 0 0 0 0
          0 0 0 0 0 0
          0 0 0 0 0 0
          0 0 0 0 0 0
          0 0 0 0 0 0
          0 0 0 0 0 0
          0 0 0 0 0 0
          0 0 0 0 0 0
          0 0 0 0 0 0
          0 0 0 0 0 0
          0 0 0 0 0 0
          0 0 0 0 0 0
          0 0 0 0 0 0
          0 0 0 0 0 0
          0 0 0 0 0 0
          0 0 0 0 0 0
          0 0 0 0 0 0
          0 0 0 0 0 0
          0 0 0 0 0 0
          0 0 0 0 0 0
          0 0 0 0 0 0
          0 0 0 0 0 0
          0 0 0 0 0 0
          0 0 0 0 0 0
          0 0 0 0 0 0
          0 0 0 0 0 0
          0 0 0 0 0 0
          0 0 0 0 0 0
          0 0 0 0 0 0
          0 0 0 0 0 0
          0 0 0 0 0 0
          0 0 0 0 0 0
          0 0 0 0 0 0
          0 0 0 0 0 0
          0 0 0 0 0 0
          0 0 0 0 0 0
          0 0 0 0 0 0
          0 0 0 0 0 0
          0 0 0 0 0 0
          0 0 0 0 0 0
          0 0 0 0 0 0
          0 0 0 0 0 0
          0 0 0 0 0 0
          0 0 0 0 0 0
          0 0 0 0 0 0
          0 0 0 0 0 0
          0 0 0 0 0 0
          0 0 0 0 0 0
          0 0 0 0 0 0
          0 0 0 0 0 0
          0 0 0 0 0 0
          0 0 0 0 0 0
          0 0 0 0 0 0
          0 0 0 0 0
        </DataArray>
        <DataArray type="Float64" Name="initial_marker" format="ascii" RangeMin="0" RangeMax="2">
          0 0 0 0 0 0
          0 0 0 0 0 0
          0 0 0 0 0 0
          0 0 0 0 0 0
          0 0 0 0 0 2
          0 0 0 0 0 0
          0 0 0 0 0 0
          0 0 0 0 0 0
          0 0 0 0 0 0
          0 0 0 0 0 0
          0 0 0 0 0 0
          0 0 0 0 0.5 0.25
          0 0 0 0 1 0
          0 1 0 0 0 0
          0 0 0 0 0 0
          0 0 0 0 0 0
          0 0 0 0 0 0
          0 0 0 0 0 0
          0 0 0 0.5 0.25 0
          0.5 1.5 1 0.25 0.5 2
          1.75 0 0.25 0 0.5 2
          1.5 0.5 2 0.5 0.5 0.5
          2 2 0.25 0.75 2 1
          0 0 0 0 0 0
          0 0 0 0 0 0
          0 0 0 0 0 0
          0 0 0 0 0 0
          0 0 0 0 0 0
          0 0 0 0 0 0
          0 0 0 0 0 0
          0 0 0 0 0 0
          0 0 0 0 0 0
          0 0 0 0 0 0
          0 0 0 0 0 0
          0 0 0 0 0 0
          0 0 0 0 0 0
          0 0 0 0 0 0
          0 0 0 0 0 0
          0 0 0 0 0 0
          0 0 0 0 0 0
          0 0 0 0 0 0
          0 0 0 0 0 0
          0 0 0 0 0 0
          0 0 0 0 0 0
          0 0 0 0 0 0
          0 0 0 0 0 0
          0 0 0 0 1 1
          1 2 2 2 2 2
          1 1.5 1 2 0 0
          1 1 1 1.5 1.5 0
          1 1.3333333333333333 2 2 2 2
          2 2 1 0 0.5 0
          1.5 1.6666666666666667 1 0 0.75 0
          0.5 2 2 2 2 2
          2 2 1.75 2 1.5 2
          2 2 2 0 0 0
          0 0 0 0 0 0
          0 0 0 0 0 0
          0 0 0 0 0 0
          0 0 0 0 0 0
          0 0 0 0 0 0
          0 0 0 0 0 0
          0 0 0 0 0 0
          0 0 0 0 0 0
          0 0 0 1 0.75 0
          0 0 0 0 0 0
          0 0 0 1.25 0.25 0
          1.5 0.5 2 2 2 2
          2 1.5 1.75 2 2 2
          0.5 1.25 1 1.75 2 2
          1.5 2 2 2 2 2
          2 2 2 2 2 2
          2 2 0 0 0
        </DataArray>
        <DataArray type="Float64" Name="markers_norefine" format="ascii" RangeMin="0" RangeMax="0">
          0 0 0 0 0 0
          0 0 0 0 0 0
          0 0 0 0 0 0
          0 0 0 0 0 0
          0 0 0 0 0 0
          0 0 0 0 0 0
          0 0 0 0 0 0
          0 0 0 0 0 0
          0 0 0 0 0 0
          0 0 0 0 0 0
          0 0 0 0 0 0
          0 0 0 0 0 0
          0 0 0 0 0 0
          0 0 0 0 0 0
          0 0 0 0 0 0
          0 0 0 0 0 0
          0 0 0 0 0 0
          0 0 0 0 0 0
          0 0 0 0 0 0
          0 0 0 0 0 0
          0 0 0 0 0 0
          0 0 0 0 0 0
          0 0 0 0 0 0
          0 0 0 0 0 0
          0 0 0 0 0 0
          0 0 0 0 0 0
          0 0 0 0 0 0
          0 0 0 0 0 0
          0 0 0 0 0 0
          0 0 0 0 0 0
          0 0 0 0 0 0
          0 0 0 0 0 0
          0 0 0 0 0 0
          0 0 0 0 0 0
          0 0 0 0 0 0
          0 0 0 0 0 0
          0 0 0 0 0 0
          0 0 0 0 0 0
          0 0 0 0 0 0
          0 0 0 0 0 0
          0 0 0 0 0 0
          0 0 0 0 0 0
          0 0 0 0 0 0
          0 0 0 0 0 0
          0 0 0 0 0 0
          0 0 0 0 0 0
          0 0 0 0 0 0
          0 0 0 0 0 0
          0 0 0 0 0 0
          0 0 0 0 0 0
          0 0 0 0 0 0
          0 0 0 0 0 0
          0 0 0 0 0 0
          0 0 0 0 0 0
          0 0 0 0 0 0
          0 0 0 0 0 0
          0 0 0 0 0 0
          0 0 0 0 0 0
          0 0 0 0 0 0
          0 0 0 0 0 0
          0 0 0 0 0 0
          0 0 0 0 0 0
          0 0 0 0 0 0
          0 0 0 0 0 0
          0 0 0 0 0 0
          0 0 0 0 0 0
          0 0 0 0 0 0
          0 0 0 0 0 0
          0 0 0 0 0 0
          0 0 0 0 0 0
          0 0 0 0 0 0
          0 0 0 0 0 0
          0 0 0 0 0
        </DataArray>
        <DataArray type="Float64" Name="markers_mustrefine" format="ascii" RangeMin="0" RangeMax="2">
          0 0 0 0 0 0
          0 0 0 0 0 0
          0 0 0 0 0 0
          0 0 0 0 0 0
          0 0 0 0 0 2
          0 0 0 0 0 0
          0 0 0 0 0 0
          0 0 0 0 0 0
          0 0 0 0 0 0
          0 0 0 0 0 0
          0 0 0 0 0 0
          0 0 0 0 0.5 0.25
          0 0 0 0 1 0
          0 1 0 0 0 0
          0 0 0 0 0 0
          0 0 0 0 0 0
          0 0 0 0 0 0
          0 0 0 0 0 0
          0 0 0 0.5 0.25 0
          0.5 1.5 1 0.25 0.5 2
          1.75 0 0.25 0 0.5 2
          1.5 0.5 2 0.5 0.5 0.5
          2 2 0.25 0.75 2 1
          0 0 0 0 0 0
          0 0 0 0 0 0
          0 0 0 0 0 0
          0 0 0 0 0 0
          0 0 0 0 0 0
          0 0 0 0 0 0
          0 0 0 0 0 0
          0 0 0 0 0 0
          0 0 0 0 0 0
          0 0 0 0 0 0
          0 0 0 0 0 0
          0 0 0 0 0 0
          0 0 0 0 0 0
          0 0 0 0 0 0
          0 0 0 0 0 0
          0 0 0 0 0 0
          0 0 0 0 0 0
          0 0 0 0 0 0
          0 0 0 0 0 0
          0 0 0 0 0 0
          0 0 0 0 0 0
          0 0 0 0 0 0
          0 0 0 0 0 0
          0 0 0 0 1 1
          1 2 2 2 2 2
          1 1.5 1 2 0 0
          1 1 1 1.5 1.5 0
          1 1.3333333333333333 2 2 2 2
          2 2 1 0 0.5 0
          1.5 1.6666666666666667 1 0 0.75 0
          0.5 2 2 2 2 2
          2 2 1.75 2 1.5 2
          2 2 2 0 0 0
          0 0 0 0 0 0
          0 0 0 0 0 0
          0 0 0 0 0 0
          0 0 0 0 0 0
          0 0 0 0 0 0
          0 0 0 0 0 0
          0 0 0 0 0 0
          0 0 0 0 0 0
          0 0 0 1 0.75 0
          0 0 0 0 0 0
          0 0 0 1.25 0.25 0
          1.5 0.5 2 2 2 2
          2 1.5 1.75 2 2 2
          0.5 1.25 1 1.75 2 2
          1.5 2 2 2 2 2
          2 2 2 2 2 2
          2 2 0 0 0
        </DataArray>
        <DataArray type="Float64" Name="gradient_marker" format="ascii" RangeMin="0" RangeMax="1">
          1 1 1 1 1 1
          1 1 1 1 1 1
          1 1 1 1 1 1
          1 1 1 1 1 1
          1 1 1 1 1 0.5
          1 1 1 1 1 1
          1 1 1 1 1 1
          1 1 0.875 1 1 1
          1 1 1 1 1 1
          1 1 1 1 1 1
          1 1 1 1 1 1
          1 1 1 1 0.75 1
          1 1 1 1 1 1
          1 0.75 1 1 1 1
          1 1 1 1 1 1
          1 1 1 1 1 1
          1 1 1 1 1 1
          1 1 1 1 1 1
          1 1 1 1 1 1
          1 1 1 1 0.875 0.5
          0.625 1 1 1 0.875 1
          1 1 0.5 1 0.75 0.75
          0.75 1 0.875 0.75 0.75 1
          1 1 1 1 1 1
          1 1 1 1 1 1
          1 1 1 1 1 1
          1 1 1 1 1 1
          1 1 1 1 1 1
          1 1 1 1 1 1
          1 1 1 1 1 1
          1 1 1 1 1 1
          1 1 1 1 1 1
          1 1 1 1 1 1
          1 1 1 1 1 1
          1 1 1 1 1 1
          1 1 1 1 1 1
          1 1 1 1 1 1
          1 1 1 1 1 1
          1 1 1 1 1 1
          1 1 1 1 1 1
          1 1 1 1 1 1
          1 1 1 1 1 1
          1 1 1 1 1 1
          1 1 1 1 1 1
          1 1 1 1 1 0.75
          0.875 0.5 0.5 1 1 1
          1 1 1 0 0 0
          0 0 0 0 0 0
          0 0 0 0 0 0
          0.25 0.25 0.5 0.75 0.75 0
          0.25 0.6666666666666666 0.25 0.375 0.875 0.5
          1 1 0.5 0 0.25 0
          0.25 0.6666666666666666 0 0 0.25 0
          0 0 0.125 0.375 0.875 0
          0 0.25 0.375 0.875 0.25 0.75
          0.5 1 0.5 0.25 0.5 0.625
          0.75 0 0.5 0.5 1 1
          1 1 1 1 1 1
          1 1 1 1 1 1
          1 1 1 1 1 1
          0.75 0.6666666666666666 1 0.875 1 1
          1 1 1 1 1 1
          1 1 1 1 1 1
          0.75 0.5 0.5 1 1 1
          1 1 0.75 1 0.75 0.75
          0.75 0.75 0 0.5 0.5 0.25
          0.625 0.5 0.875 0.875 1 1
          1 1 1 1 1 1
          1 0.75 0.75 1 1 1
          0 0.375 0.25 0.75 1 0.875
          0.5 0.25 0.5 0 0.25 0.5
          0.75 1 0.5 1 1 1
          1 1 0 0.375 0.25
        </DataArray>
        <DataArray type="Float64" Name="gradient_matprop_marker" format="ascii" RangeMin="0" RangeMax="0">
          0 0 0 0 0 0
          0 0 0 0 0 0
          0 0 0 0 0 0
          0 0 0 0 0 0
          0 0 0 0 0 0
          0 0 0 0 0 0
          0 0 0 0 0 0
          0 0 0 0 0 0
          0 0 0 0 0 0
          0 0 0 0 0 0
          0 0 0 0 0 0
          0 0 0 0 0 0
          0 0 0 0 0 0
          0 0 0 0 0 0
          0 0 0 0 0 0
          0 0 0 0 0 0
          0 0 0 0 0 0
          0 0 0 0 0 0
          0 0 0 0 0 0
          0 0 0 0 0 0
          0 0 0 0 0 0
          0 0 0 0 0 0
          0 0 0 0 0 0
          0 0 0 0 0 0
          0 0 0 0 0 0
          0 0 0 0 0 0
          0 0 0 0 0 0
          0 0 0 0 0 0
          0 0 0 0 0 0
          0 0 0 0 0 0
          0 0 0 0 0 0
          0 0 0 0 0 0
          0 0 0 0 0 0
          0 0 0 0 0 0
          0 0 0 0 0 0
          0 0 0 0 0 0
          0 0 0 0 0 0
          0 0 0 0 0 0
          0 0 0 0 0 0
          0 0 0 0 0 0
          0 0 0 0 0 0
          0 0 0 0 0 0
          0 0 0 0 0 0
          0 0 0 0 0 0
          0 0 0 0 0 0
          0 0 0 0 0 0
          0 0 0 0 0 0
          0 0 0 0 0 0
          0 0 0 0 0 0
          0 0 0 0 0 0
          0 0 0 0 0 0
          0 0 0 0 0 0
          0 0 0 0 0 0
          0 0 0 0 0 0
          0 0 0 0 0 0
          0 0 0 0 0 0
          0 0 0 0 0 0
          0 0 0 0 0 0
          0 0 0 0 0 0
          0 0 0 0 0 0
          0 0 0 0 0 0
          0 0 0 0 0 0
          0 0 0 0 0 0
          0 0 0 0 0 0
          0 0 0 0 0 0
          0 0 0 0 0 0
          0 0 0 0 0 0
          0 0 0 0 0 0
          0 0 0 0 0 0
          0 0 0 0 0 0
          0 0 0 0 0 0
          0 0 0 0 0 0
          0 0 0 0 0
        </DataArray>
        <DataArray type="Float64" Name="combo" format="ascii" RangeMin="0" RangeMax="1">
          1 1 1 1 1 1
          1 1 1 1 1 1
          1 1 1 1 1 1
          1 1 1 1 1 1
          1 1 1 1 1 0.5
          1 1 1 1 1 1
          1 1 1 1 1 1
          1 1 0.875 1 1 1
          1 1 1 1 1 1
          1 1 1 1 1 1
          1 1 1 1 1 1
          1 1 1 1 0.75 1
          1 1 1 1 1 1
          1 0.75 1 1 1 1
          1 1 1 1 1 1
          1 1 1 1 1 1
          1 1 1 1 1 1
          1 1 1 1 1 1
          1 1 1 1 1 1
          1 1 1 1 0.875 0.5
          0.625 1 1 1 0.875 1
          1 1 0.5 1 0.75 0.75
          0.75 1 0.875 0.75 0.75 1
          1 1 1 1 1 1
          1 1 1 1 1 1
          1 1 1 1 1 1
          1 1 1 1 1 1
          1 1 1 1 1 1
          1 1 1 1 1 1
          1 1 1 1 1 1
          1 1 1 1 1 1
          1 1 1 1 1 1
          1 1 1 1 1 1
          1 1 1 1 1 1
          1 1 1 1 1 1
          1 1 1 1 1 1
          1 1 1 1 1 1
          1 1 1 1 1 1
          1 1 1 1 1 1
          1 1 1 1 1 1
          1 1 1 1 1 1
          1 1 1 1 1 1
          1 1 1 1 1 1
          1 1 1 1 1 1
          1 1 1 1 1 0.75
          0.875 0.5 0.5 1 1 1
          1 1 1 0 0 0
          0 0 0 0 0 0
          0 0 0 0 0 0
          0.25 0.25 0.5 0.75 0.75 0
          0.25 0.6666666666666666 0.25 0.375 0.875 0.5
          1 1 0.5 0 0.25 0
          0.25 0.6666666666666666 0 0 0.25 0
          0 0 0.125 0.375 0.875 0
          0 0.25 0.375 0.875 0.25 0.75
          0.5 1 0.5 0.25 0.5 0.625
          0.75 0 0.5 0.5 1 1
          1 1 1 1 1 1
          1 1 1 1 1 1
          1 1 1 1 1 1
          0.75 0.6666666666666666 1 0.875 1 1
          1 1 1 1 1 1
          1 1 1 1 1 1
          0.75 0.5 0.5 1 1 1
          1 1 0.75 1 0.75 0.75
          0.75 0.75 0 0.5 0.5 0.25
          0.625 0.5 0.875 0.875 1 1
          1 1 1 1 1 1
          1 0.75 0.75 1 1 1
          0 0.375 0.25 0.75 1 0.875
          0.5 0.25 0.5 0 0.25 0.5
          0.75 1 0.5 1 1 1
          1 1 0 0.375 0.25
        </DataArray>
        <DataArray type="Float64" Name="dHdT" format="ascii" RangeMin="25.811564796829703" RangeMax="38.86442942939539">
          25.811966544817185 25.811973746628738 25.81202045132522 25.81202487198046 25.812051804155164 25.812053937519877
          25.811980948440297 25.8120292926357 25.812056070884594 25.811870854913312 25.81269285959224 25.812162970067057
          25.812388236796103 25.812148556593854 25.81220378657591 25.812741516441804 25.81240233973872 25.812249183338828
          25.886952477099264 25.849674829376546 25.82067000532426 25.822403668909487 25.813320444151397 25.81330597561585
          25.813199136211473 25.81265416739027 25.81236458550348 32.33146969277567 25.956626570595063 37.083012651158526
          25.837089707355133 25.814691311738724 25.811564796829703 25.812367768807086 25.812352930267238 25.843648106748038
          25.848539790683677 25.880401609724274 27.91072259948662 27.86460582070699 26.490916410268504 26.664167181312983
          25.828124909835587 26.74954720105324 26.15759586220362 25.840690841311297 25.861797173894058 25.902768883158153
          25.83379574321914 35.97781070526913 28.25671378755004 28.218940338909484 27.162377998291266 25.88524093077804
          25.814998185778673 25.817494546115945 25.813673272133563 25.819861716495005 25.81710648443749 25.819507479310836
          25.814215374735678 25.81993956645254 27.417505079841632 27.02021498027626 27.36999506277581 31.732136655217737
          32.850670529164546 29.967034673432668 29.914744718268437 26.532431525549054 33.372012733174046 30.078637903718235
          26.536882305477633 27.22297329446021 27.59262554797762 26.707713919059387 38.86442942939539 33.50865868571938
          32.11727746571856 34.444414667789694 27.83959348374203 26.40836300276534 25.81283188808179 25.813127521752527
          25.813046647401094 25.81386987849717 25.812599349670414 25.81264534120359 25.812384233728388 25.812373832474258
          25.812457350874432 25.812344639413904 25.8132614067204 25.81461223524181 25.81269133273676 25.81236343122012
          25.959897374796686 26.02815431033793 25.835326793707967 25.835381279200906 25.855087332442256 25.825311165331783