<?xml version="1.0"?>
<VTKFile type="UnstructuredGrid" version="0.1" byte_order="LittleEndian" header_type="UInt32" compressor="vtkZLibDataCompressor">
  <UnstructuredGrid>
    <Piece NumberOfPoints="318" NumberOfCells="157">
      <PointData>
        <DataArray type="Int32" Name="libmesh_node_id" format="ascii" RangeMin="96" RangeMax="2990">
          128 129 144 158 159 160
          174 186 188 189 191 204
          205 222 243 244 245 246
          247 248 249 250 251 252
          253 254 255 256 333 335
          340 343 380 381 382 383
          386 387 389 392 583 584
          585 586 589 593 594 595
          611 612 613 616 2605 2606
          2609 2610 2612 2613 2614 2615
          2616 2618 2619 2620 2622 2623
          2624 2625 2626 2627 2628 2666
          2673 2675 2676 2677 2678 2679
          2680 2695 2696 2697 2698 2699
          2700 2701 2702 2703 2704 2705
          2706 2707 2708 2709 2710 2711
          2712 2713 2714 2715 2716 2717
          2718 2719 2720 2721 2722 2723
          2724 2725 2726 2727 2728 2729
          2730 2731 2732 2733 2734 2735
          2736 2737 2738 2739 2740 2741
          2742 2743 2744 2745 2746 2747
          2748 2749 2750 2751 2752 2783
          2784 2785 2786 2787 2788 2886
          2887 2888 2891 2894 2908 2909
          2911 2912 2914 2936 2937 2938
          2939 2940 2941 2942 2943 2944
          2945 2946 2947 2948 2949 2950
          2951 2952 2953 2954 2955 2956
          2957 2958 2959 2960 2961 2962
          2963 2964 2965 2966 2967 2968
          2969 2970 2971 2972 2973 2974
          2975 2976 2977 2978 2979 2980
          2981 2982 2983 2984 2985 2986
          2987 2988 2989 2990 96 98
          99 97 126 127 100 101
          130 131 114 113 143 115
          145 157 173 161 175 212
          211 220 216 215 221 213
          332 334 338 339 228 342
          345 384 385 273 274 277
          388 283 390 391 393 562
          563 564 565 210 587 588
          590 591 592 596 271 272
          281 278 608 607 610 609
          357 359 364 615 614 367
          2607 2608 2611 2617 156 2621
          561 571 2667 2670 226 2775
          2776 2779 187 2781 203 2882
          2883 2884 2885 2889 2890 2892
          2893 2895 2906 2907 2910 2898
          2899 2671 2913 2904 2915 2928
          2926 2929 2927 2934 2933 2932
        </DataArray>
        <DataArray type="Float64" Name="bounds" format="ascii" RangeMin="0" RangeMax="0">
          0 0 0 0 0 0
          0 0 0 0 0 0
          0 0 0 0 0 0
          0 0 0 0 0 0
          0 0 0 0 0 0
          0 0 0 0 0 0
          0 0 0 0 0 0
          0 0 0 0 0 0
          0 0 0 0 0 0
          0 0 0 0 0 0
          0 0 0 0 0 0
          0 0 0 0 0 0
          0 0 0 0 0 0
          0 0 0 0 0 0
          0 0 0 0 0 0
          0 0 0 0 0 0
          0 0 0 0 0 0
          0 0 0 0 0 0
          0 0 0 0 0 0
          0 0 0 0 0 0
          0 0 0 0 0 0
          0 0 0 0 0 0
          0 0 0 0 0 0
          0 0 0 0 0 0
          0 0 0 0 0 0
          0 0 0 0 0 0
          0 0 0 0 0 0
          0 0 0 0 0 0
          0 0 0 0 0 0
          0 0 0 0 0 0
          0 0 0 0 0 0
          0 0 0 0 0 0
          0 0 0 0 0 0
          0 0 0 0 0 0
          0 0 0 0 0 0
          0 0 0 0 0 0
          0 0 0 0 0 0
          0 0 0 0 0 0
          0 0 0 0 0 0
          0 0 0 0 0 0
          0 0 0 0 0 0
          0 0 0 0 0 0
          0 0 0 0 0 0
          0 0 0 0 0 0
          0 0 0 0 0 0
          0 0 0 0 0 0
          0 0 0 0 0 0
          0 0 0 0 0 0
          0 0 0 0 0 0
          0 0 0 0 0 0
          0 0 0 0 0 0
          0 0 0 0 0 0
          0 0 0 0 0 0
        </DataArray>
        <DataArray type="Float64" Name="gradient_error" format="ascii" RangeMin="3.605343001379741e-10" RangeMax="0.0000016175502876382653">
          7.082868680086878e-9 5.1298289579396314e-9 5.090933551000606e-9 6.277036860140649e-8 1.0202425618284015e-7 1.4925433975590293e-7
          4.440125505246004e-9 4.897677623854678e-7 8.930352706154747e-7 1.2127824236661461e-7 2.9926675123664176e-8 7.694337221939774e-9
          1.00171442436883e-9 4.262071157369205e-8 1.7470890098273174e-7 1.4896793683126206e-7 1.2663055916463063e-7 5.938713837096272e-7
          7.372065445245787e-7 4.0622434927517776e-7 3.9811386984073797e-7 8.766574017325462e-8 8.308877990644965e-8 1.3589468607999042e-7
          0.0000012977672420152136 9.781618722561063e-7 8.322547768848786e-7 6.948760472863533e-8 1.2193055621992014e-9 4.39718555421373e-9
          1.0304642652552978e-9 7.575065546228258e-9 0.0000012582631664805958 0.000001045188640308652 7.042394395606753e-7 0.0000012365545178476047
          0.0000011677519277010926 5.462304404394504e-7 7.690121141910666e-7 0.0000013374309805599149 1.95120717005292e-8 1.6767376025593773e-8
          2.3621408961617296e-8 3.605825862256771e-8 2.977625300149705e-8 1.4022680350658346e-8 1.862903862087051e-8 2.3494247380426397e-8
          1.897153849668247e-8 2.1249740943130322e-8 3.801082052807346e-8 2.3527943389578175e-8 7.527544805336445e-9 6.27487606189751e-9
          2.7420324972478633e-8 2.694456191676096e-8 7.207787383620339e-9 3.813256267588926e-8 3.108879235412271e-8 5.022207318458574e-9
          2.6468798861043288e-8 2.404502203235617e-8 5.28901474477574e-8 1.5593824873446132e-7 1.809800849254736e-7 1.316226961712125e-8
          8.826926296184815e-9 4.6934431052487876e-8 3.273083751887243e-8 4.491582975248381e-9 1.852724398525699e-8 4.8522411531715e-7
          6.007788767887027e-7 5.396294776734695e-7 4.22759984407042e-7 1.9496627451989452e-7 6.472895246661724e-7 7.054686281227448e-7
          1.7601815796260757e-7 2.915775682138348e-9 7.669552798175461e-9 1.2009328344192474e-8 2.7102565502712712e-8 1.2399379898827328e-9
          2.2398833579085776e-9 4.406487320219981e-9 2.1102881006246602e-8 4.653557820724996e-8 3.2398287259344233e-9 6.841477289863406e-8
          5.994387635956294e-8 5.583082179695881e-8 1.3863388690135818e-7 1.1742098813671179e-7 1.007199365978129e-7 1.2048786060934156e-7
          6.364204809920315e-8 1.059537957765409e-7 9.010730854834431e-8 5.1472979820491815e-8 8.401888505891403e-8 1.0234183431732501e-7
          7.426082132014771e-8 6.193096287648016e-7 5.366648667668856e-7 5.23259386046233e-7 4.1141349012343034e-7 9.309539038909378e-7
          0.0000010699416076774946 0.0000010354314379310784 9.209196965375249e-7 7.311557980464864e-7 6.90556730644224e-7 0.0000010676911612001755
          0.0000011390291391644484 9.804655204043081e-7 9.034737560564953e-7 2.040494004147765e-7 2.2225253780819465e-7 2.835519660715839e-7
          2.9957463118341847e-7 1.80937813531125e-7 2.602784821601396e-7 8.18985399972012e-8 1.0571360423485726e-7 1.28921290262501e-7
          8.148207349272673e-8 3.6305453172839136e-7 3.7689672455864234e-7 3.396191507891542e-7 1.2952866847251331e-7 1.5278543606141592e-7
          2.283471641271628e-7 4.522410538063952e-8 5.8344922519836076e-8 3.039088921929097e-7 7.146573965903264e-8 1.652292474861559e-8
          4.9179557697675325e-8 1.223534851705501e-9 6.979166873845072e-9 8.183619064673506e-8 1.2734798895984644e-8 7.566826195763177e-8
          1.8895093792999683e-7 1.6888831253500188e-7 1.4882568714000696e-7 4.461593087975364e-7 5.76715610698987e-7 6.075260154205679e-7
          5.378323354434799e-7 4.3202089384131403e-7 5.848417763584351e-7 6.389755282804968e-8 6.830165279688087e-8 1.809989331677481e-7
          1.6092682071423372e-7 6.189456971161161e-8 1.7029229668948073e-7 1.5049831986300917e-7 7.270575276571206e-8 1.4085470826071936e-7
          1.3070434303653767e-7 5.12163401077344e-7 4.6703249216799094e-7 4.873859726310613e-7 4.002449248388863e-7 5.594420112552716e-8
          5.72197889604438e-8 1.5628642571660582e-7 1.3713014164926938e-7 5.849537679536044e-8 1.1797385758193296e-7 5.671123514473864e-7
          5.064892353890374e-7 4.151480146388797e-7 6.432553092912515e-7 6.6916548502267e-7 7.22215538195022e-7 7.405158210237528e-7
          5.731631577804332e-7 6.106719769351611e-7 5.602841299352615e-7 6.578179743409448e-7 7.453617667997898e-7 6.504607601804001e-7
          8.167531386717432e-7 8.236088298990216e-7 6.50032313900505e-7 7.559102247563981e-7 8.512796833580632e-7 7.660687750269431e-7
          2.521617331595359e-7 3.1665934633275783e-7 2.4572755201644745e-7 3.1501427121817673e-7 1.473918583196884e-7 1.820680378587379e-7
          1.6750069241851464e-7 3.811569595059798e-7 3.8430099041990595e-7 2.1674421739778744e-7 2.3596113939997775e-7 3.096616201282463e-7
          1.1821047354469332e-7 1.4972313358178239e-7 3.8336210085651475e-7 1.8123579361887143e-7 9.453479225372138e-9 3.230246931797964e-9
          2.4444605508207053e-9 6.084784766096897e-9 1.379286232447979e-8 9.072187530791112e-9 1.974407985583129e-9 1.493229584832999e-9
          6.118116932491975e-9 3.0886829153259174e-9 1.6586741698434455e-9 2.7160903068216576e-9 8.515671117126506e-9 1.012051184082869e-9
          3.3468799643656712e-9 1.720510983053349e-7 7.306292666924938e-9 3.7778659861646665e-8 3.215607118239491e-9 1.0959889159061531e-7
          2.1437915593798868e-8 2.0932204323621386e-8 3.461045681702639e-7 1.8520251987542946e-7 1.745553643478866e-8 7.756701883624872e-7
          7.153033308861616e-10 1.7402130348013763e-9 5.819200496015221e-10 4.712271748697481e-10 7.488334124658267e-9 2.7651227387165907e-9
          3.605343001379741e-10 0.0000014379067270594306 0.0000013194048232057276 7.131968833479866e-7 0.0000011757679514021267 0.0000010219914668782005
          7.996261625432573e-7 6.029050918572123e-7 0.0000016175502876382653 0.0000015936210061028036 0.0000010530218846470642 3.1519140034171834e-8
          9.824332738261043e-9 7.536585699039998e-9 2.142019309963431e-8 1.297090246164665e-8 2.7892317258446432e-8 2.326067793965847e-8
          8.350926011597889e-9 2.308676126043216e-8 1.8480690782006975e-8 1.3874620303581786e-8 3.7930011215733896e-7 3.710496425492704e-7
          2.9694994655464653e-7 1.7625206912453917e-7 1.2000883631861447e-7 8.573779144920086e-8 1.899547081866122e-7 1.4818520101985666e-7
          5.501227865038981e-8 1.0326829361753432e-7 1.0376982466497859e-8 2.5990058005460994e-7 2.1063261059051248e-7 1.5152430858467882e-7
          8.03175286399615e-9 2.7228208541964834e-8 2.625875989731864e-8 2.5289311252672445e-8 5.668880503905456e-8 1.851661551260753e-7
          6.20520622992419e-9 1.1321246165096778e-8 4.3466930244135485e-7 2.5372234029045055e-7 7.136549753582245e-7 2.9460883691218392e-8
          7.557588294444073e-8 8.74512932853248e-9 2.280458464680837e-7 1.2169088219766305e-7 1.5732931415927525e-8 7.969402473786123e-8
          8.369341582589556e-8 1.9459074576912572e-7 1.7478303240666867e-7 8.769280691392989e-8 1.549753190442116e-7 4.5895167255152247e-7
          4.251689760226053e-7 3.765164145610843e-7 5.202183860719844e-7 5.539895038961099e-7 5.048199524248078e-7 4.7250598219941265e-7
          5.073897163761441e-7 3.842067037151693e-7 5.23513704734451e-7 4.7166449075230185e-7 5.559941985952356e-7 2.5580847965938413e-7
          2.572017030128317e-7 3.1542544563038495e-7 3.1201695053918455e-7 3.7504241160138583e-7 3.6683219806553747e-7 1.9352264051595897e-7
        </DataArray>
        <DataArray type="Float64" Name="gradient_matprop_error" format="ascii" RangeMin="0" RangeMax="0">
          0 0 0 0 0 0
          0 0 0 0 0 0
          0 0 0 0 0 0
          0 0 0 0 0 0
          0 0 0 0 0 0
          0 0 0 0 0 0
          0 0 0 0 0 0
          0 0 0 0 0 0
          0 0 0 0 0 0
          0 0 0 0 0 0
          0 0 0 0 0 0
          0 0 0 0 0 0
          0 0 0 0 0 0
          0 0 0 0 0 0
          0 0 0 0 0 0
          0 0 0 0 0 0
          0 0 0 0 0 0
          0 0 0 0 0 0
          0 0 0 0 0 0
          0 0 0 0 0 0
          0 0 0 0 0 0
          0 0 0 0 0 0
          0 0 0 0 0 0
          0 0 0 0 0 0
          0 0 0 0 0 0
          0 0 0 0 0 0
          0 0 0 0 0 0
          0 0 0 0 0 0
          0 0 0 0 0 0
          0 0 0 0 0 0
          0 0 0 0 0 0
          0 0 0 0 0 0
          0 0 0 0 0 0
          0 0 0 0 0 0
          0 0 0 0 0 0
          0 0 0 0 0 0
          0 0 0 0 0 0
          0 0 0 0 0 0
          0 0 0 0 0 0
          0 0 0 0 0 0
          0 0 0 0 0 0
          0 0 0 0 0 0
          0 0 0 0 0 0
          0 0 0 0 0 0
          0 0 0 0 0 0
          0 0 0 0 0 0
          0 0 0 0 0 0
          0 0 0 0 0 0
          0 0 0 0 0 0
          0 0 0 0 0 0
          0 0 0 0 0 0
          0 0 0 0 0 0
          0 0 0 0 0 0
        </DataArray>
        <DataArray type="Float64" Name="initial_marker" format="ascii" RangeMin="0" RangeMax="0">
          0 0 0 0 0 0
          0 0 0 0 0 0
          0 0 0 0 0 0
          0 0 0 0 0 0
          0 0 0 0 0 0
          0 0 0 0 0 0
          0 0 0 0 0 0
          0 0 0 0 0 0
          0 0 0 0 0 0
          0 0 0 0 0 0
          0 0 0 0 0 0
          0 0 0 0 0 0
          0 0 0 0 0 0
          0 0 0 0 0 0
          0 0 0 0 0 0
          0 0 0 0 0 0
          0 0 0 0 0 0
          0 0 0 0 0 0
          0 0 0 0 0 0
          0 0 0 0 0 0
          0 0 0 0 0 0
          0 0 0 0 0 0
          0 0 0 0 0 0
          0 0 0 0 0 0
          0 0 0 0 0 0
          0 0 0 0 0 0
          0 0 0 0 0 0
          0 0 0 0 0 0
          0 0 0 0 0 0
          0 0 0 0 0 0
          0 0 0 0 0 0
          0 0 0 0 0 0
          0 0 0 0 0 0
          0 0 0 0 0 0
          0 0 0 0 0 0
          0 0 0 0 0 0
          0 0 0 0 0 0
          0 0 0 0 0 0
          0 0 0 0 0 0
          0 0 0 0 0 0
          0 0 0 0 0 0
          0 0 0 0 0 0
          0 0 0 0 0 0
          0 0 0 0 0 0
          0 0 0 0 0 0
          0 0 0 0 0 0
          0 0 0 0 0 0
          0 0 0 0 0 0
          0 0 0 0 0 0
          0 0 0 0 0 0
          0 0 0 0 0 0
          0 0 0 0 0 0
          0 0 0 0 0 0
        </DataArray>
        <DataArray type="Float64" Name="markers_norefine" format="ascii" RangeMin="0" RangeMax="0">
          0 0 0 0 0 0
          0 0 0 0 0 0
          0 0 0 0 0 0
          0 0 0 0 0 0
          0 0 0 0 0 0
          0 0 0 0 0 0
          0 0 0 0 0 0
          0 0 0 0 0 0
          0 0 0 0 0 0
          0 0 0 0 0 0
          0 0 0 0 0 0
          0 0 0 0 0 0
          0 0 0 0 0 0
          0 0 0 0 0 0
          0 0 0 0 0 0
          0 0 0 0 0 0
          0 0 0 0 0 0
          0 0 0 0 0 0
          0 0 0 0 0 0
          0 0 0 0 0 0
          0 0 0 0 0 0
          0 0 0 0 0 0
          0 0 0 0 0 0
          0 0 0 0 0 0
          0 0 0 0 0 0
          0 0 0 0 0 0
          0 0 0 0 0 0
          0 0 0 0 0 0
          0 0 0 0 0 0
          0 0 0 0 0 0
          0 0 0 0 0 0
          0 0 0 0 0 0
          0 0 0 0 0 0
          0 0 0 0 0 0
          0 0 0 0 0 0
          0 0 0 0 0 0
          0 0 0 0 0 0
          0 0 0 0 0 0
          0 0 0 0 0 0
          0 0 0 0 0 0
          0 0 0 0 0 0
          0 0 0 0 0 0
          0 0 0 0 0 0
          0 0 0 0 0 0
          0 0 0 0 0 0
          0 0 0 0 0 0
          0 0 0 0 0 0
          0 0 0 0 0 0
          0 0 0 0 0 0
          0 0 0 0 0 0
          0 0 0 0 0 0
          0 0 0 0 0 0
          0 0 0 0 0 0
        </DataArray>
        <DataArray type="Float64" Name="markers_mustrefine" format="ascii" RangeMin="0" RangeMax="0">
          0 0 0 0 0 0
          0 0 0 0 0 0
          0 0 0 0 0 0
          0 0 0 0 0 0
          0 0 0 0 0 0
          0 0 0 0 0 0
          0 0 0 0 0 0
          0 0 0 0 0 0
          0 0 0 0 0 0
          0 0 0 0 0 0
          0 0 0 0 0 0
          0 0 0 0 0 0
          0 0 0 0 0 0
          0 0 0 0 0 0
          0 0 0 0 0 0
          0 0 0 0 0 0
          0 0 0 0 0 0
          0 0 0 0 0 0
          0 0 0 0 0 0
          0 0 0 0 0 0
          0 0 0 0 0 0
          0 0 0 0 0 0
          0 0 0 0 0 0
          0 0 0 0 0 0
          0 0 0 0 0 0
          0 0 0 0 0 0
          0 0 0 0 0 0
          0 0 0 0 0 0
          0 0 0 0 0 0
          0 0 0 0 0 0
          0 0 0 0 0 0
          0 0 0 0 0 0
          0 0 0 0 0 0
          0 0 0 0 0 0
          0 0 0 0 0 0
          0 0 0 0 0 0
          0 0 0 0 0 0
          0 0 0 0 0 0
          0 0 0 0 0 0
          0 0 0 0 0 0
          0 0 0 0 0 0
          0 0 0 0 0 0
          0 0 0 0 0 0
          0 0 0 0 0 0
          0 0 0 0 0 0
          0 0 0 0 0 0
          0 0 0 0 0 0
          0 0 0 0 0 0
          0 0 0 0 0 0
          0 0 0 0 0 0
          0 0 0 0 0 0
          0 0 0 0 0 0
          0 0 0 0 0 0
        </DataArray>
        <DataArray type="Float64" Name="gradient_marker" format="ascii" RangeMin="0.875" RangeMax="1">
          1 1 1 1 1 1
          1 1 1 1 1 1
          1 1 1 1 1 1
          1 1 1 1 1 1
          1 1 1 1 1 1
          1 1 1 1 1 1
          1 1 1 1 1 1
          1 1 1 1 1 1
          1 1 1 1 1 1
          1 1 1 1 1 1
          1 1 1 1 1 1
          1 1 1 1 1 1
          1 1 1 1 1 1
          1 1 1 1 1 1
          1 1 1 1 1 1
          1 1 1 1 1 1
          1 1 1 1 1 1
          1 1 1 1 1 1
          1 1 1 1 1 1
          1 1 1 1 1 1
          1 1 1 1 1 1
          1 1 1 1 1 1
          1 1 1 1 1 1
          1 1 1 1 1 1
          1 1 1 1 1 1
          1 1 1 1 1 1
          1 1 1 1 1 1
          1 1 1 1 1 1
          1 1 1 1 1 1
          1 1 1 1 1 1
          1 1 1 1 1 1
          1 1 1 1 1 1
          1 1 1 1 1 1
          1 1 1 1 1 1
          1 1 1 1 1 1
          1 1 1 1 1 1
          1 1 1 1 1 1
          1 1 1 1 1 1
          1 1 1 1 1 1
          1 1 1 1 1 1
          1 1 1 1 1 1
          1 1 1 1 1 1
          1 1 1 1 1 1
          1 1 1 1 1 1
          1 0.875 1 1 1 1
          1 1 1 1 1 1
          1 1 1 1 1 1
          1 1 1 1 1 1
          1 1 1 1 1 1
          1 1 1 1 1 1
          1 1 1 1 1 1
          1 1 1 1 1 1
          1 1 1 1 1 1
        </DataArray>
        <DataArray type="Float64" Name="gradient_matprop_marker" format="ascii" RangeMin="0" RangeMax="0">
          0 0 0 0 0 0
          0 0 0 0 0 0
          0 0 0 0 0 0
          0 0 0 0 0 0
          0 0 0 0 0 0
          0 0 0 0 0 0
          0 0 0 0 0 0
          0 0 0 0 0 0
          0 0 0 0 0 0
          0 0 0 0 0 0
          0 0 0 0 0 0
          0 0 0 0 0 0
          0 0 0 0 0 0
          0 0 0 0 0 0
          0 0 0 0 0 0
          0 0 0 0 0 0
          0 0 0 0 0 0
          0 0 0 0 0 0
          0 0 0 0 0 0
          0 0 0 0 0 0
          0 0 0 0 0 0
          0 0 0 0 0 0
          0 0 0 0 0 0
          0 0 0 0 0 0
          0 0 0 0 0 0
          0 0 0 0 0 0
          0 0 0 0 0 0
          0 0 0 0 0 0
          0 0 0 0 0 0
          0 0 0 0 0 0
          0 0 0 0 0 0
          0 0 0 0 0 0
          0 0 0 0 0 0
          0 0 0 0 0 0
          0 0 0 0 0 0
          0 0 0 0 0 0
          0 0 0 0 0 0
          0 0 0 0 0 0
          0 0 0 0 0 0
          0 0 0 0 0 0
          0 0 0 0 0 0
          0 0 0 0 0 0
          0 0 0 0 0 0
          0 0 0 0 0 0
          0 0 0 0 0 0
          0 0 0 0 0 0
          0 0 0 0 0 0
          0 0 0 0 0 0
          0 0 0 0 0 0
          0 0 0 0 0 0
          0 0 0 0 0 0
          0 0 0 0 0 0
          0 0 0 0 0 0
        </DataArray>
        <DataArray type="Float64" Name="combo" format="ascii" RangeMin="0.875" RangeMax="1">
          1 1 1 1 1 1
          1 1 1 1 1 1
          1 1 1 1 1 1
          1 1 1 1 1 1
          1 1 1 1 1 1
          1 1 1 1 1 1
          1 1 1 1 1 1
          1 1 1 1 1 1
          1 1 1 1 1 1
          1 1 1 1 1 1
          1 1 1 1 1 1
          1 1 1 1 1 1
          1 1 1 1 1 1
          1 1 1 1 1 1
          1 1 1 1 1 1
          1 1 1 1 1 1
          1 1 1 1 1 1
          1 1 1 1 1 1
          1 1 1 1 1 1
          1 1 1 1 1 1
          1 1 1 1 1 1
          1 1 1 1 1 1
          1 1 1 1 1 1
          1 1 1 1 1 1
          1 1 1 1 1 1
          1 1 1 1 1 1
          1 1 1 1 1 1
          1 1 1 1 1 1
          1 1 1 1 1 1
          1 1 1 1 1 1
          1 1 1 1 1 1
          1 1 1 1 1 1
          1 1 1 1 1 1
          1 1 1 1 1 1
          1 1 1 1 1 1
          1 1 1 1 1 1
          1 1 1 1 1 1
          1 1 1 1 1 1
          1 1 1 1 1 1
          1 1 1 1 1 1
          1 1 1 1 1 1
          1 1 1 1 1 1
          1 1 1 1 1 1
          1 1 1 1 1 1
          1 0.875 1 1 1 1
          1 1 1 1 1 1
          1 1 1 1 1 1
          1 1 1 1 1 1
          1 1 1 1 1 1
          1 1 1 1 1 1
          1 1 1 1 1 1
          1 1 1 1 1 1
          1 1 1 1 1 1
        </DataArray>
        <DataArray type="Float64" Name="dHdT" format="ascii" RangeMin="25.80270836260582" RangeMax="33.28406009444403">
          25.813217986547834 25.81223928515694 25.811993336504386 25.825912223791224 25.83007422796957 25.83950724651561
          25.812142157027484 29.855398778791944 31.34548455470185 25.95031745568941 25.845690442453613 25.810790427945463
          25.81201568745492 25.82928436216714 25.843984866161094 25.836721547145462 25.835307953609302 27.270895286654817
          27.166465261757622 26.320067564229344 26.43635128332435 25.826377975327635 25.84826519824686 25.874321568607574
          32.68563278853084 28.05943899741822 28.023439011393194 25.891619471542437 25.81237943911254 25.81302475863891
          25.812075765574363 25.813670078165288 28.277605372311495 27.67326029431383 27.1864183924839 30.477698495889946
          29.363993345525206 26.624572671699518 27.386165504554068 31.011793317013527 25.821518023857784 25.82098444174065
          25.826643780982163 25.86654002532173 25.860684355262617 25.82045085962351 25.840802623677284 25.8548286852035
          25.837059786626472 25.840886815858052 25.864046573441374 25.844713845089636 25.812619086246425 25.81285937038139
          25.803929590144335 25.80583716065362 25.813859764973156 25.80270836260582 25.80556035557473 25.813099654516353
          25.807744731162906 25.80841234854364 25.838634363980123 25.85008633826369 25.847974673922725 25.81572161573648
          25.81430836903712 25.803003984788702 25.80620988145266 25.812895122337764 25.80941577811661 27.31083459684811
          27.892469943688596 27.30450096925138 26.518067692916706 25.904524539988596 30.46166621447121 27.964704482841825
          26.010088067710832 25.812866809510666 25.814005537419245 25.81459142308309 25.817771579964845 25.812145126501377
          25.81188300426544 25.81143795893712 25.816316036655518 25.821537622510444 25.811620882029494 25.861466338573937
          25.856998446774274 25.859617672088493 26.086161462312138 26.048315113683564 26.00974132510458 26.045226427312848
          25.857562654900946 26.029674573889164 25.992215542139444 25.85253055497461 25.9711675365256 26.00429139231356
          25.95475651038973 27.24356185070799 26.95392054813464 26.99776164997717 26.55604226960413 29.78797622173476
          30.11626033387412 29.167235098340402 28.98599245316428 27.416821270662446 27.438365164390362 31.98056085512544
          30.58911330384642 30.20729678891141 28.044481395957 26.134093901203357 26.184137671581855 26.29348550908918
          26.353598609283132 26.08100679408679 26.226291372329285 25.92861948471689 25.971538339660153 26.01447557437934
          25.930539930710903 26.452877116975003 26.523059546984413 26.37157595057178 26.014457194603416 26.026508661889032
          26.153694799991975 25.872787196695207 25.894249415060827 26.28088093809491 25.915711633426447 25.816001671421994
          25.822768583399885 25.811987106477527 25.810862135516942 25.82953549537777 25.809737164556353 25.916017859393058
          26.22826156462562 26.18001684896845 26.13177213331128 27.09174783248124 28.969766663675372 28.488278006401842
          27.44623493349955 29.616236035280973 29.23707618638505 25.89926081929191 25.89781938691128 26.195910871000113
          26.14873596018931 25.881613053764408 26.161183334174915 26.115561700029016 25.89637795453065 26.101561049378503
          26.069940065883113 27.310574138017998 27.078827193039636 27.060063762978793 26.753102887335583 25.868702386384097
          25.868447789013345 26.124278899447933 26.080874442398795 25.868193191642597 26.037469985349667 27.291919649543324
          27.03336064942875 26.67226947465024 29.13083577288739 28.592634218751698 29.31516505927107 28.70838895678361
          27.45306392118783 27.4553697754007 30.133084192447104 29.427266584891477 29.646160733903272 27.929845583485463
          29.529818208612244 28.83724406039579 27.450446305157904 30.855652530649607 29.901067917718322 27.995861787868826
          26.312419198443273 26.49511342625652 26.273364900229307 26.454081455507353 26.059690231002335 26.138531674753395
          26.099036214509468 26.67780765406977 26.634798010785396 26.21737311850445 26.230522517597574 26.406825757780737
          25.993839909872804 26.05742881742499 26.5831289979639 26.121017724977182 25.811959982417164 25.81179312799618
          25.81178225713611 25.811852677184053 25.811686388851363 25.812295255712407 25.81174448399287 25.811765312049502
          25.81295917518561 25.812038796517314 25.81177138627604 25.81174537195094 25.8120521064187 25.811786140106125
          25.81197342341305 25.849283254912088 25.812139843899537 25.817609148881385 25.81212921295572 25.830494004430403
          25.81449721716271 25.815105869544652 26.19228361868067 26.013708704337997 25.8187493470874 27.058212728615363
          25.812235318487616 25.812467867753607 25.812092873831567 25.812088655987704 25.81982653988991 25.8127004170196
          25.812084438143838 30.78083273337776 29.53030873469042 27.007874120383068 30.913898498887292 29.302892394010257
          27.346462460463094 27.026964313763077 33.28406009444403 31.387357175067002 28.068352249226677 25.80647201292001
          25.810141944259232 25.81074284196403 25.80849387296257 25.809951195244377 25.84780390342518 25.844303263551225
          25.814496679544437 25.824863618943073 25.822583851938376 25.820304084933678 26.65309999618772 26.4528246572007
          26.197506563619882 26.119580568014413 25.972822981193314 25.923207383718484 26.07935240591336 26.00785923417713
          25.88149728470334 25.941949997435422 25.82661065321618 26.185881830633406 26.09251108463577 26.0024027101675
          25.811936173808604 25.80497708075831 25.806307222791304 25.807637364824295 25.8589292439883 25.867634816939677
          25.81334870720812 25.810515733005126 26.576658092027426 25.936049456815987 27.736536059235757 25.81901456072513
          25.829477405008234 25.810376109300137 26.06570008250957 25.839940249291335 25.808853309187953 25.940864041393805
          25.935918399917753 26.25885633683806 26.20953633840146 25.930972758441705 26.160216339964858 27.30590055936731
          27.09973741599954 26.809122214528415 28.825594260866637 28.39276818107449 27.436587749061236 28.69611124537364
          28.3040625092399 29.408144224154732 29.06921580703507 28.919354596679167 27.854222137073855 26.34803983931771
          26.380580394946897 26.530659736914718 26.56182554055752 26.71327963451173 26.743070686168153 26.175638955958654
        </DataArray>
        <DataArray type="Float64" Name="dk/dtemperature" format="ascii" RangeMin="0.009549521016164535" RangeMax="0.0158045803493432">
          0.015804580349343192 0.015804580349343192 0.015804580349343192 0.015804580349343192 0.015804580349343192 0.015804580349343192
          0.015804580349343192 0.01140256592957581 0.010599454931182046 0.015721048754272163 0.015804580349343192 0.015804580349343192
          0.015804580349343192 0.015804580349343192 0.015804580349343192 0.015804580349343192 0.015804580349343192 0.014205277385279927
          0.014344790245119945 0.015253636643599855 0.015171300154181198 0.015804580349343192 0.015804580349343192 0.015804580349343192
          0.009992590711706974 0.013375865577412714 0.013260883833595062 0.015804580349343192 0.015804580349343192 0.015804580349343192
          0.015804580349343192 0.015804580349343192 0.013034954450120595 0.013638671505460774 0.014273000038914324 0.011522327021372864
          0.012332479996352435 0.014879694375002514 0.014049720707018497 0.011053335615166197 0.015804580349343192 0.015804580349343192
          0.015804580349343195 0.015804580349343192 0.015804580349343192 0.015804580349343192 0.015804580349343192 0.015804580349343192
          0.015804580349343192 0.015804580349343192 0.015804580349343192 0.015804580349343192 0.015804580349343192 0.015804580349343192
          0.015804580349343192 0.015804580349343192 0.015804580349343192 0.015804580349343192 0.015804580349343192 0.015804580349343192
          0.015804580349343192 0.015804580349343192 0.015804580349343192 0.015804580349343192 0.015804580349343192 0.015804580349343192
          0.015804580349343192 0.015804580349343192 0.015804580349343192 0.015804580349343192 0.015804580349343192 0.01395253720185506
          0.013325169634657415 0.014019840520172832 0.015024110912510626 0.015773256001191553 0.011070452358811468 0.01322226474795847
          0.015637517159201135 0.015804580349343192 0.015804580349343192 0.015804580349343192 0.015804580349343192 0.015804580349343192
          0.015804580349343192 0.015804580349343192 0.015804580349343192 0.015804580349343192 0.015804580349343192 0.015804580349343192
          0.015804580349343192 0.01580458034934319 0.015619024471738118 0.01563751715920113 0.015689724406120525 0.015649153714237383
          0.015804580349343185 0.01563751715920113 0.015700165855504405 0.015804580349343192 0.01574193165303992 0.01567928295673665
          0.015762814551807676 0.014227040888212592 0.014576137539300107 0.014533931439682138 0.015001972553329383 0.011788270553804424
          0.011670017994517124 0.012412301859698547 0.012485142101219981 0.013983360044650993 0.013962100592610405 0.010356408181668143
          0.011247197103694744 0.011396148402207259 0.013303402737676238 0.015480014814278046 0.015480014814278045 0.015297915907498724
          0.015231618145428718 0.015540273299276574 0.015380694396024087 0.015804580349343192 0.015783697450575434 0.015721048754272163
          0.015804580349343192 0.015115817000719404 0.014983221476579392 0.0152211154927716 0.015762814551807676 0.015660790269273635