<?xml version="1.0"?>
<VTKFile type="UnstructuredGrid" version="0.1" byte_order="LittleEndian" header_type="UInt32" compressor="vtkZLibDataCompressor">
  <UnstructuredGrid>
    <Piece NumberOfPoints="300" NumberOfCells="161">
      <PointData>
        <DataArray type="Int32" Name="libmesh_node_id" format="ascii" RangeMin="320" RangeMax="2604">
          320 328 329 535 536 537
          540 543 547 548 555 556
          1106 1107 1108 1109 1110 1111
          1112 1113 1114 1115 1116 1117
          1118 1119 1131 1133 1137 1138
          1139 1150 1151 1152 1153 1154
          1155 1156 1157 1158 1159 1167
          1168 1169 1170 1171 1172 1173
          1174 1175 1176 1177 1178 1179
          1180 1181 1182 1183 1184 1185
          1186 1187 1188 1189 1190 1191
          1192 1193 1195 1196 1197 1261
          1262 1264 1265 1267 1270 1276
          1277 1278 1279 1284 1286 1287
          1289 1335 1337 1341 1342 2183
          2184 2185 2188 2191 2193 2194
          2195 2196 2197 2198 2199 2200
          2201 2202 2203 2204 2205 2206
          2209 2210 2213 2215 2217 2218
          2219 2220 2221 2222 2223 2224
          2225 2226 2255 2327 2328 2330
          2333 2335 2336 2337 2338 2339
          2340 2341 2342 2343 2344 2346
          2348 2350 2352 2353 2354 2355
          2356 2357 2358 2361 2362 2364
          2367 2369 2370 2371 2372 2373
          2374 2375 2376 2377 2378 2380
          2382 2384 2386 2387 2388 2389
          2390 2391 2392 2456 2458 2460
          2462 2463 2464 2465 2466 2467
          2468 2469 2470 2471 2480 2483
          2485 2487 2489 2490 2491 2492
          2493 2494 2495 2497 2499 2501
          2503 2504 2505 2506 2507 2508
          2509 2510 2511 2512 2513 2514
          2515 2516 2517 2518 2519 2520
          2521 2522 2523 2524 2525 2526
          2527 2528 2529 2530 2531 2532
          2533 2534 2535 2536 2537 2538
          2539 2540 2541 2542 2543 2544
          2545 2546 2547 2548 2549 2550
          2551 2552 2553 2554 2555 2556
          2557 2558 2559 2560 2561 2562
          2563 2564 2565 2566 2567 2568
          2569 2570 2571 2572 2573 2574
          2575 2576 2577 2578 2579 2580
          2581 2582 2583 2584 2585 2586
          2587 2588 2589 2590 2591 2592
          2593 2594 2595 2596 2597 2598
          2599 2600 2601 2602 2603 2604
        </DataArray>
        <DataArray type="Float64" Name="bounds" format="ascii" RangeMin="0" RangeMax="0">
          0 0 0 0 0 0
          0 0 0 0 0 0
          0 0 0 0 0 0
          0 0 0 0 0 0
          0 0 0 0 0 0
          0 0 0 0 0 0
          0 0 0 0 0 0
          0 0 0 0 0 0
          0 0 0 0 0 0
          0 0 0 0 0 0
          0 0 0 0 0 0
          0 0 0 0 0 0
          0 0 0 0 0 0
          0 0 0 0 0 0
          0 0 0 0 0 0
          0 0 0 0 0 0
          0 0 0 0 0 0
          0 0 0 0 0 0
          0 0 0 0 0 0
          0 0 0 0 0 0
          0 0 0 0 0 0
          0 0 0 0 0 0
          0 0 0 0 0 0
          0 0 0 0 0 0
          0 0 0 0 0 0
          0 0 0 0 0 0
          0 0 0 0 0 0
          0 0 0 0 0 0
          0 0 0 0 0 0
          0 0 0 0 0 0
          0 0 0 0 0 0
          0 0 0 0 0 0
          0 0 0 0 0 0
          0 0 0 0 0 0
          0 0 0 0 0 0
          0 0 0 0 0 0
          0 0 0 0 0 0
          0 0 0 0 0 0
          0 0 0 0 0 0
          0 0 0 0 0 0
          0 0 0 0 0 0
          0 0 0 0 0 0
          0 0 0 0 0 0
          0 0 0 0 0 0
          0 0 0 0 0 0
          0 0 0 0 0 0
          0 0 0 0 0 0
          0 0 0 0 0 0
          0 0 0 0 0 0
          0 0 0 0 0 0
        </DataArray>
        <DataArray type="Float64" Name="gradient_error" format="ascii" RangeMin="2.68004610365913e-12" RangeMax="8.313449715805775e-10">
          1.2342156967390383e-10 1.6319229632061863e-10 6.227542177689896e-11 1.31666248646527e-10 4.8362305630538876e-11 3.8551084871286934e-11
          1.378296513208184e-10 6.413033581532826e-11 1.075045906082837e-11 1.8023760637327675e-11 7.048739692401884e-12 1.3725448291028173e-11
          1.7257836262356443e-10 1.5629124331767014e-10 1.0995662276031148e-10 9.862029172111218e-11 4.514559415577429e-11 4.4405041521695334e-11
          3.996379646121265e-11 1.179657662870303e-10 8.523464977616399e-11 4.491937947043865e-11 1.7053712381094925e-10 1.386358803653682e-10
          4.070622757751227e-11 8.753754731837603e-11 9.689817048546928e-11 4.97199013074764e-11 8.792428632047239e-11 5.4251504805398604e-11
          1.1270628317289482e-10 5.722558760134878e-10 4.478102693520293e-10 1.1213764398941583e-10 8.890882160621192e-11 2.1584259615251957e-10
          4.530764645943612e-11 8.313449715805775e-10 6.655988253840759e-10 1.299311994865357e-10 3.140016915556811e-10 8.681793024738565e-11
          3.885429922640203e-11 1.0392366619339312e-10 6.115332244778765e-11 1.0169715337675648e-10 3.073892658090048e-11 1.0605976426852005e-10
          2.425623690020145e-11 2.400071909645272e-11 1.8604352848204892e-11 1.7339212486091264e-11 1.1247793032953278e-11 5.455417556644073e-12
          7.764933603336655e-12 1.969968801014049e-11 1.432650605076151e-11 1.2432110472769372e-11 2.6523209215136456e-11 2.1337517376992384e-11
          5.837427888980177e-12 1.5223151720239724e-11 1.7916812378123186e-11 1.8686764337959168e-11 1.2019539018207137e-11 1.534638030945301e-11
          2.0257002043597954e-11 2.52978611786917e-11 2.1262061027275677e-11 1.7248660410906736e-11 2.78553254002411e-11 2.7215530462053786e-11
          2.4867624749591965e-11 1.3882275568798529e-11 1.3068181135224485e-11 2.0369632324742918e-11 1.674595034866793e-11 3.8823750601469145e-12
          3.6127008862881318e-12 4.680007778628823e-12 4.279454228252565e-12 3.878900677876307e-12 5.47764049711073e-12 4.946207570216998e-12
          4.414774643323267e-12 1.1404772542585172e-10 6.161764942280295e-11 1.2986879484157627e-10 6.309759580832695e-11 4.55757237259931e-11
          7.726803417087633e-11 7.398945338050194e-11 6.514749691339672e-11 1.6186376433879198e-10 2.3658731411440545e-11 2.281878587915276e-11
          3.746428873090013e-11 3.5946394452773e-11 1.579325470116695e-11 2.418768322386965e-11 2.3270031163393196e-11 2.0538221209144554e-11
          3.181677927779444e-11 2.0650248715597078e-11 8.083886354677357e-11 7.68775421138411e-11 4.146196905712385e-11 6.624294204565293e-11
          3.4607921281388355e-11 5.2588061999689396e-11 4.52326704847882e-11 1.076293490785273e-10 1.7737010928295062e-11 2.595643292347664e-11
          1.2750114916726146e-11 1.7699478992301957e-11 1.6376419785165993e-11 2.2707807466010285e-11 1.6450839656326497e-11 5.159499116891054e-11
          2.8499587237157482e-11 4.192046385259613e-11 6.059278993470273e-11 3.4188610031219455e-10 3.2220007932989186e-10 2.699807944256853e-10
          5.386572886451616e-10 1.5763574345973444e-10 1.4883593374775832e-10 6.92547173750909e-11 6.555428790361727e-11 1.2545557686563841e-10
          5.566576571931446e-11 2.594627820445419e-10 2.4441738176589896e-10 1.0583373071804433e-10 2.0397120745261087e-10 2.0262300862575177e-10
          1.3808393459593864e-10 3.2852417683246263e-10 9.495238510166337e-11 4.2684488678890833e-11 6.529011980684847e-11 2.991419793311886e-11
          1.5108245785115595e-10 6.670965250898596e-11 1.0084972376025481e-10 7.629787925801841e-10 7.218480942940609e-10 6.045919411326305e-10
          7.894574243150093e-10 3.4633570906992994e-10 3.272357075773632e-10 1.4911649822943623e-10 1.4090071883642757e-10 2.7395450135096084e-10
          1.183134968872135e-10 3.7860945992705753e-10 3.586274379171562e-10 1.5442300227112502e-10 3.014871947831153e-10 4.423091143804286e-10
          2.856550664769902e-10 4.881253969083714e-10 2.0165526317354282e-10 8.801784586705865e-11 1.3215310735610931e-10 5.874871002689084e-11
          2.2203625342893755e-10 9.656040475212973e-11 1.4482590859993905e-10 8.741150597234534e-11 6.105368515319341e-11 1.3096458331717842e-10
          3.153993258780196e-11 4.147776082788236e-11 1.52184683696024e-11 1.9526124634138873e-11 2.4559111472663136e-11 3.1405022549899907e-11
          1.51151577533364e-11 6.200990611224113e-11 2.849369895703938e-11 4.044073179207777e-11 4.754739760293495e-11 1.6855809616086137e-10
          9.38262989436702e-11 1.8359726485229184e-10 7.97386661689894e-11 3.619160374709253e-11 4.551989184174276e-11 2.5251988415129312e-11
          8.68731091814593e-11 3.922959047878166e-11 4.950415280893722e-11 5.1183225630655765e-11 3.667165524524737e-11 5.48305838844885e-11
          2.4137629084225968e-11 2.571046172927937e-11 1.773353098167279e-11 1.7878134949548797e-11 1.8782756768856243e-11 1.9089487130793653e-11
          1.3959154340735025e-11 2.7283294374332764e-11 1.802273891742481e-11 1.939621749273106e-11 2.0565627474085823e-11 1.9620912751179076e-11
          2.896876618174915e-11 2.753941772912855e-11 8.438700514740187e-12 1.1999787018054684e-11 1.1301363140480322e-11 1.7042138020774783e-11
          2.364234719940723e-11 1.1331473960098802e-11 4.646735964522258e-11 4.403129308915383e-11 1.7512815128531972e-11 3.7373068121160986e-11
          3.79448656771983e-12 3.676935674020817e-12 4.931538619198168e-12 4.6998091055252985e-12 2.68004610365913e-12 2.9664252713639305e-12
          3.138213783899651e-12 3.559384780321803e-12 4.468079591852429e-12 3.3100022964353725e-12 7.313330539326537e-12 6.891612965605858e-12
          4.114975727422475e-12 6.341126468729605e-12 1.3603161103687223e-11 1.844716616264397e-11 8.737533075030491e-12 1.1234192809770864e-11
          1.0036529629943594e-11 1.323826669456434e-11 8.224038413465103e-12 2.852008012777299e-11 1.3520272960598174e-11 1.97964190128366e-11
          6.132668228697714e-11 5.804405869185632e-11 2.4299162175376705e-11 2.299547586774135e-11 4.903729079959921e-11 1.9469300666753988e-11
          6.709055017292158e-11 6.348345391248301e-11 2.5129347244639205e-11 5.357100173491614e-11 9.379866893188489e-12 8.871295225966803e-12
          5.179942130978908e-12 4.976906345265925e-12 7.555490219410018e-12 4.402347889283205e-12 1.0201663378400408e-11 9.682047057751668e-12
          5.320242699827073e-12 8.287677937417158e-12 3.708804701153819e-11 1.4819967420312106e-11 2.531762882219608e-11 1.2174987759844115e-11
          4.042710498913112e-11 1.622495167198257e-11 2.748242337790405e-11 5.254435573260729e-12 5.794124148010581e-12 3.6267554764523014e-12
          3.661779679653044e-12 4.425282524103003e-12 4.839991415946242e-12 3.292734140292616e-12 6.333812722760435e-12 3.696803882853784e-12
          5.254700307789481e-12 7.138148343306406e-12 8.962251581119606e-12 5.263075838962401e-12 6.036366806113269e-12 6.001481620822825e-12
          7.167676976091961e-12 5.304499050353573e-12 1.2666404396323055e-11 7.906603377880779e-12 9.629221313281992e-12 1.5744350828939844e-11
          9.673100901465902e-12 1.1716391534100978e-11 7.607484657843918e-12 1.694224768416638e-11 1.0342652820434385e-11 1.2508212772999067e-11
        </DataArray>
        <DataArray type="Float64" Name="gradient_matprop_error" format="ascii" RangeMin="0" RangeMax="0">
          0 0 0 0 0 0
          0 0 0 0 0 0
          0 0 0 0 0 0
          0 0 0 0 0 0
          0 0 0 0 0 0
          0 0 0 0 0 0
          0 0 0 0 0 0
          0 0 0 0 0 0
          0 0 0 0 0 0
          0 0 0 0 0 0
          0 0 0 0 0 0
          0 0 0 0 0 0
          0 0 0 0 0 0
          0 0 0 0 0 0
          0 0 0 0 0 0
          0 0 0 0 0 0
          0 0 0 0 0 0
          0 0 0 0 0 0
          0 0 0 0 0 0
          0 0 0 0 0 0
          0 0 0 0 0 0
          0 0 0 0 0 0
          0 0 0 0 0 0
          0 0 0 0 0 0
          0 0 0 0 0 0
          0 0 0 0 0 0
          0 0 0 0 0 0
          0 0 0 0 0 0
          0 0 0 0 0 0
          0 0 0 0 0 0
          0 0 0 0 0 0
          0 0 0 0 0 0
          0 0 0 0 0 0
          0 0 0 0 0 0
          0 0 0 0 0 0
          0 0 0 0 0 0
          0 0 0 0 0 0
          0 0 0 0 0 0
          0 0 0 0 0 0
          0 0 0 0 0 0
          0 0 0 0 0 0
          0 0 0 0 0 0
          0 0 0 0 0 0
          0 0 0 0 0 0
          0 0 0 0 0 0
          0 0 0 0 0 0
          0 0 0 0 0 0
          0 0 0 0 0 0
          0 0 0 0 0 0
          0 0 0 0 0 0
        </DataArray>
        <DataArray type="Float64" Name="initial_marker" format="ascii" RangeMin="0" RangeMax="2">
          0 2 0 0 1.5 0.25
          0 2 0 0 1 0
          0 0 0 0 0 0
          0 0 0 0 2 2
          1.25 1.5 0 0 0.25 0
          0 2 2 2 2 2
          2 2 2 2 2 1.25
          0.25 0 0 2 0.5 0
          0.5 0.25 2 1.75 0 0
          0 0 0.5 0 2 2
          0 1 0 0 0 0
          0 0 0 0 0 0
          0 0 0 0 0 0
          0 0 0 0 0 0
          0 0 0 0 0 0
          1 1 1 2 0 0
          1 1 0 1 1 0
          0.75 0.5 2 2 2 1.75
          0 1 0.6666666666666666 2 0 0.5
          0 0 0 0.5 0 1.5
          1 1.3333333333333333 1 2 2 2
          2 2 2 2 2 2
          2 2 2 2 2 2
          2 2 2 1.75 1.75 1.25
          2 2 2 2 2 2
          2 2 2 2 2 2
          2 2 2 2 2 2
          2 2 2 2 2 2
          2 2 2 1.75 1 2
          0.5 1 0 0.5 0 0.5
          0 1.75 1.25 1 0.3333333333333333 2
          1.75 2 2 1.5 1.25 0.6666666666666666
          2 1.5 1.5 0.75 0 1
          0 0.25 0 0 0 0
          0 0.5 0 0 2 2
          2 2 1 1.5 1.5 1.5
          1.75 1.3333333333333333 2 2 2 2
          0 0 0.5 0.5 0 0
          0 0 0.5 0 1 1
          0 1 0.5 1.25 0 1
          0 0.75 0.5 2 1.6666666666666667 1.5
          2 2 2 2 2 2
          2 2 2 2 1.5 1.25
          1 0.5 1 0 2 1.5
          1 1 2 1.5 1.75 1
          2 1.5 2 0.5 0.5 0
          0 0 0 0 0.5 0
          0 0 0.25 0 0 0
          0 0 0.5 0 0 0.75
          0.5 0 0 1 1 0
        </DataArray>
        <DataArray type="Float64" Name="markers_norefine" format="ascii" RangeMin="0" RangeMax="0">
          0 0 0 0 0 0
          0 0 0 0 0 0
          0 0 0 0 0 0
          0 0 0 0 0 0
          0 0 0 0 0 0
          0 0 0 0 0 0
          0 0 0 0 0 0
          0 0 0 0 0 0
          0 0 0 0 0 0
          0 0 0 0 0 0
          0 0 0 0 0 0
          0 0 0 0 0 0
          0 0 0 0 0 0
          0 0 0 0 0 0
          0 0 0 0 0 0
          0 0 0 0 0 0
          0 0 0 0 0 0
          0 0 0 0 0 0
          0 0 0 0 0 0
          0 0 0 0 0 0
          0 0 0 0 0 0
          0 0 0 0 0 0
          0 0 0 0 0 0
          0 0 0 0 0 0
          0 0 0 0 0 0
          0 0 0 0 0 0
          0 0 0 0 0 0
          0 0 0 0 0 0
          0 0 0 0 0 0
          0 0 0 0 0 0
          0 0 0 0 0 0
          0 0 0 0 0 0
          0 0 0 0 0 0
          0 0 0 0 0 0
          0 0 0 0 0 0
          0 0 0 0 0 0
          0 0 0 0 0 0
          0 0 0 0 0 0
          0 0 0 0 0 0
          0 0 0 0 0 0
          0 0 0 0 0 0
          0 0 0 0 0 0
          0 0 0 0 0 0
          0 0 0 0 0 0
          0 0 0 0 0 0
          0 0 0 0 0 0
          0 0 0 0 0 0
          0 0 0 0 0 0
          0 0 0 0 0 0
          0 0 0 0 0 0
        </DataArray>
        <DataArray type="Float64" Name="markers_mustrefine" format="ascii" RangeMin="0" RangeMax="2">
          0 2 0 0 1.5 0.25
          0 2 0 0 1 0
          0 0 0 0 0 0
          0 0 0 0 2 2
          1.25 1.5 0 0 0.25 0
          0 2 2 2 2 2
          2 2 2 2 2 1.25
          0.25 0 0 2 0.5 0
          0.5 0.25 2 1.75 0 0
          0 0 0.5 0 2 2
          0 1 0 0 0 0
          0 0 0 0 0 0
          0 0 0 0 0 0
          0 0 0 0 0 0
          0 0 0 0 0 0
          1 1 1 2 0 0
          1 1 0 1 1 0
          0.75 0.5 2 2 2 1.75
          0 1 0.6666666666666666 2 0 0.5
          0 0 0 0.5 0 1.5
          1 1.3333333333333333 1 2 2 2
          2 2 2 2 2 2
          2 2 2 2 2 2
          2 2 2 1.75 1.75 1.25
          2 2 2 2 2 2
          2 2 2 2 2 2
          2 2 2 2 2 2
          2 2 2 2 2 2
          2 2 2 1.75 1 2
          0.5 1 0 0.5 0 0.5
          0 1.75 1.25 1 0.3333333333333333 2
          1.75 2 2 1.5 1.25 0.6666666666666666
          2 1.5 1.5 0.75 0 1
          0 0.25 0 0 0 0
          0 0.5 0 0 2 2
          2 2 1 1.5 1.5 1.5
          1.75 1.3333333333333333 2 2 2 2
          0 0 0.5 0.5 0 0
          0 0 0.5 0 1 1
          0 1 0.5 1.25 0 1
          0 0.75 0.5 2 1.6666666666666667 1.5
          2 2 2 2 2 2
          2 2 2 2 1.5 1.25
          1 0.5 1 0 2 1.5
          1 1 2 1.5 1.75 1
          2 1.5 2 0.5 0.5 0
          0 0 0 0 0.5 0
          0 0 0.25 0 0 0
          0 0 0.5 0 0 0.75
          0.5 0 0 1 1 0
        </DataArray>
        <DataArray type="Float64" Name="gradient_marker" format="ascii" RangeMin="1" RangeMax="1">
          1 1 1 1 1 1
          1 1 1 1 1 1
          1 1 1 1 1 1
          1 1 1 1 1 1
          1 1 1 1 1 1
          1 1 1 1 1 1
          1 1 1 1 1 1
          1 1 1 1 1 1
          1 1 1 1 1 1
          1 1 1 1 1 1
          1 1 1 1 1 1
          1 1 1 1 1 1
          1 1 1 1 1 1
          1 1 1 1 1 1
          1 1 1 1 1 1
          1 1 1 1 1 1
          1 1 1 1 1 1
          1 1 1 1 1 1
          1 1 1 1 1 1
          1 1 1 1 1 1
          1 1 1 1 1 1
          1 1 1 1 1 1
          1 1 1 1 1 1
          1 1 1 1 1 1
          1 1 1 1 1 1
          1 1 1 1 1 1
          1 1 1 1 1 1
          1 1 1 1 1 1
          1 1 1 1 1 1
          1 1 1 1 1 1
          1 1 1 1 1 1
          1 1 1 1 1 1
          1 1 1 1 1 1
          1 1 1 1 1 1
          1 1 1 1 1 1
          1 1 1 1 1 1
          1 1 1 1 1 1
          1 1 1 1 1 1
          1 1 1 1 1 1
          1 1 1 1 1 1
          1 1 1 1 1 1
          1 1 1 1 1 1
          1 1 1 1 1 1
          1 1 1 1 1 1
          1 1 1 1 1 1
          1 1 1 1 1 1
          1 1 1 1 1 1
          1 1 1 1 1 1
          1 1 1 1 1 1
          1 1 1 1 1 1
        </DataArray>
        <DataArray type="Float64" Name="gradient_matprop_marker" format="ascii" RangeMin="0" RangeMax="0">
          0 0 0 0 0 0
          0 0 0 0 0 0
          0 0 0 0 0 0
          0 0 0 0 0 0
          0 0 0 0 0 0
          0 0 0 0 0 0
          0 0 0 0 0 0
          0 0 0 0 0 0
          0 0 0 0 0 0
          0 0 0 0 0 0
          0 0 0 0 0 0
          0 0 0 0 0 0
          0 0 0 0 0 0
          0 0 0 0 0 0
          0 0 0 0 0 0
          0 0 0 0 0 0
          0 0 0 0 0 0
          0 0 0 0 0 0
          0 0 0 0 0 0
          0 0 0 0 0 0
          0 0 0 0 0 0
          0 0 0 0 0 0
          0 0 0 0 0 0
          0 0 0 0 0 0
          0 0 0 0 0 0
          0 0 0 0 0 0
          0 0 0 0 0 0
          0 0 0 0 0 0
          0 0 0 0 0 0
          0 0 0 0 0 0
          0 0 0 0 0 0
          0 0 0 0 0 0
          0 0 0 0 0 0
          0 0 0 0 0 0
          0 0 0 0 0 0
          0 0 0 0 0 0
          0 0 0 0 0 0
          0 0 0 0 0 0
          0 0 0 0 0 0
          0 0 0 0 0 0
          0 0 0 0 0 0
          0 0 0 0 0 0
          0 0 0 0 0 0
          0 0 0 0 0 0
          0 0 0 0 0 0
          0 0 0 0 0 0
          0 0 0 0 0 0
          0 0 0 0 0 0
          0 0 0 0 0 0
          0 0 0 0 0 0
        </DataArray>
        <DataArray type="Float64" Name="combo" format="ascii" RangeMin="1" RangeMax="1">
          1 1 1 1 1 1
          1 1 1 1 1 1
          1 1 1 1 1 1
          1 1 1 1 1 1
          1 1 1 1 1 1
          1 1 1 1 1 1
          1 1 1 1 1 1
          1 1 1 1 1 1
          1 1 1 1 1 1
          1 1 1 1 1 1
          1 1 1 1 1 1
          1 1 1 1 1 1
          1 1 1 1 1 1
          1 1 1 1 1 1
          1 1 1 1 1 1
          1 1 1 1 1 1
          1 1 1 1 1 1
          1 1 1 1 1 1
          1 1 1 1 1 1
          1 1 1 1 1 1
          1 1 1 1 1 1
          1 1 1 1 1 1
          1 1 1 1 1 1
          1 1 1 1 1 1
          1 1 1 1 1 1
          1 1 1 1 1 1
          1 1 1 1 1 1
          1 1 1 1 1 1
          1 1 1 1 1 1
          1 1 1 1 1 1
          1 1 1 1 1 1
          1 1 1 1 1 1
          1 1 1 1 1 1
          1 1 1 1 1 1
          1 1 1 1 1 1
          1 1 1 1 1 1
          1 1 1 1 1 1
          1 1 1 1 1 1
          1 1 1 1 1 1
          1 1 1 1 1 1
          1 1 1 1 1 1
          1 1 1 1 1 1
          1 1 1 1 1 1
          1 1 1 1 1 1
          1 1 1 1 1 1
          1 1 1 1 1 1
          1 1 1 1 1 1
          1 1 1 1 1 1
          1 1 1 1 1 1
          1 1 1 1 1 1
        </DataArray>
        <DataArray type="Float64" Name="dHdT" format="ascii" RangeMin="25.812372729190795" RangeMax="26.03000768009298">
          25.814256728843723 25.851503015901002 25.814863851827024 25.81426877727978 25.819760610689894 25.816502234414163
          25.815155564806652 25.82576175272422 25.812630537945168 25.812651939196257 25.81297710131355 25.8127395861842
          25.81915223878149 25.81866487278354 25.821614136662717 25.820678134743957 25.814585590045468 25.815107034704837
          25.814896076750443 25.81778784247962 25.818791730290116 25.81477910163487 25.848123756336907 25.841501946209682
          25.818545451902924 25.828849825160837 25.818147405271297 25.814823276350474 25.820909043564477 25.815443221702427
          25.819051842810037 25.942127236422422 25.90923453118728 25.836903854339567 25.83121396764524 25.857171072606043
          25.8218533368525 26.03000768009298 25.9690734334949 25.841459545954496 25.87844188347403 25.82863630686912
          25.816521713249674 25.819959446458597 25.81551128676533 25.834317388520656 25.81722170966286 25.821140666228487
          25.814057039450308 25.8138106903152 25.81631144211498 25.81542178159411 25.812763812467484 25.812805727526158
          25.812796690164447 25.81341995163033 25.813984529260168 25.81282746787053 25.81825695054424 25.816924490091935
          25.812863553886572 25.81458486312299 25.813293772258866 25.81344479795751 25.8128325891823 25.812930574162237
          25.81332804103805 25.813465178675287 25.813597884188017 25.813002908685554 25.813553324996747 25.813422010390077
          25.81335423533468 25.81281451064011 25.81278930250383 25.81325842256002 25.813259900195845 25.812372729190795
          25.81237514277752 25.81239106271111 25.812389842148953 25.812388621586788 25.812409396231427 25.81240454152038
          25.81239968680933 25.818172464221288 25.815665596179727 25.818488756490453 25.815651375998918 25.823703769338568
          25.82974100694618 25.829058513028432 25.827227981501537 25.846297930441686 25.818397506779988 25.81821622719252
          25.820960714296575 25.820641217299766 25.81637861575287 25.81799725033047 25.817794221087865 25.81773597650843
          25.81979704177486 25.817272663805635 25.829214424074543 25.828396433682325 25.821065706612753 25.826251904636578
          25.82131682542154 25.824774694055236 25.823492904664054 25.835282692914987 25.817156889045155 25.818755727593903
          25.815745100823815 25.816687559177424 25.816876772678498 25.818239091941052 25.81642098258884 25.82353144192147
          25.818558966685938 25.82184399979675 25.826160611328266 25.88475509737269 25.88022654780278 25.86860860967683
          25.932770763306543 25.845368050090674 25.84340053250255 25.826858778516648 25.82603866016475 25.838332655637522
          25.82392322490591 25.870013339361627 25.866038540893275 25.83529820997618 25.855988248105575 25.854267281355355
          25.841157658771426 25.881327388070098 25.83203938494562 25.821286898910518 25.826246585962423 25.818860637910877
          25.843945841234476 25.826264218786562 25.833361550840717 26.002796745758918 25.987838439658887 25.950782301318227
          26.012405844145164 25.89549652347101 25.88926284795136 25.847045690714445 25.84457552588375 25.873686871621025
          25.838362342885603 25.906797542064197 25.899523019163638 25.84863830543694 25.881416856074065 25.907959779715462
          25.872134853553085 25.91946652286041 25.855453933027842 25.830991968876887 25.839951117609626 25.824612036712807
          25.86038663577768 25.833005856738303 25.84270701136935 25.83118077932799 25.826411743185037 25.839858256776214
          25.819992175087265 25.82183216131243 25.81631193976242 25.81705790518708 25.81872738650406 25.82001762423065
          25.816340424374474 25.825688259078554 25.818636767198914 25.821642748813442 25.82420701773775 25.847582205600858
          25.83279542840279 25.850753383676093 25.82909052823227 25.820048942489876 25.822415218572765 25.817958672844654
          25.830476685845046 25.82062822119367 25.823020244903997 25.82472549482418 25.82198992729166 25.825473223938687
          25.818435316825536 25.818700887339265 25.81652191685952 25.816626915674927 25.81720707752755 25.81741345402363
          25.815854661995417 25.818966457852998 25.816731914490326 25.81761983051971 25.816930372895207 25.81670980396481
          25.818587882924273 25.818248364441512 25.81430871287543 25.81496692604233 25.814841051180178 25.816148909036173
          25.81737746673135 25.814826931519477 25.822406701047505 25.82177904912033 25.816085997993444 25.820176444123856
          25.813193511667084 25.813176030727544 25.81337915270323 25.813358382660965 25.812827476968515 25.81290367839634
          25.81291179340974 25.813158549788007 25.81333761261869 25.81291990842314 25.813820095384774 25.81376776004477
          25.813097027893043 25.813689150251136 25.815433558835835 25.81629341641591 25.814312259661357 25.81473380699635
          25.81477089035899 25.815304000402083 25.814170143290728 25.81822135878053 25.815150244533168 25.816471040413994
          25.826230885483053 25.82529887474858 25.817671155196113 25.817339957498447 25.82293820568704 25.816494044016284
          25.827893761824434 25.826826576174717 25.817881308494936 25.824129547552904 25.81426882931995 25.81416678518156
          25.813314035573985 25.81327299191841 25.813898701897113 25.813159362465807 25.81446226160973 25.814338784867957
          25.813348037901697 25.814022016142218 25.82008675743612 25.81544717975353 25.817571138851317 25.814870301204763
          25.820884071307162 25.81574666987298 25.81803730731982 25.813475845132174 25.81356200249716 25.81299299432784
          25.813018011663136 25.813315088920476 25.813391342243264 25.812949246657496 25.81364815986215 25.813043028998436
          25.813467595566053 25.814323047791977 25.81460258171363 25.8136604888297 25.813795176118 25.814162849499716
          25.814337907950957 25.81366723772483 25.815212193524577 25.814112896850816 25.81472353272767 25.81579150517644
          25.81444578727219 25.8151047001625 25.81411073348064 25.81604073893899 25.814595644249046 25.815275301271857
        </DataArray>
        <DataArray type="Float64" Name="dk/dtemperature" format="ascii" RangeMin="0.01567928295673665" RangeMax="0.015804580349343195">
          0.015804580349343192 0.015804580349343192 0.015804580349343192 0.015804580349343192 0.015804580349343192 0.015804580349343192
          0.015804580349343192 0.015804580349343192 0.015804580349343192 0.015804580349343192 0.015804580349343192 0.015804580349343192
          0.015804580349343192 0.015804580349343192 0.015804580349343192 0.015804580349343192 0.015804580349343192 0.015804580349343192
          0.015804580349343192 0.015804580349343192 0.015804580349343192 0.015804580349343192 0.015804580349343192 0.015804580349343192
          0.015804580349343192 0.015804580349343192 0.015804580349343192 0.015804580349343192 0.015804580349343192 0.015804580349343192
          0.015804580349343192 0.015804580349343192 0.015804580349343192 0.015804580349343192 0.015804580349343192 0.015804580349343192
          0.015804580349343192 0.01567928295673665 0.015804580349343192 0.015804580349343192 0.015804580349343192 0.015804580349343192
          0.015804580349343192 0.01580458034934319 0.015804580349343192 0.015804580349343192 0.015804580349343192 0.015804580349343192
          0.015804580349343192 0.015804580349343192 0.015804580349343192 0.015804580349343192 0.01580458034934319 0.015804580349343192
          0.015804580349343192 0.015804580349343192 0.015804580349343192 0.015804580349343192 0.01580458034934319 0.015804580349343192
          0.015804580349343192 0.01580458034934319 0.015804580349343192 0.015804580349343192 0.015804580349343192 0.015804580349343192
          0.015804580349343192 0.015804580349343192 0.015804580349343192 0.015804580349343192 0.015804580349343192 0.015804580349343192
          0.015804580349343192 0.015804580349343185 0.01580458034934319 0.015804580349343192 0.015804580349343192 0.015804580349343192
          0.015804580349343192 0.015804580349343192 0.015804580349343192 0.015804580349343192 0.015804580349343192 0.015804580349343192
          0.015804580349343192 0.015804580349343192 0.015804580349343192 0.015804580349343192 0.015804580349343192 0.015804580349343192
          0.015804580349343192 0.015804580349343192 0.015804580349343192 0.015804580349343192 0.01580458034934319 0.01580458034934319
          0.015804580349343192 0.015804580349343192 0.015804580349343185 0.01580458034934319 0.01580458034934319 0.01580458034934319
          0.015804580349343192 0.01580458034934319 0.015804580349343192 0.015804580349343192 0.015804580349343192 0.015804580349343192
          0.015804580349343192 0.015804580349343192 0.015804580349343192 0.015804580349343192 0.01580458034934319 0.015804580349343192
          0.015804580349343185 0.01580458034934319 0.01580458034934319 0.015804580349343192 0.01580458034934319 0.015804580349343192
          0.015804580349343192 0.015804580349343192 0.015804580349343192 0.015804580349343192 0.015804580349343192 0.015804580349343192
          0.015804580349343192 0.015804580349343192 0.015804580349343192 0.015804580349343192 0.015804580349343192 0.015804580349343192
          0.015804580349343192 0.015804580349343192 0.015804580349343192 0.015804580349343192 0.015804580349343192 0.015804580349343192
          0.015804580349343192 0.015804580349343192 0.015804580349343192 0.015804580349343192 0.015804580349343192 0.015804580349343192
          0.015804580349343192 0.015804580349343192 0.015804580349343192 0.01574193165303992 0.015773256001191557 0.015804580349343192
          0.01574193165303992 0.015804580349343192 0.015804580349343192 0.015804580349343192 0.015804580349343192 0.015804580349343192
          0.015804580349343192 0.015804580349343192 0.015804580349343192 0.015804580349343192 0.015804580349343192 0.015804580349343192