<?xml version="1.0"?>
<VTKFile type="UnstructuredGrid" version="0.1" byte_order="LittleEndian" header_type="UInt32" compressor="vtkZLibDataCompressor">
  <UnstructuredGrid>
    <Piece NumberOfPoints="331" NumberOfCells="155">
      <PointData>
        <DataArray type="Int32" Name="libmesh_node_id" format="ascii" RangeMin="192" RangeMax="1370">
          192 227 295 296 299 302
          305 311 407 408 409 410
          411 412 413 414 415 416
          417 418 419 420 434 450
          452 455 456 457 459 460
          462 561 562 567 605 606
          608 609 611 612 627 628
          629 630 631 632 650 740
          741 742 743 744 745 746
          747 748 749 750 751 752
          753 754 755 756 757 758
          759 760 761 762 763 764
          765 766 767 768 770 772
          773 774 775 777 778 779
          780 781 782 783 784 785
          786 787 788 789 790 791
          792 793 794 795 796 797
          798 799 800 801 802 803
          804 805 806 807 808 809
          810 811 812 813 814 815
          816 817 818 819 820 821
          822 823 824 853 854 857
          858 860 862 893 894 895
          896 897 898 899 900 902
          904 906 989 990 991 992
          993 994 995 996 997 998
          999 1000 1001 1002 1163 1165
          1166 1170 1171 1239 1240 1241
          1242 1243 1244 1245 1246 1247
          1248 1249 1250 1251 1252 1253
          1254 1255 1256 1257 1258 1321
          1322 1323 1324 1325 1326 1327
          1328 1329 1333 1334 1335 1336
          1337 1338 1339 1340 1341 1342
          1343 1344 1345 1346 1347 1348
          1349 1350 1351 1352 1353 1354
          1355 1356 1357 1358 1359 1360
          1361 1362 1363 1364 1365 1366
          1367 1368 1369 1370 291 294
          219 297 293 298 307 312
          346 347 348 349 232 350
          313 351 317 356 357 240
          358 428 449 429 451 453
          454 458 430 315 461 549
          551 303 556 564 565 304
          231 308 568 597 598 292
          397 602 617 402 618 622
          625 637 644 639 646 651
          642 647 649 652 700 701
          702 706 398 710 399 769
          771 776 732 718 719 721
          300 724 405 733 736 738
          301 855 856 859 861 870
          872 871 901 903 905 1167
          1164 1168 1169 1172 463 467
          465
        </DataArray>
        <DataArray type="Float64" Name="bounds" format="ascii" RangeMin="0" RangeMax="0">
          0 0 0 0 0 0
          0 0 0 0 0 0
          0 0 0 0 0 0
          0 0 0 0 0 0
          0 0 0 0 0 0
          0 0 0 0 0 0
          0 0 0 0 0 0
          0 0 0 0 0 0
          0 0 0 0 0 0
          0 0 0 0 0 0
          0 0 0 0 0 0
          0 0 0 0 0 0
          0 0 0 0 0 0
          0 0 0 0 0 0
          0 0 0 0 0 0
          0 0 0 0 0 0
          0 0 0 0 0 0
          0 0 0 0 0 0
          0 0 0 0 0 0
          0 0 0 0 0 0
          0 0 0 0 0 0
          0 0 0 0 0 0
          0 0 0 0 0 0
          0 0 0 0 0 0
          0 0 0 0 0 0
          0 0 0 0 0 0
          0 0 0 0 0 0
          0 0 0 0 0 0
          0 0 0 0 0 0
          0 0 0 0 0 0
          0 0 0 0 0 0
          0 0 0 0 0 0
          0 0 0 0 0 0
          0 0 0 0 0 0
          0 0 0 0 0 0
          0 0 0 0 0 0
          0 0 0 0 0 0
          0 0 0 0 0 0
          0 0 0 0 0 0
          0 0 0 0 0 0
          0 0 0 0 0 0
          0 0 0 0 0 0
          0 0 0 0 0 0
          0 0 0 0 0 0
          0 0 0 0 0 0
          0 0 0 0 0 0
          0 0 0 0 0 0
          0 0 0 0 0 0
          0 0 0 0 0 0
          0 0 0 0 0 0
          0 0 0 0 0 0
          0 0 0 0 0 0
          0 0 0 0 0 0
          0 0 0 0 0 0
          0 0 0 0 0 0
          0
        </DataArray>
        <DataArray type="Float64" Name="gradient_error" format="ascii" RangeMin="1.5808973828349995e-9" RangeMax="2.5710926823372137e-7">
          8.13540463042176e-9 1.4512557383762057e-7 1.2900335138090572e-7 1.768374987493335e-7 1.5252631631040206e-7 9.334926651315593e-8
          3.534181831449914e-8 4.684210410327745e-8 1.4533270613121495e-7 1.2403112768395128e-7 1.0627206188917691e-7 9.901514966017429e-8
          1.0784334604608429e-7 1.0717378400447288e-7 1.269655853223133e-7 1.5393501722180804e-7 1.171778033475829e-7 1.1286029902769895e-7
          4.059728694671877e-8 1.0816209851566565e-7 9.035254408784694e-8 8.223375250797586e-8 1.558345388456448e-7 1.560617075969557e-7
          1.2052255312716698e-7 5.465775177071137e-8 6.920939940886422e-8 1.0547271940537412e-7 1.3108607337871511e-7 8.689971583018824e-8
          8.376104704701707e-8 6.624340273857227e-9 5.469297853779387e-9 4.3142554337015485e-9 1.313370784834219e-7 1.1753186030266043e-7
          1.06418389337974e-7 9.433480055167909e-8 1.0372664212189896e-7 8.225121176538417e-8 1.8464075321925974e-7 1.4481904986101088e-7
          1.0911415574385159e-7 1.3722486848907525e-7 1.0635215230824569e-7 1.6533558123429893e-7 6.1466537348562305e-9 6.667508048114008e-8
          6.427971527164125e-8 7.7968631261105e-8 7.578910985249977e-8 6.740838713583005e-8 8.603701622441791e-8 8.311601945297819e-8
          5.852106801363688e-8 6.961938357980605e-8 7.488645623848813e-8 8.938855922378094e-8 8.93645188738419e-8 1.0530876871822913e-7
          8.633698439683467e-8 7.261323943230614e-8 6.930492481737e-8 9.376500493703812e-8 8.998016462609916e-8 6.91637161256012e-8
          1.0069298456013817e-7 9.578890410052057e-8 6.10361298869159e-8 7.935436155264712e-8 8.231827800998248e-8 1.2543702141377468e-7
          1.232533518614459e-7 1.229640654531577e-7 1.1278381871449639e-7 5.111922365312917e-8 6.009198760075421e-8 5.149604210717559e-8
          6.276771800710804e-8 4.7080661341127e-8 5.455479648579088e-8 5.595754621877826e-8 7.658054221730047e-8 8.446254845474877e-8
          6.482427700230368e-8 5.0659274535069117e-8 6.425357912875552e-8 4.834068738625338e-8 6.407019436618846e-8 4.5242899498740286e-8
          5.5993759467376956e-8 5.438865635331493e-8 9.206373523015689e-8 9.849781354278826e-8 7.262481294589434e-8 7.640390468227016e-8
          8.256655324618174e-8 7.618242429872962e-8 9.260292286084294e-8 9.034234777930851e-8 1.0841352467809776e-7 6.329287295804835e-8
          7.370257317803803e-8 7.341795237465895e-8 8.87284259109229e-8 7.42499863212808e-8 8.82025503588606e-8 4.94042589223282e-8
          7.064336086189603e-8 1.1388577942717233e-7 1.1961722931910353e-7 5.635858204066638e-9 3.903010960660684e-8 1.3449536978100151e-8
          1.0012281760810938e-7 8.652773511550902e-8 9.876336041602703e-8 7.046038958687343e-8 7.695964890571096e-8 8.895913734479637e-8
          1.02641017829597e-7 7.469882948551873e-8 1.1254009271783778e-7 1.2694544281424445e-7 8.214910389380532e-8 8.540474537370596e-8
          1.1880059869780369e-7 1.3669495988903594e-7 8.873329808677593e-8 4.442513217638137e-8 6.178837436891112e-8 3.8228872547420635e-8
          5.096426462192588e-8 1.0269415164961987e-7 7.210796988219668e-8 1.4037065745105315e-7 1.4915352589885036e-7 8.53228690902123e-8
          9.332710548273973e-8 1.5450462816430742e-7 1.6783516109351638e-7 9.433361170534516e-8 1.4811540841251208e-7 1.0503865116799355e-7
          1.6973058654654095e-7 1.1850021729686799e-7 4.527007458723609e-8 4.9100345116743034e-8 5.0380002368501365e-8 5.3768930733827226e-8
          4.27136923951718e-8 4.804053616644018e-8 3.8723686084736384e-8 4.200469394554869e-8 4.29029403929522e-8 4.2032955251591575e-8
          5.548993014976665e-8 5.843751635091143e-8 5.3367379937708555e-8 4.528570180636099e-8 7.442047409112079e-9 7.74754966196735e-9
          4.900658091996052e-9 3.6123540562437726e-9 5.231041547135273e-9 4.9132782197059605e-8 5.2818242236887515e-8 4.8920048657013195e-8
          5.6503702276715425e-8 5.0205957884629487e-8 5.377068143867864e-8 5.136121409701404e-8 5.504348768481856e-8 4.559427309201687e-8
          4.7720560186104825e-8 4.601391757670876e-8 5.733540499272779e-8 5.872576127262306e-8 4.984684728019278e-8 5.0908764038007216e-8
          5.509112381312963e-8 4.320211991920764e-8 4.466810579230985e-8 5.927348358825203e-8 4.613409166541206e-8 1.2020045716138721e-8
          1.1220279777184956e-8 1.1503007946288095e-8 1.178573611539124e-8 1.0985970176437473e-8 1.2474738059431309e-8 1.2576253986825173e-8
          1.3212175041859494e-8 1.2677769914219035e-8 1.2585392561215343e-8 1.3512844970600813e-8 1.679532986466462e-8 1.6367302728601976e-8
          1.7433231003223757e-8 1.8557998610078246e-8 2.0645554206603596e-8 1.8821689142938826e-8 1.0261565336405036e-8 1.1241313568217104e-8
          9.08927923042449e-9 1.0779921436885002e-8 1.222106180002917e-8 1.405651582968705e-8 8.048392613378761e-9 9.906373149609033e-9
          8.347667831910513e-9 1.1764353685839307e-8 9.420247234804467e-9 1.0831415074006585e-8 1.0658721913945887e-8 1.179735326178035e-8
          1.483438437240942e-8 1.553701434465901e-8 6.25510190839359e-9 8.149985177412356e-9 9.347630738608525e-9 1.3301466016216863e-8
          1.7566928328143146e-8 1.790543645391617e-8 1.7700625653062535e-8 1.831668405677881e-8 1.9897062952621357e-8 1.9207182281947483e-8
          2.1656081825539514e-8 1.8075369503479375e-8 1.9148571698639115e-8 1.9592675420956146e-8 1.583815242548844e-7 9.721634258857725e-8
          1.0692522923231244e-7 2.0896679375567063e-7 2.4729728991402823e-7 2.5710926823372137e-7 6.840138107476542e-8 5.942269027751038e-8
          1.590729406915643e-8 3.418503752063269e-8 2.673159244812769e-8 6.026554668118439e-8 6.32095445104376e-9 5.912900811620513e-9
          9.676606431815651e-9 9.235621750914569e-9 5.8157038289499035e-8 3.7555890827098954e-8 8.634605584173607e-8 1.519210802841034e-8
          1.2558342690208624e-8 1.0223251476278635e-7 1.1890123328494602e-7 1.3009713200832353e-7 1.239178866244286e-7 4.2479214368392504e-8
          8.252210740251611e-8 3.993643132558461e-8 9.503039757532293e-8 1.3922033704981475e-7 1.0862310131221072e-7 6.222050023858239e-8
          1.0881472364719731e-7 2.3822667285954302e-7 1.5540894705581222e-7 1.7741256293374349e-9 1.7184109620046162e-9 1.0291154806443511e-8
          2.6522962681006496e-9 2.3218810859781812e-9 1.6626962946717973e-9 1.481332096455661e-7 1.337882298171947e-7 1.4832399283031897e-7
          1.2901583465432139e-7 1.1944324998882335e-7 2.0124267319031682e-7 1.5481239050009713e-7 2.013886632683599e-7 1.5902467947615987e-7
          2.029852777813079e-7 1.1586497695088898e-8 5.433984667640785e-9 3.409541535067584e-8 9.792058653979499e-9 1.266730870855626e-8
          2.7562470064491877e-8 2.086043240745979e-9 3.32665299075664e-9 4.342819226863913e-9 6.062891027998772e-8 7.005893938924283e-8
          6.851036048432984e-8 6.403892547351492e-8 7.523413816963454e-8 7.58497059259823e-8 7.499911203786124e-8 4.988434025030773e-8
          5.671002973984054e-8 5.230399011206808e-8 6.892404656404932e-8 6.128884842195832e-8 6.688019167527492e-8 7.534824448383825e-8
          4.960332669020107e-8 5.84527821872572e-8 7.283415409860737e-8 7.58381921480156e-8 6.787309877688472e-8 7.73640103973059e-8
          1.5013778879573982e-7 3.9018864509881855e-8 5.712167751452867e-8 4.570174494484423e-8 1.0284819061167992e-7 9.720207750569144e-8
          7.120187628021325e-8 8.60700388445267e-8 1.358513125725205e-7 7.235753912466737e-8 1.5780817101731567e-7 7.372813023762193e-9
          1.0724909533589983e-8 1.5808973828349995e-9 2.654529733045764e-9 1.8163191695412064e-9 9.431001919508438e-9 1.102940836143505e-8
          3.38417331106798e-9
        </DataArray>
        <DataArray type="Float64" Name="gradient_matprop_error" format="ascii" RangeMin="0" RangeMax="0">
          0 0 0 0 0 0
          0 0 0 0 0 0
          0 0 0 0 0 0
          0 0 0 0 0 0
          0 0 0 0 0 0
          0 0 0 0 0 0
          0 0 0 0 0 0
          0 0 0 0 0 0
          0 0 0 0 0 0
          0 0 0 0 0 0
          0 0 0 0 0 0
          0 0 0 0 0 0
          0 0 0 0 0 0
          0 0 0 0 0 0
          0 0 0 0 0 0
          0 0 0 0 0 0
          0 0 0 0 0 0
          0 0 0 0 0 0
          0 0 0 0 0 0
          0 0 0 0 0 0
          0 0 0 0 0 0
          0 0 0 0 0 0
          0 0 0 0 0 0
          0 0 0 0 0 0
          0 0 0 0 0 0
          0 0 0 0 0 0
          0 0 0 0 0 0
          0 0 0 0 0 0
          0 0 0 0 0 0
          0 0 0 0 0 0
          0 0 0 0 0 0
          0 0 0 0 0 0
          0 0 0 0 0 0
          0 0 0 0 0 0
          0 0 0 0 0 0
          0 0 0 0 0 0
          0 0 0 0 0 0
          0 0 0 0 0 0
          0 0 0 0 0 0
          0 0 0 0 0 0
          0 0 0 0 0 0
          0 0 0 0 0 0
          0 0 0 0 0 0
          0 0 0 0 0 0
          0 0 0 0 0 0
          0 0 0 0 0 0
          0 0 0 0 0 0
          0 0 0 0 0 0
          0 0 0 0 0 0
          0 0 0 0 0 0
          0 0 0 0 0 0
          0 0 0 0 0 0
          0 0 0 0 0 0
          0 0 0 0 0 0
          0 0 0 0 0 0
          0
        </DataArray>
        <DataArray type="Float64" Name="initial_marker" format="ascii" RangeMin="0" RangeMax="2">
          2 0 1 0 0 1.5
          0 0 0 0 2 2
          0.25 2 2 0 0.5 0.75
          2 2 2 1 2 0
          0 0 0 0 0.5 0
          0 0 0 0 0 0
          0 0 0 0 0 0
          0 0 0 0 0 0
          0 1 1 0 1 1
          0 1 1 2 2 2
          2 1 0.5 1.5 1.25 1.5
          2 1.75 0 1 1.25 2
          2 2 2 0 0.5 0
          0.5 0 0 0 1.5 1.5
          0.6666666666666666 0 0.5 0 0.75 0
          0 0.5 1.5 1.75 0.6666666666666666 2
          2 2 2 2 2 2
          2 2 2 2 2 2
          2 2 2 2 2 2
          2 2 2 1 1 2
          2 1 2 2 1 1.25
          2 2 1 0 1 0
          1 2 1.3333333333333333 2 2 1.5
          1.6666666666666667 2 2 2 2 2
          2 2 0 0 0.5 0.25
          0 0.5 0 0 0 0
          1 0.5 1 0 0 0
          0 0 0 0 0 0
          0 0 0 0 0 0
          0 0 0 0 0 0
          0 0 0 0 0 2
          2 2 2 2 2 2
          2 2 2 2 2 2
          2 2 2 2 2 2
          2 2 2 2 2 2
          2 2 2 2 2 2
          2 2 2 2 2 2
          2 2 2 2 2 2
          2 2 2 2 0 0
          0 0 0 0 0 0
          0 0 0 0 0 0
          0 0 0 0 0 0
          0 0 0 1.25 0.25 0
          0.25 0 1.5 2 0.5 0
          0 0 0 0 0 0
          0 0 0 0 0 0
          0 0 0 0.25 0 0
          0 0 0 0 0 0
          0 0 0 0 0 1
          1 0.75 2 2 1.75 0
          0.25 0 1 2 2 2
          2 2 2 1.75 1 2
          1 0 1 1 2 2
          2 2 2 2 2 0
          0 0 0 0 0 0
          0
        </DataArray>
        <DataArray type="Float64" Name="markers_norefine" format="ascii" RangeMin="0" RangeMax="2">
          2 0 0 0 0 0
          0 0 0 0 0 0
          0 0 0 0 0 0
          1 0 0 0 0 0
          0 0 0 0 0 0
          0 0 0 0 0 0
          0 0 0 0 0 0
          0 0 0 0 0 0
          0 0 0 0 0 0
          0 0 0 0 0 0
          0 0 0 0 0 0
          0 0 0 0 0 0
          0 0 0 0 0 0
          0 0 0 0 0 0
          0 0 0 0 0 0
          0 0 0 0 0 0
          0 0 0 0 0 0
          0 0 0 1 0.25 1.5
          1 0 0 2 1.5 2
          0 0 0 0 0 0
          0 0 0 0 0 0
          0 0 0 0 0 0
          0 0 0 0 0 0
          0 0 0 0 0 0
          0 0 0 0 0 0
          0 0 0 0 0 0
          0 0 0 0 0 0
          0 0 0 0 0 0
          0 0 0 0 0 0
          0 0 0 0 0 0
          0 0 0 0 0 0
          1 0.5 0 1 1 0.5
          1.5 0 2 2 1.6666666666666667 1.5
          0 0.5 1 0 1.5 1
          2 1.75 0.5 1.3333333333333333 2 1.5
          2 1 2 2 2 2
          1.75 2 2 2 2 2
          0.5 0 1 0.75 1 0
          0 1 1 0 0 0
          0 0 0 0 0 0
          0 0 0 0 0 0
          0 0 0 0 0 0
          0 0 0 0 0 0
          0 0 0 0 0 0
          0 0 0 0 0 0
          0 0 0 0 0 0
          0 0 0 0 0 0
          0 0 0 0 0 0
          0 0 0 0 0 0
          0 0 0 0 0 0
          0 0 0 0 0 0
          0 0 0 0 0 0
          0 0 0 0 0 0
          0 0 0 0 0 0
          0 0 0 0 0 0
          0
        </DataArray>
        <DataArray type="Float64" Name="markers_mustrefine" format="ascii" RangeMin="0" RangeMax="2">
          2 0 1 0 0 1.5
          0 0 0 0 2 2
          0.25 2 2 0 0.5 0.75
          2 2 2 1 2 0
          0 0 0 0 0.5 0
          0 0 0 0 0 0
          0 0 0 0 0 0
          0 0 0 0 0 0
          0 1 1 0 1 1
          0 1 1 2 2 2
          2 1 0.5 1.5 1.25 1.5
          2 1.75 0 1 1.25 2
          2 2 2 0 0.5 0
          0.5 0 0 0 1.5 1.5
          0.6666666666666666 0 0.5 0 0.75 0
          0 0.5 1.5 1.75 0.6666666666666666 2
          2 2 2 2 2 2
          2 2 2 2 2 2
          2 2 2 2 2 2
          2 2 2 1 1 2
          2 1 2 2 1 1.25
          2 2 1 0 1 0
          1 2 1.3333333333333333 2 2 1.5
          1.6666666666666667 2 2 2 2 2
          2 2 0 0 0.5 0.25
          0 0.5 0 0 0 0
          1 0.5 1 0 0 0
          0 0 0 0 0 0
          0 0 0 0 0 0
          0 0 0 0 0 0
          0 0 0 0 0 2
          2 2 2 2 2 2
          2 2 2 2 2 2
          2 2 2 2 2 2
          2 2 2 2 2 2
          2 2 2 2 2 2
          2 2 2 2 2 2
          2 2 2 2 2 2
          2 2 2 2 0 0
          0 0 0 0 0 0
          0 0 0 0 0 0
          0 0 0 0 0 0
          0 0 0 1.25 0.25 0
          0.25 0 1.5 2 0.5 0
          0 0 0 0 0 0
          0 0 0 0 0 0
          0 0 0 0.25 0 0
          0 0 0 0 0 0
          0 0 0 0 0 1
          1 0.75 2 2 1.75 0
          0.25 0 1 2 2 2
          2 2 2 1.75 1 2
          1 0 1 1 2 2
          2 2 2 2 2 0
          0 0 0 0 0 0
          0
        </DataArray>
        <DataArray type="Float64" Name="gradient_marker" format="ascii" RangeMin="0" RangeMax="1">
          0 1 1 0.75 1 1
          0.875 1 1 0.625 1 1
          0.625 0.75 1 0.6666666666666666 0.625 0.75
          0.5 1 0.5 1 0.75 1
          0.75 0.5 0.5 1 0.5 0.5
          0.5 1 1 1 0.5 0.5
          0.5 0.5 0.5 0.5 1 0.75
          1 1 0.5 1 1 0.5
          0.25 0.75 0.625 0.75 1 0.875
          0 0.5 0.625 1 1 1
          1 1 1 1 1 0.75
          1 0.875 0.5 0.75 0.625 1
          1 0.875 1 0 0.25 0
          0.375 0 0 0.25 0.75 0.875
          0.3333333333333333 0 0.5 0 0.5 0
          0.5 0.5 1 1 0.6666666666666666 0.75
          0.875 0.75 0.875 1 1 0.5
          0.75 0.75 1 0.5 0.625 0.25
          0.375 0.875 0.75 0 0.25 0
          0.75 1 1 0.625 0.75 1
          1 0.75 1 1 0.75 0.75
          1 1 1 0 0.375 0
          0.25 0.875 0.5 1 1 0.625
          0.6666666666666666 1 1 0.75 1 1
          1 1 0 0 0.125 0.25
          0 0 0 0 0 0
          0.25 0.5 0 0 1 1
          1 1 1 0 0 0
          0 0 0.125 0 0.25 0
          0 0 0.25 0.5 0 0
          0.25 0 0 0.5 0 0
          0 0 0 0 0 0
          0 0 0 0 0 0
          0 0 0 0 0 0
          0 0 0 0 0 0
          0 0 0 0 0 0
          0 0 0 0 0 0
          0 0 0 0 0 0
          0 0 0 0 0.875 0.75
          1 1 0.75 1 0.625 0.875
          1 1 1 1 1 1
          1 1 0.75 1 1 1
          1 0.6666666666666666 0.75 0.625 0.625 0.6666666666666666
          0.5 0.5 0.5 0.75 0.5 1
          1 1 1 1 1 0.75
          1 1 1 0.75 0.75 0.5
          0.5 0.75 1 0.625 0.875 1
          0.75 0.5 1 0.625 1 1
          0.8333333333333334 1 1 1 0 0.5
          0.5 0.5 1 1 1 0
          0.25 0 0.75 0.5 0.625 0.875
          0 0.25 0.75 1 0.6666666666666666 1
          0.75 0 0.25 0 0.75 0.75
          0.5 0.75 1 0.6666666666666666 1 1
          1 1 1 1 1 1
          1
        </DataArray>
        <DataArray type="Float64" Name="gradient_matprop_marker" format="ascii" RangeMin="0" RangeMax="0">
          0 0 0 0 0 0
          0 0 0 0 0 0
          0 0 0 0 0 0
          0 0 0 0 0 0
          0 0 0 0 0 0
          0 0 0 0 0 0
          0 0 0 0 0 0
          0 0 0 0 0 0
          0 0 0 0 0 0
          0 0 0 0 0 0
          0 0 0 0 0 0
          0 0 0 0 0 0
          0 0 0 0 0 0
          0 0 0 0 0 0
          0 0 0 0 0 0
          0 0 0 0 0 0
          0 0 0 0 0 0
          0 0 0 0 0 0
          0 0 0 0 0 0
          0 0 0 0 0 0
          0 0 0 0 0 0
          0 0 0 0 0 0
          0 0 0 0 0 0
          0 0 0 0 0 0
          0 0 0 0 0 0
          0 0 0 0 0 0
          0 0 0 0 0 0
          0 0 0 0 0 0
          0 0 0 0 0 0
          0 0 0 0 0 0
          0 0 0 0 0 0
          0 0 0 0 0 0
          0 0 0 0 0 0
          0 0 0 0 0 0
          0 0 0 0 0 0
          0 0 0 0 0 0
          0 0 0 0 0 0
          0 0 0 0 0 0
          0 0 0 0 0 0
          0 0 0 0 0 0
          0 0 0 0 0 0
          0 0 0 0 0 0
          0 0 0 0 0 0
          0 0 0 0 0 0
          0 0 0 0 0 0
          0 0 0 0 0 0
          0 0 0 0 0 0
          0 0 0 0 0 0
          0 0 0 0 0 0
          0 0 0 0 0 0
          0 0 0 0 0 0
          0 0 0 0 0 0
          0 0 0 0 0 0
          0 0 0 0 0 0
          0 0 0 0 0 0
          0
        </DataArray>
        <DataArray type="Float64" Name="combo" format="ascii" RangeMin="0" RangeMax="2">
          2 1 1 0.75 1 1
          0.875 1 1 0.625 1 1
          0.625 0.75 1 0.6666666666666666 0.625 0.75
          1.5 1 0.5 1 0.75 1
          0.75 0.5 0.5 1 0.5 0.5
          0.5 1 1 1 0.5 0.5
          0.5 0.5 0.5 0.5 1 0.75
          1 1 0.5 1 1 0.5
          0.25 0.75 0.625 0.75 1 0.875
          0 0.5 0.625 1 1 1
          1 1 1 1 1 0.75
          1 0.875 0.5 0.75 0.625 1
          1 0.875 1 0 0.25 0
          0.375 0 0 0.25 0.75 0.875
          0.3333333333333333 0 0.5 0 0.5 0
          0.5 0.5 1 1 0.6666666666666666 0.75
          0.875 0.75 0.875 1 1 0.5
          0.75 0.75 1 1.5 0.875 1.75
          1.375 0.875 0.75 2 1.75 2
          0.75 1 1 0.625 0.75 1
          1 0.75 1 1 0.75 0.75
          1 1 1 0 0.375 0
          0.25 0.875 0.5 1 1 0.625
          0.6666666666666666 1 1 0.75 1 1
          1 1 0 0 0.125 0.25
          0 0 0 0 0 0
          0.25 0.5 0 0 1 1
          1 1 1 0 0 0
          0 0 0.125 0 0.25 0
          0 0 0.25 0.5 0 0
          0.25 0 0 0.5 0 0
          1 0.5 0 1 1 0.5
          1.5 0 2 2 1.6666666666666667 1.5
          0 0.5 1 0 1.5 1
          2 1.75 0.5 1.3333333333333333 2 1.5
          2 1 2 2 2 2
          1.75 2 2 2 2 2
          0.5 0 1 0.75 1 0
          0 1 1 0 0.875 0.75
          1 1 0.75 1 0.625 0.875
          1 1 1 1 1 1
          1 1 0.75 1 1 1
          1 0.6666666666666666 0.75 0.625 0.625 0.6666666666666666
          0.5 0.5 0.5 0.75 0.5 1
          1 1 1 1 1 0.75
          1 1 1 0.75 0.75 0.5
          0.5 0.75 1 0.625 0.875 1
          0.75 0.5 1 0.625 1 1
          0.8333333333333334 1 1 1 0 0.5
          0.5 0.5 1 1 1 0
          0.25 0 0.75 0.5 0.625 0.875
          0 0.25 0.75 1 0.6666666666666666 1
          0.75 0 0.25 0 0.75 0.75
          0.5 0.75 1 0.6666666666666666 1 1
          1 1 1 1 1 1
          1
        </DataArray>
        <DataArray type="Float64" Name="dHdT" format="ascii" RangeMin="25.816875005139277" RangeMax="112.05089221682667">
          48.21603273394814 26.481090115914306 29.548646434927655 27.360785756065546 26.164808790788808 33.87022658952302
          25.88263945576569 25.8796356301056 30.354060672440518 29.407777269571906 38.39624598669325 36.65641605575337
          28.70983589299105 38.77472535379182 37.044944752727666 28.2898964814426 31.810398974450187 30.968751490160454
          61.814500123781414 39.5822900491208 46.29436101442968 34.797572140195015 32.063790590611006 27.17174758406277
          27.378870417047484 26.282896935439226 26.407160443753366 26.71931092119877 27.36817937972326 27.809476404199017
          26.531423952067506 25.820810164298248 25.82019848491542 25.81958680553259 27.126473357569324 26.97798947503516
          26.785817635910984 26.673979215364966 26.829505592500997 26.562140794818944 27.583661399544205 27.857122687190483
          26.77680211703313 27.050688347664646 28.401062408624803 27.324574578296158 25.857710951442993 32.96320716410689
          32.510484653459066 35.077081977425024 34.74782502168747 32.21871026604821 34.804924572414876 34.47189073937291
          31.384927001887725 33.687781021193835 33.41801327422621 37.15792777161359 37.13687218924484 37.813674336652426
          36.71335518330561 32.23361683305484 31.776751948455004 34.44244450563186 34.10331882306193 31.180464575619524
          33.96705022857107 33.62764421425195 30.66933358277654 33.04658620093354 32.56672335608279 40.2627305424693
          39.096115803088814 38.709736498416575 36.85490499042287 30.01219158200002 31.879023017025624 29.72103029574506
          31.607190977669212 29.312291303035856 30.80105205761349 30.51721231321695 35.13198402317784 34.88996641916048
          33.219020480974265 29.371150560889337 31.241465825347223 28.96787802855637 30.779053985607813 28.72352102008076
          30.15395238931937 29.712899458982896 34.542511682164395 34.08457933999175 32.54249797395892 38.40976396431469
          37.95609546584085 42.6366693403101 40.40897318256833 37.48317675242072 38.56996031792763 39.694629176145355
          38.62361194310788 45.249561393716306 37.53027817873018 59.30673126028091 47.2350652456428 64.96280521181859
          56.5880129835455 38.988845316897375 40.06434281747005 112.05089221682667 70.80349291909177 73.54618916089063
          40.425117113033686 36.86675191323271 36.6636750505175 34.378494454950946 34.11172164868268 37.215390232160956
          37.0407689223074 35.07336459453605 36.61474980607507 36.727396657273076 33.70824000469235 33.186560791961114
          37.25625733762646 37.875864577221925 34.39492492772533 28.521501420132914 30.21709414177747 28.01628876459746
          29.20230085406478 33.47343337846311 31.341432383571586 36.74783322200514 36.33892418970619 32.509335385529745
          32.50471144858246 38.461486550506066 38.39927465978768 33.20067866746815 35.254435993730155 32.711424976583885
          37.16996797919354 33.80140768967186 28.856455492616625 29.36472751372649 29.25909300709732 29.810971981749052
          28.58901555029276 28.97204455018405 27.884234802055463 28.0892834262623 28.47479744452916 27.90341697038975
          29.66173052157801 30.257216449771608 29.35507355007534 28.294332050469137 25.86607906578554 25.885490911225745
          25.85080083312025 25.844845737496364 25.86507891798312 30.61326842754682 31.14269898786399 29.68988266230754
          31.67212954818116 30.491384332421013 31.00854249965373 30.195630880135603 30.698053500069786 29.23185579516032
          29.529673378396538 29.207071805165405 31.525700666886443 31.20047612000397 29.827490961632755 29.81366055774424
          30.298761744091806 28.609256087994517 28.859562261384372 30.783862930439376 29.109868434774228 45.192269924079824
          64.93021677176472 56.72943422472426 48.52865167768378 68.26659852536869 58.20002039635189 52.38557116316984
          66.65578316981271 46.57112192998781 81.6414859265223 76.08405120475976 69.38125518610224 62.26578337629219
          42.99091474736693 46.61381150502451 51.74566159738254 39.22267274046187 80.65034385700781 69.1215324299064
          93.3950829153294 82.95600802006174 57.59272100280497 67.32242553772382 103.10066731766373 85.85749369664293
          99.25623287031077 68.61432007562215 78.33801868157244 79.1090662440967 62.87098008091582 68.75454922939183
          70.6323509914944 70.74779486311667 75.03455143662256 82.13408128343364 61.43884007917331 78.99891860669663
          47.87538032567522 38.81735028776714 52.75984590398352 51.83682146035149 57.170836961190545 42.289054744335125
          47.48420257401561 57.05983141567846 62.596012324998554 45.35543674820838 26.148329221304795 25.990788814013857
          25.93905441728866 26.105553454534448 28.178819756904566 26.429782255399743 26.465217027997014 25.96204343424375
          25.83868322066909 25.86592572502234 25.854187889334053 25.90233434607046 25.823529549784325 25.824018352203563
          25.846769530494434 25.82905650006603 26.071255801960657 25.869692557999013 25.93874296711858 25.872131280013313
          25.83409464792849 27.169921274628546 26.759943149614585 29.646966793771032 27.01384876469271 26.20485299408232
          26.626293941195048 26.159423897619387 28.33360995613957 30.354144549975302 26.91875074142488 25.909129599218225
          25.97503610824412 26.955313623124106 26.04094261727001 25.816875005139277 25.81698639213405 25.86319576458841
          25.826355994451607 25.825476693310467 25.817097779128826 27.44155665089766 27.268064974235642 30.786134180313542
          29.869199046964628 27.094573297573625 27.947490104735135 32.18235613839791 28.525628753777273 27.357615961847692
          29.262553195745028 25.905249856806666 25.85862445533551 26.122759233129695 25.92125828146544 25.91893185225632
          26.04280695357451 25.83333056825018 25.8517756147434 25.851842882113417 32.66662954081779 35.272432852357
          34.936076549928764 33.85473622018819 37.26027735814306 37.28069612554063 36.888195418781656 30.242571793519033
          32.0568546442825 31.003957095689145 35.2629340000844 36.926022111440986 37.01672041476084 37.41012315720987
          36.78081367869263 36.677572137480155 37.16547370416542 37.032429780630736 35.0998597477551 37.41012905613864
          34.78584741013667 28.0483823351816 29.562433512779663 28.646770388911968 32.677529205001214 31.72217195089472
          30.261585344741867 30.62017328642293 33.6687134552414 30.217163951233278 35.15270642969675 25.881980877061498
          25.911374013270134 25.829843620419908 25.84084831133254 25.83594503639577 25.94085330721481 25.916396626606286
          25.860381702838588
        </DataArray>
        <DataArray type="Float64" Name="dk/dtemperature" format="ascii" RangeMin="0.006864956210116369" RangeMax="0.10526899999999978">
          0.008876125000000012 0.015056189215720057 0.012146798855467418 0.013969517736641856 0.015461710827707512 0.00858915819940757
          0.015783697450575434 0.015776736484319515 0.0116003244648946 0.012138182363222975 0.007974936542188586 0.007452847804688433
          0.012707679959702584 0.008758773721864756 0.007822491202831959 0.012939672415388128 0.01051403132119257 0.01102962559705976
          0.010972523975333878 0.008588692014203769 0.009027752382512994 0.008200814986574581 0.010061403014770452 0.014186903710314893
          0.013929198645948689 0.015349936999062015 0.01517532577322077 0.014696022112273737 0.014024369341592346 0.01347348853614649