<?xml version="1.0"?>
<VTKFile type="UnstructuredGrid" version="0.1" byte_order="LittleEndian" header_type="UInt32" compressor="vtkZLibDataCompressor">
  <UnstructuredGrid>
    <Piece NumberOfPoints="1462" NumberOfCells="880">
      <PointData>
        <DataArray type="Int32" Name="libmesh_node_id" format="ascii" RangeMin="1958" RangeMax="6795">
          1958 1959 2078 2079 2119 2198
          2199 2239 2269 2318 2319 2320
          2359 2389 2419 2420 2421 2422
          2423 2424 2425 2426 2427 2428
          2429 2430 2431 2432 2433 2434
          2435 2436 2440 2441 2443 2444
          2446 2489 2491 2493 2494 2498
          2499 2501 2503 2504 2507 2508
          2510 2512 2556 2557 2558 2561
          2564 2566 2567 2568 2569 2570
          2571 2572 2573 2574 2575 2576
          2577 2578 2579 2580 2581 2582
          2583 2584 2585 2586 2587 2588
          2589 2590 2591 2592 2593 2594
          2595 2596 2597 2598 2599 2600
          2601 2602 2603 2604 2605 2606
          2607 2608 2609 2610 2611 2613
          2615 2616 2618 2619 2620 2621
          2622 2623 2624 2625 2626 2627
          2628 2629 2630 2631 2632 2633
          2636 2637 2639 2641 2728 2729
          2730 2731 2732 2733 2734 2738
          2739 2740 2762 2763 2764 2765
          2766 2767 2768 2769 2770 2771
          2772 2773 2774 2775 2776 2777
          2778 2779 2783 2784 2867 2868
          2869 2872 2875 2893 2894 2897
          2899 2901 2902 2903 2904 2905
          2906 2907 2908 2909 2910 2911
          2912 2913 2914 2915 2916 2917
          2918 2919 2920 2921 2922 2923
          2924 2925 2926 2927 2928 2929
          2930 2931 2932 2933 2934 2935
          2936 2937 2938 2939 2940 2941
          2942 2943 2944 2945 2946 2947
          2948 2949 2950 2951 2952 2953
          2954 2955 2956 2957 2958 2959
          2960 2961 2962 2963 2964 2965
          2966 2967 2968 2969 2970 2971
          2972 2973 2974 2975 2976 2977
          2978 2979 2980 2981 2982 2983
          2984 2985 2986 2987 2988 2989
          2990 2991 2992 2993 2994 2995
          2996 2997 2998 2999 3000 3001
          3002 3003 3004 3005 3006 3007
          3008 3009 3010 3011 3012 3013
          3014 3015 3016 3017 3018 3019
          3020 3021 3022 3023 3024 3025
          3026 3027 3028 3029 3030 3031
          3032 3033 3034 3035 3036 3037
          3038 3039 3040 3041 3042 3046
          3047 3049 3050 3051 3052 3053
          3054 3055 3056 3057 3058 3059
          3060 3061 3062 3063 3064 3065
          3066 3067 3069 3070 3071 3072
          3073 3074 3075 3076 3077 3078
          3079 3080 3081 3082 3083 3084
          3087 3088 3090 3092 3131 3393
          3394 3397 3436 3437 3438 3442
          3443 3444 3445 3446 3447 3448
          3449 3450 3451 3452 3453 3454
          3455 3456 3457 3458 3459 3460
          3463 3464 3507 3508 3509 3510
          3513 3514 3515 3517 3518 3520
          3569 3570 3571 3574 3579 3580
          3584 3585 3586 3587 3588 3589
          3590 3591 3592 3593 3594 3595
          3596 3597 3598 3599 3600 3601
          3602 3603 3604 3605 3606 3607
          3608 3609 3610 3611 3612 3613
          3614 3615 3616 3617 3618 3619
          3620 3621 3622 3623 3624 3625
          3626 3627 3628 3629 3630 3631
          3632 3633 3634 3635 3636 3637
          3638 3639 3640 3641 3642 3643
          3644 3645 3646 3647 3648 3649
          3650 3651 3652 3653 3654 3655
          3656 3657 3660 3661 3841 3842
          3843 3844 3845 3846 3847 3848
          3849 3850 3851 3852 3853 3854
          3855 3856 3857 3858 3859 3860
          3861 3862 3863 3864 3865 3866
          3867 3868 3869 3870 3871 3872
          3873 3874 3875 3876 3877 3878
          3879 3880 3881 3882 3883 3884
          3885 3886 3887 3888 3889 3890
          3891 3892 3893 3894 3895 3896
          3897 3898 3899 3900 3901 3902
          3903 3904 3905 3906 3907 3908
          3909 3910 3911 3912 3913 3914
          3915 3916 3917 3918 3919 3920
          3921 3922 3923 3924 3925 3926
          3927 3928 3929 3930 3931 3932
          3933 3934 3935 3936 3937 3938
          3939 3940 3941 3942 3943 3944
          3945 3946 3947 3948 3949 3950
          3951 3952 3953 3954 3955 3956
          3957 3958 3959 3960 3961 3962
          3963 3964 3965 3966 3967 3968
          3969 3970 3971 3972 3973 3974
          3975 3976 3977 3978 3979 3980
          3981 3982 3983 3984 3985 3986
          3987 3988 3989 3990 3991 3992
          3993 3994 3995 3996 3997 3998
          3999 4000 4001 4002 4003 4004
          4005 4006 4007 4008 4009 4010
          4011 4012 4013 4014 4015 4016
          4017 4018 4019 4020 4021 4022
          4023 4024 4025 4026 4027 4028
          4029 4030 4031 4032 4033 4034
          4035 4036 4037 4038 4039 4040
          4041 4042 4043 4044 4045 4046
          4047 4048 4049 4050 4051 4052
          4053 4054 4055 4056 4057 4058
          4059 4060 4061 4062 4063 4064
          4065 4066 4067 4068 4069 4070
          4071 4072 4073 4074 4075 4076
          4077 4078 4079 4080 4081 4082
          4083 4084 4085 4086 4087 4088
          4089 4090 4091 4092 4093 4094
          4095 4096 4097 4098 4099 4100
          4101 4102 4103 4104 4105 4106
          4107 4108 4109 4110 4111 4112
          4113 4114 4115 4116 4117 4118
          4119 4120 4121 4122 4123 4124
          4125 4126 4127 4128 4130 4191
          4192 4195 4197 4198 4200 4211
          4213 4219 4220 4221 4223 4225
          4226 4228 4239 4241 4243 4245
          5523 5524 5525 5526 5527 5528
          5529 5540 5541 5542 5543 5544
          5545 5546 5547 5548 5549 6021
          6022 6023 6024 6025 6026 6027
          6028 6029 6030 6031 6032 6033
          6034 6035 6036 6037 6038 6039
          6040 6041 6042 6043 6044 6045
          6046 6047 6048 6049 6050 6051
          6052 6053 6054 6055 6056 6057
          6058 6059 6060 6061 6062 6063
          6064 6065 6066 6067 6068 6069
          6070 6071 6072 6073 6074 6075
          6076 6077 6078 6079 6080 6081
          6082 6083 6084 6085 6086 6087
          6088 6089 6090 6091 6092 6093
          6094 6095 6096 6097 6098 6099
          6100 6101 6102 6103 6104 6105
          6106 6107 6108 6109 6110 6111
          6112 6113 6114 6115 6116 6117
          6118 6119 6120 6121 6122 6123
          6124 6125 6126 6127 6128 6129
          6130 6131 6132 6133 6134 6135
          6136 6137 6138 6139 6140 6141
          6142 6143 6144 6145 6146 6147
          6148 6149 6150 6151 6152 6153
          6154 6155 6156 6157 6158 6159
          6160 6161 6162 6163 6164 6165
          6166 6167 6168 6169 6170 6171
          6172 6173 6174 6175 6176 6177
          6178 6179 6180 6181 6182 6183
          6184 6185 6186 6187 6188 6189
          6190 6191 6192 6193 6194 6195
          6196 6197 6198 6199 6200 6201
          6202 6203 6204 6205 6206 6207
          6208 6209 6210 6211 6212 6213
          6214 6215 6216 6217 6218 6219
          6220 6221 6222 6223 6224 6225
          6226 6227 6228 6229 6230 6231
          6232 6233 6234 6235 6236 6237
          6238 6239 6240 6241 6242 6243
          6244 6245 6246 6247 6248 6249
          6250 6251 6252 6253 6254 6255
          6256 6257 6258 6259 6260 6261
          6262 6263 6264 6265 6266 6267
          6268 6269 6270 6271 6272 6273
          6274 6275 6276 6277 6278 6279
          6280 6281 6282 6283 6284 6285
          6286 6287 6288 6289 6290 6291
          6292 6293 6294 6295 6296 6297
          6298 6299 6300 6301 6302 6303
          6304 6305 6306 6307 6308 6309
          6310 6311 6312 6313 6314 6315
          6316 6317 6318 6319 6320 6321
          6322 6323 6324 6325 6326 6327
          6328 6329 6330 6331 6332 6333
          6334 6335 6336 6337 6338 6339
          6340 6341 6342 6343 6344 6345
          6346 6347 6348 6349 6350 6351
          6352 6353 6354 6355 6356 6357
          6358 6359 6360 6361 6362 6363
          6364 6365 6366 6367 6368 6369
          6370 6371 6372 6373 6374 6375
          6376 6377 6378 6379 6380 6381
          6382 6383 6384 6385 6386 6387
          6388 6389 6390 6391 6392 6393
          6394 6395 6396 6397 6398 6399
          6400 6401 6402 6403 6404 6405
          6406 6407 6408 6409 6410 6411
          6412 6413 6414 6415 6416 6417
          6418 6419 6420 6421 6422 6423
          6424 6425 6426 6427 6428 6429
          6430 6431 6432 6433 6434 6435
          6436 6437 6438 6439 6440 6441
          6442 6443 6444 6445 6446 6447
          6448 6449 6450 6451 6452 6453
          6454 6455 6456 6457 6458 6459
          6460 6461 6462 6463 6464 6465
          6466 6467 6468 6469 6470 6471
          6472 6473 6474 6475 6476 6477
          6478 6479 6480 6481 6482 6483
          6484 6485 6486 6487 6488 6489
          6490 6491 6492 6493 6494 6495
          6496 6497 6498 6499 6500 6501
          6502 6503 6504 6505 6506 6507
          6508 6509 6510 6660 6661 6662
          6663 6664 6665 6666 6667 6668
          6669 6670 6671 6672 6673 6674
          6675 6676 6677 6678 6679 6680
          6681 6682 6683 6684 6685 6686
          6687 6688 6689 6690 6691 6693
          6694 6695 6696 6697 6698 6699
          6700 6701 6702 6703 6704 6705
          6706 6707 6708 6710 6711 6712
          6713 6714 6715 6716 6717 6718
          6719 6720 6721 6723 6725 6727
          6776 6777 6778 6779 6781 6782
          6783 6784 6785 6786 6787 6788
          6789 6791 6793 6795 1960 1961
          2080 2081 2120 2201 2240 2270
          2360 2390 2505 2442 2506 2509
          2511 2439 2634 2617 2635 2638
          2445 2640 2321 2735 2736 2737
          2741 2200 2437 2780 2781 2782
          2785 2438 2612 3043 3044 3045
          3048 2614 3085 3068 3086 3089
          3091 3099 3100 3107 3108 3105
          3110 3126 3129 3146 3134 3152
          3461 3462 3465 3511 3512 3516
          3519 3658 3659 3662 4129 4193
          4194 4196 3125 4199 4222 4224
          4207 4208 4229 4230 4212 4240
          4242 4244 6709 4227 6692 6722
          6724 6726 3132 6728 6729 6742
          6743 6731 6746 6748 6749 6751
          6780 6790 6792 6794
        </DataArray>
        <DataArray type="Float64" Name="bounds" format="ascii" RangeMin="0" RangeMax="0">
          0 0 0 0 0 0
          0 0 0 0 0 0
          0 0 0 0 0 0
          0 0 0 0 0 0
          0 0 0 0 0 0
          0 0 0 0 0 0
          0 0 0 0 0 0
          0 0 0 0 0 0
          0 0 0 0 0 0
          0 0 0 0 0 0
          0 0 0 0 0 0
          0 0 0 0 0 0
          0 0 0 0 0 0
          0 0 0 0 0 0
          0 0 0 0 0 0
          0 0 0 0 0 0
          0 0 0 0 0 0
          0 0 0 0 0 0
          0 0 0 0 0 0
          0 0 0 0 0 0
          0 0 0 0 0 0
          0 0 0 0 0 0
          0 0 0 0 0 0
          0 0 0 0 0 0
          0 0 0 0 0 0
          0 0 0 0 0 0
          0 0 0 0 0 0
          0 0 0 0 0 0
          0 0 0 0 0 0
          0 0 0 0 0 0
          0 0 0 0 0 0
          0 0 0 0 0 0
          0 0 0 0 0 0
          0 0 0 0 0 0
          0 0 0 0 0 0
          0 0 0 0 0 0
          0 0 0 0 0 0
          0 0 0 0 0 0
          0 0 0 0 0 0
          0 0 0 0 0 0
          0 0 0 0 0 0
          0 0 0 0 0 0
          0 0 0 0 0 0
          0 0 0 0 0 0
          0 0 0 0 0 0
          0 0 0 0 0 0
          0 0 0 0 0 0
          0 0 0 0 0 0
          0 0 0 0 0 0
          0 0 0 0 0 0
          0 0 0 0 0 0
          0 0 0 0 0 0
          0 0 0 0 0 0
          0 0 0 0 0 0
          0 0 0 0 0 0
          0 0 0 0 0 0
          0 0 0 0 0 0
          0 0 0 0 0 0
          0 0 0 0 0 0
          0 0 0 0 0 0
          0 0 0 0 0 0
          0 0 0 0 0 0
          0 0 0 0 0 0
          0 0 0 0 0 0
          0 0 0 0 0 0
          0 0 0 0 0 0
          0 0 0 0 0 0
          0 0 0 0 0 0
          0 0 0 0 0 0
          0 0 0 0 0 0
          0 0 0 0 0 0
          0 0 0 0 0 0
          0 0 0 0 0 0
          0 0 0 0 0 0
          0 0 0 0 0 0
          0 0 0 0 0 0
          0 0 0 0 0 0
          0 0 0 0 0 0
          0 0 0 0 0 0
          0 0 0 0 0 0
          0 0 0 0 0 0
          0 0 0 0 0 0
          0 0 0 0 0 0
          0 0 0 0 0 0
          0 0 0 0 0 0
          0 0 0 0 0 0
          0 0 0 0 0 0
          0 0 0 0 0 0
          0 0 0 0 0 0
          0 0 0 0 0 0
          0 0 0 0 0 0
          0 0 0 0 0 0
          0 0 0 0 0 0
          0 0 0 0 0 0
          0 0 0 0 0 0
          0 0 0 0 0 0
          0 0 0 0 0 0
          0 0 0 0 0 0
          0 0 0 0 0 0
          0 0 0 0 0 0
          0 0 0 0 0 0
          0 0 0 0 0 0
          0 0 0 0 0 0
          0 0 0 0 0 0
          0 0 0 0 0 0
          0 0 0 0 0 0
          0 0 0 0 0 0
          0 0 0 0 0 0
          0 0 0 0 0 0
          0 0 0 0 0 0
          0 0 0 0 0 0
          0 0 0 0 0 0
          0 0 0 0 0 0
          0 0 0 0 0 0
          0 0 0 0 0 0
          0 0 0 0 0 0
          0 0 0 0 0 0
          0 0 0 0 0 0
          0 0 0 0 0 0
          0 0 0 0 0 0
          0 0 0 0 0 0
          0 0 0 0 0 0
          0 0 0 0 0 0
          0 0 0 0 0 0
          0 0 0 0 0 0
          0 0 0 0 0 0
          0 0 0 0 0 0
          0 0 0 0 0 0
          0 0 0 0 0 0
          0 0 0 0 0 0
          0 0 0 0 0 0
          0 0 0 0 0 0
          0 0 0 0 0 0
          0 0 0 0 0 0
          0 0 0 0 0 0
          0 0 0 0 0 0
          0 0 0 0 0 0
          0 0 0 0 0 0
          0 0 0 0 0 0
          0 0 0 0 0 0
          0 0 0 0 0 0
          0 0 0 0 0 0
          0 0 0 0 0 0
          0 0 0 0 0 0
          0 0 0 0 0 0
          0 0 0 0 0 0
          0 0 0 0 0 0
          0 0 0 0 0 0
          0 0 0 0 0 0
          0 0 0 0 0 0
          0 0 0 0 0 0
          0 0 0 0 0 0
          0 0 0 0 0 0
          0 0 0 0 0 0
          0 0 0 0 0 0
          0 0 0 0 0 0
          0 0 0 0 0 0
          0 0 0 0 0 0
          0 0 0 0 0 0
          0 0 0 0 0 0
          0 0 0 0 0 0
          0 0 0 0 0 0
          0 0 0 0 0 0
          0 0 0 0 0 0
          0 0 0 0 0 0
          0 0 0 0 0 0
          0 0 0 0 0 0
          0 0 0 0 0 0
          0 0 0 0 0 0
          0 0 0 0 0 0
          0 0 0 0 0 0
          0 0 0 0 0 0
          0 0 0 0 0 0
          0 0 0 0 0 0
          0 0 0 0 0 0
          0 0 0 0 0 0
          0 0 0 0 0 0
          0 0 0 0 0 0
          0 0 0 0 0 0
          0 0 0 0 0 0
          0 0 0 0 0 0
          0 0 0 0 0 0
          0 0 0 0 0 0
          0 0 0 0 0 0
          0 0 0 0 0 0
          0 0 0 0 0 0
          0 0 0 0 0 0
          0 0 0 0 0 0
          0 0 0 0 0 0
          0 0 0 0 0 0
          0 0 0 0 0 0
          0 0 0 0 0 0
          0 0 0 0 0 0
          0 0 0 0 0 0
          0 0 0 0 0 0
          0 0 0 0 0 0
          0 0 0 0 0 0
          0 0 0 0 0 0
          0 0 0 0 0 0
          0 0 0 0 0 0
          0 0 0 0 0 0
          0 0 0 0 0 0
          0 0 0 0 0 0
          0 0 0 0 0 0
          0 0 0 0 0 0
          0 0 0 0 0 0
          0 0 0 0 0 0
          0 0 0 0 0 0
          0 0 0 0 0 0
          0 0 0 0 0 0
          0 0 0 0 0 0
          0 0 0 0 0 0
          0 0 0 0 0 0
          0 0 0 0 0 0
          0 0 0 0 0 0
          0 0 0 0 0 0
          0 0 0 0 0 0
          0 0 0 0 0 0
          0 0 0 0 0 0
          0 0 0 0 0 0
          0 0 0 0 0 0
          0 0 0 0 0 0
          0 0 0 0 0 0
          0 0 0 0 0 0
          0 0 0 0 0 0
          0 0 0 0 0 0
          0 0 0 0 0 0
          0 0 0 0 0 0
          0 0 0 0 0 0
          0 0 0 0 0 0
          0 0 0 0 0 0
          0 0 0 0 0 0
          0 0 0 0 0 0
          0 0 0 0 0 0
          0 0 0 0 0 0
          0 0 0 0 0 0
          0 0 0 0 0 0
          0 0 0 0 0 0
          0 0 0 0 0 0
          0 0 0 0 0 0
          0 0 0 0 0 0
          0 0 0 0 0 0
          0 0 0 0 0 0
          0 0 0 0
        </DataArray>
        <DataArray type="Float64" Name="gradient_error" format="ascii" RangeMin="5.413663748058613e-12" RangeMax="6.396430344704898e-8">
          1.9044100529746102e-10 1.271383518527318e-10 2.473288829252572e-10 2.578231906197939e-10 1.8335410526237544e-10 8.452441641254489e-10
          4.303923138596835e-10 2.0822886368060815e-10 1.4656621198286795e-10 5.076663112268947e-8 1.4847060551754996e-9 1.025498153258966e-9
          1.765995623634553e-10 1.6439074121980016e-10 1.5961136360278473e-9 5.183784624951928e-9 2.8231102882116618e-8 1.947177866039668e-8
          6.193206478356859e-10 1.824416645899619e-8 1.0745675609162681e-8 5.539902222769289e-9 5.03722271381342e-9 7.489960994969888e-10
          2.6030250968439856e-8 2.1739807844637025e-8 3.306427051168947e-8 4.712769487632867e-9 2.574984583825681e-10 1.434556391904907e-10
          8.343146083312395e-9 5.152511703736777e-9 5.904973670524122e-11 1.8335831356197677e-10 3.8817231661365674e-10 3.612961201228035e-8
          9.079090776109596e-10 6.121662258357175e-10 7.81298842364001e-10 1.9818215418782715e-10 3.276286067807377e-10 1.3075775346285296e-10
          9.504314588922843e-10 4.688506226632668e-10 3.501803120880222e-11 3.498458194367691e-11 1.8753003095739123e-11 4.00096882186981e-11
          4.376011004039973e-11 6.126637334165708e-11 2.1485430158122855e-8 4.3483500380119105e-8 3.5969869076385205e-8 2.177010951100425e-8
          4.000109847689724e-8 2.3428993273340585e-8 1.7540462130952662e-8 5.047486818181807e-8 3.9513749475047544e-8 1.3371818717494756e-8
          5.83522988047586e-8 4.291775073054186e-8 1.3794377124060815e-8 2.0019716906322585e-8 2.3873777496629483e-8 3.4950513496218125e-8
          4.761079976015655e-8 5.770828570255445e-8 2.1821224473577774e-8 9.236026086851485e-9 1.3948137458868606e-8 1.0750738728668284e-8
          1.3305891499323125e-8 7.209660959873779e-9 1.4751009927415005e-8 1.8226557361180257e-9 3.531680578218324e-9 5.7869803592914215e-9
          1.1716924382478255e-9 5.8330871522588885e-9 7.3067762750760145e-9 1.6989494393968586e-8 4.766318980449628e-9 1.3083514569955816e-8
          9.33396333121368e-9 4.5888185332052225e-8 4.5271982955410334e-8 5.814424954069607e-9 2.652946215853721e-8 3.6143066937159724e-8
          7.771810840003845e-9 2.6423439826108105e-8 2.108921769271004e-8 5.424534147569595e-10 5.233609766460997e-8 4.2256241570116395e-8
          4.207953696890817e-8 4.573245400269609e-9 3.1173657534512385e-9 2.2759468077631862e-8 2.3490874568332818e-8 1.631382986630402e-8
          3.0980557413820376e-9 1.5364240039767937e-8 7.277345244805517e-10 3.038262548771648e-8 3.1145545749150525e-8 2.9059957541662283e-8
          5.34920928053773e-9 1.805073330050635e-8 3.6894747598061376e-9 1.3965442745386821e-8 3.81684779930151e-10 5.627959015493918e-10
          5.528965889776006e-10 2.6118588425644093e-8 2.0900003462718352e-8 7.763783930661266e-10 2.320481309840213e-9 9.82245655393181e-9
          1.3291740542267237e-10 4.995084004747142e-10 1.5202306235439638e-8 8.878298482233375e-10 3.210519377071395e-11 2.546708788178596e-11
          1.645361629664585e-10 5.031859692821885e-10 8.884632182308614e-11 7.464122147877922e-11 4.937642597121966e-10 1.8828981992857966e-11
          6.04361211344723e-11 4.843425501422045e-10 6.389078803302166e-10 4.92059127222685e-10 6.855364772797112e-10 9.808126291641742e-9
          6.301235970565634e-9 4.902719498977943e-9 7.656957287775281e-9 2.969329816108852e-10 3.567661604016888e-9 2.784899841922221e-9
          2.400171405874423e-10 2.0319208033822e-9 3.3309734150808285e-9 1.128941124702459e-9 1.6818383577114247e-10 1.4897045718383174e-10
          1.7739727496061368e-9 1.4003435992804197e-9 1.0431986411177245e-10 5.881611828083707e-10 4.1807158932482375e-8 3.647070547905383e-8
          3.938743808426114e-8 4.058380338110664e-8 3.278442644885206e-8 2.6072062016224125e-8 3.2859170922541777e-8 1.9834284516446247e-8
          3.463242488542504e-8 4.683089803367535e-8 4.470288422552006e-8 4.08815886566924e-8 4.359953785763161e-8 4.780836764421352e-8
          4.631201956914505e-8 4.8635074002201666e-8 3.772906640673008e-8 4.3782522785868396e-8 4.737104297034871e-8 2.9855225672526313e-8
          3.68099135400336e-8 4.187611759579789e-8 4.353863994167777e-8 5.43466360423745e-8 5.106338405936313e-8 5.310214278007325e-8
          5.4703339706542384e-8 5.437443178035314e-8 6.112647190512572e-8 6.179907496825085e-8 4.126940833345614e-8 5.136620024865159e-8
          5.581583731653855e-8 4.200528349726442e-8 4.840765031605099e-8 5.6420796167405104e-8 5.2281689095322264e-8 2.6582811306104065e-8
          3.436900312634178e-8 2.7002101209315114e-8 3.595533800140146e-8 1.697772911387276e-8 1.9826986818994653e-8 1.9665571791639376e-8
          3.6529685246526735e-8 3.860074574826269e-8 2.1852638452394713e-8 2.7309863997700002e-8 3.763719309324356e-8 2.7441127950015257e-8
          3.928252769677719e-8 1.6024268762499553e-8 1.9318996055291844e-8 2.2587130681260242e-8 4.089108441598022e-8 4.323886064650932e-8
          2.163051393755512e-8 6.970798644441232e-9 7.596948537881517e-9 8.158400182174759e-9 8.738646918849196e-9 6.627600463112029e-9
          7.843868914758318e-9 5.590877811062759e-9 6.525330575961286e-9 6.272868751783418e-9 6.7364633694424265e-9 9.346001719908287e-9
          9.880345299816874e-9 9.06013736640461e-9 7.459783340859815e-9 1.209360774725435e-8 1.0882940001097983e-8 1.2810878179342493e-8
          2.959854509877092e-8 2.8060672095960254e-8 2.5148665160078406e-8 2.6773744858780232e-8 8.89307631850354e-9 2.5932644290210214e-8
          2.3079958334631356e-8 7.860368843768754e-9 1.8131858458222637e-8 1.9724366345984695e-8 1.627816868711415e-8 2.7400620008086643e-8
          4.136688991988167e-8 5.0176696962407294e-8 3.2280802902585596e-8 4.5500033439860257e-8 6.21729570655017e-8 5.7503722207124815e-8
          5.569059825977656e-8 6.24489531996587e-8 2.9702930100535104e-8 4.3492249129776955e-8 4.435016846297916e-8 6.070223423430559e-8
          5.6275079488339946e-8 3.153063896793362e-8 5.1257209314116806e-8 2.6456112070791673e-8 6.396430344704898e-8 1.3581311591042944e-8
          2.8714387210623523e-8 1.1804569632562955e-8 2.22587320702409e-8 5.075332767412344e-8 4.4217667249524077e-8 3.403786324595245e-10
          6.538073010411636e-9 7.369558507392759e-9 3.9155777981957184e-8 2.7300661041807536e-8 4.0691928495333904e-8 2.6866831557854788e-8
          4.193025926357224e-8 1.873547250640469e-8 2.9374962326916e-8 2.8873432019224397e-8 4.5405099277231174e-8 4.754774106127616e-8
          3.351618387367159e-8 2.6115600517698767e-8 4.3016279622403746e-8 2.4935450753103484e-8 4.3687524487874084e-8 1.661185786574122e-8
          2.811423284788565e-8 2.7020211833948536e-8 4.9757585028621466e-8 5.170527304245115e-8 3.2911551650810337e-8 7.771557125338363e-9
          6.909925467573578e-9 2.3255549695509366e-8 2.0607089604183204e-8 5.084227715971816e-9 2.0115401528328778e-8 1.7707942153084003e-8
          4.898542226482313e-9 1.4197900522786e-8 1.1914005812182639e-8 2.5013740016585403e-8 2.20582939743742e-8 1.993051947156032e-8
          2.5815443607544128e-8 4.052066614365828e-9 3.5758944788407856e-9 1.6622199614443853e-8 1.4410592695040197e-8 2.5068709538171787e-9
          9.453301513664763e-9 1.9787061576040476e-8 1.7249844177269688e-8 2.1912003635290422e-8 2.0453209451100212e-8 9.36521802951193e-9
          1.572998957427799e-8 1.010179225424792e-8 1.2608209851803465e-8 3.695423874391241e-8 2.866490430062529e-8 5.610350696353043e-10
          1.4570199098392823e-9 1.5215711194355365e-9 4.507852182244339e-8 1.04619444214648e-8 1.2844067365307022e-8 1.028267267797084e-8
          2.4944718170684192e-8 1.9535035698455947e-8 8.937262176764365e-10 1.6697770440061284e-9 1.8245357138192659e-9 1.4713531638445695e-8
          2.326890669772805e-8 4.3712720492605364e-8 2.1066480886279827e-8 3.3950444557952506e-8 1.371234671657036e-8 2.553624784263632e-8
          2.3684626890772058e-8 5.3067199676513054e-8 3.6372272290787136e-8 3.088139400337471e-8 1.8413081115413818e-8 2.30017934817195e-8
          1.009356455221902e-8 2.1266336649256675e-8 1.8074029453155625e-8 2.6980723958066072e-8 1.207806788126271e-9 1.4765314009628168e-9
          1.4440900748915045e-9 1.4116487488201923e-9 1.4230852576343555e-9 1.768579219276258e-8 1.4254612388957549e-8 8.078755380934784e-9
          9.116337660746193e-10 9.850045435628091e-10 1.3733807751368036e-8 1.086059424265776e-8 1.0899717572716859e-9 5.025352739454859e-9
          8.098089039184834e-11 2.1778235117302764e-10 3.9826063804935037e-10 7.825286681178841e-10 6.277912039804846e-11 2.054233059775151e-10
          2.713787372396536e-11 2.3688269672455207e-10 4.08898789982933e-10 1.5510244237766545e-10 4.926868187514505e-11 1.2381221456579473e-10
          1.965471412326623e-11 9.801651246955093e-11 1.542230504567379e-11 2.7209970506641544e-11 6.166843710862557e-11 5.831848780073707e-11
          5.413663748058613e-12 1.7051798105171633e-11 1.7444869377294254e-11 1.0791456917157733e-10 8.942700509483259e-11 2.8689932462284658e-11
          2.0190207251194682e-8 3.0932979666122955e-8 2.8907037698244606e-8 2.332897533170966e-8 1.0769312740289541e-8 1.5913759906539638e-8
          1.2050664880026206e-8 2.1185880910900194e-8 1.9545016308689394e-8 3.146986266869621e-8 2.9280811292249943e-8 1.8661542065864006e-8
          3.178910776579194e-8 2.9442123472842795e-8 1.5201009655938408e-8 2.3316368419669776e-8 2.3120476544853408e-8 1.914824667544829e-8
          1.752605692963612e-8 3.1821258348657595e-8 2.93268979756643e-8 1.6155524969547144e-8 3.1478619374030084e-8 2.8863517380578413e-8
          1.331182291856487e-8 2.2699964091748117e-8 2.201368593363987e-8 1.008423697926742e-8 1.5520769292659362e-8 9.315365396413153e-9
          1.5004818780251575e-8 7.670606353136612e-9 1.1500561661782854e-8 1.0863823650689986e-8 8.492829124603859e-9 1.436462767474848e-8
          7.609496793087985e-9 1.3582778973036723e-8 6.2658795959019265e-9 1.0161864768671729e-8 9.386601465920454e-9 8.121183130132429e-9
          8.568752560023181e-9 9.232195168359029e-9 9.652896852895412e-9 5.873899350872039e-9 6.300864438246333e-9 6.492130445237045e-9
          1.0343207206585627e-8 1.0737041145767644e-8 6.727829525620625e-9 1.609788336706296e-8 1.4581848961036841e-8 3.0715316494563747e-8
          2.800221671130563e-8 1.0785472425375511e-8 2.102282216488582e-8 6.669945155230335e-9 1.264625476270439e-8 5.69723368480898e-9
          1.155905966732511e-8 4.83476001472037e-9 8.535982123684666e-9 7.618331261470381e-9 4.717412277374982e-9 1.0336819548293247e-8
          3.7774432293063394e-9 8.989284401108147e-9 3.38635912215407e-9 6.646580404337775e-9 5.649503807040501e-9 2.921248792632314e-9
          7.550410439695373e-9 2.1621252064922672e-9 6.125542896079355e-9 2.093706942108793e-9 4.66364934667579e-9 3.723556945632661e-9
          1.5119075677406434e-9 4.7900524596348504e-9 1.1097955711626726e-9 2.872487667576717e-9 1.0944176840001633e-8 1.0916517179173509e-8
          1.0725939693119618e-8 1.1028047688146414e-8 1.0888857518345385e-8 8.95539465558675e-9 1.0638176792086114e-8 1.1413515423678306e-8
          1.1074112491055246e-8 1.0734709558432182e-8 1.0446525326865389e-8 1.0056370386812703e-8 1.1660855397737813e-8 9.666215446760018e-9
          1.0264517710393034e-8 8.494532943543278e-9 8.480861001721102e-9 8.467189059898927e-9 8.006327347855455e-9 7.406031525943551e-9
          8.349946907792136e-9 6.640836080509241e-9 8.606517071032685e-9 9.320829169870331e-9 1.0708719373787025e-8 4.2780586843122236e-9
          6.639315000618617e-9 5.3804113374504215e-9 8.975442892980644e-9 1.0525266826585806e-8 1.0167626662289803e-8 1.0786015942778575e-8
          1.0781215977310982e-8 1.0636146406717243e-8 1.1668600284699384e-8 1.133493657788452e-8 1.215965899115857e-8 1.1811945127450284e-8
          1.0491076836123503e-8 1.1001272871069659e-8 1.1464231263741999e-8 1.2716207997989236e-8 1.2375805731023932e-8 1.3264847157253332e-8
          1.1901222343807025e-8 1.262763517805644e-8 1.2238216969245157e-8 1.3074404477854039e-8 1.2662557700680848e-8 1.1848798760433873e-8
          1.183841818765122e-8 1.4450843863543928e-8 1.4115745538883083e-8 1.3226145059658025e-8 1.3876384321963265e-8 1.0956820126286318e-8
          1.2108317422431474e-8 1.0280780149268828e-8 9.011229678021115e-9 9.979967454000649e-9 8.946102192062953e-9 1.2984843911845873e-8
          1.2832071440511832e-8 1.1901829286246438e-8 7.04506468589702e-9 8.092532625301787e-9 7.393067712242804e-9 7.496944330693802e-9
          1.024845756867174e-8 9.960326719470054e-9 4.0722828999958096e-10 3.2174231564639094e-9 7.389051236859086e-10 8.402600167176715e-9
          7.849615065009953e-9 8.019920922033653e-9 4.821375606454504e-9 6.759161091062271e-9 1.0735318053305316e-8 1.143079587992567e-8
          3.2759109123490135e-10 6.314852885396248e-10 5.967339549986761e-10 6.975185842121844e-9 1.0998504551018231e-8 1.1909683453297843e-8
          1.0632952186581075e-8 1.1462096116727487e-8 1.1040188975750145e-8 1.1711049484164212e-8 1.0985124223893322e-8 1.274835553391253e-8
          1.3532543098737947e-8 1.2181898100640966e-8 1.2901522326007608e-8 1.2511867155979185e-8 1.3291331651698235e-8 1.2461966915035492e-8
          1.1242918311793179e-8 1.0985548454055548e-8 1.0893892891076146e-8 1.014592007667294e-8 1.1225171803728665e-8 1.0800741154001817e-8
          1.0643900642988958e-8 9.672251222825122e-9 8.761430266423195e-9 8.433348128874518e-9 7.959198975818426e-9 8.291485612995575e-9
          8.138379257986742e-9 7.614779284615876e-9 1.0775924366995627e-8 1.0408508481678202e-8 1.0131204723406396e-8 9.356160823306382e-9
          9.86399006154134e-9 9.863686594452306e-9 9.522479458548002e-9 9.389437039129164e-9 7.950806606207692e-9 7.838784608286048e-9
          7.230384162163394e-9 7.97653055347224e-9 8.128252409881676e-9 7.037570156049428e-9 1.3483368981692942e-8 1.3058637554546187e-8
          1.3839340976477396e-8 1.337506676637504e-8 1.1858029142632792e-8 1.2053819234136174e-8 8.954115343356586e-9 1.2283577841767311e-8
          1.2961789369560739e-8 1.4892692212187994e-8 1.4114585441902982e-8 1.3603250511881548e-8 1.4276560489632656e-8 1.3728343766187007e-8
          1.217540822010696e-8 1.2209877604278523e-8 9.760357862450713e-9 1.143421581609877e-8 9.704514894733593e-9 1.42819883216362e-8