<?xml version="1.0"?>
<VTKFile type="UnstructuredGrid" version="0.1" byte_order="LittleEndian" header_type="UInt32" compressor="vtkZLibDataCompressor">
  <UnstructuredGrid>
    <Piece NumberOfPoints="1290" NumberOfCells="920">
      <PointData>
        <DataArray type="Int32" Name="libmesh_node_id" format="ascii" RangeMin="2322" RangeMax="11909">
          2322 2452 2661 2662 2668 2690
          2692 2693 2700 2701 2798 2799
          2801 3183 3184 3185 3188 3191
          3205 3206 3208 3211 3273 3274
          3275 3276 3277 3278 3279 3280
          3281 3282 3283 3284 3285 3286
          3482 3739 3740 3741 3742 3743
          3744 3745 3746 3747 3748 4465
          4466 4467 4468 4469 4470 4471
          4472 4474 4475 4476 4477 4567
          4568 4569 4570 4572 4573 4574
          4575 4576 4586 4587 4590 4591
          4592 4593 4604 4605 4606 4607
          4608 4609 4610 4611 4612 4613
          4621 4622 4623 4624 4625 4626
          4627 4917 4918 4919 4920 4921
          4922 4923 4924 4925 4926 4927
          4928 4929 4930 4931 4932 4933
          4934 4935 4936 4937 4938 4939
          4940 4941 4942 4943 4944 4945
          4946 4947 4948 4949 4950 4951
          4952 4953 4954 4955 4956 4957
          4958 4959 4960 4961 4962 4963
          4964 4965 4966 4967 4968 4969
          4970 4971 4972 4973 4974 4975
          4976 4977 4978 4979 4980 4981
          4982 4983 4984 4985 4986 4987
          4988 4989 4990 4991 4992 4993
          4994 4995 4996 4997 4998 5655
          5657 5658 5659 5661 5855 5860
          5862 5881 5882 5883 5884 5885
          5886 5887 5888 5889 5890 5891
          5892 5893 5894 5895 5896 5897
          5898 5899 5900 5901 5902 5903
          5904 5905 5906 5907 5908 5909
          5910 5911 5912 5913 5914 5949
          5951 5956 5958 5960 7897 7898
          7899 7902 7905 7907 7908 7909
          7910 7911 7912 7913 7914 7915
          7916 7917 7918 7919 7920 7923
          7924 7927 7929 8517 8518 8520
          8523 8525 8526 8527 8528 8529
          8530 8531 8532 8533 8534 8536
          8540 8542 8543 8544 8545 8546
          8547 8548 8549 8550 8551 8554
          8555 8557 8560 8562 8563 8564
          8565 8566 8567 8568 8569 8570
          8571 8573 8577 8579 8580 8581
          8582 8583 8584 8585 8658 8659
          8660 8661 8662 8663 8664 8665
          8666 8667 8678 8679 8680 8681
          8682 8683 8684 8685 8686 8687
          8693 8695 8696 8697 8698 8699
          8700 8701 8707 8709 8710 8711
          8712 8713 8714 8715 8786 8787
          8789 8792 8794 8795 8796 8797
          8798 8799 8800 8801 8802 8803
          8805 8807 8809 8811 8812 8813
          8814 8815 8816 8817 8820 8821
          8823 8826 8828 8829 8830 8831
          8832 8833 8834 8835 8836 8837
          8839 8841 8843 8845 8846 8847
          8848 8849 8850 8851 8909 8911
          8913 8915 8916 8917 8918 8919
          8920 8921 8923 8925 8927 8929
          8930 8931 8932 8933 8934 8935
          8937 8939 8941 8943 8944 8945
          8946 8947 8948 8949 8951 8953
          8955 8957 8958 8959 8960 8961
          8962 8963 9538 9539 9540 9541
          9545 9546 9573 9575 9576 9579
          9580 9761 9765 9767 9768 9771
          9772 9789 9793 9795 9796 9799
          9800 10501 10502 10503 10504 10505
          10506 10507 10508 10509 10510 10511
          10512 10513 10514 10515 10516 10517
          10518 10519 10520 10521 10522 10523
          10524 10525 10526 10527 10528 10529
          10530 10531 10532 10533 10534 10535
          10536 10537 10538 10539 10540 10541
          10542 10543 10544 10545 10546 10547
          10548 10549 10550 10551 10552 10553
          10554 10555 10556 10557 10558 10559
          10560 10561 10562 10563 10564 10565
          10566 10567 10568 10569 10570 10571
          10572 10573 10574 10575 10576 10577
          10578 10579 10580 10581 10582 10583
          10584 10585 10586 10587 10588 10589
          10590 10591 10592 10593 10594 10595
          10596 10597 10598 10599 10600 10601
          10602 10603 10604 10605 10606 10607
          10608 10609 10610 10611 10612 10613
          10614 10615 10616 10617 10618 10619
          10620 10621 10622 10623 10624 10625
          10626 10627 10628 10629 10630 10631
          10632 10633 10634 10635 10636 10637
          10638 10639 10640 10641 10642 10643
          10644 10645 10646 10647 10648 10649
          10650 10651 10652 10653 10654 10655
          10656 10657 10658 10659 10660 10661
          10662 10663 10664 10665 10666 10667
          10668 10669 10670 10671 10672 10673
          10674 10675 10676 10677 10678 10679
          10680 10681 10682 10683 10684 10685
          10686 10687 10688 10689 10690 10691
          10692 10693 10694 10695 10696 10697
          10698 10699 10700 10701 10702 10703
          10704 10705 10706 10707 10708 10709
          10710 10711 10712 10713 10714 10715
          10716 10717 10718 10719 10720 10721
          10722 10723 10724 10725 10726 10727
          10728 10729 10730 10731 10732 10733
          10734 10735 10736 10737 10738 10739
          10740 10741 10742 10743 10744 10745
          10746 10747 10748 10749 10750 10751
          10752 10753 10754 10755 10756 10757
          10758 10759 10760 10761 10762 10763
          10764 10765 10766 10767 10768 10769
          10770 10771 10772 10773 10774 10775
          10776 10777 10778 10779 10780 10781
          10782 10783 10784 10785 10786 10787
          10788 10789 10790 10791 10792 10793
          10794 10795 10796 10797 10798 10799
          10800 10801 10802 10803 10804 10805
          10806 10807 10808 10809 10810 10811
          10812 10813 10814 10815 10816 10817
          10818 10819 10820 10821 10822 10823
          10824 10825 10826 10827 10828 10829
          10830 10831 10832 10833 10834 10835
          10836 10837 10838 10839 10840 10841
          10842 10843 10844 10845 10846 10847
          10848 10849 10850 10851 10852 10853
          10854 10855 10856 10857 10858 10859
          10860 10861 10862 10863 10864 10865
          10866 10867 10868 10869 10870 10871
          10872 10873 10874 10875 10876 10877
          10878 10879 10880 10881 10882 10883
          10884 10885 10886 10887 10888 10889
          10890 10891 10892 10893 10894 10895
          10896 10897 10898 10899 10900 10901
          10902 10903 10904 10905 10906 10907
          10908 10909 10910 10911 10912 10913
          10914 10915 10916 10917 10918 10919
          10920 10921 10922 10923 10924 10925
          10926 10927 10928 10929 10930 10931
          10932 10933 10934 10935 10936 10937
          10938 10939 10940 10941 10942 10943
          10944 10945 10946 10947 10948 10949
          10950 10951 10952 10953 10954 10955
          10956 10957 10958 10959 10960 10961
          10962 10963 10964 10965 10966 10967
          10968 10969 10970 10971 10972 10973
          10974 10975 10976 10977 10978 10979
          10980 10981 10982 10983 10984 10985
          10986 10987 10988 10989 10990 10991
          10992 10993 10994 10995 10996 10997
          10998 10999 11000 11001 11002 11003
          11004 11005 11006 11007 11008 11009
          11010 11011 11012 11013 11014 11015
          11016 11017 11018 11019 11020 11021
          11022 11023 11024 11025 11026 11027
          11028 11029 11030 11031 11032 11033
          11034 11035 11036 11037 11038 11039
          11040 11041 11042 11043 11044 11045
          11046 11047 11048 11590 11591 11592
          11593 11597 11598 11600 11601 11602
          11603 11607 11608 11630 11631 11634
          11635 11637 11638 11658 11660 11668
          11670 11813 11814 11817 11818 11841
          11842 11845 11846 2802 2656 2660
          2657 3179 3180 3181 3182 3186
          3187 3483 2691 3686 3684 3687
          3685 3759 3760 3761 3762 4455
          4456 4457 4473 4460 4478 4481
          5656 4482 5660 4485 4584 4588
          5861 5856 5863 5864 5865 5859
          5866 4708 4706 5950 5952 5953
          5954 5955 5081 5083 5957 5959
          5961 5962 5091 5093 7893 7894
          7895 7896 7900 7901 7903 7904
          7906 7921 7922 7925 7926 7928
          7930 8515 8516 8519 8521 8522
          8524 8535 8538 8537 8539 4571
          8541 8552 8553 8556 8558 8559
          8561 8572 8575 8574 8576 8578
          8650 8651 8654 8656 4585 8670
          8671 8674 8676 4589 8689 8688
          8692 8691 8690 8694 8703 8702
          8706 8705 8704 8708 8784 8785
          8788 8790 8791 8793 8804 8806
          8808 8810 8818 8819 8822 8824
          8825 8827 8838 8840 8842 8844
          8908 8910 8912 8914 8922 8924
          8926 8928 8936 8938 8940 8942
          8950 8952 8954 8956 9530 9531
          9542 9543 9534 9544 9536 9547
          4707 4709 9569 9568 9572 9571
          9570 4713 9574 9577 9578 9581
          4714 9760 9763 9762 9764 4743
          9766 9769 9770 9773 4744 9788
          9791 9790 9792 4747 9794 9797
          9798 9801 4748 11594 11595 11596
          11599 5082 11604 11605 11606 11609
          5084 11632 11633 11636 5088 11639
          11640 11641 11642 11643 5089 11659
          11661 11662 11663 11664 11665 11666
          11667 11669 11671 11672 11673 11674
          11675 11676 11698 11699 11700 11702
          11703 11704 11705 11706 11709 11710
          11815 11816 11819 5121 11820 11821
          11822 11824 11825 11826 11843 11844
          11847 5125 11848 11849 11850 11852
          11853 11854 11869 11870 11873 11874
          11876 11877 11880 11881 11897 11898
          11901 11902 11904 11905 11908 11909
        </DataArray>
        <DataArray type="Float64" Name="bounds" format="ascii" RangeMin="0" RangeMax="0">
          0 0 0 0 0 0
          0 0 0 0 0 0
          0 0 0 0 0 0
          0 0 0 0 0 0
          0 0 0 0 0 0
          0 0 0 0 0 0
          0 0 0 0 0 0
          0 0 0 0 0 0
          0 0 0 0 0 0
          0 0 0 0 0 0
          0 0 0 0 0 0
          0 0 0 0 0 0
          0 0 0 0 0 0
          0 0 0 0 0 0
          0 0 0 0 0 0
          0 0 0 0 0 0
          0 0 0 0 0 0
          0 0 0 0 0 0
          0 0 0 0 0 0
          0 0 0 0 0 0
          0 0 0 0 0 0
          0 0 0 0 0 0
          0 0 0 0 0 0
          0 0 0 0 0 0
          0 0 0 0 0 0
          0 0 0 0 0 0
          0 0 0 0 0 0
          0 0 0 0 0 0
          0 0 0 0 0 0
          0 0 0 0 0 0
          0 0 0 0 0 0
          0 0 0 0 0 0
          0 0 0 0 0 0
          0 0 0 0 0 0
          0 0 0 0 0 0
          0 0 0 0 0 0
          0 0 0 0 0 0
          0 0 0 0 0 0
          0 0 0 0 0 0
          0 0 0 0 0 0
          0 0 0 0 0 0
          0 0 0 0 0 0
          0 0 0 0 0 0
          0 0 0 0 0 0
          0 0 0 0 0 0
          0 0 0 0 0 0
          0 0 0 0 0 0
          0 0 0 0 0 0
          0 0 0 0 0 0
          0 0 0 0 0 0
          0 0 0 0 0 0
          0 0 0 0 0 0
          0 0 0 0 0 0
          0 0 0 0 0 0
          0 0 0 0 0 0
          0 0 0 0 0 0
          0 0 0 0 0 0
          0 0 0 0 0 0
          0 0 0 0 0 0
          0 0 0 0 0 0
          0 0 0 0 0 0
          0 0 0 0 0 0
          0 0 0 0 0 0
          0 0 0 0 0 0
          0 0 0 0 0 0
          0 0 0 0 0 0
          0 0 0 0 0 0
          0 0 0 0 0 0
          0 0 0 0 0 0
          0 0 0 0 0 0
          0 0 0 0 0 0
          0 0 0 0 0 0
          0 0 0 0 0 0
          0 0 0 0 0 0
          0 0 0 0 0 0
          0 0 0 0 0 0
          0 0 0 0 0 0
          0 0 0 0 0 0
          0 0 0 0 0 0
          0 0 0 0 0 0
          0 0 0 0 0 0
          0 0 0 0 0 0
          0 0 0 0 0 0
          0 0 0 0 0 0
          0 0 0 0 0 0
          0 0 0 0 0 0
          0 0 0 0 0 0
          0 0 0 0 0 0
          0 0 0 0 0 0
          0 0 0 0 0 0
          0 0 0 0 0 0
          0 0 0 0 0 0
          0 0 0 0 0 0
          0 0 0 0 0 0
          0 0 0 0 0 0
          0 0 0 0 0 0
          0 0 0 0 0 0
          0 0 0 0 0 0
          0 0 0 0 0 0
          0 0 0 0 0 0
          0 0 0 0 0 0
          0 0 0 0 0 0
          0 0 0 0 0 0
          0 0 0 0 0 0
          0 0 0 0 0 0
          0 0 0 0 0 0
          0 0 0 0 0 0
          0 0 0 0 0 0
          0 0 0 0 0 0
          0 0 0 0 0 0
          0 0 0 0 0 0
          0 0 0 0 0 0
          0 0 0 0 0 0
          0 0 0 0 0 0
          0 0 0 0 0 0
          0 0 0 0 0 0
          0 0 0 0 0 0
          0 0 0 0 0 0
          0 0 0 0 0 0
          0 0 0 0 0 0
          0 0 0 0 0 0
          0 0 0 0 0 0
          0 0 0 0 0 0
          0 0 0 0 0 0
          0 0 0 0 0 0
          0 0 0 0 0 0
          0 0 0 0 0 0
          0 0 0 0 0 0
          0 0 0 0 0 0
          0 0 0 0 0 0
          0 0 0 0 0 0
          0 0 0 0 0 0
          0 0 0 0 0 0
          0 0 0 0 0 0
          0 0 0 0 0 0
          0 0 0 0 0 0
          0 0 0 0 0 0
          0 0 0 0 0 0
          0 0 0 0 0 0
          0 0 0 0 0 0
          0 0 0 0 0 0
          0 0 0 0 0 0
          0 0 0 0 0 0
          0 0 0 0 0 0
          0 0 0 0 0 0
          0 0 0 0 0 0
          0 0 0 0 0 0
          0 0 0 0 0 0
          0 0 0 0 0 0
          0 0 0 0 0 0
          0 0 0 0 0 0
          0 0 0 0 0 0
          0 0 0 0 0 0
          0 0 0 0 0 0
          0 0 0 0 0 0
          0 0 0 0 0 0
          0 0 0 0 0 0
          0 0 0 0 0 0
          0 0 0 0 0 0
          0 0 0 0 0 0
          0 0 0 0 0 0
          0 0 0 0 0 0
          0 0 0 0 0 0
          0 0 0 0 0 0
          0 0 0 0 0 0
          0 0 0 0 0 0
          0 0 0 0 0 0
          0 0 0 0 0 0
          0 0 0 0 0 0
          0 0 0 0 0 0
          0 0 0 0 0 0
          0 0 0 0 0 0
          0 0 0 0 0 0
          0 0 0 0 0 0
          0 0 0 0 0 0
          0 0 0 0 0 0
          0 0 0 0 0 0
          0 0 0 0 0 0
          0 0 0 0 0 0
          0 0 0 0 0 0
          0 0 0 0 0 0
          0 0 0 0 0 0
          0 0 0 0 0 0
          0 0 0 0 0 0
          0 0 0 0 0 0
          0 0 0 0 0 0
          0 0 0 0 0 0
          0 0 0 0 0 0
          0 0 0 0 0 0
          0 0 0 0 0 0
          0 0 0 0 0 0
          0 0 0 0 0 0
          0 0 0 0 0 0
          0 0 0 0 0 0
          0 0 0 0 0 0
          0 0 0 0 0 0
          0 0 0 0 0 0
          0 0 0 0 0 0
          0 0 0 0 0 0
          0 0 0 0 0 0
          0 0 0 0 0 0
          0 0 0 0 0 0
          0 0 0 0 0 0
          0 0 0 0 0 0
          0 0 0 0 0 0
          0 0 0 0 0 0
          0 0 0 0 0 0
          0 0 0 0 0 0
          0 0 0 0 0 0
          0 0 0 0 0 0
          0 0 0 0 0 0
          0 0 0 0 0 0
          0 0 0 0 0 0
          0 0 0 0 0 0
          0 0 0 0 0 0
        </DataArray>
        <DataArray type="Float64" Name="gradient_error" format="ascii" RangeMin="3.9649894832236405e-13" RangeMax="8.252731405926296e-10">
          3.8970752346579914e-10 1.6519198839541457e-11 1.7252324426030614e-11 1.0957623054071381e-11 1.6605892615940192e-10 3.1996930082700885e-12
          3.7215403483824274e-12 1.3829298017403108e-12 8.34157796770235e-11 2.8953474150810687e-11 3.109681568807282e-11 2.5448485548360567e-11
          9.827760114306293e-12 1.3330096436539629e-11 1.2094786391525954e-11 1.0329052920148744e-11 6.550930437540923e-12 2.2240697525918652e-11
          1.9771616095582774e-10 1.4315822361284428e-10 5.454957606286492e-11 3.4443066848203373e-10 1.0882991402632861e-11 8.50104686634084e-12
          8.362121478860229e-11 6.009967033867821e-11 2.902911038880766e-12 3.139478968243247e-11 2.2461442117249263e-11 4.09067229462004e-12
          2.2507487075046964e-11 8.312884383786904e-12 1.9486879718763395e-10 1.6379699023075441e-10 6.753478607879712e-11 7.378962473911498e-11
          2.5870464632856204e-12 5.977663225972308e-12 5.190636142451825e-12 4.83128361001047e-12 4.144308850050588e-12 1.8946007719002086e-12
          1.7451677115010579e-12 1.4891043796693048e-12 3.3966272781033093e-12 2.554519150715393e-12 9.234615512998985e-13 1.5150678181231063e-11
          1.3917379906324563e-11 1.0318626111008486e-11 1.4910503358239137e-11 8.302150818343207e-12 1.3471197691752831e-11 1.7943621713530592e-11
          1.1407006848257093e-11 2.0288849749651688e-11 1.709006935817809e-11 2.0338115058108193e-11 2.098349682979161e-11 7.35109989458793e-11
          6.830691567637997e-11 4.805378617924737e-11 4.462474829458166e-11 3.5753665871613965e-11 2.9009510624600234e-10 2.680148609602613e-10
          1.8238791749884955e-10 2.1124274590002985e-10 1.6631723692315164e-11 2.4784646049450202e-11 1.492816811690565e-11 1.4195678916620726e-10
          9.565348915502525e-11 8.147536757224492e-11 7.086287318118875e-10 6.589411403160707e-10 5.077506441492281e-10 4.706493189412915e-10
          5.273506154580706e-10 3.7337398354521217e-10 5.188039421803936e-10 5.136996277809747e-10 3.822745793152607e-10 4.724700224708853e-10
          3.5912665566166345e-10 2.5119006807343213e-10 2.0582283986295383e-10 1.4212881353869456e-10 3.7090563846280935e-10 2.644557922898105e-10
          2.3751183665321795e-10 1.7604440781965612e-11 1.664440983074745e-11 3.0589181780443124e-11 2.8391648402222628e-11 1.0227890068234662e-11
          1.8975174336579647e-11 1.7610357955157357e-11 1.3983055805413507e-11 2.2726992956023228e-11 1.4087659622344642e-11 1.3055358171934304e-10
          1.2029586755878864e-10 7.698621346001064e-11 9.413002949594363e-11 6.441645933159888e-12 6.054351873847627e-12 1.1477582664899974e-11
          1.0649236765484582e-11 3.497182785776572e-12 6.764538622778953e-12 6.274622211681122e-12 5.0291734462289664e-12 8.511796668691356e-12
          5.01092181809743e-12 5.199446800379094e-11 4.783746645767663e-11 2.886960141522596e-11 3.7274778431226633e-11 1.034950531375175e-11
          1.573087269148752e-11 6.259761765079756e-12 9.735477020088456e-12 6.771347761267915e-12 9.449149487992278e-12 5.83286267433043e-12
          6.261970908027518e-11 3.9842135772925274e-11 3.552634600562372e-11 3.696482636879847e-12 5.8729934181435265e-12 2.1306958982299816e-12
          3.452215418521925e-12 2.410989940257873e-12 3.510018972139211e-12 2.0573527510159497e-12 2.4641041840641793e-11 1.481390923921032e-11
          1.3870300382963251e-11 3.5042304715051696e-10 3.2394136793623506e-10 2.3316267868602597e-10 2.1506534849117304e-10 2.5510595236293935e-10
          1.6835635221755976e-10 2.811306812586406e-10 2.7347869506042575e-10 1.8818882662384044e-10 2.419088862757699e-10 1.4973937322419387e-10
          1.3787350465760276e-10 9.292319294267777e-11 8.544271794792324e-11 1.0742024756906717e-10 6.632593666075883e-11 1.2991793676572456e-10
          1.246827331842786e-10 7.962612835843964e-11 1.0701714808771279e-10 1.6991269185323954e-10 1.1123483490793555e-10 9.514683600663726e-11
          6.177145712655797e-11 1.821297401516179e-10 1.2123671330008693e-10 1.1244935903455247e-10 7.052555215059028e-11 4.332617576837474e-11
          3.890066336573969e-11 2.3767744744014655e-11 7.806042528531167e-11 4.865461804825119e-11 4.6939800987926604e-11 9.151022725583609e-12
          6.113746924942951e-12 1.56881188876429e-11 6.952497930569251e-12 1.069148763042057e-11 7.113551068663301e-12 4.608418579825623e-12
          2.897920111885145e-12 5.45048735162265e-12 5.3497761289985536e-12 1.573014711082342e-11 1.5036558514978668e-11 3.53992564735956e-12
          9.951167510763664e-12 9.407487954524919e-12 4.879414458041545e-12 1.2943772562188866e-11 7.93938094962018e-12 2.2854342952832242e-12
          2.174584625220702e-12 5.941611401104596e-12 5.607749994647013e-12 1.266309193472406e-12 3.437933115306578e-12 3.243152446234369e-12
          1.867515232760945e-12 4.713306238905013e-12 2.7223040929035777e-12 3.944446238124305e-12 9.839929002309087e-12 2.432188178791744e-12
          5.970905796445427e-12 2.808214648144948e-12 6.619282505378664e-12 4.004891982972899e-12 1.4466704844021129e-12 3.5296534831723982e-12
          8.384922616909447e-13 2.035777809163359e-12 1.0122115186682693e-12 2.3605773990337635e-12 1.355379346559332e-12 1.8043615606225552e-12
          1.1134809405340647e-12 6.691334639777861e-13 3.9649894832236405e-13 5.358893490595488e-13 5.7996514196481385e-12 8.2055790544814e-12
          8.046235155545561e-12 7.965501734022369e-12 1.6669392260728396e-11 4.778665494571335e-12 5.0600950810236655e-12 6.4558528043457095e-12
          6.362365352663415e-12 4.749190849747819e-12 5.635872137142674e-12 5.591829648751944e-12 5.341524667475996e-12 6.26887790098112e-12
          5.547787160361213e-12 1.3526494262252811e-11 1.315386750044903e-11 1.2119321351195908e-11 1.4265008315745923e-11 6.597384124940566e-12
          7.782785934926965e-12 7.442849181006268e-12 1.665535495380678e-11 3.5786754789932457e-11 3.525588121968283e-11 3.361901244354099e-11
          7.217409390167288e-11 2.8953643026993243e-11 2.8469542955539847e-11 2.326221867195605e-11 2.2816177877017632e-11 2.7044481066849363e-11
          2.156653884211757e-11 5.964436447134504e-11 5.855381310049709e-11 4.7173081035672195e-11 5.5399229921905573e-11 3.083502464462792e-11
          6.232508827655544e-11 1.6275850887001894e-11 2.4729330876844646e-11 1.2775902611570497e-11 1.96727633574873e-11 1.4265574352143915e-11
          2.177600434842898e-11 1.7336474171877115e-11 5.052177513035335e-11 4.068244344503528e-11 4.4420126476052067e-11 1.485849014580699e-10
          1.4576208077978806e-10 1.3761260678532152e-10 2.844131169011966e-10 1.217170121699019e-10 1.1938901830070298e-10 9.898465339428786e-11
          9.708082059636254e-11 1.12671259607056e-10 9.158920446796213e-11 2.404655164664691e-10 2.3570602200126026e-10 1.9376797541326607e-10
          2.219797097517351e-10 1.2503443057532228e-10 2.4272861389140394e-10 1.0231214195581376e-10 8.312705669810706e-11 8.940666094214866e-11
          7.25943006697562e-11 2.0084173428419256e-10 1.6488224906070038e-10 1.745695879782614e-10 1.2151955832917775e-11 1.8554529464341676e-11
          9.623472144173064e-12 1.4797447170986914e-11 1.005237636971093e-11 1.5303377789240296e-11 1.2222646173480719e-11 3.766628962142437e-11
          3.030386028757679e-11 3.082187122372471e-11 8.096386370995226e-12 1.2231699269784079e-11 6.443035157155523e-12 9.767037567202754e-12
          6.325628753381943e-12 9.467754699798346e-12 7.5521532120041e-12 2.435154794486507e-11 1.9570270025260636e-11 1.858925203722565e-11
          1.7665031125552717e-10 7.520551061059921e-11 6.101588038593874e-11 6.091539053400901e-11 4.937787668353579e-11 1.4576868943770577e-10
          1.1938762344680876e-10 1.1695304912611086e-10 1.0965832220551773e-10 4.753667471438073e-11 3.8494733225268164e-11 3.5764352740990467e-11
          2.8930025979108997e-11 9.019281278922587e-11 7.36581551854742e-11 6.689795822051385e-11 5.11342504211969e-10 5.01364471603682e-10
          4.725183304182982e-10 6.959207406202597e-10 4.295013828065792e-10 4.2098840550290946e-10 3.575429055304245e-10 3.503582344892925e-10
          3.964024492718012e-10 3.2962738141006836e-10 6.026893337259808e-10 5.916340157764676e-10 4.982428680025253e-10 5.595071926195246e-10
          4.2789852088705553e-10 3.7211869155189863e-10 6.010198658450268e-10 3.58446747068559e-10 2.9767864564414375e-10 3.111292621465805e-10
          2.579471411805927e-10 5.09322116654825e-10 4.27654276808111e-10 4.457373172386031e-10 6.475504249580842e-10 6.407014086056587e-10
          6.194842578283661e-10 5.181058159413508e-10 5.580543647873536e-10 5.517402333021189e-10 4.762353758631574e-10 4.705125769844328e-10
          5.323370440227934e-10 4.530502875233465e-10 4.5193442784368035e-10 4.507435989894979e-10 3.882060231883681e-10 4.453388064442935e-10
          5.826474418645108e-10 5.300129518176858e-10 5.001847613588072e-10 4.990770456288487e-10 4.234512693380707e-10 4.5219636268339254e-10
          3.8223914372660713e-10 4.3148342803438846e-10 3.686456288363541e-10 4.0529694250312407e-10 3.1058814956838593e-10 2.48681732747907e-10
          4.444092672014771e-10 2.591090339632849e-10 2.1439680238582597e-10 2.0696587956503908e-10 1.7088713330697284e-10 3.744889122384583e-10
          3.128183024606425e-10 3.016212753919973e-10 1.9097018346098892e-10 1.4067890378607606e-10 2.7792526465338174e-10 1.5854373534010528e-10
          1.3061941345291222e-10 1.1650681014331168e-10 9.577721519502915e-11 2.3262930124319537e-10 1.9313702521409913e-10 1.7170587501163595e-10
          4.6374846450890154e-10 3.885314799701282e-10 4.2863444297689877e-10 3.939193557948003e-10 3.3160186804990287e-10 3.2851907831157424e-10
          2.753689215259672e-10 3.6557712123795756e-10 3.0898095145107983e-10 3.1456268454634847e-10 3.106672709528534e-10 2.366151027887586e-10
          3.0485192273803784e-10 2.614965664459853e-10 2.1827507939393914e-10 1.9831602800078104e-10 1.648883832075e-10 2.571736412149429e-10
          2.151385912718211e-10 1.9939809187763017e-10 4.789278678072118e-12 7.097490507187957e-12 3.801050858317766e-12 5.657130008985032e-12
          1.3721308836586596e-11 1.1008516232525175e-11 5.827575471304304e-11 2.596408926722198e-11 2.097738584667771e-11 4.7764995259371735e-11
          3.888564498666058e-11 9.947593495443604e-11 1.4585597702628795e-10 8.218777143233306e-11 6.741923145797497e-11 1.2129817806037165e-10
          1.0012042896431435e-10 1.7154737589334501e-10 1.7535315700343942e-10 1.4322059978845909e-10 1.1865634525704545e-10 1.465816589996721e-10
          1.215899539160483e-10 1.1954248574308975e-11 1.1695243335048935e-11 1.840597910255757e-11 1.8054356792727958e-11 9.034457685463352e-12
          1.4431418341442864e-11 1.417242514753492e-11 1.1007559576549991e-11 1.7067518899576986e-11 1.3428267073755653e-11 3.846515062841624e-11
          3.775651772938936e-11 3.0023715113101506e-11 3.570895847689161e-11 7.138447794127646e-12 7.0187910193312105e-12 1.1296183601753277e-11
          1.1098159796558182e-11 5.454604513179218e-12 8.812126696646668e-12 8.65745484053136e-12 6.668420666024622e-12 1.05238868274372e-11
          8.209134550379865e-12 2.416787309079061e-11 2.3721020611670876e-11 1.8624125829125213e-11 2.2430995044498468e-11 1.002512898313717e-11
          1.558150029742263e-11 7.850867796710745e-12 1.2284143217941497e-11 8.84920860407702e-12 1.3749169788492402e-11 1.0853678608164944e-11
          3.254594854710926e-11 2.587252583164647e-11 2.8595348309227927e-11 6.123716955730359e-12 9.634144403623568e-12 4.757002900220326e-12
          7.514916312155302e-12 5.4341072473278175e-12 8.515754913349629e-12 6.642093793570675e-12 2.0438861366460687e-11 1.6044307901813596e-11
          1.7950337905430183e-11 7.992562220981879e-11 7.838156189999505e-11 6.408627644235587e-11 6.284351640775356e-11 7.39286580057145e-11
          5.926013622329408e-11 1.6128608297204924e-10 1.580408604597389e-10 1.2790964708258906e-10 1.4869159162780426e-10 5.103198083561585e-11
          5.003900892675306e-11 4.035846956480797e-11 3.957084890193955e-11 4.7176358259630814e-11 3.730053147580831e-11 1.0487652862136948e-10
          1.0274085960356069e-10 8.191023943500193e-11 9.659287229409423e-11 6.707010941414215e-11 5.3742894193580106e-11 5.853891564079866e-11
          4.688381409338063e-11 1.34323330159073e-10 1.0860412980402575e-10 1.1651609439055543e-10 4.277028760056285e-11 3.380707879662871e-11
          3.72951974276987e-11 2.946768802855375e-11 8.715815456672272e-11 6.943388086548387e-11 7.548870935419637e-11 4.2805945065441185e-12
          4.208126942637836e-12 6.831556077235521e-12 6.711551354280959e-12 3.2299425568739045e-12 5.2649538629699205e-12 5.172400312787789e-12
          3.9968360807224435e-12 6.363706298999389e-12 4.904057724831861e-12 1.480530429140974e-11 1.4530949288741407e-11 1.126451095841033e-11
          1.3738672053002535e-11 2.5052869952950456e-12 2.462913213178465e-12 4.032015229917727e-12 3.9610525460883625e-12 1.8683388456040187e-12
          3.069183859769383e-12 3.0150925273502347e-12 2.3391750903834096e-12 3.755278306761662e-12 2.8582292728846855e-12 8.840366243237395e-12
          8.675957666909895e-12 6.638510900758193e-12 8.201226520345451e-12 3.670019281853043e-12 5.825095020150414e-12 2.816790309634709e-12
          4.4884691871900885e-12 3.256656764357522e-12 5.1478085468183164e-12 3.9658724951725196e-12 1.2514817832859914e-11 9.698892965983354e-12
          1.0985849304782516e-11 2.1475638254038212e-12 3.4365602160950774e-12 1.6288061728896504e-12 2.61524882241032e-12 1.9052250611630075e-12
          3.0358425562791664e-12 2.3098255580133933e-12 7.468032659979801e-12 5.712669695959498e-12 6.5523224459007674e-12 3.169965305221613e-11
          3.107936566547625e-11 2.472913081091605e-11 2.4244056314306584e-11 2.929159213058118e-11 2.2846134018892125e-11 6.618142234071331e-11
          6.48216014428028e-11 5.0922161684913726e-11 6.090906008006458e-11 1.915988406163378e-11 1.8783195235645392e-11 1.4743440604112905e-11
          1.4452955964209016e-11 1.769772360664393e-11 1.3615962385836132e-11 4.0550232348725126e-11 3.971115919032508e-11 3.074324320690413e-11
          3.7297854803621893e-11 2.6541286564970874e-11 2.0696001764136224e-11 2.312612853462073e-11 1.8026867963609222e-11 5.4910809134150494e-11
          4.311021778108461e-11 4.7502114415624443e-11 1.6028466142801105e-11 1.2329034845702102e-11 1.3956830518476318e-11 1.0732288941673839e-11
          3.3600832661756666e-11 2.600019493616218e-11 2.9039447836184798e-11 7.597498406976703e-12 1.1743421132606536e-11 5.974743185483241e-12
          9.270476046869284e-12 6.319918224236595e-12 9.700603563937572e-12 7.653318041366435e-12 2.4229038926749096e-11 1.9250871493137565e-11
          1.980751401811309e-11 4.666192607430719e-12 7.272633399383327e-12 3.624711101113657e-12 5.671459245490166e-12 3.874958490170236e-12
          6.001644591248412e-12 4.67893082518595e-12 1.5199807179637717e-11 1.1924935509274622e-11 1.2414773408697413e-11 5.087610915361584e-12
          7.748588814623597e-12 3.995186962220054e-12 6.110873912045177e-12 3.964073706310439e-12 5.987305812426294e-12 4.719344812901393e-12
          1.563089884481339e-11 1.2406384773881537e-11 1.1914023603990748e-11 3.1184040527559772e-12 4.7901101440669e-12 2.4215177744595056e-12