<?xml version="1.0"?>
<VTKFile type="UnstructuredGrid" version="0.1" byte_order="LittleEndian" header_type="UInt32" compressor="vtkZLibDataCompressor">
  <UnstructuredGrid>
    <Piece NumberOfPoints="1341" NumberOfCells="903">
      <PointData>
        <DataArray type="Int32" Name="libmesh_node_id" format="ascii" RangeMin="2463" RangeMax="13409">
          2471 2472 2695 2696 2702 2706
          2707 2714 2715 2717 3291 3292
          3293 3296 3299 3313 3314 3317
          3319 3321 3322 3323 3324 3325
          3326 3327 3328 3329 3330 3331
          3332 3333 3334 3343 3348 3350
          3352 3354 3356 3357 3358 3360
          3366 3387 3754 3817 3818 3821
          3822 3824 3826 5017 5018 5019
          5022 5025 5039 5040 5043 5045
          5059 5060 5062 5065 5075 5077
          5079 5161 5162 5165 5167 5181
          5182 5185 5187 5197 5199 5201
          5211 5213 5215 5217 5218 5219
          5220 5221 5222 5223 5224 5225
          5226 5227 5228 5229 5230 5231
          5232 5233 5234 5235 5236 5237
          5238 5239 5240 5241 5242 5243
          5244 5245 5246 5247 5248 5249
          5250 5251 5252 5253 5254 5255
          5256 5257 5258 5259 5260 5261
          5262 5263 5264 5265 5266 5267
          5268 5269 5270 5271 5272 5273
          5274 5275 5276 5277 5278 5279
          5280 5281 5282 5283 5284 5285
          5286 5287 5288 5289 5290 5291
          5292 5293 5294 5295 5296 5297
          5298 5299 5300 5301 5302 5306
          5307 5313 5314 5317 5318 5320
          5322 5347 5349 5350 5351 5353
          5359 5363 5364 5365 5366 5367
          5368 5369 5370 5371 5372 5373
          5374 5375 5376 5377 5378 5379
          5380 5381 5382 5383 5384 5385
          5386 5387 5388 5389 5390 5391
          5392 5393 5394 5395 5396 5397
          5398 5399 5400 5401 5402 5403
          5404 5405 5406 5407 5408 5409
          5410 5411 5412 5413 5414 5415
          5416 5417 5418 5419 5420 5421
          5422 5423 5424 5425 5426 5427
          5723 5724 5725 5726 5727 5728
          5729 5730 5731 5732 5733 5734
          5735 5736 5737 5738 5739 5740
          5741 5742 5743 5744 5745 5746
          5747 5748 5749 5750 5751 5752
          5753 5754 5755 5756 5783 5784
          5787 5789 5929 5930 5931 5934
          5977 5978 5979 5980 5981 5982
          5983 5984 5985 5986 5987 5988
          5989 5990 5991 5992 5993 5994
          5995 5996 11149 11150 11151 11154
          11157 11171 11172 11175 11177 11191
          11192 11194 11197 11207 11209 11211
          11299 11319 11321 11323 11334 11335
          11338 11340 11422 11423 11425 11428
          11438 11440 11442 11456 11457 11459
          11462 11472 11474 11476 11542 11544
          11546 11556 11558 11560 11570 11572
          11574 11584 11586 11588 12103 12104
          12107 12109 12123 12124 12127 12129
          12235 12237 12239 12249 12251 12253
          12263 12265 12267 12277 12279 12281
          12351 12352 12355 12357 12377 12387
          12389 12391 12401 12403 12405 12407
          12408 12409 12410 12411 12412 12413
          12414 12415 12416 12417 12418 12419
          12420 12421 12422 12423 12424 12425
          12426 12427 12428 12429 12430 12431
          12432 12433 12434 12435 12436 12437
          12438 12439 12440 12441 12442 12443
          12444 12445 12446 12447 12448 12449
          12450 12451 12452 12453 12454 12455
          12456 12457 12458 12459 12460 12461
          12462 12463 12464 12465 12466 12467
          12468 12469 12470 12471 12472 12473
          12474 12475 12476 12477 12478 12479
          12480 12481 12482 12483 12484 12485
          12486 12487 12488 12489 12490 12491
          12492 12493 12494 12495 12496 12497
          12498 12499 12500 12501 12502 12503
          12504 12505 12506 12507 12508 12509
          12510 12511 12512 12513 12514 12515
          12516 12517 12518 12519 12520 12521
          12522 12523 12524 12525 12526 12527
          12528 12529 12530 12531 12532 12533
          12534 12535 12536 12537 12538 12539
          12540 12541 12542 12543 12544 12545
          12546 12547 12548 12549 12550 12551
          12552 12553 12554 12555 12556 12557
          12558 12559 12560 12561 12562 12563
          12564 12565 12566 12567 12568 12569
          12570 12571 12572 12573 12574 12575
          12576 12577 12578 12579 12580 12581
          12582 12583 12584 12585 12586 12587
          12588 12589 12590 12591 12592 12593
          12594 12595 12596 12597 12598 12599
          12600 12601 12602 12603 12604 12605
          12606 12607 12608 12609 12610 12611
          12612 12613 12614 12615 12616 12617
          12618 12619 12620 12621 12622 12623
          12624 12625 12626 12627 12628 12629
          12630 12631 12632 12633 12634 12635
          12636 12637 12638 12639 12640 12641
          12642 12643 12644 12645 12646 12647
          12648 12649 12650 12651 12652 12653
          12654 12655 12656 12657 12658 12659
          12660 12661 12662 12663 12664 12665
          12666 12667 12668 12669 12670 12671
          12672 12673 12674 12675 12676 12677
          12678 12679 12680 12681 12682 12683
          12684 12685 12686 12687 12688 12689
          12690 12691 12692 12693 12694 12695
          12696 12697 12698 12699 12700 12701
          12702 12703 12704 12705 12706 12707
          12708 12709 12710 12711 12712 12713
          12714 12715 12716 12717 12718 12719
          12720 12721 12722 12723 12724 12725
          12726 12727 12728 12729 12730 12731
          12732 12733 12734 12735 12736 12737
          12738 12739 12740 12741 12742 12743
          12744 12745 12746 12747 12748 12749
          12750 12751 12752 12753 12754 12755
          12756 12757 12758 12759 12760 12761
          12762 12763 12764 12765 12766 12767
          12768 12769 12770 12771 12772 12773
          12774 12775 12776 12777 12778 12779
          12780 12781 12782 12783 12784 12785
          12786 12787 12788 12789 12790 12791
          12792 12793 12794 12795 12796 12797
          12798 12799 12800 12801 12802 12803
          12804 12805 12806 12807 12808 12809
          12810 12811 12812 12813 12814 12815
          12816 12817 12818 12819 12820 12821
          12822 12823 12824 12825 12826 12827
          12828 12829 12830 12831 12832 12833
          12834 12835 12836 12837 12838 12839
          12840 12841 12842 12843 12844 12845
          12846 12847 12848 12849 12850 12851
          12852 12853 12854 12855 12856 12857
          12858 12859 12861 12862 12863 12864
          12865 12866 12867 12868 12869 12871
          12872 12873 12874 12875 12876 12877
          12878 12879 12881 12882 12883 12886
          12888 12889 12891 12906 12908 12910
          12912 12923 12924 12927 12929 12930
          12932 12943 12945 12947 12949 13039
          13041 13042 13043 13045 13050 13051
          13055 13056 13057 13058 13059 13060
          13061 13062 13063 13064 13065 13066
          13067 13068 13069 13070 13071 13072
          13073 13074 13075 13076 13078 13079
          13080 13082 13085 13089 13090 13091
          13092 13093 13094 13095 13096 13097
          13098 13099 13100 13101 13102 13103
          13114 13115 13116 13117 13118 13119
          13120 13121 13122 13123 13141 13142
          13143 13144 13145 13146 13147 13148
          13149 13150 13151 13152 13153 13154
          13155 13156 13157 13158 13159 13160
          13161 13162 13163 13164 13165 13166
          13167 13168 13169 13170 13171 13172
          13173 13174 13175 13176 13177 13178
          13179 13180 13181 13182 13183 13184
          13185 13186 13187 13188 13189 13190
          13191 13192 13193 13194 13195 13196
          13197 13198 13199 13200 13201 13202
          13203 13204 13205 13206 13207 13208
          13209 13210 13211 13212 13213 13214
          13215 13216 13217 13218 13219 13220
          13221 13222 13223 13224 13225 13226
          13227 13228 13229 13230 13231 13232
          13233 13234 13235 13236 13237 13238
          13239 13240 13241 13242 13243 13244
          13245 13246 13247 13248 13249 13250
          13251 13252 13253 13254 13255 13256
          13257 13258 13259 13260 13261 13262
          13263 13264 13265 13266 13267 13268
          13269 13270 13271 13272 13273 13274
          13275 13276 13277 13278 13279 13280
          13281 13282 13283 13284 13285 13286
          13287 13288 13289 13290 13291 13292
          13293 13294 13295 13296 13297 13298
          13299 13300 13301 13302 13303 13304
          13305 13306 13307 13308 13309 13310
          13311 13312 13313 13314 13315 13316
          13317 13318 13319 13320 13321 13322
          13323 13324 13325 13326 13327 13328
          13329 13330 13331 13332 13333 13334
          13335 13336 13337 13338 13339 13340
          13341 13342 13343 13344 13345 13346
          13347 13348 13349 13350 13351 13352
          13353 13354 13355 13356 13357 13358
          13359 13360 13361 13362 13363 13364
          13365 13366 13367 13368 13369 13370
          13371 13372 13373 13374 13375 13376
          13377 13378 13379 13380 13381 13382
          13383 13384 13385 13386 13387 13388
          13389 13390 13391 13392 13393 13394
          13395 13396 13397 13398 13399 13400
          13401 13402 13403 13404 13405 13406
          13407 13408 13409 2721 2807 2811
          2724 2726 2813 2815 2474 3349
          3351 2712 3353 3355 3342 2710
          3361 3359 3344 3362 3363 3364
          2713 3365 3367 2473 3368 2463
          3773 3774 3753 3775 3776 3755
          3778 3779 3781 3758 3782 3785
          3786 3335 3336 3791 3794 3769
          3796 3798 3772 2699 3381 3382
          3819 3820 3385 3823 3825 5303
          5304 5305 5308 5309 3337 5311
          5310 3338 5312 5315 5316 5319
          5321 5354 5356 5358 5355 5357
          5360 5361 5362 2716 5602 5636
          5642 5717 5721 12860 12870 12880
          12884 12885 12887 5323 12890 5324
          12907 12909 12911 5327 12925 12926
          12928 5329 12931 5330 12944 12946
          12948 5332 13040 13044 13046 13047
          13048 13049 13052 13053 13054 5348
          13077 13081 13083 13084 13086 13087
          13088 5352 13108 13109 13110 13113
          13126 13127 13130
        </DataArray>
        <DataArray type="Float64" Name="bounds" format="ascii" RangeMin="0" RangeMax="0">
          0 0 0 0 0 0
          0 0 0 0 0 0
          0 0 0 0 0 0
          0 0 0 0 0 0
          0 0 0 0 0 0
          0 0 0 0 0 0
          0 0 0 0 0 0
          0 0 0 0 0 0
          0 0 0 0 0 0
          0 0 0 0 0 0
          0 0 0 0 0 0
          0 0 0 0 0 0
          0 0 0 0 0 0
          0 0 0 0 0 0
          0 0 0 0 0 0
          0 0 0 0 0 0
          0 0 0 0 0 0
          0 0 0 0 0 0
          0 0 0 0 0 0
          0 0 0 0 0 0
          0 0 0 0 0 0
          0 0 0 0 0 0
          0 0 0 0 0 0
          0 0 0 0 0 0
          0 0 0 0 0 0
          0 0 0 0 0 0
          0 0 0 0 0 0
          0 0 0 0 0 0
          0 0 0 0 0 0
          0 0 0 0 0 0
          0 0 0 0 0 0
          0 0 0 0 0 0
          0 0 0 0 0 0
          0 0 0 0 0 0
          0 0 0 0 0 0
          0 0 0 0 0 0
          0 0 0 0 0 0
          0 0 0 0 0 0
          0 0 0 0 0 0
          0 0 0 0 0 0
          0 0 0 0 0 0
          0 0 0 0 0 0
          0 0 0 0 0 0
          0 0 0 0 0 0
          0 0 0 0 0 0
          0 0 0 0 0 0
          0 0 0 0 0 0
          0 0 0 0 0 0
          0 0 0 0 0 0
          0 0 0 0 0 0
          0 0 0 0 0 0
          0 0 0 0 0 0
          0 0 0 0 0 0
          0 0 0 0 0 0
          0 0 0 0 0 0
          0 0 0 0 0 0
          0 0 0 0 0 0
          0 0 0 0 0 0
          0 0 0 0 0 0
          0 0 0 0 0 0
          0 0 0 0 0 0
          0 0 0 0 0 0
          0 0 0 0 0 0
          0 0 0 0 0 0
          0 0 0 0 0 0
          0 0 0 0 0 0
          0 0 0 0 0 0
          0 0 0 0 0 0
          0 0 0 0 0 0
          0 0 0 0 0 0
          0 0 0 0 0 0
          0 0 0 0 0 0
          0 0 0 0 0 0
          0 0 0 0 0 0
          0 0 0 0 0 0
          0 0 0 0 0 0
          0 0 0 0 0 0
          0 0 0 0 0 0
          0 0 0 0 0 0
          0 0 0 0 0 0
          0 0 0 0 0 0
          0 0 0 0 0 0
          0 0 0 0 0 0
          0 0 0 0 0 0
          0 0 0 0 0 0
          0 0 0 0 0 0
          0 0 0 0 0 0
          0 0 0 0 0 0
          0 0 0 0 0 0
          0 0 0 0 0 0
          0 0 0 0 0 0
          0 0 0 0 0 0
          0 0 0 0 0 0
          0 0 0 0 0 0
          0 0 0 0 0 0
          0 0 0 0 0 0
          0 0 0 0 0 0
          0 0 0 0 0 0
          0 0 0 0 0 0
          0 0 0 0 0 0
          0 0 0 0 0 0
          0 0 0 0 0 0
          0 0 0 0 0 0
          0 0 0 0 0 0
          0 0 0 0 0 0
          0 0 0 0 0 0
          0 0 0 0 0 0
          0 0 0 0 0 0
          0 0 0 0 0 0
          0 0 0 0 0 0
          0 0 0 0 0 0
          0 0 0 0 0 0
          0 0 0 0 0 0
          0 0 0 0 0 0
          0 0 0 0 0 0
          0 0 0 0 0 0
          0 0 0 0 0 0
          0 0 0 0 0 0
          0 0 0 0 0 0
          0 0 0 0 0 0
          0 0 0 0 0 0
          0 0 0 0 0 0
          0 0 0 0 0 0
          0 0 0 0 0 0
          0 0 0 0 0 0
          0 0 0 0 0 0
          0 0 0 0 0 0
          0 0 0 0 0 0
          0 0 0 0 0 0
          0 0 0 0 0 0
          0 0 0 0 0 0
          0 0 0 0 0 0
          0 0 0 0 0 0
          0 0 0 0 0 0
          0 0 0 0 0 0
          0 0 0 0 0 0
          0 0 0 0 0 0
          0 0 0 0 0 0
          0 0 0 0 0 0
          0 0 0 0 0 0
          0 0 0 0 0 0
          0 0 0 0 0 0
          0 0 0 0 0 0
          0 0 0 0 0 0
          0 0 0 0 0 0
          0 0 0 0 0 0
          0 0 0 0 0 0
          0 0 0 0 0 0
          0 0 0 0 0 0
          0 0 0 0 0 0
          0 0 0 0 0 0
          0 0 0 0 0 0
          0 0 0 0 0 0
          0 0 0 0 0 0
          0 0 0 0 0 0
          0 0 0 0 0 0
          0 0 0 0 0 0
          0 0 0 0 0 0
          0 0 0 0 0 0
          0 0 0 0 0 0
          0 0 0 0 0 0
          0 0 0 0 0 0
          0 0 0 0 0 0
          0 0 0 0 0 0
          0 0 0 0 0 0
          0 0 0 0 0 0
          0 0 0 0 0 0
          0 0 0 0 0 0
          0 0 0 0 0 0
          0 0 0 0 0 0
          0 0 0 0 0 0
          0 0 0 0 0 0
          0 0 0 0 0 0
          0 0 0 0 0 0
          0 0 0 0 0 0
          0 0 0 0 0 0
          0 0 0 0 0 0
          0 0 0 0 0 0
          0 0 0 0 0 0
          0 0 0 0 0 0
          0 0 0 0 0 0
          0 0 0 0 0 0
          0 0 0 0 0 0
          0 0 0 0 0 0
          0 0 0 0 0 0
          0 0 0 0 0 0
          0 0 0 0 0 0
          0 0 0 0 0 0
          0 0 0 0 0 0
          0 0 0 0 0 0
          0 0 0 0 0 0
          0 0 0 0 0 0
          0 0 0 0 0 0
          0 0 0 0 0 0
          0 0 0 0 0 0
          0 0 0 0 0 0
          0 0 0 0 0 0
          0 0 0 0 0 0
          0 0 0 0 0 0
          0 0 0 0 0 0
          0 0 0 0 0 0
          0 0 0 0 0 0
          0 0 0 0 0 0
          0 0 0 0 0 0
          0 0 0 0 0 0
          0 0 0 0 0 0
          0 0 0 0 0 0
          0 0 0 0 0 0
          0 0 0 0 0 0
          0 0 0 0 0 0
          0 0 0 0 0 0
          0 0 0 0 0 0
          0 0 0 0 0 0
          0 0 0 0 0 0
          0 0 0 0 0 0
          0 0 0 0 0 0
          0 0 0 0 0 0
          0 0 0 0 0 0
          0 0 0 0 0 0
          0 0 0 0 0 0
          0 0 0 0 0 0
          0 0 0 0 0 0
          0 0 0 0 0 0
          0 0 0
        </DataArray>
        <DataArray type="Float64" Name="gradient_error" format="ascii" RangeMin="1.037825910631544e-14" RangeMax="1.0808924189965884e-11">
          9.986940730841278e-12 1.4317609679322064e-13 3.227086756266743e-13 7.080276849289658e-13 3.0919320241007174e-12 1.905051002054886e-13
          9.395603495506957e-14 7.078326873450126e-13 2.032927277873642e-13 8.075187284020473e-14 4.2564633300851804e-13 3.1190739402804216e-12
          2.2185256047099887e-12 8.059953474350363e-13 7.70458231152869e-12 3.752826718897087e-13 2.4211664793642935e-13 1.907485387300016e-13
          5.808765637236609e-13 4.1560868912466227e-13 4.1595035244051926e-13 8.227046427258295e-13 5.838196609495615e-13 1.5969806951622881e-13
          1.9185913993257492e-13 1.3591400418891071e-13 3.0648681399339126e-13 2.103699808598326e-13 9.534600304568248e-14 2.8343987196531996e-12
          2.150743838027439e-12 5.297772844275228e-13 8.42347710983254e-13 4.549540743036821e-14 7.040501248059489e-14 1.7465576112072276e-13
          1.0589803717338219e-13 1.2628589735743362e-13 1.5450245188964695e-13 1.0409546111813834e-13 1.6205125221042599e-13 5.873152075097831e-14
          8.687142771585405e-14 8.346039923730238e-14 1.8800384720066759e-13 6.516520918095529e-14 6.308403083221042e-14 2.3589312886271628e-14
          2.714153289877094e-14 6.381238759440475e-14 3.069375291127025e-14 2.958030798285851e-13 6.221246836087508e-13 5.761340948170361e-13
          5.536657103566556e-13 2.864069269690859e-12 6.206399594468854e-13 6.161958513225272e-13 5.15273254254367e-13 1.4522054976790655e-12
          9.952926141791799e-12 9.123135524053894e-12 7.021604264309594e-12 9.393869882869738e-12 4.531538417814566e-12 2.451248607275702e-12
          5.3559044287633115e-12 4.4164047982687095e-13 2.8404037076725005e-13 2.3460177664334993e-13 3.809218637036988e-13 9.667872800460208e-14
          1.9728799725300972e-13 1.1091140460214099e-13 2.1601874554907732e-13 1.1139820038782097e-12 4.27195790847946e-13 1.4723295676410757e-12
          1.6648644172815288e-13 1.444422004682428e-13 1.907039545832416e-13 3.3225162445782966e-13 3.0705769295268365e-13 4.745700790015853e-13
          4.4107392675367606e-13 4.1036167786675253e-13 4.1047126088900415e-13 3.822217278446426e-13 4.4600592661682877e-13 4.619004113412791e-13
          3.107444159904094e-13 1.6263423516757652e-12 1.4928335482317878e-12 7.550108708227996e-13 1.1552643965182033e-12 3.0945089380888186e-13
          2.881949764070515e-13 2.0783594627131982e-13 1.93178171674766e-13 1.3450214040826924e-13 9.75181136668027e-14 9.08598287192477e-14
          2.3343421861994025e-13 1.5558426447311108e-13 7.336149089469344e-14 4.037723816231567e-13 3.7049013432204665e-13 1.7602324598556056e-13
          2.8633629581002733e-13 6.494761860028673e-13 4.334913343331616e-13 3.3503521685961156e-13 2.2158901116886299e-13 4.174821929372331e-13
          2.7241166698112167e-13 1.368494759467631e-13 7.54936589176097e-13 3.811028723759304e-13 4.1799956001995873e-13 1.6446018039573338e-13
          1.0897142521157748e-13 7.626729405277038e-14 7.104244875422811e-14 1.0006145194639487e-13 8.842168517989415e-14 8.388977462804261e-14
          1.8643787535694216e-13 1.0420539532106734e-13 1.2063047323049647e-13 5.263101815558991e-12 4.822075566362596e-12 2.6983102363567946e-12
          2.471205364459239e-12 3.706486042068121e-12 1.897335493678472e-12 5.406701483125336e-12 5.072390902963904e-12 2.6529388426595717e-12
          4.134955241691291e-12 1.3413632859042831e-12 1.2280195613742872e-12 6.465824323419053e-13 5.917455575645075e-13 9.418723421576166e-13
          4.533929570422864e-13 1.4391541406132218e-12 1.3441737239525363e-12 6.598334400284307e-13 1.0842472115735758e-12 2.3874488502116104e-12
          1.2200821172708474e-12 1.2883501652364663e-12 6.569672333250938e-13 2.8551870872918134e-12 1.4759442302832974e-12 1.6385178816815184e-12
          6.047973379868015e-13 2.9046934360061004e-13 3.247670005680034e-13 1.553367891818125e-13 7.398493783705124e-13 3.5966059989393963e-13
          4.2011241402069536e-13 6.177515980774559e-14 5.805746291243709e-14 8.964682535824066e-14 8.340865637811755e-14 4.7782525877165054e-14
          6.71684938520433e-14 3.470888410188338e-14 6.726461812067861e-14 2.4486135753390646e-14 6.119580254281619e-14 7.917741490588332e-14
          6.395408242698499e-14 1.3497885306442966e-13 7.154521394937072e-14 5.2337641825295774e-14 1.6960255309476627e-13 9.52488861081214e-14
          6.704012593148106e-14 8.674658147244611e-14 2.284575616987906e-13 1.9024696334951407e-13 1.1397711223638544e-13 1.3834649609653758e-13
          1.1139557036184576e-13 1.6396810947679898e-13 1.5189383498013466e-13 2.321626288396918e-13 1.5483283564907158e-13 1.6421247185308242e-13
          5.755479075616041e-14 9.074403401082356e-14 2.981464796861617e-14 6.717090511659253e-14 4.397766017633848e-14 9.0587676423382e-14
          4.4975914293985606e-14 9.604639143651182e-14 8.408046022447124e-14 1.1586344098470446e-13 5.836825072374191e-13 2.964823806843855e-13
          2.2232133316339994e-13 1.3354097890793363e-13 7.76398376969287e-13 3.974277634564984e-13 3.0440708605815987e-13 1.455789724228865e-13
          8.292221031732833e-14 1.1220658386323345e-13 9.538493837339579e-14 1.9697083641981468e-13 9.452573096589479e-14 1.1930659284150701e-13
          1.4684863497030303e-13 1.4736363045239783e-13 1.19464582542507e-13 1.3380901321142293e-13 1.2778102505620011e-13 1.393675432521827e-13
          1.3035575260307186e-13 1.5533341238051777e-13 1.3908985215507594e-13 1.3327494877721516e-13 1.218203653637811e-13 1.1919158591744254e-13
          6.280996706947801e-14 8.58234814181145e-14 6.567068915954771e-14 8.64280317851016e-14 4.5572592334629535e-14 1.1810058503077727e-13
          1.0883699576675098e-13 1.0718537441065547e-13 5.822830219779261e-14 6.800082708452062e-14 4.4238377239770654e-14 7.016886262871667e-14
          6.32030283185073e-14 7.79915879264464e-14 6.431982276599006e-14 7.063604296240521e-14 9.079204053154758e-14 7.852140172822407e-14
          5.863539374276192e-14 1.0664798641758807e-13 4.5057142699931754e-14 7.319082532715441e-14 4.364056454035006e-14 6.647398390015034e-14
          5.1002077337904305e-14 1.800075176605025e-14 3.4454998133025965e-14 1.4080518053610788e-14 2.3758993125127166e-14 1.5221714491884452e-14
          2.3869064569936146e-14 1.7139843133839908e-14 4.266890177579527e-14 5.88750723273458e-14 2.9320109693029395e-14 3.957357735091039e-14
          2.921120540411438e-14 4.0008584626477505e-14 2.9304279197306474e-14 7.508124287889632e-14 4.9827045008791397e-14 5.080596384884063e-14
          3.2388697780753046e-14 4.388266120316544e-14 2.2675324345082754e-14 2.9195574975232165e-14 2.111534784173645e-14 2.7362409419384097e-14
          2.0827643712955083e-14 5.537662462557784e-14 3.571582560538157e-14 3.360947099703174e-14 8.565719774943768e-14 1.118964505620299e-13
          5.5079876914785453e-14 1.381357033746221e-13 1.277658186841753e-13 2.9979352955242954e-13 2.803944363246909e-13 2.60219365052716e-13
          7.720250726198702e-14 8.303789833660077e-14 1.448379969619961e-13 1.373387536808279e-13 6.919273299976438e-14 8.80051596360023e-14
          8.862380868925015e-14 8.88732894112145e-14 1.298395103996597e-13 8.9242457742498e-14 4.567682330923675e-14 5.865031804664541e-14
          3.333454991289698e-14 4.0589507547507883e-14 3.0149084038984374e-14 3.559691987616238e-14 2.8733979425110734e-14 7.162381278405405e-14
          4.784446518211879e-14 4.104475571334038e-14 1.660102502083281e-13 2.726785333558065e-13 2.671789161139062e-13 2.5387995189487923e-13
          6.104187863910075e-13 1.582432890801448e-13 2.331522885721741e-13 2.2013193016148446e-13 5.203623520502634e-13 1.4131367575986095e-12
          1.3848203873022e-12 1.3028400599064796e-12 3.0532006327380867e-12 1.1796511875293288e-12 1.0280333966135104e-12 2.574745543959806e-12
          4.4371194559858913e-13 8.578024862441472e-13 6.850083457311282e-13 1.8328181151770032e-12 3.3305974038385565e-13 5.255303962549593e-13
          3.8830695683831297e-13 1.10402280157807e-12 6.278006006723994e-12 6.14080705014546e-12 5.747044408119622e-12 9.738771964875377e-12
          5.146459684436381e-12 4.410304863050119e-12 8.181146957534881e-12 1.0808924189965884e-11 1.0611553337355104e-11 1.0035800962921658e-11
          9.83792636361607e-12 9.130969897167796e-12 7.977725676959821e-12 8.669713119241313e-12 3.6174398738396024e-12 2.8407133209585008e-12
          5.76676161951248e-12 2.1365838066114607e-12 1.54010458766791e-12 3.4069980261237164e-12 6.680572022544804e-12 5.353091839873898e-12
          6.568486786061907e-12 4.099445622785791e-12 2.9982413526114935e-12 4.168018255516993e-12 1.790340727126339e-13 2.7732372510477694e-13
          1.910346239380183e-13 5.654537538538207e-13 8.7245668002586e-14 1.2572532963050293e-13 9.812350047832156e-14 2.456124172295772e-13
          1.064971557654866e-12 7.067163086553067e-13 1.688383543091224e-12 4.506830675380338e-13 2.749945630477627e-13 7.043602493101725e-13
          2.0938184694052096e-12 1.396537849662936e-12 2.1855188377269822e-12 8.902024171834425e-13 5.430887921594036e-13 9.46030627621873e-13
          1.1897528118040638e-13 1.614354119060307e-13 1.0283554924239419e-13 2.498449023247531e-13 8.056438241301978e-14 3.184677174601249e-13
          1.7673260980114722e-13 3.411411729023985e-13 9.423733086127306e-14 6.717127158049094e-14 1.0222549071397143e-13 1.339011614786476e-13
          1.3080912060927348e-13 1.9369678716483755e-13 1.8989693768185854e-13 1.1947233171009822e-13 1.5966387844877347e-13 1.5671724562321397e-13
          1.2439800386510126e-13 1.8031720919589867e-13 1.4849660956132393e-13 4.4434180933676894e-13 4.360421195142412e-13 3.6517013753174667e-13
          4.114850956714136e-13 1.238070407779849e-13 1.6574191586946893e-13 1.0941490976458282e-13 1.3696624887298005e-13 1.2653515356566665e-13
          1.5694650154602003e-13 1.3070989142096668e-13 3.698628755025056e-13 3.0960768880028653e-13 3.7217080207985667e-13 1.025238706403536e-12
          1.0047181824025846e-12 7.37209626412731e-13 7.224977040206221e-13 9.449615099465239e-13 6.793715491748409e-13 2.260994489634392e-12
          2.2131493752978825e-12 1.5918640016167513e-12 2.0757479247657576e-12 3.1993039459278244e-13 3.1387611840195523e-13 5.213371151963049e-13
          5.108943187241577e-13 2.1542497520022966e-13 3.651124983382416e-13 3.577378790341995e-13 2.9549220696623314e-13 4.803715510672986e-13
          3.364156721225927e-13 1.1611480024804614e-12 1.1365013435964457e-12 8.052280754250923e-13 1.0656967389471243e-12 8.538469866444911e-13
          6.124559968549512e-13 7.412295569371314e-13 5.295424484925856e-13 1.865643490864033e-12 1.3414735779827963e-12 1.607066536807538e-12
          2.663787902868296e-13 4.3310056249090673e-13 1.8371921878034878e-13 3.036799622108061e-13 2.302637038033013e-13 3.746154454074928e-13
          2.631883480831164e-13 9.574532856360198e-13 6.782331921601416e-13 8.243145681566752e-13 1.5245944176348034e-13 1.4946522686621444e-13
          2.551506269063069e-13 2.499817644717195e-13 1.0414428755192194e-13 1.7759707423832473e-13 1.7400177714566794e-13 1.4085468965065473e-13
          2.3511047426946373e-13 1.6365379910288803e-13 5.785127405142293e-13 5.662120466693676e-13 3.9517829497182095e-13 5.308714598069336e-13
          7.329521673106222e-14 7.187053969416244e-14 1.2251536298722151e-13 1.2003797179024458e-13 5.0159428843743536e-14 8.380246375964155e-14
          8.210798925006824e-14 6.771052523699484e-14 1.1288061941547495e-13 7.720118515778205e-14 2.796311660516529e-13 2.7367358546870734e-13
          1.8776735076454407e-13 2.565612828092081e-13 1.2776597203971725e-13 2.12360562201316e-13 8.90448961659782e-14 1.4781990556281467e-13
          1.1146432487322496e-13 1.841864344535905e-13 1.2821535725258478e-13 4.768466114683532e-13 3.327500750200761e-13 4.104204199354815e-13
          6.129401307635587e-14 1.0189861907750133e-13 4.2623497820560593e-14 6.964072192708367e-14 5.358932948432506e-14 8.841453531070662e-14
          6.049267780871546e-14 2.3040952419332215e-13 1.5807840473174814e-13 1.9817139229903448e-13 3.868751499163404e-13 6.164205988193063e-13
          2.7270742588956624e-13 4.393725452937316e-13 3.0802093765177585e-13 4.915452375412216e-13 3.5047245381315386e-13 1.3270820737188673e-12
          9.536690600635946e-13 1.0509162154285667e-12 1.913680916600848e-13 3.1118016409948577e-13 1.3394608747224402e-13 2.1913247467214846e-13
          1.5341760869699187e-13 2.485906324530021e-13 1.753934692897504e-13 6.802719464348635e-13 4.816945743712315e-13 5.383752201951235e-13
          2.3715277145416125e-13 3.7739889249270516e-13 1.6869900169387993e-13 2.696318078606519e-13 1.7725474175815952e-13 2.794874796157683e-13
          2.002684950551981e-13 7.985349381426954e-13 5.734093716289678e-13 5.825620135246592e-13 1.1941229088527662e-13 1.9141728067383155e-13
          8.450657354051638e-14 1.3507387008615174e-13 9.021554808155769e-14 1.421277114797036e-13 1.0003408064882821e-13 4.0878427338491046e-13
          2.892373659890471e-13 2.9777093249815575e-13 9.358359242212526e-14 1.5343793807807232e-13 6.545487410410515e-14 1.0676674997842322e-13
          7.58796731717675e-14 1.2289783510997946e-13 8.551097494624506e-14 3.3856686031383277e-13 2.361058460198728e-13 2.6768553310933035e-13
          4.5821589913067615e-14 7.35582020148964e-14 3.2798149247636623e-14 5.0157996570026345e-14 3.846114563032902e-14 5.85367825863926e-14
          4.340386436524408e-14 1.6328939172858665e-13 1.1150230028415192e-13 1.2854130853106757e-13 5.999914625737872e-14 9.455894058570421e-14
          4.328413402514717e-14 6.548931815348506e-14 4.641691596368153e-14 6.956665995153573e-14 5.285045078036611e-14 2.0306671553132297e-13
          1.408489464235677e-13 1.4719102360675238e-13 3.19520067323944e-14 4.46968286920842e-14 2.7632627905206553e-14 3.617878027429478e-14
          2.9059081397600556e-14 3.820400553708314e-14 3.13924190562972e-14 9.630212937766422e-14 7.685526143179922e-14 8.072775889347013e-14
          4.5662786793815844e-12 4.4663107184418025e-12 3.296101092913176e-12 3.223823478777766e-12 4.17943148181939e-12 3.0164255820124153e-12
          7.265743948199976e-12 7.1089764919498854e-12 5.149253507793841e-12 6.658387415541502e-12 2.3611791394856424e-12 2.3093252159059104e-12
          1.6786481632146298e-12 1.6417324771994883e-12 2.160542831796455e-12 1.5358183690195743e-12 3.7830670673473655e-12 3.70103928948163e-12
          2.6396725946356676e-12 3.4653411494499977e-12 3.741933119437885e-12 2.7001817965787003e-12 3.20580450473456e-12 2.3127343620237323e-12