<?xml version="1.0"?>
<VTKFile type="UnstructuredGrid" version="0.1" byte_order="LittleEndian" header_type="UInt32" compressor="vtkZLibDataCompressor">
  <UnstructuredGrid>
    <Piece NumberOfPoints="1467" NumberOfCells="871">
      <PointData>
        <DataArray type="Int32" Name="libmesh_node_id" format="ascii" RangeMin="72" RangeMax="13140">
          76 77 78 79 80 81
          82 83 84 85 86 87
          88 89 90 91 92 93
          94 95 96 97 98 99
          100 101 102 103 104 105
          106 107 108 109 110 111
          112 113 114 115 116 117
          118 119 158 159 160 161
          162 163 164 165 166 167
          168 169 170 171 172 173
          174 175 176 177 178 179
          218 219 220 221 222 223
          224 225 226 227 228 229
          230 231 232 233 234 235
          236 237 238 239 278 279
          280 281 282 283 284 285
          286 287 288 289 290 291
          292 293 294 295 296 297
          298 299 319 320 321 322
          323 324 325 326 327 328
          329 349 350 351 352 353
          354 355 356 357 358 359
          398 399 400 401 402 403
          404 405 406 407 408 409
          410 411 412 413 414 415
          416 417 418 419 439 440
          441 442 443 444 445 446
          447 448 449 469 470 471
          472 473 474 475 476 477
          478 479 516 517 518 519
          520 521 522 523 524 525
          526 527 528 529 530 531
          532 533 534 535 536 537
          538 539 558 559 560 561
          562 563 564 565 566 567
          568 569 588 589 590 591
          592 593 594 595 596 597
          598 599 636 637 638 639
          640 641 642 643 644 645
          646 647 648 649 650 651
          652 653 654 655 656 657
          658 659 678 679 680 681
          682 683 684 685 686 687
          688 689 708 709 710 711
          712 713 714 715 716 717
          718 719 756 757 758 759
          760 761 762 763 764 765
          766 767 768 769 770 771
          772 773 774 775 776 777
          778 779 798 799 800 801
          802 803 804 805 806 807
          808 809 828 829 830 831
          832 833 834 835 836 837
          838 839 876 877 878 879
          880 881 882 883 884 885
          886 887 888 889 890 891
          892 893 894 895 896 897
          898 899 918 919 920 921
          922 923 924 925 926 927
          928 929 948 949 950 951
          952 953 954 955 956 957
          958 959 996 997 998 999
          1000 1001 1002 1003 1004 1005
          1006 1007 1008 1009 1010 1011
          1012 1013 1014 1015 1016 1017
          1018 1019 1038 1039 1040 1041
          1042 1043 1044 1045 1046 1047
          1048 1049 1068 1069 1070 1071
          1072 1073 1074 1075 1076 1077
          1078 1079 1116 1117 1118 1119
          1120 1121 1122 1123 1124 1125
          1126 1127 1128 1129 1130 1131
          1132 1133 1134 1135 1136 1137
          1138 1139 1158 1159 1160 1161
          1162 1163 1164 1165 1166 1167
          1168 1169 1188 1189 1190 1191
          1192 1193 1194 1195 1196 1197
          1198 1199 1238 1239 1240 1241
          1242 1243 1244 1245 1246 1247
          1248 1249 1250 1251 1252 1253
          1254 1255 1256 1257 1258 1259
          1279 1280 1281 1282 1283 1284
          1285 1286 1287 1288 1289 1309
          1310 1311 1312 1313 1314 1315
          1316 1317 1318 1319 1358 1359
          1360 1361 1362 1363 1364 1365
          1366 1367 1368 1369 1370 1371
          1372 1373 1374 1375 1376 1377
          1378 1379 1399 1400 1401 1402
          1403 1404 1405 1406 1407 1408
          1409 1429 1430 1431 1432 1433
          1434 1435 1436 1437 1438 1439
          1482 1483 1484 1485 1486 1487
          1488 1489 1490 1491 1492 1493
          1494 1495 1496 1497 1498 1499
          1521 1522 1523 1524 1525 1526
          1527 1528 1529 1551 1552 1553
          1554 1555 1556 1557 1558 1559
          1602 1603 1604 1605 1606 1607
          1608 1609 1610 1611 1612 1613
          1614 1615 1616 1617 1618 1619
          1641 1642 1643 1644 1645 1646
          1647 1648 1649 1671 1672 1673
          1674 1675 1676 1677 1678 1679
          1722 1723 1724 1725 1726 1727
          1728 1729 1730 1731 1732 1733
          1734 1735 1736 1737 1738 1739
          1761 1762 1763 1764 1765 1766
          1767 1768 1769 1791 1792 1793
          1794 1795 1796 1797 1798 1799
          1842 1843 1844 1845 1846 1847
          1848 1849 1850 1851 1852 1853
          1854 1855 1856 1857 1858 1859
          1881 1882 1883 1884 1885 1886
          1887 1888 1889 1911 1912 1913
          1914 1915 1916 1917 1918 1919
          1964 1965 1966 1967 1968 1969
          1970 1971 1972 1973 1974 1975
          1976 1977 1978 1979 2001 2002
          2003 2004 2005 2006 2007 2008
          2009 2031 2032 2033 2034 2035
          2036 2037 2038 2039 2084 2085
          2086 2087 2088 2089 2090 2091
          2092 2093 2094 2095 2096 2097
          2098 2099 2122 2123 2124 2125
          2126 2127 2128 2129 2151 2152
          2153 2154 2155 2156 2157 2158
          2159 2204 2205 2206 2207 2208
          2209 2210 2211 2212 2213 2214
          2215 2216 2217 2218 2219 2242
          2243 2244 2245 2246 2247 2248
          2249 2272 2273 2274 2275 2276
          2277 2278 2279 2324 2325 2326
          2327 2328 2329 2330 2331 2332
          2333 2334 2335 2336 2337 2338
          2339 2362 2363 2364 2365 2366
          2367 2368 2369 2392 2393 2394
          2395 2396 2397 2398 2399 2461
          2462 2463 2465 2466 2467 2468
          2470 2473 2475 2476 2477 2478
          2479 2480 2481 2482 2483 2484
          2485 2486 2487 2488 2523 2524
          2525 2526 2527 2528 2529 2530
          2531 2532 2694 2704 2705 2708
          2709 2710 2711 2712 2713 2716
          2806 2807 2808 2809 2810 2811
          2812 2813 2814 2815 2816 2817
          2818 2819 2820 2821 2822 2823
          2824 2825 2826 2827 2828 2829
          3335 3336 3337 3338 3339 3340
          3341 3342 3344 3345 3346 3347
          3349 3351 3353 3355 3359 3361
          3362 3363 3364 3365 3367 3368
          3399 3400 3401 3402 3403 3404
          3405 3406 3407 3408 3480 3481
          3484 3485 3486 3487 3490 3491
          3492 3493 3494 3495 3496 3497
          3498 3499 3500 3502 3504 3505
          3506 3753 3755 3758 3768 3769
          3773 3774 3775 3776 3777 3778
          3779 3780 3781 3782 3783 3784
          3785 3786 3787 3788 3789 3790
          3791 3792 3793 3794 3795 3796
          3797 3798 3799 3819 3820 3823
          3825 3827 3828 3829 3830 3831
          3832 3833 3834 3835 3836 3837
          3838 3839 3840 5303 5304 5305
          5308 5309 5310 5311 5312 5315
          5316 5319 5321 5323 5324 5325
          5326 5327 5328 5329 5330 5331
          5332 5333 5334 5335 5336 5337
          5338 5339 5340 5341 5342 5343
          5344 5345 5346 5348 5352 5354
          5355 5356 5357 5358 5360 5361
          5362 5489 5490 5491 5492 5493
          5494 5495 5496 5497 5498 5530
          5531 5532 5533 5534 5535 5536
          5537 5538 5539 5550 5552 5553
          5554 5555 5556 5558 5559 5601
          5602 5603 5604 5605 5606 5607
          5635 5636 5637 5638 5639 5640
          5641 5642 5643 5644 5645 5646
          5647 5648 5649 5650 5651 5652
          5653 5654 5706 5707 5708 5709
          5710 5711 5712 5713 5714 5715
          5716 5717 5718 5719 5720 5721
          5722 5997 5998 5999 6000 6001
          6002 6003 6004 6005 6006 6007
          6008 6009 6010 6011 6012 6013
          6014 6015 6016 6017 6018 6019
          6020 12860 12870 12880 12884 12885
          12887 12890 12892 12893 12894 12895
          12896 12897 12898 12899 12900 12901
          12902 12903 12904 12905 12907 12909
          12911 12913 12914 12915 12916 12917
          12918 12919 12920 12921 12922 12925
          12926 12928 12931 12933 12934 12935
          12936 12937 12938 12939 12940 12941
          12942 12944 12946 12948 12950 12951
          12952 12953 12954 12955 12956 12957
          12958 12959 12960 12961 12962 12963
          12964 12965 12966 12967 12968 12969
          12970 12971 12972 12973 12974 12975
          12976 12977 12978 12979 12980 12981
          12982 12983 12984 12985 12986 12987
          12988 12989 12990 12991 12992 12993
          12994 12995 12996 12997 12998 12999
          13000 13001 13002 13003 13004 13005
          13006 13007 13008 13009 13010 13011
          13012 13013 13014 13015 13016 13017
          13018 13019 13020 13021 13022 13023
          13024 13025 13026 13027 13028 13029
          13030 13031 13032 13033 13034 13035
          13036 13037 13038 13040 13044 13046
          13047 13048 13049 13052 13053 13054
          13077 13081 13083 13084 13086 13087
          13088 13104 13105 13106 13107 13108
          13109 13110 13111 13112 13113 13124
          13125 13126 13127 13128 13129 13130
          13131 13132 13133 13134 13135 13136
          13137 13138 13139 13140 72 73
          74 75 156 157 216 217
          276 277 318 348 396 397
          438 468 394 395 514 515
          437 557 467 587 634 635
          677 707 754 755 797 827
          874 875 917 947 994 995
          1037 1067 1114 1115 1157 1187
          1234 1236 1237 1235 1278 1277
          1308 1307 1356 1357 1398 1428
          1476 1478 1479 1477 1480 1481
          1519 1518 1520 1549 1548 1550
          1600 1601 1640 1670 1720 1721
          1760 1790 1840 1841 1880 1910
          1960 1962 1963 1961 2000 2030
          2082 2083 2081 2121 2120 2150
          2203 2241 2240 2271 2270 2361
          2391 2464 2469 2515 2456 2516
          2519 2474 2521 2720 2699 2721
          2724 2746 2747 2748 2751 2202
          2451 2800 2801 3482 3483 2802
          3488 2805 3489 3475 3501 3476
          3503 3479 2682 2718 2722 3772
          3533 2686 2723 5551 3534 3537
          2727 5557 3539
        </DataArray>
        <DataArray type="Float64" Name="bounds" format="ascii" RangeMin="0" RangeMax="0">
          0 0 0 0 0 0
          0 0 0 0 0 0
          0 0 0 0 0 0
          0 0 0 0 0 0
          0 0 0 0 0 0
          0 0 0 0 0 0
          0 0 0 0 0 0
          0 0 0 0 0 0
          0 0 0 0 0 0
          0 0 0 0 0 0
          0 0 0 0 0 0
          0 0 0 0 0 0
          0 0 0 0 0 0
          0 0 0 0 0 0
          0 0 0 0 0 0
          0 0 0 0 0 0
          0 0 0 0 0 0
          0 0 0 0 0 0
          0 0 0 0 0 0
          0 0 0 0 0 0
          0 0 0 0 0 0
          0 0 0 0 0 0
          0 0 0 0 0 0
          0 0 0 0 0 0
          0 0 0 0 0 0
          0 0 0 0 0 0
          0 0 0 0 0 0
          0 0 0 0 0 0
          0 0 0 0 0 0
          0 0 0 0 0 0
          0 0 0 0 0 0
          0 0 0 0 0 0
          0 0 0 0 0 0
          0 0 0 0 0 0
          0 0 0 0 0 0
          0 0 0 0 0 0
          0 0 0 0 0 0
          0 0 0 0 0 0
          0 0 0 0 0 0
          0 0 0 0 0 0
          0 0 0 0 0 0
          0 0 0 0 0 0
          0 0 0 0 0 0
          0 0 0 0 0 0
          0 0 0 0 0 0
          0 0 0 0 0 0
          0 0 0 0 0 0
          0 0 0 0 0 0
          0 0 0 0 0 0
          0 0 0 0 0 0
          0 0 0 0 0 0
          0 0 0 0 0 0
          0 0 0 0 0 0
          0 0 0 0 0 0
          0 0 0 0 0 0
          0 0 0 0 0 0
          0 0 0 0 0 0
          0 0 0 0 0 0
          0 0 0 0 0 0
          0 0 0 0 0 0
          0 0 0 0 0 0
          0 0 0 0 0 0
          0 0 0 0 0 0
          0 0 0 0 0 0
          0 0 0 0 0 0
          0 0 0 0 0 0
          0 0 0 0 0 0
          0 0 0 0 0 0
          0 0 0 0 0 0
          0 0 0 0 0 0
          0 0 0 0 0 0
          0 0 0 0 0 0
          0 0 0 0 0 0
          0 0 0 0 0 0
          0 0 0 0 0 0
          0 0 0 0 0 0
          0 0 0 0 0 0
          0 0 0 0 0 0
          0 0 0 0 0 0
          0 0 0 0 0 0
          0 0 0 0 0 0
          0 0 0 0 0 0
          0 0 0 0 0 0
          0 0 0 0 0 0
          0 0 0 0 0 0
          0 0 0 0 0 0
          0 0 0 0 0 0
          0 0 0 0 0 0
          0 0 0 0 0 0
          0 0 0 0 0 0
          0 0 0 0 0 0
          0 0 0 0 0 0
          0 0 0 0 0 0
          0 0 0 0 0 0
          0 0 0 0 0 0
          0 0 0 0 0 0
          0 0 0 0 0 0
          0 0 0 0 0 0
          0 0 0 0 0 0
          0 0 0 0 0 0
          0 0 0 0 0 0
          0 0 0 0 0 0
          0 0 0 0 0 0
          0 0 0 0 0 0
          0 0 0 0 0 0
          0 0 0 0 0 0
          0 0 0 0 0 0
          0 0 0 0 0 0
          0 0 0 0 0 0
          0 0 0 0 0 0
          0 0 0 0 0 0
          0 0 0 0 0 0
          0 0 0 0 0 0
          0 0 0 0 0 0
          0 0 0 0 0 0
          0 0 0 0 0 0
          0 0 0 0 0 0
          0 0 0 0 0 0
          0 0 0 0 0 0
          0 0 0 0 0 0
          0 0 0 0 0 0
          0 0 0 0 0 0
          0 0 0 0 0 0
          0 0 0 0 0 0
          0 0 0 0 0 0
          0 0 0 0 0 0
          0 0 0 0 0 0
          0 0 0 0 0 0
          0 0 0 0 0 0
          0 0 0 0 0 0
          0 0 0 0 0 0
          0 0 0 0 0 0
          0 0 0 0 0 0
          0 0 0 0 0 0
          0 0 0 0 0 0
          0 0 0 0 0 0
          0 0 0 0 0 0
          0 0 0 0 0 0
          0 0 0 0 0 0
          0 0 0 0 0 0
          0 0 0 0 0 0
          0 0 0 0 0 0
          0 0 0 0 0 0
          0 0 0 0 0 0
          0 0 0 0 0 0
          0 0 0 0 0 0
          0 0 0 0 0 0
          0 0 0 0 0 0
          0 0 0 0 0 0
          0 0 0 0 0 0
          0 0 0 0 0 0
          0 0 0 0 0 0
          0 0 0 0 0 0
          0 0 0 0 0 0
          0 0 0 0 0 0
          0 0 0 0 0 0
          0 0 0 0 0 0
          0 0 0 0 0 0
          0 0 0 0 0 0
          0 0 0 0 0 0
          0 0 0 0 0 0
          0 0 0 0 0 0
          0 0 0 0 0 0
          0 0 0 0 0 0
          0 0 0 0 0 0
          0 0 0 0 0 0
          0 0 0 0 0 0
          0 0 0 0 0 0
          0 0 0 0 0 0
          0 0 0 0 0 0
          0 0 0 0 0 0
          0 0 0 0 0 0
          0 0 0 0 0 0
          0 0 0 0 0 0
          0 0 0 0 0 0
          0 0 0 0 0 0
          0 0 0 0 0 0
          0 0 0 0 0 0
          0 0 0 0 0 0
          0 0 0 0 0 0
          0 0 0 0 0 0
          0 0 0 0 0 0
          0 0 0 0 0 0
          0 0 0 0 0 0
          0 0 0 0 0 0
          0 0 0 0 0 0
          0 0 0 0 0 0
          0 0 0 0 0 0
          0 0 0 0 0 0
          0 0 0 0 0 0
          0 0 0 0 0 0
          0 0 0 0 0 0
          0 0 0 0 0 0
          0 0 0 0 0 0
          0 0 0 0 0 0
          0 0 0 0 0 0
          0 0 0 0 0 0
          0 0 0 0 0 0
          0 0 0 0 0 0
          0 0 0 0 0 0
          0 0 0 0 0 0
          0 0 0 0 0 0
          0 0 0 0 0 0
          0 0 0 0 0 0
          0 0 0 0 0 0
          0 0 0 0 0 0
          0 0 0 0 0 0
          0 0 0 0 0 0
          0 0 0 0 0 0
          0 0 0 0 0 0
          0 0 0 0 0 0
          0 0 0 0 0 0
          0 0 0 0 0 0
          0 0 0 0 0 0
          0 0 0 0 0 0
          0 0 0 0 0 0
          0 0 0 0 0 0
          0 0 0 0 0 0
          0 0 0 0 0 0
          0 0 0 0 0 0
          0 0 0 0 0 0
          0 0 0 0 0 0
          0 0 0 0 0 0
          0 0 0 0 0 0
          0 0 0 0 0 0
          0 0 0 0 0 0
          0 0 0 0 0 0
          0 0 0 0 0 0
          0 0 0 0 0 0
          0 0 0 0 0 0
          0 0 0 0 0 0
          0 0 0 0 0 0
          0 0 0 0 0 0
          0 0 0 0 0 0
          0 0 0 0 0 0
          0 0 0 0 0 0
          0 0 0 0 0 0
          0 0 0 0 0 0
          0 0 0 0 0 0
          0 0 0 0 0 0
          0 0 0 0 0 0
          0 0 0 0 0 0
          0 0 0 0 0 0
          0 0 0 0 0 0
          0 0 0
        </DataArray>
        <DataArray type="Float64" Name="gradient_error" format="ascii" RangeMin="2.336125081438235e-16" RangeMax="3.509306264249906e-11">
          2.1268441183830684e-15 2.1268430706710866e-15 2.1268333125617703e-15 2.1268367522040177e-15 2.126829289378448e-15 2.126834705749723e-15
          2.1268662989236266e-15 2.1268552017486996e-15 2.126841219701893e-15 2.1268412533438767e-15 2.1268428997296944e-15 2.126842303623671e-15
          2.126842226871485e-15 2.1268419724504573e-15 2.1268407402963584e-15 2.1268409658056833e-15 2.1268417769037424e-15 2.126841783211685e-15
          2.1268411440053508e-15 2.1268412386247033e-15 2.126841629718021e-15 2.1268415908189538e-15 2.1268414867376517e-15 2.1268414115678313e-15
          2.126841652847174e-15 2.1268414888402835e-15 2.1268416591551337e-15 2.1268414546721938e-15 2.126841516174745e-15 2.1268414667624117e-15
          2.1268415697923842e-15 2.1268414625571307e-15 2.126841368989072e-15 2.126841484634959e-15 2.1268413721430513e-15 2.1268414084138305e-15
          2.1268415161747446e-15 2.1268415813569735e-15 2.1268415414065755e-15 2.126841509341149e-15 2.1268416633604123e-15 2.126841678078982e-15
          2.1268417390559025e-15 2.1268416244613663e-15 2.1268417201579337e-15 2.1268409050256024e-15 2.1268410325673927e-15 2.12684236198574e-15
          2.1268414825324378e-15 2.126841491995083e-15 2.1268415708437492e-15 2.126841227585746e-15 2.1268416044862024e-15 2.1268412943449688e-15
          2.1268415908189506e-15 2.1268413547962083e-15 2.126841488840289e-15 2.1268413064351934e-15 2.126841466762422e-15 2.1268413090635048e-15
          2.1268414846349694e-15 2.1268412659591297e-15 2.1268415813569837e-15 2.1268413500652288e-15 2.126841678078992e-15 2.1268414541465205e-15
          2.1268414173567624e-15 2.12684161820494e-15 2.1268419430137868e-15 2.1268406193977082e-15 2.126841678079015e-15 2.1268412764725188e-15
          2.1268414236580693e-15 2.1268412638564832e-15 2.1268414194527776e-15 2.1268412554458818e-15 2.1268416297180147e-15 2.126841373194407e-15
          2.1268416528471845e-15 2.1268413626811337e-15 2.1268415161747655e-15 2.126841262805133e-15 2.1268413689890923e-15 2.1268410872336512e-15
          2.126841516174765e-15 2.126841222854735e-15 2.126841663360433e-15 2.1268413984262113e-15 2.1268832365686804e-15 2.1268646362299994e-15
          2.1267504496004384e-15 2.126790502567399e-15 2.126833248710177e-15 2.1268361639689087e-15 2.126842714690069e-15 2.1268420381602333e-15
          2.1268419997851337e-15 2.126841753249099e-15 2.126841480429696e-15 2.1268414431076314e-15 2.126841352167894e-15 2.1268413600528464e-15
          2.1268412323167052e-15 2.126841296973274e-15 2.1268410977469465e-15 2.1268412197007956e-15 2.1268411692371256e-15 2.126841271741444e-15
          2.1268411755450728e-15 2.1268412911909743e-15 2.1268429316883398e-15 2.1268371066584315e-15 2.1268403944241856e-15 2.1268414094655063e-15
          2.1268414672882265e-15 2.126841463082827e-15 2.1268414525695458e-15 2.12684143522266e-15 2.1268414000032314e-15 2.1268414115678246e-15
          2.1268414530952107e-15 2.1268398274853604e-15 2.1268436577825035e-15 2.1268417096207312e-15 2.1268414573006152e-15 2.1268414278633894e-15
          2.126841520380088e-15 2.126841537201293e-15 2.126841508815478e-15 2.126841458351818e-15 2.1268414488898867e-15 2.126841499353546e-15
          2.1266316472675043e-15 2.126725466466702e-15 2.1271870688652637e-15 2.127035043291945e-15 2.126878966230645e-15 2.126865010784205e-15
          2.1268365781320297e-15 2.1268388831523914e-15 2.126837973209557e-15 2.126839183810286e-15 2.1268403933589003e-15 2.1268407161159297e-15
          2.126841066207194e-15 2.1268411603008785e-15 2.126841148210615e-15 2.126841198148597e-15 2.1268412028795792e-15 2.1268412344193525e-15
          2.126841076720425e-15 2.1268412228547632e-15 2.126840893789649e-15 2.126841182904361e-15 2.1268338660105923e-15 2.1268574028233384e-15
          2.126845254420552e-15 2.126841301185165e-15 2.1268410409759944e-15 2.12684130170438e-15 2.1268413684634494e-15 2.1268413637324613e-15
          2.1268414057855112e-15 2.126841395797917e-15 2.1268414141961257e-15 2.1268484463552856e-15 2.12683178792805e-15 2.1268394535033385e-15
          2.1268414141975772e-15 2.1268416875409744e-15 2.1268415645358017e-15 2.126841482532336e-15 2.1268414793783443e-15 2.1268415456118975e-15
          2.126841422606732e-15 2.126841356373179e-15 2.1361879186835167e-15 2.131787067698385e-15 2.127904091837465e-15 2.127425065482646e-15
          2.1255283978314623e-15 2.126103601957444e-15 2.126667449358381e-15 2.126733002001412e-15 2.1268501911149644e-15 2.1268452566195483e-15
          2.126852927313012e-15 2.1268487955850848e-15 2.1268452978018615e-15 2.1268438317257785e-15 2.1268422300256625e-15 2.1268417984561954e-15
          2.1268415897676136e-15 2.1268413700404372e-15 2.126841541406595e-15 2.1268413332440124e-15 2.1268415414065932e-15 2.126841395272259e-15
          2.126841554022502e-15 2.126841463608459e-15 2.1270334036750584e-15 2.1268771568422273e-15 2.1267779447073707e-15 2.126823818861881e-15
          2.126841257691052e-15 2.126842796696118e-15 2.1268416386559575e-15 2.1268411482107292e-15 2.1268409915629783e-15 2.126840972113441e-15
          2.1268410047045616e-15 2.1268410556938863e-15 2.126680590636862e-15 2.1268082745566273e-15 2.1268770833313155e-15 2.12684908307932e-15
          2.126842193257971e-15 2.126840929535079e-15 2.1268409116622198e-15 2.12684092953473e-15 2.1268408328126957e-15 2.1268408191454533e-15
          2.126840760271198e-15 2.1268407381933566e-15 2.091013235793947e-15 2.1077761461811816e-15 2.1224962778880947e-15 2.124437347341468e-15
          2.13184097022505e-15 2.129657755383849e-15 2.1276242477803336e-15 2.127327260864935e-15 2.126849824568155e-15 2.1268525015856544e-15
          2.1268060490234867e-15 2.126818099169886e-15 2.1268278921215667e-15 2.126832269818802e-15 2.1268387228065974e-15 2.126839381460802e-15
          2.1268415424581507e-15 2.1268412223293176e-15 2.1268420292220188e-15 2.1268415676899303e-15 2.126842274181044e-15 2.1268417490437094e-15
          2.1268424497525205e-15 2.126841870471884e-15 2.126040899245106e-15 2.1266889267529267e-15 2.1270899222980512e-15 2.1269180642907756e-15
          2.126844832017167e-15 2.1268353633321817e-15 2.1268387459467797e-15 2.1268403134587745e-15 2.126840625175965e-15 2.126840695089185e-15
          2.126840728205954e-15 2.1268407287316074e-15 2.1275427419217955e-15 2.1269994367110126e-15 2.1267053040534547e-15 2.1268058546320144e-15
          2.1268344854311818e-15 2.1268405773480788e-15 2.1268408443775228e-15 2.1268405868025412e-15 2.1268403481514457e-15 2.1268402840205294e-15
          2.126840232505534e-15 2.1268401662719665e-15 2.2924095189007e-15 2.215079658444585e-15 2.156792992976872e-15 2.143124616478456e-15
          2.1086043336224682e-15 2.1165150223877526e-15 2.1234453898416222e-15 2.1247345411816486e-15 2.12664542215396e-15 2.126695059073377e-15
          2.1269452053764157e-15 2.126909411708132e-15 2.126894325261696e-15 2.1268762059137177e-15 2.126857525862909e-15 2.1268516857292592e-15
          2.126846610908051e-15 2.126844344775478e-15 2.1268441991603685e-15 2.1268427683067984e-15 2.126843812272167e-15 2.126842531232316e-15
          2.126843803861782e-15 2.1268425149368328e-15 2.1308484981106866e-15 2.1278067268958828e-15 2.1258836559458985e-15 2.126504484848885e-15
          2.126806755518787e-15 2.126856892269617e-15 2.1268476971420148e-15 2.126841910977969e-15 2.1268402666783047e-15 2.1268400501027914e-15
          2.1268400737572775e-15 2.1268400800651422e-15 2.1239471982329033e-15 2.1261572138117257e-15 2.1273416007387604e-15 2.1269852771760944e-15
          2.126868815044781e-15 2.1268401664993856e-15 2.1268373077182894e-15 2.12683797636033e-15 2.1268384547137038e-15 2.1268387627523557e-15
          2.1268388973220904e-15 2.1268389341184013e-15 2.2110761796077156e-15 2.1532158389973928e-15 2.188608866345666e-15 2.1552774748698843e-15
          2.1996314983093302e-15 2.167941888615297e-15 2.1415981884812513e-15 2.1359904768141057e-15 2.1283054528291006e-15 2.127851660783277e-15
          2.1266368622369468e-15 2.1267022096668554e-15 2.126684055137048e-15 2.1267342079483942e-15 2.1267977778713813e-15 2.126810542221033e-15
          2.1268377083430474e-15 2.1268373761071333e-15 2.126847877760706e-15 2.1268442359785387e-15 2.126849988823486e-15 2.126845638450218e-15
          2.1268502253727622e-15 2.126845776174911e-15 2.1188307585931932e-15 2.1265618839928353e-15 2.1306448836324557e-15 2.1283065892039884e-15
          2.1270431824180537e-15 2.126791981965007e-15 2.126809475416233e-15 2.1268287559162964e-15 2.1268351025834455e-15 2.126836690084314e-15
          2.12683708696246e-15 2.1268371931468882e-15 2.142306018799317e-15 2.1311776845915673e-15 2.1250374883436473e-15 2.126230413261016e-15
          2.1266884960986546e-15 2.1268164068332504e-15 2.126834590072725e-15 2.1268342052619073e-15 2.1268331612956714e-15 2.1268327859722574e-15
          2.1268328858479712e-15 2.1268330593167172e-15 6.133848739997352e-15 4.311098408479403e-15 3.3370533464424596e-15 2.792351712582874e-15
          1.9738782068476254e-15 2.0344289596025667e-15 2.069828728430526e-15 2.091264289571824e-15 2.118619037022987e-15 2.1213093868183223e-15
          2.1268886375423374e-15 2.126886552163388e-15 2.127345165688503e-15 2.1271785148284964e-15 2.1270513148494474e-15 2.1269784206881435e-15
          2.126918438850714e-15 2.1268883284113363e-15 2.126879762584332e-15 2.1268620206005113e-15 2.1268705991344615e-15 2.126855753010771e-15
          2.1268689516971814e-15 2.126854644373924e-15 2.300609483715297e-15 2.1870466184153095e-15 2.1140679697257762e-15 2.120973334295998e-15
          2.1257346216203604e-15 2.1268998513007385e-15 2.1269140416471985e-15 2.126857121814217e-15 2.126834359023985e-15 2.126827803563311e-15
          2.1268262711910452e-15 2.1268260167611736e-15 2.1128708904691405e-15 2.12644315810733e-15 2.1331562270940447e-15 2.1292468178788735e-15
          2.1274695066270634e-15 2.1269152358170386e-15 2.1268162193259073e-15 2.1268087171015943e-15 2.1268105000760098e-15 2.1268113285099318e-15
          2.126811635495009e-15 2.1268116964716808e-15 2.1803690222954092e-14 1.3119034913918735e-14 9.707345135204772e-15 6.3923129661050626e-15
          3.3021032490445403e-15 2.785740455342934e-15 2.4027181314631702e-15 2.2988430128510233e-15 2.1703091914749396e-15 2.1560442908802298e-15
          2.130363526603103e-15 2.1290700499701863e-15 2.1259544717253884e-15 2.1262016449466527e-15 2.126393809647255e-15 2.1265159333386937e-15
          2.1267691232648592e-15 2.126773435190451e-15 2.126900800133296e-15 2.1268637600954724e-15 2.1269365017147245e-15 2.1268883555575322e-15
          2.1269431429764787e-15 2.126892954710914e-15 3.646601663736108e-15 2.725513040768109e-15 2.1883271607866114e-15 2.1563300075690605e-15
          2.1328583988922373e-15 2.1269844688420805e-15 2.1265625765434063e-15 2.1266899515752324e-15 2.1267612386248676e-15 2.126784795293476e-15
          2.1267910721547753e-15 2.1267922187429434e-15 2.8588237225888383e-15 2.373745284530865e-15 2.107276659931895e-15 2.1176921208992446e-15
          2.1239374074989544e-15 2.1261923643468905e-15 2.126676334918895e-15 2.126741846120332e-15 2.1267447301336925e-15 2.126742870529304e-15
          2.1267419349092115e-15 2.126741671040538e-15 3.6514787461795895e-14 2.1956494627931295e-14 6.927044012061169e-15 4.505110534265871e-15
          2.650455276399707e-15 2.3514939618008412e-15 1.9636187374943667e-15 2.0213211791086716e-15 2.100715671931929e-15 2.1099287412367645e-15
          2.1270299047685752e-15 2.1270399317287997e-15 2.128410676181745e-15 2.127872224593856e-15 2.127698096837718e-15 2.1273685549482937e-15
          2.127333986068123e-15 2.1271157527700197e-15 2.1272177610679736e-15 2.1270350374102557e-15 2.1271940763131393e-15 2.127018500448921e-15
          5.671307118597138e-15 2.1345507402202198e-15 2.107459960227901e-15 2.108867675452963e-15 2.1241608696382615e-15 2.1269967366774522e-15
          2.126943069874427e-15 2.126769359186769e-15 2.126696734525805e-15 2.12667448548704e-15 2.126669951666953e-15 3.944412443127584e-15
          2.1859244239698662e-15 2.1623872732538253e-15 2.13871173018295e-15 2.1291799287349227e-15 2.1269435146658803e-15 2.1265523667428874e-15
          2.126499705314669e-15 2.1264959495796926e-15 2.126496657221542e-15 2.126496978749203e-15 1.4489341036606032e-13 8.689707822123836e-14
          2.2622801666798292e-14 1.3471508142274575e-14 8.067681411431328e-15 5.865694536404432e-15 3.1550680797009327e-15 2.8528099647527685e-15
          2.297701362329929e-15 2.2412428400423784e-15 2.1459381937356507e-15 2.1390327878296226e-15 2.1277190201208113e-15 2.127105079860781e-15
          2.126974507776871e-15 2.1266926868273456e-15 2.127541285594436e-15 2.1271021407189373e-15 2.127813178505038e-15 2.1272939876471146e-15
          2.1278773875485704e-15 2.12733913735464e-15 2.045691124383542e-14 3.255598163722233e-15 2.8468807483351573e-15 2.318468471087708e-15
          2.1495938056162806e-15 2.127724607116964e-15 2.125876431240651e-15 2.126015590027016e-15 2.1261713425666975e-15 2.1262314455846757e-15
          2.126244916126056e-15 1.2013076411254454e-14 2.190981709693612e-15 2.030053835292778e-15 2.0863850923708107e-15 2.1144032934777327e-15
          2.1233218323103338e-15 2.1252617228805507e-15 2.1256203141762114e-15 2.125679689289956e-15 2.125688094380161e-15 2.125688945091403e-15
          2.6974164624366435e-14 1.786712900819137e-14 6.902763758984528e-15 5.396113587734435e-15 2.2972595264975837e-15 2.2205616383726238e-15
          2.0111186345306953e-15 2.0509090448060927e-15 2.1128164793952278e-15 2.117058714229407e-15 2.1299342478276415e-15 2.1283360230372207e-15
          2.131757319234062e-15 2.129501139237219e-15 2.1316988012427077e-15 2.1294409013824468e-15 2.1316286145729392e-15 2.1293888053385632e-15
          5.634305962537295e-15 3.1049958050331512e-15 2.1588000757765703e-15 2.1122937023257134e-15 2.1232221843525785e-15 2.125010330833574e-15
          2.1250719551167562e-15 2.125003480093012e-15 2.124980734914409e-15 2.5085185330582826e-15 2.32052819358196e-15 2.173736401305478e-15
          2.1338879495699363e-15 2.12514341964157e-15 2.123282863420348e-15 2.122898950993136e-15 2.122823958663838e-15 2.122812473724631e-15
          8.961559838446975e-14 5.819138901767346e-14 2.578367058223849e-14 1.9042583284787968e-14 6.980927529924862e-15 5.562072699780471e-15