<?xml version="1.0"?>
<VTKFile type="UnstructuredGrid" version="0.1" byte_order="LittleEndian" header_type="UInt32" compressor="vtkZLibDataCompressor">
  <UnstructuredGrid>
    <Piece NumberOfPoints="1226" NumberOfCells="876">
      <PointData>
        <DataArray type="Int32" Name="libmesh_node_id" format="ascii" RangeMin="2656" RangeMax="9857">
          2656 2657 2658 2659 2666 2667
          3169 3170 3171 3174 3177 3179
          3180 3181 3182 3186 3187 3189
          3190 3192 3195 3196 3198 3201
          3203 3204 3207 3209 3210 3212
          3215 3216 3221 4417 4418 4419
          4420 4421 4422 4423 4424 4425
          4426 4427 4428 4429 4430 4441
          4442 4443 4444 4445 4446 4447
          4448 4449 4450 4451 4452 4453
          4454 4455 4456 4457 4458 4459
          4460 4461 4462 4463 4464 4473
          4478 4479 4480 4481 4482 4483
          4484 4485 4486 4487 4488 4499
          4500 4501 4502 4503 4504 4505
          4506 4507 4508 4516 4517 4518
          4519 4520 4521 4522 4533 4534
          4535 4536 4537 4538 4539 4540
          4541 4542 4550 4551 4552 4553
          4554 4555 4556 4557 4558 4559
          4560 4561 4562 4563 4564 4565
          4566 4571 4577 4578 4579 4580
          4581 4582 4583 4584 4585 4588
          4589 4594 4595 4596 4597 4598
          4599 4600 4601 4602 4603 4614
          4615 4616 4617 4618 4619 4620
          4638 4639 4640 4641 4642 4643
          4644 4645 4646 4647 4660 4661
          4666 4675 4676 4677 4678 4679
          4680 4681 4690 4694 4696 4697
          4698 4699 4700 4701 4703 4704
          4705 4716 4717 4723 4736 4737
          4738 4740 4741 4742 4750 4754
          5656 5660 5833 5835 5837 5838
          5849 5854 5856 5858 5868 7721
          7722 7723 7726 7729 7731 7732
          7733 7734 7735 7736 7737 7738
          7739 7740 7741 7742 7743 7744
          7747 7748 7751 7753 7755 7756
          7757 7758 7759 7760 7761 7762
          7763 7764 7807 7808 7811 7813
          7815 7816 7817 7818 7819 7820
          7821 7822 7823 7824 7827 7828
          7831 7833 7835 7836 7837 7838
          7839 7840 7841 7842 7843 7844
          7845 7846 7847 7848 7849 7850
          7851 7852 7853 7854 7855 7856
          7857 7858 7859 7860 7861 7862
          7863 7864 7865 7866 7867 7868
          7869 7870 7871 7872 7873 7874
          7875 7876 7877 7878 7879 7880
          7881 7882 7883 7884 7885 7886
          7887 7888 7889 7890 7891 7892
          7893 7894 7895 7896 7900 7901
          7903 7904 7906 7921 7922 7925
          7926 7928 7930 7931 7932 7933
          7934 7935 7936 7937 7938 7939
          7940 7941 7942 7943 7944 7945
          7946 7947 7948 7949 7950 8021
          8022 8024 8027 8029 8030 8031
          8032 8033 8034 8035 8036 8037
          8038 8040 8042 8044 8046 8047
          8048 8049 8050 8051 8052 8055
          8056 8058 8061 8063 8064 8065
          8066 8067 8068 8069 8070 8071
          8072 8074 8076 8078 8080 8081
          8082 8083 8084 8085 8086 8144
          8146 8148 8150 8151 8152 8153
          8154 8155 8156 8158 8160 8162
          8164 8165 8166 8167 8168 8169
          8170 8172 8174 8176 8178 8179
          8180 8181 8182 8183 8184 8186
          8188 8190 8192 8193 8194 8195
          8196 8197 8198 8269 8270 8272
          8275 8277 8278 8279 8280 8281
          8282 8283 8284 8285 8286 8288
          8290 8292 8294 8295 8296 8297
          8298 8299 8300 8303 8304 8306
          8309 8311 8312 8313 8314 8315
          8316 8317 8318 8319 8320 8322
          8324 8326 8328 8329 8330 8331
          8332 8333 8334 8392 8394 8396
          8398 8399 8400 8401 8402 8403
          8404 8406 8408 8410 8412 8413
          8414 8415 8416 8417 8418 8420
          8422 8424 8426 8427 8428 8429
          8430 8431 8432 8434 8436 8438
          8440 8441 8442 8443 8444 8445
          8446 8447 8448 8449 8450 8451
          8452 8453 8454 8455 8456 8457
          8458 8459 8460 8461 8462 8463
          8464 8465 8466 8467 8468 8469
          8470 8471 8472 8473 8474 8475
          8476 8477 8478 8479 8480 8481
          8482 8483 8484 8485 8486 8487
          8488 8489 8490 8491 8492 8493
          8494 8495 8496 8497 8498 8499
          8500 8501 8502 8503 8504 8505
          8506 8507 8508 8509 8510 8511
          8512 8513 8514 8515 8516 8519
          8521 8522 8524 8535 8537 8538
          8539 8541 8552 8553 8556 8558
          8559 8561 8572 8574 8575 8576
          8578 8586 8587 8588 8589 8590
          8591 8592 8593 8594 8595 8596
          8597 8598 8599 8600 8601 8602
          8603 8604 8605 8606 8607 8608
          8609 8610 8611 8612 8613 8614
          8615 8616 8617 8618 8619 8620
          8621 8622 8623 8624 8625 8626
          8627 8628 8629 8630 8631 8632
          8633 8634 8635 8636 8637 8638
          8639 8640 8641 8642 8643 8644
          8645 8646 8647 8648 8649 8650
          8651 8652 8653 8654 8655 8656
          8657 8668 8669 8670 8671 8672
          8673 8674 8675 8676 8677 8688
          8689 8690 8691 8692 8694 8702
          8703 8704 8705 8706 8708 8716
          8717 8718 8719 8720 8721 8722
          8723 8724 8725 8726 8727 8728
          8729 8730 8731 8732 8733 8734
          8735 8736 8737 8738 8739 8740
          8741 8742 8743 8744 8745 8746
          8747 8748 8749 8750 8751 8752
          8753 8754 8755 8756 8757 8758
          8759 8760 8761 8762 8763 8764
          8765 8766 8767 8768 8769 8770
          8771 8772 8773 8774 8775 8776
          8777 8778 8779 8780 8781 8782
          8783 8784 8785 8788 8790 8791
          8793 8804 8806 8808 8810 8818
          8819 8822 8824 8825 8827 8838
          8840 8842 8844 8852 8853 8854
          8855 8856 8857 8858 8859 8860
          8861 8862 8863 8864 8865 8866
          8867 8868 8869 8870 8871 8872
          8873 8874 8875 8876 8877 8878
          8879 8880 8881 8882 8883 8884
          8885 8886 8887 8888 8889 8890
          8891 8892 8893 8894 8895 8896
          8897 8898 8899 8900 8901 8902
          8903 8904 8905 8906 8907 8908
          8910 8912 8914 8922 8924 8926
          8928 8936 8938 8940 8942 8950
          8952 8954 8956 9034 9035 9038
          9040 9042 9043 9044 9045 9046
          9047 9048 9049 9050 9051 9054
          9055 9058 9060 9062 9063 9064
          9065 9066 9067 9068 9069 9070
          9071 9073 9075 9077 9079 9080
          9081 9082 9083 9084 9085 9087
          9089 9091 9093 9094 9095 9096
          9097 9098 9099 9180 9181 9184
          9186 9216 9218 9220 9293 9295
          9297 9299 9300 9301 9302 9303
          9304 9305 9307 9309 9311 9313
          9314 9315 9316 9317 9318 9319
          9321 9323 9325 9327 9328 9329
          9330 9331 9332 9333 9335 9337
          9339 9341 9342 9343 9344 9345
          9346 9347 9412 9414 9416 9440
          9442 9444 9460 9461 9462 9463
          9464 9465 9466 9467 9468 9469
          9470 9471 9472 9473 9474 9475
          9476 9477 9478 9479 9480 9481
          9482 9483 9484 9485 9486 9487
          9488 9489 9490 9491 9492 9493
          9494 9495 9497 9498 9499 9500
          9501 9502 9503 9504 9505 9506
          9507 9508 9509 9510 9511 9512
          9513 9514 9515 9516 9517 9518
          9519 9520 9521 9522 9523 9525
          9526 9527 9528 9529 9530 9531
          9532 9533 9535 9536 9537 9548
          9549 9555 9568 9569 9572 9596
          9597 9598 9599 9600 9601 9602
          9603 9604 9605 9606 9607 9610
          9611 9613 9615 9616 9617 9618
          9619 9620 9621 9622 9623 9625
          9627 9704 9705 9706 9707 9708
          9709 9710 9711 9712 9713 9714
          9715 9716 9717 9718 9719 9720
          9721 9722 9723 9724 9725 9726
          9727 9729 9730 9731 9732 9733
          9734 9735 9736 9737 9738 9739
          9740 9741 9742 9743 9744 9745
          9746 9747 9748 9749 9750 9751
          9752 9753 9754 9755 9757 9758
          9759 9760 9764 9788 9792 9816
          9817 9818 9819 9820 9821 9822
          9823 9827 9844 9845 9846 9847
          9848 9849 9850 9851 9855 5859
          3223 5861 4706 5865 4710 5870
          4718 9496 4702 9524 3224 9534
          4707 9550 9551 9552 9553 9554
          9556 9557 4711 9570 9571 9574
          9582 9583 9584 9585 9586 9588
          9608 9609 9612 9614 4719 9624
          9626 9628 9629 4724 9728 4739
          9756 3230 9762 9766 9774 9776
          9778 9780 9790 9794 9802 9804
          9806 9808 9824 9825 9826 9828
          9829 4751 9852 9853 9854 9856
          9857 4755
        </DataArray>
        <DataArray type="Float64" Name="bounds" format="ascii" RangeMin="0" RangeMax="0">
          0 0 0 0 0 0
          0 0 0 0 0 0
          0 0 0 0 0 0
          0 0 0 0 0 0
          0 0 0 0 0 0
          0 0 0 0 0 0
          0 0 0 0 0 0
          0 0 0 0 0 0
          0 0 0 0 0 0
          0 0 0 0 0 0
          0 0 0 0 0 0
          0 0 0 0 0 0
          0 0 0 0 0 0
          0 0 0 0 0 0
          0 0 0 0 0 0
          0 0 0 0 0 0
          0 0 0 0 0 0
          0 0 0 0 0 0
          0 0 0 0 0 0
          0 0 0 0 0 0
          0 0 0 0 0 0
          0 0 0 0 0 0
          0 0 0 0 0 0
          0 0 0 0 0 0
          0 0 0 0 0 0
          0 0 0 0 0 0
          0 0 0 0 0 0
          0 0 0 0 0 0
          0 0 0 0 0 0
          0 0 0 0 0 0
          0 0 0 0 0 0
          0 0 0 0 0 0
          0 0 0 0 0 0
          0 0 0 0 0 0
          0 0 0 0 0 0
          0 0 0 0 0 0
          0 0 0 0 0 0
          0 0 0 0 0 0
          0 0 0 0 0 0
          0 0 0 0 0 0
          0 0 0 0 0 0
          0 0 0 0 0 0
          0 0 0 0 0 0
          0 0 0 0 0 0
          0 0 0 0 0 0
          0 0 0 0 0 0
          0 0 0 0 0 0
          0 0 0 0 0 0
          0 0 0 0 0 0
          0 0 0 0 0 0
          0 0 0 0 0 0
          0 0 0 0 0 0
          0 0 0 0 0 0
          0 0 0 0 0 0
          0 0 0 0 0 0
          0 0 0 0 0 0
          0 0 0 0 0 0
          0 0 0 0 0 0
          0 0 0 0 0 0
          0 0 0 0 0 0
          0 0 0 0 0 0
          0 0 0 0 0 0
          0 0 0 0 0 0
          0 0 0 0 0 0
          0 0 0 0 0 0
          0 0 0 0 0 0
          0 0 0 0 0 0
          0 0 0 0 0 0
          0 0 0 0 0 0
          0 0 0 0 0 0
          0 0 0 0 0 0
          0 0 0 0 0 0
          0 0 0 0 0 0
          0 0 0 0 0 0
          0 0 0 0 0 0
          0 0 0 0 0 0
          0 0 0 0 0 0
          0 0 0 0 0 0
          0 0 0 0 0 0
          0 0 0 0 0 0
          0 0 0 0 0 0
          0 0 0 0 0 0
          0 0 0 0 0 0
          0 0 0 0 0 0
          0 0 0 0 0 0
          0 0 0 0 0 0
          0 0 0 0 0 0
          0 0 0 0 0 0
          0 0 0 0 0 0
          0 0 0 0 0 0
          0 0 0 0 0 0
          0 0 0 0 0 0
          0 0 0 0 0 0
          0 0 0 0 0 0
          0 0 0 0 0 0
          0 0 0 0 0 0
          0 0 0 0 0 0
          0 0 0 0 0 0
          0 0 0 0 0 0
          0 0 0 0 0 0
          0 0 0 0 0 0
          0 0 0 0 0 0
          0 0 0 0 0 0
          0 0 0 0 0 0
          0 0 0 0 0 0
          0 0 0 0 0 0
          0 0 0 0 0 0
          0 0 0 0 0 0
          0 0 0 0 0 0
          0 0 0 0 0 0
          0 0 0 0 0 0
          0 0 0 0 0 0
          0 0 0 0 0 0
          0 0 0 0 0 0
          0 0 0 0 0 0
          0 0 0 0 0 0
          0 0 0 0 0 0
          0 0 0 0 0 0
          0 0 0 0 0 0
          0 0 0 0 0 0
          0 0 0 0 0 0
          0 0 0 0 0 0
          0 0 0 0 0 0
          0 0 0 0 0 0
          0 0 0 0 0 0
          0 0 0 0 0 0
          0 0 0 0 0 0
          0 0 0 0 0 0
          0 0 0 0 0 0
          0 0 0 0 0 0
          0 0 0 0 0 0
          0 0 0 0 0 0
          0 0 0 0 0 0
          0 0 0 0 0 0
          0 0 0 0 0 0
          0 0 0 0 0 0
          0 0 0 0 0 0
          0 0 0 0 0 0
          0 0 0 0 0 0
          0 0 0 0 0 0
          0 0 0 0 0 0
          0 0 0 0 0 0
          0 0 0 0 0 0
          0 0 0 0 0 0
          0 0 0 0 0 0
          0 0 0 0 0 0
          0 0 0 0 0 0
          0 0 0 0 0 0
          0 0 0 0 0 0
          0 0 0 0 0 0
          0 0 0 0 0 0
          0 0 0 0 0 0
          0 0 0 0 0 0
          0 0 0 0 0 0
          0 0 0 0 0 0
          0 0 0 0 0 0
          0 0 0 0 0 0
          0 0 0 0 0 0
          0 0 0 0 0 0
          0 0 0 0 0 0
          0 0 0 0 0 0
          0 0 0 0 0 0
          0 0 0 0 0 0
          0 0 0 0 0 0
          0 0 0 0 0 0
          0 0 0 0 0 0
          0 0 0 0 0 0
          0 0 0 0 0 0
          0 0 0 0 0 0
          0 0 0 0 0 0
          0 0 0 0 0 0
          0 0 0 0 0 0
          0 0 0 0 0 0
          0 0 0 0 0 0
          0 0 0 0 0 0
          0 0 0 0 0 0
          0 0 0 0 0 0
          0 0 0 0 0 0
          0 0 0 0 0 0
          0 0 0 0 0 0
          0 0 0 0 0 0
          0 0 0 0 0 0
          0 0 0 0 0 0
          0 0 0 0 0 0
          0 0 0 0 0 0
          0 0 0 0 0 0
          0 0 0 0 0 0
          0 0 0 0 0 0
          0 0 0 0 0 0
          0 0 0 0 0 0
          0 0 0 0 0 0
          0 0 0 0 0 0
          0 0 0 0 0 0
          0 0 0 0 0 0
          0 0 0 0 0 0
          0 0 0 0 0 0
          0 0 0 0 0 0
          0 0 0 0 0 0
          0 0 0 0 0 0
          0 0 0 0 0 0
          0 0 0 0 0 0
          0 0 0 0 0 0
          0 0 0 0 0 0
          0 0 0 0 0 0
          0 0
        </DataArray>
        <DataArray type="Float64" Name="gradient_error" format="ascii" RangeMin="2.3145149934161852e-12" RangeMax="1.844114490598392e-9">
          7.337295219494896e-11 4.785730379819197e-11 5.804119677388007e-11 4.412393369420151e-11 9.529272159913187e-10 5.714355737556546e-10
          7.688747281913135e-11 7.343180929486683e-11 6.15688432971679e-11 3.597383285942041e-11 4.471900696016845e-11 3.810595334550654e-11
          3.28445009265621e-11 3.130668880367512e-11 2.58414702124465e-11 2.0968665637853202e-11 1.5738426377815602e-11 2.640666204583243e-11
          2.5473455071106224e-11 2.6512032535658274e-11 7.445678037692954e-10 5.586144161606209e-10 2.2923161037136566e-10 9.71877460578839e-10
          4.1165950397465454e-10 3.0205872109031506e-10 1.1835019213556812e-10 6.629932292480059e-10 6.241974877072511e-10 3.28883950134485e-10
          1.8958271734940777e-11 5.1406605026709247e-11 1.3974276509688892e-10 8.505730078005562e-11 8.078685386995446e-11 5.649443537842355e-11
          5.353469660759424e-11 5.441387268567903e-11 3.8103755643650204e-11 3.613377450442555e-11 6.900685902149463e-11 4.551664834943027e-11
          3.061102302103088e-11 8.277207571102242e-11 7.763050536555131e-11 5.4382588422605733e-11 6.404856308983244e-11 5.2768802839854347e-11
          3.47738349016093e-11 3.4490608217399264e-11 3.339250982007719e-11 3.599318471612704e-11 4.704842827897944e-11 4.165303787378182e-11
          4.6348020915853005e-11 4.0866110785275624e-11 5.036268322768862e-11 3.7832892338109716e-11 3.592199031158648e-11 2.5264507300938656e-11
          2.3949264140307862e-11 2.2940727762305396e-11 1.6397271333159484e-11 1.5458522374162307e-11 3.019647231381758e-11 2.0229332431531333e-11
          1.931677790390265e-11 3.9661027120426634e-11 3.7117687331399514e-11 2.4629667887610627e-11 3.036240521228242e-11 2.3502106858764398e-11
          2.7026101437778593e-11 2.22063143732335e-11 3.217172678147792e-11 1.4263285457403597e-11 2.741145782005001e-11 1.5414365507152577e-11
          3.81965768383991e-11 2.568210842856591e-11 3.695538875208777e-11 3.042074461336657e-11 3.967515637823791e-11 3.0227368722280296e-10
          2.8241678553003613e-10 2.2202612283258707e-10 2.0704709763498248e-10 2.3017606130585194e-10 1.6787097198623882e-10 9.485169665075366e-10
          8.864315764266077e-10 6.934325918317284e-10 7.212115424660111e-10 1.6349707054674538e-10 1.1832681731375026e-10 1.0115464015174998e-10
          7.258310057917974e-11 5.067902463100465e-10 3.868295558145419e-10 3.0523950961839094e-10 1.844114490598392e-9 1.7376333246241599e-9
          1.5275559295504506e-9 1.4383612718574538e-9 1.453670374826674e-9 1.191723055904769e-9 1.1372713300894702e-9 1.1562631992999964e-9
          9.778592221217206e-10 1.149685183401136e-9 1.0610088551213286e-9 8.528565894454067e-10 6.576507947965466e-10 5.164070047488841e-10
          1.0082285214055928e-9 8.277166806013599e-10 7.170294592616696e-10 1.5813499135729104e-10 1.4725605332613256e-10 1.0933742111674761e-10
          1.0172883757784302e-10 1.1892639063270615e-10 8.18771978518777e-11 5.638856301280266e-10 5.234480899433988e-10 3.8111171549033967e-10
          4.1790170461949963e-10 5.483179535253854e-11 8.330615913589414e-11 5.7071135898576793e-11 5.0743619052470896e-11 3.459094845526838e-11
          2.8579000864374303e-10 2.0452997258908675e-10 1.6711547643059503e-10 2.5815966327546167e-11 3.8091828334788496e-11 1.7223461179818267e-11
          2.300552986511252e-11 1.2300250718242384e-9 1.1526294524558157e-9 9.519342390927763e-10 8.883761988008894e-10 9.425316160248333e-10
          7.181835197085942e-10 8.12474150858599e-10 8.227323219218368e-10 6.634504223097962e-10 7.9393770255654e-10 6.620636137502626e-10
          4.961830385904596e-10 3.9250543630945933e-10 2.888143332403902e-10 6.562648459823582e-10 5.02211529693341e-10 4.4072531127071737e-10
          5.113828242917446e-11 5.4761278950411177e-11 3.508026116362471e-11 3.896886557125467e-11 2.7675302427395916e-11 2.6228659686960152e-11
          1.84981102952341e-11 1.5757786647058875e-10 1.1654589503608574e-10 7.046960572241652e-11 1.1169964718495533e-11 9.789222356539111e-12
          1.9988765912710482e-11 3.4048138707017227e-10 2.6127755038489866e-10 1.476368938379854e-10 1.1106511982638332e-10 4.056697462888234e-10
          3.147630255874075e-10 1.8409071069904852e-10 4.0552800478932733e-11 5.158052579243452e-11 2.373583031329052e-11 2.706785686589091e-11
          1.5768890762768578e-11 1.8357242468367967e-11 1.2687092468443076e-11 1.2749983294050854e-11 8.391460526236166e-11 5.883376657048894e-11
          3.6580548596445164e-11 9.746528592905583e-12 8.767523359175715e-12 1.4050181058837277e-11 1.9467150814655498e-10 1.408496976690099e-10
          8.135985487635121e-11 2.369971744531947e-10 1.7316818174028812e-10 1.032337870941352e-10 2.925181383627816e-11 3.7504630204829885e-11
          2.4088689549991582e-11 1.6741074806858147e-11 5.182083994639718e-11 3.5331189868204574e-11 2.927364644055624e-11 1.9952363892886742e-11
          9.747467381155404e-12 2.3880107932175765e-11 1.5917413150233636e-11 1.3314336289091827e-11 6.4645811257951946e-12 2.7505696150775962e-11
          4.190512318523637e-11 4.1258547651671953e-11 3.9386108964444535e-11 8.145534563107009e-11 2.3088458435902724e-11 2.2741705285508202e-11
          3.48705383598938e-11 3.4332535801912134e-11 1.869366194925855e-11 2.8841804171109905e-11 2.839769505835742e-11 2.1722866412872453e-11
          3.276269938160712e-11 2.7091452340258598e-11 6.953613859025851e-11 6.842145413875013e-11 5.7103912759564276e-11 6.518415292800316e-11
          2.4402800251128023e-11 3.647530933448772e-11 3.2765077488135185e-11 7.165366721878362e-11 2.01250859068954e-11 3.030972216296908e-11
          1.6510794410013425e-11 2.5036590340303362e-11 1.8206884518464926e-11 2.7234839974116286e-11 2.2514593659511093e-11 6.013049937753789e-11
          5.013672726207817e-11 5.3688405857585046e-11 1.940762060566618e-11 2.8533591363944298e-11 2.4132505968648114e-11 5.5412655456982954e-11
          1.6387100880767008e-11 2.3692075744854415e-11 1.3925162981244694e-11 1.9535345742575092e-11 1.4680004571709228e-11 1.9911575903326718e-11
          1.7300595681189314e-11 4.632934118654401e-11 3.8395475142329934e-11 3.8522119780987896e-11 1.478749811739548e-11 1.9727190501750504e-11
          1.7516769676016914e-11 3.722957671709295e-11 1.297930284690984e-11 1.6256518936386096e-11 1.2363705724745622e-11 1.4630303082347687e-11
          1.2158420398164965e-11 1.449293641424941e-11 1.3129551344772346e-11 3.0843856495774703e-11 2.9266947824151375e-11 2.7578043743697727e-11
          1.555295002542289e-11 1.532735604535389e-11 2.3736843179161e-11 2.33706389871044e-11 1.2508492006685105e-11 1.9424585823708137e-11
          1.912115794633688e-11 1.4647112817106538e-11 2.2292367234688108e-11 1.823926159914343e-11 4.813408883130137e-11 4.735101764698195e-11
          3.9010366587308e-11 4.5077105568149964e-11 1.0276003791874788e-11 1.0113726285328383e-11 1.5783324477403654e-11 1.5525594869256967e-11
          8.196071754464356e-12 1.2749189731398599e-11 1.2532655015203977e-11 9.72495149649581e-12 1.4817768793744073e-11 1.1969948093189269e-11
          3.2469633326356414e-11 3.1930454628221926e-11 2.5949150764497902e-11 3.035501379381615e-11 1.3565006301266776e-11 2.0593783948125808e-11
          1.1187176550396823e-11 1.6852968860679152e-11 1.2325965184818166e-11 1.8512257659193375e-11 1.5127070027742276e-11 4.152714096368445e-11
          3.415140293965404e-11 3.699718026936832e-11 9.325729250566246e-12 1.3684945245743304e-11 7.952966993150328e-12 1.1032816525309391e-11
          8.874905848195946e-12 1.2205177316636425e-11 1.0320248607045278e-11 2.7857894204537448e-11 2.248003101998202e-11 2.4647582768415718e-11
          6.691692823480798e-12 6.7939487876610226e-12 1.0253738217562866e-11 1.0069140739386843e-11 6.88816711595111e-12 9.565848757017495e-12
          2.1327063907455105e-11 2.0911537888860677e-11 1.9758806776328715e-11 6.9813496274734115e-12 8.805836957508327e-12 7.082569774885851e-12
          8.36451966219249e-12 1.793416486134916e-11 1.8246880621928833e-11 1.1705996211877806e-11 1.6054341558146397e-11 9.764389708330557e-12
          1.3129122919238168e-11 1.1697611087724646e-11 1.4691436019829256e-11 1.2049250375028862e-11 3.1589946674462514e-11 2.5843742615673283e-11
          2.9970007546154586e-11 8.417623596795105e-12 1.0582182401367346e-11 7.937486585426836e-12 9.39260230145447e-12 8.238439784121176e-12
          9.756228334570588e-12 8.708173108272314e-12 2.093911924645824e-11 1.9615728062507013e-11 1.9872117381926717e-11 1.6021626141835453e-10
          1.575816154958197e-10 1.4993354601509893e-10 2.971864719361907e-10 1.3603952312427367e-10 1.337796973183481e-10 1.1470025562654933e-10
          1.1277811169974488e-10 1.2722340885550005e-10 1.0720466417610079e-10 2.6006909858377915e-10 2.55627241858225e-10 2.18184010311709e-10
          2.427417570369801e-10 1.3799833956147978e-10 1.2287925649882527e-10 2.5937134113203216e-10 1.1700062290969267e-10 9.852264626864296e-11
          1.0405949676307178e-10 8.752421949466287e-11 2.2266666557911008e-10 1.897204518320424e-10 1.9729667993852006e-10 5.501940246063875e-10
          5.408723413060196e-10 5.137764358000694e-10 9.326482007440042e-10 4.810213534995362e-10 4.727013950641706e-10 4.170149211219671e-10
          4.0966147285383023e-10 4.485433731074758e-10 3.8833434135148443e-10 8.439976553582288e-10 8.295223452184566e-10 7.314758244001873e-10
          7.874061603838272e-10 4.714028245046928e-10 4.175562747645604e-10 8.138845818364907e-10 4.1084644138401016e-10 3.551264158454669e-10
          3.63092100855281e-10 3.1318476324421927e-10 7.214380829758473e-10 6.339965022347439e-10 6.374539063454375e-10 1.0589800511013741e-10
          8.828568901760244e-11 1.9736348367600566e-10 8.968068520474012e-11 7.543994672172965e-11 7.484591713586167e-11 6.303412039990959e-11
          1.6886023597650487e-10 1.4342689724041183e-10 1.3959190448456785e-10 7.13010551497922e-11 5.5703789666675884e-11 1.3082948157273485e-10
          6.034501538362693e-11 5.071715328114192e-11 4.6965991661755166e-11 3.932235785457747e-11 1.1145149505112954e-10 9.42811209446571e-11
          8.597357518434442e-11 3.5685204245866094e-10 2.9410224351439527e-10 6.160976914683519e-10 3.0946578172328454e-10 2.662637288199409e-10
          2.5428359903274554e-10 2.1818853826878168e-10 5.42632715254385e-10 4.739156388732235e-10 4.445825948032336e-10 2.336938521948152e-10
          1.7906282133955345e-10 4.0106240747902165e-10 2.014205869052959e-10 1.7234023732091025e-10 1.5385073103471313e-10 1.3126809396521152e-10
          3.5034785878778053e-10 3.0365000411339453e-10 2.6551195943157626e-10 1.473831230635859e-9 1.4501510862735184e-9 1.3810542950715057e-9
          1.8167546312268622e-9 1.3326489637129123e-9 1.3107342879720377e-9 1.1955441367667613e-9 1.175299030643403e-9 1.2467498523781641e-9
          1.1162644161624542e-9 1.6810471403168046e-9 1.6566678287205082e-9 1.5049420483305283e-9 1.5852664221197815e-9 1.2720735653561807e-9
          1.1317136049415062e-9 1.6138945324297068e-9 1.1458505903265598e-9 1.0234159022589166e-9 1.016179324992494e-9 9.045781723614755e-10
          1.4713942055843004e-9 1.3316930346983785e-9 1.3217372016704155e-9 1.5341320302270471e-9 1.5237690161767162e-9 1.4912346754178514e-9
          1.143670218580461e-9 1.3984402009249133e-9 1.3906295772045745e-9 1.282039627340475e-9 1.275295012876159e-9 1.3652522661401527e-9
          1.2521851249389188e-9 1.0336526351090138e-9 1.0411355415646985e-9 9.607573927097523e-10 1.0581433483757428e-9 1.4342935773324243e-9
          1.3500481385345934e-9 1.162476186693375e-9 1.3170800841295595e-9 1.2055915340653147e-9 1.238842361525601e-9 1.1285503486747767e-9
          1.0707909288850962e-9 9.877819510927898e-10 1.0602569760787474e-9 9.707560071223097e-10 8.012795360071561e-10 1.265606884139357e-9
          8.681184051146647e-10 7.696407016066007e-10 7.131736385265083e-10 6.293760098650695e-10 1.1456708646077922e-9 1.0281604515128263e-9
          9.553452237580226e-10 6.352965952197551e-10 4.83196825469763e-10 8.537405669430444e-10 5.625364603218671e-10 4.940172297910832e-10
          4.2559635620932684e-10 3.719111401303683e-10 7.642398926311692e-10 6.784088979746651e-10 5.85135505956576e-10 1.2330408780935351e-9
          1.0823479125706502e-9 1.1017919982101135e-9 1.1259362584657301e-9 1.0193586143248885e-9 9.81874139738228e-10 8.831583060657093e-10
          1.0104129975753286e-9 9.18754585912642e-10 9.174140504480072e-10 9.075032348549694e-10 7.241986863409e-10 8.745322923009821e-10
          8.17661051170974e-10 7.305734222662506e-10 6.480381900375651e-10 5.751848556834144e-10 7.896937566576824e-10 7.071640677370863e-10
          6.427071173413477e-10 9.603813774173936e-11 9.441657170442505e-11 7.986471296429306e-11 7.850764321833948e-11 8.971817911683866e-11
          7.457936191928299e-11 1.8809025221109296e-10 1.8479840758025737e-10 1.553417445722689e-10 1.7526387085508552e-10 6.597086342140395e-11
          6.48477199635744e-11 5.41371524707806e-11 5.322724258566651e-11 6.158536275769819e-11 5.055344687460988e-11 1.3196718467610082e-10
          1.2961975618692173e-10 1.0738375213482266e-10 1.2282737068416126e-10 8.240828804076558e-11 6.848930494586911e-11 7.314715027555151e-11
          6.077884326658807e-11 1.6045045763604065e-10 1.3470907965034882e-10 1.4179821637500597e-10 5.659835703530048e-11 4.649473455079996e-11
          5.031867806174196e-11 4.139955851505411e-11 1.1228593848174748e-10 9.293749312025391e-11 9.902857396616641e-11 3.5845176784772486e-10
          3.5202082382410346e-10 3.055030551477489e-10 2.99938029953388e-10 3.3338752243348005e-10 2.83828247791399e-10 6.509515056311703e-10
          6.392305269772522e-10 5.53511324584409e-10 6.052213051501507e-10 2.582063483627837e-10 2.534410405491411e-10 2.1646100349840944e-10
          2.1242029321720487e-10 2.3965653379136913e-10 2.0074026232468326e-10 4.839878725522974e-10 4.749103810242471e-10 4.0380869579443853e-10
          4.4863808076412395e-10 3.0443047960031793e-10 2.5883645792337316e-10 2.6796103709270986e-10 2.274406255036021e-10 5.522302228188666e-10
          4.767237186232767e-10 4.852751914759105e-10 2.1830456675320665e-10 1.8267540748365444e-10 1.9154065989406115e-10 1.600768633897771e-10
          4.0790364251120483e-10 3.4599380423226757e-10 3.567935043466503e-10 4.413800103398954e-11 4.344526680166984e-11 4.1352663700978394e-11
          8.995846823011869e-11 8.833977331707727e-11 8.365315564325969e-11 3.800174412284411e-11 3.370276133897282e-11 2.7194723316962425e-11
          7.637622032891988e-11 6.723460580981446e-11 1.8003272292619946e-10 1.766392696042704e-10 1.6683719750804303e-10 3.4705937543933697e-10
          3.403450536485826e-10 3.209514069548297e-10 1.5169529912007068e-10 1.327845170283081e-10 1.0934634214933845e-10 2.9099855077846477e-10
          2.536202292957812e-10 6.294947820641616e-11 5.219124860212987e-11 5.247254918452353e-11 4.3337952185227074e-11 1.2096579894318676e-10
          1.0131737915571963e-10 9.96217316404399e-11 4.315629384041093e-11 3.546146736229377e-11 3.569115207952006e-11 2.922551167646012e-11
          8.425980894755154e-11 6.958592940220172e-11 6.918404908816913e-11 2.9128945783878165e-11 4.2112209288773566e-11 2.3687562622148646e-11
          3.469805135568554e-11 2.2563796742377844e-11 3.2602938686253275e-11 2.684961221569904e-11 7.922988126946732e-11 6.61407682386067e-11
          6.088367696439664e-11 1.932714372030288e-11 2.8499591353848125e-11 1.5727891456350604e-11 2.3293074398717345e-11 1.4968233551592272e-11
          2.202863837953765e-11 1.7990596035751595e-11 5.4849861180973955e-11 4.5195416926443035e-11 4.202563302589894e-11 2.2730369316570735e-10
          1.925488029842986e-10 1.858076311750549e-10 1.570601176247281e-10 4.1040280595435326e-10 3.524187484936405e-10 3.33840221704216e-10
          1.6187693443588638e-10 1.3508608897874994e-10 1.3179577694180602e-10 1.0980714654825771e-10 3.001237454801753e-10 2.5351562075859524e-10
          2.4271605067652517e-10 1.4639445319560575e-10 1.234723191448966e-10 1.1122807770268252e-10 9.360673732211372e-11 2.611300664344628e-10
          2.2283828633913615e-10 1.9644435013003448e-10 1.034124956770873e-10 8.601656114405797e-11 7.824846713675894e-11 6.497584658527734e-11
          1.8872203479872712e-10 1.586387040528446e-10 1.4113887823842367e-10 1.929008027578666e-11 2.8780080496622306e-11 1.5315014995921964e-11
          2.3160085529988672e-11 1.584198473499045e-11 2.369146791560693e-11 1.9073665337624592e-11 5.70884265890533e-11 4.652351587830298e-11