<?xml version="1.0"?>
<VTKFile type="UnstructuredGrid" version="0.1" byte_order="LittleEndian" header_type="UInt32" compressor="vtkZLibDataCompressor">
  <UnstructuredGrid>
    <Piece NumberOfPoints="584" NumberOfCells="307">
      <PointData>
        <DataArray type="Int32" Name="libmesh_node_id" format="ascii" RangeMin="0" RangeMax="5723">
          0 1 2 3 4 5
          6 7 8 9 10 11
          12 13 14 15 16 17
          18 19 20 21 22 23
          24 25 26 27 28 29
          30 31 76 77 78 79
          80 81 82 83 84 85
          86 87 88 89 90 91
          114 115 116 117 118 119
          120 121 122 123 124 125
          126 127 128 129 152 153
          154 155 156 157 158 159
          171 172 173 174 175 176
          177 178 179 180 181 182
          183 184 209 210 211 212
          213 214 215 228 229 230
          231 232 233 234 235 236
          237 238 239 240 241 266
          267 268 269 270 271 272
          285 286 287 288 289 290
          291 292 293 294 295 296
          297 298 323 324 325 326
          327 328 329 342 343 344
          345 346 347 348 349 350
          351 352 353 354 355 380
          381 382 383 384 385 386
          5080 5081 5082 5083 5084 5085
          5086 5087 5088 5089 5090 5091
          5092 5093 5094 5095 5096 5097
          5098 5099 5100 5101 5102 5103
          5104 5105 5106 5107 5108 5109
          5110 5111 5112 5113 5114 5115
          5116 5117 5118 5119 5120 5121
          5122 5123 5124 5125 5126 5127
          5128 5129 5130 5131 5132 5133
          5134 5135 5136 5137 5138 5139
          5140 5141 5142 5143 5144 5145
          5146 5147 5148 5149 5150 5151
          5152 5153 5154 5155 5156 5157
          5158 5159 5160 5161 5162 5163
          5164 5165 5166 5167 5168 5240
          5241 5242 5243 5244 5245 5246
          5247 5248 5249 5250 5251 5252
          5253 5254 5255 5256 5257 5258
          5259 5260 5261 5262 5263 5270
          5271 5272 5273 5274 5275 5276
          5277 5278 5279 5280 5281 5282
          5283 5284 5285 5286 5287 5288
          5289 5290 5291 5292 5293 5294
          5295 5296 5297 5298 5299 5300
          5301 5302 5303 5320 5321 5322
          5323 5324 5325 5326 5327 5328
          5329 5330 5331 5332 5333 5334
          5335 5336 5337 5338 5339 5340
          5341 5342 5343 5344 5345 5346
          5347 5348 5349 5350 5351 5352
          5353 5354 5355 5356 5357 5358
          5359 5360 5361 5362 5363 5364
          5365 5366 5367 5368 5369 5370
          5371 5372 5373 5374 5375 5376
          5377 5378 5379 5380 5381 5382
          5383 5384 5385 5386 5387 5388
          5389 5390 5391 5392 5393 5394
          5395 5396 5397 5398 5399 5400
          5401 5402 5403 5404 5405 5406
          5407 5408 5409 5410 5411 5412
          5413 5414 5415 5416 5417 5418
          5419 5420 5421 5422 5423 5424
          5425 5426 5427 5428 5429 5430
          5431 5432 5433 5434 5435 5436
          5437 5438 5439 5440 5441 5442
          5443 5444 5445 5446 5447 5448
          5449 5450 5451 5452 5453 5454
          5455 5456 5457 5458 5459 5460
          5461 5462 5463 5464 5465 5466
          5467 5468 5469 5470 5471 5472
          5473 5474 5475 5476 5477 5478
          5479 5480 5481 5482 5483 5484
          5485 5486 5487 5488 5489 5490
          5491 5492 5493 5494 5495 5496
          5497 5498 5499 5500 5501 5502
          5503 5504 5505 5506 5507 5508
          5509 5510 5511 5512 5513 5514
          5515 5516 5517 5518 5519 5520
          5521 5522 5523 5524 5525 5526
          5527 5528 5529 5530 5531 5532
          5533 5534 5535 5536 5537 5538
          5539 5540 5541 5542 5543 5544
          5545 5546 5547 5548 5549 5550
          5551 5552 5553 5554 5555 5556
          5557 5558 5559 5560 5561 5562
          5563 5564 5565 5566 5567 5568
          5569 5570 5571 5572 5573 5574
          5575 5576 5577 5578 5579 5580
          5581 5582 5583 5584 5585 5586
          5587 5588 5589 5590 5714 5715
          5716 5717 5718 5719 5720 5721
          5722 5723
        </DataArray>
        <DataArray type="Float64" Name="bounds" format="ascii" RangeMin="0" RangeMax="0">
          0 0 0 0 0 0
          0 0 0 0 0 0
          0 0 0 0 0 0
          0 0 0 0 0 0
          0 0 0 0 0 0
          0 0 0 0 0 0
          0 0 0 0 0 0
          0 0 0 0 0 0
          0 0 0 0 0 0
          0 0 0 0 0 0
          0 0 0 0 0 0
          0 0 0 0 0 0
          0 0 0 0 0 0
          0 0 0 0 0 0
          0 0 0 0 0 0
          0 0 0 0 0 0
          0 0 0 0 0 0
          0 0 0 0 0 0
          0 0 0 0 0 0
          0 0 0 0 0 0
          0 0 0 0 0 0
          0 0 0 0 0 0
          0 0 0 0 0 0
          0 0 0 0 0 0
          0 0 0 0 0 0
          0 0 0 0 0 0
          0 0 0 0 0 0
          0 0 0 0 0 0
          0 0 0 0 0 0
          0 0 0 0 0 0
          0 0 0 0 0 0
          0 0 0 0 0 0
          0 0 0 0 0 0
          0 0 0 0 0 0
          0 0 0 0 0 0
          0 0 0 0 0 0
          0 0 0 0 0 0
          0 0 0 0 0 0
          0 0 0 0 0 0
          0 0 0 0 0 0
          0 0 0 0 0 0
          0 0 0 0 0 0
          0 0 0 0 0 0
          0 0 0 0 0 0
          0 0 0 0 0 0
          0 0 0 0 0 0
          0 0 0 0 0 0
          0 0 0 0 0 0
          0 0 0 0 0 0
          0 0 0 0 0 0
          0 0 0 0 0 0
          0 0 0 0 0 0
          0 0 0 0 0 0
          0 0 0 0 0 0
          0 0 0 0 0 0
          0 0 0 0 0 0
          0 0 0 0 0 0
          0 0 0 0 0 0
          0 0 0 0 0 0
          0 0 0 0 0 0
          0 0 0 0 0 0
          0 0 0 0 0 0
          0 0 0 0 0 0
          0 0 0 0 0 0
          0 0 0 0 0 0
          0 0 0 0 0 0
          0 0 0 0 0 0
          0 0 0 0 0 0
          0 0 0 0 0 0
          0 0 0 0 0 0
          0 0 0 0 0 0
          0 0 0 0 0 0
          0 0 0 0 0 0
          0 0 0 0 0 0
          0 0 0 0 0 0
          0 0 0 0 0 0
          0 0 0 0 0 0
          0 0 0 0 0 0
          0 0 0 0 0 0
          0 0 0 0 0 0
          0 0 0 0 0 0
          0 0 0 0 0 0
          0 0 0 0 0 0
          0 0 0 0 0 0
          0 0 0 0 0 0
          0 0 0 0 0 0
          0 0 0 0 0 0
          0 0 0 0 0 0
          0 0 0 0 0 0
          0 0 0 0 0 0
          0 0 0 0 0 0
          0 0 0 0 0 0
          0 0 0 0 0 0
          0 0 0 0 0 0
          0 0 0 0 0 0
          0 0 0 0 0 0
          0 0 0 0 0 0
          0 0
        </DataArray>
        <DataArray type="Float64" Name="gradient_error" format="ascii" RangeMin="4.161527061587221e-11" RangeMax="0.0000034485996939866476">
          1.6664642876919433e-9 1.4373559391644977e-9 8.144422000422896e-10 9.491589720488811e-10 4.662969583975795e-9 3.986733782668714e-9
          2.2525336720418253e-9 2.6432646744394797e-9 8.771947986513809e-10 4.892274020402049e-10 2.3485037950330495e-9 1.3152066556384911e-9
          5.292373750486065e-10 2.8837800455502863e-10 1.3593823059812802e-9 7.48421520714515e-10 5.720530146557749e-10 3.1069671927325927e-10
          1.5052082054416687e-9 8.22689992769508e-10 4.695257262616215e-10 2.569594833515542e-10 1.247988787423125e-9 6.891818811861571e-10
          2.6815318751261774e-10 1.54884229064245e-10 6.921613335161603e-10 4.0728900130216973e-10 1.7747115305843433e-10 1.1598333302683966e-10
          4.334643208659124e-10 2.9210675709336816e-10 1.9152846092008155e-10 2.3185365640581892e-10 5.183335614149373e-10 6.235597649031643e-10
          1.0126000542902881e-10 2.8190951624393253e-10 4.7518634061450764e-11 1.3746073544774969e-10 4.9340423890743665e-11 1.4017178009734707e-10
          4.439324044148697e-11 1.303749749491893e-10 4.161527061587221e-11 1.2241666908817904e-10 5.449551299524499e-11 1.5074919332082398e-10
          1.9387907508355183e-8 1.6441798513224004e-8 9.37546948334511e-9 1.1070203555259876e-8 9.426130610461287e-9 5.370970948809656e-9
          5.439848312738771e-9 3.065596922424249e-9 6.209053794860076e-9 3.4435780616679744e-9 5.123488107506446e-9 2.880430611809519e-9
          2.767770936956561e-9 1.6816710187824193e-9 1.6817200532089538e-9 1.1829269699685807e-9 2.3091404534662184e-9 2.7524996021645712e-9
          1.3158112871580258e-9 6.913455321097266e-10 6.781023284758721e-10 6.373731161125908e-10 5.95571100608278e-10 6.841338867282076e-10
          7.821943663607786e-8 6.584857865101105e-8 3.8102181391944857e-8 4.5220578414985564e-8 3.695674716428828e-8 2.1577981949095756e-8
          2.157124221146377e-8 1.2542121829333962e-8 2.5238486134998672e-8 1.4277999660677517e-8 2.058635198358335e-8 1.1843708086511731e-8
          1.0867691047372014e-8 6.868018280917102e-9 1.0355784132878677e-8 1.2221720193893278e-8 6.199216733903227e-9 3.5130014472041504e-9
          3.317513186356362e-9 3.1010641894401144e-9 2.8683455144621902e-9 2.7744460183825243e-7 2.2672639989373303e-7 1.3184255719981497e-7
          1.6098239742445005e-7 1.2170267882669009e-7 7.107395455928788e-8 9.7541970320066e-8 5.3687579595350175e-8 8.538155932694114e-8
          4.35796078344557e-8 3.239209563031e-8 1.3746361766292672e-8 1.7907935512942784e-8 1.0197648060944406e-8 3.69587145058969e-8
          4.452019301064767e-8 2.0445230291885683e-8 9.833188870634359e-9 9.002080956409312e-9 8.71767910781113e-9 8.814078338454276e-9
          0.0000015139891285609755 0.0000014886163507516556 0.0000010185095082167058 0.000001082990207919911 0.0000014320773711045575 8.719898306854222e-7
          0.000001433094839326021 6.11942910450601e-7 8.219603495437119e-7 3.782926813113651e-7 1.2954697250455836e-7 3.065110490902824e-7
          1.195894303981752e-7 2.6088516117878263e-7 0.0000010769992914616866 0.000001155222770671081 8.872410906358466e-7 4.0222443046546767e-7
          1.3043715450554584e-8 1.4455378259002433e-8 1.2077047706423565e-8 2.7232802497339325e-7 3.0485937715149614e-7 0.000002657115955006796
          0.0000026867709942331165 3.5344779595554986e-7 0.0000025587256461473022 4.076549533008614e-7 0.000001451190996693528 4.908351746499454e-7
          3.7795664967180285e-7 6.226641161378504e-7 3.184745539706364e-7 7.962203280851924e-7 2.4642297724416255e-7 0.0000020970195799323143
          0.000002241358862377725 0.000001743821090608471 8.262602540597737e-7 6.189679295488796e-8 7.661518405982122e-8 6.806926323723124e-8
          0.000002607593346771113 0.0000020970239792205333 0.0000020951801031889165 0.0000015426889967555694 0.0000015564780858440049 0.0000019587801432808264
          0.0000019480064010593872 0.000002100532947837662 0.0000015849825171179786 0.000001983055857442217 0.0000015864546116699537 0.0000023717017777351285
          0.000002362065872942595 0.0000023945743260695043 2.8397034667271855e-7 0.0000018252792844759393 0.0000018032732479070361 0.0000018735076706629545
          0.0000031569489438003034 0.0000026553123522422185 0.0000021040249161152328 0.000001617817726560001 0.0000020122477057831456 0.0000021042916300852435
          0.0000016520534451852847 0.0000020418050724094962 0.0000015527374799882468 0.0000024232028572078996 0.0000024512915157009087 3.2844331070496804e-7
          0.0000019314661557547853 0.000001993863767165708 0.0000032936682344275527 0.000002696605000976786 0.0000020973263804023824 0.0000016852199531801845
          0.000002067911556731973 0.000002075106065442674 0.0000017172264594887471 0.0000016960842871403026 0.0000014980477598279783 0.000002473323726907313
          0.0000011920066629495195 3.7916359169341163e-7 0.000002056971992849917 0.0000013701112059127266 0.0000034485996939866476 0.0000027037470033765828
          0.000002035021199744665 0.0000017476603702654828 0.0000013198503702197638 9.331930495535554e-7 0.0000012135552458206503 0.000001021485429886096
          7.3848645479936e-7 5.36582759742778e-7 5.10822099861645e-7 4.483361081738882e-7 6.82026470890475e-7 7.279504753184312e-7
          3.7640146160327874e-7 1.4001386878682439e-7 3.741412281127707e-7 7.017930748803276e-7 7.336793988336842e-7 3.5274457645164437e-7
          7.465387053193439e-7 7.30460925125025e-7 4.360294308132479e-7 4.6698259024200614e-7 4.228833999220613e-7 5.56591346609249e-7
          7.754960589551365e-7 8.285062742995218e-7 3.510793106313174e-7 1.2212388425624204e-7 3.317638566048215e-7 7.904660894030635e-7
          7.260350767526977e-7 3.09651934855421e-7 8.365936293519026e-7 7.17678097602005e-7 3.746617184153105e-7 3.791710472404612e-7
          3.342162579846091e-7 7.01423905934834e-7 8.862138229981891e-7 9.484048906541986e-7 2.832891051927995e-7 3.8893930094418996e-8
          2.4123144021736705e-8 2.7228718992325585e-8 4.953152984341942e-8 5.181581798369979e-8 4.1833116440837224e-8 4.0067676938212406e-8
          1.8214960454345785e-8 5.0787793420773465e-8 4.298383596235289e-8 9.352357949054411e-9 3.1850414897974644e-8 3.060382403300539e-8
          3.517987850393232e-8 2.446835679933601e-8 1.4243959172614464e-8 4.570905167220396e-8 4.269564627752757e-8 1.2173143596026711e-8
          4.537691435198652e-8 4.4628359130011484e-8 4.019561545892918e-9 3.968224088285118e-8 4.387980390803645e-8 6.971945157920347e-8
          8.43815894099676e-8 1.4910235534573738e-7 1.5505619754684048e-7 5.129433013159599e-8 1.385597735842782e-7 2.876138967243473e-8
          5.6582058165034624e-8 8.195156818642445e-8 3.7744943397621713e-8 2.284852591122713e-7 2.2573080568371335e-7 2.258252170369604e-7
          8.44027266576345e-8 4.346868521444597e-8 1.2522554241864846e-7 3.311861088937936e-8 1.0539506749434201e-7 1.6839166629543027e-8
          4.582752784524635e-8 4.6617160609157883e-8 2.0698239962285095e-7 1.7767152409930466e-7 7.481588906094968e-8 2.1437426992602893e-8
          8.290963266420681e-8 1.3876651349507511e-8 6.094731091548374e-8 1.417408888421863e-8 4.410679860172897e-8 3.967198443421906e-8
          1.4438183833581074e-7 1.0801797048145999e-7 7.403950831923931e-8 4.921443069988049e-7 4.8284205219107e-7 4.782243393505972e-7
          3.7964721595169054e-7 3.8395790424657947e-7 4.303033480830011e-7 4.25785018350038e-7 4.947432478994166e-7 3.946665857948076e-7
          4.4176661690578175e-7 4.735397973833352e-7 4.766487919194228e-7 4.7192282074838544e-7 4.888666480167558e-7 2.757715014943541e-7
          3.7776464397493225e-7 3.7334569734947875e-7 3.8878998591214683e-7 4.797577864555104e-7 5.22393732560703e-7 5.103479195733054e-7
          4.08193093408568e-7 4.5646777238016435e-7 5.273903323153157e-7 4.2284741888493053e-7 4.723607632566896e-7 4.983021065859078e-7
          5.047424513517606e-7 5.218741076284486e-7 2.93992454256433e-7 4.0258762518702315e-7 4.173311941980635e-7 5.111827961176134e-7
          5.600959204974285e-7 5.451446833883241e-7 4.382468813149815e-7 4.889352161523194e-7 5.63797928676174e-7 4.5438320579137574e-7
          5.063258112848335e-7 5.301934462792197e-7 5.396235509896575e-7 5.582684167782914e-7 3.1639784213253456e-7 4.3272574891631486e-7
          4.488536938934932e-7 5.490536557000953e-7 6.017712635358379e-7 5.836437146633716e-7 4.7128989228601255e-7 5.247571229969384e-7
          6.047416438485647e-7 4.889621279356576e-7 5.442571040744905e-7 5.655161657909054e-7 5.782243537078644e-7 5.995520802133233e-7
          3.408085210361871e-7 4.6587053133050526e-7 4.837725643004164e-7 5.909325416248235e-7 6.484743466853313e-7 6.271738025407678e-7
          5.07379812398225e-7 5.648615241391411e-7 6.511143387600311e-7 5.264992485384973e-7 5.866841402316652e-7 6.058732583962042e-7
          6.223432358800573e-7 6.468690319248332e-7 3.662852781111186e-7 5.025492457375145e-7 5.222539417032994e-7 6.388132133639104e-7
          7.006056188132348e-7 6.767633620736978e-7 5.462381060208981e-7 6.098427624152503e-7 7.026460101308681e-7 5.682749096160407e-7
          6.310319430330817e-7 6.529211053341608e-7 6.734474188096024e-7 6.299272915652127e-7 3.9187059322856137e-7 5.429221627568027e-7
          5.594178759352953e-7 6.93973732285044e-7 7.590734451226116e-7 7.290312912767584e-7 5.936341236968038e-7 6.497554281254082e-7
          7.585362782601608e-7 6.199549226641356e-7 6.722640172261368e-7 5.76329964670054e-7 6.165877716864733e-7 6.433530057926685e-7
          4.281948022709961e-7 5.70479564974058e-7 5.859917561921128e-7 6.568455787028925e-7 8.266442911822009e-7 7.904091828204928e-7
          6.466847954644475e-7 6.993398082519417e-7 6.773424974675138e-7 6.682647547369761e-7 7.235501958295768e-7 6.24732571151799e-7
          6.649688620333931e-7 6.843803367196427e-7 4.6672529974669416e-7 6.082704336833907e-7 6.352016194885066e-7 7.052051529149871e-7
          3.9300979084477574e-7 3.903252999146346e-7 4.538429341102749e-7 4.5032281725988286e-7 3.950082762426596e-7 4.5812727425492166e-7
          2.9072851384473777e-7 3.2974296519319963e-7 3.3851273472256675e-7 3.2632951199273533e-7 5.146760773757742e-7 5.10320334605131e-7
          5.212462722671835e-7 3.6875741654166145e-7 2.7040278146046184e-7 2.44825815929601e-7 2.749658286056753e-7 3.877492977902147e-7
          3.859077992044817e-7 3.421942095834678e-7 3.415978883334614e-7 2.0456357481918792e-7 3.828369225191438e-7 3.418483966116662e-7
          2.1924885039874017e-7 2.9848061996245387e-7 2.954464788767081e-7 3.008598707041886e-7 6.72207280479157e-7 6.300909809364086e-7
          6.584952874861491e-7 5.62781153657651e-7 1.9733795779973213e-7 1.90458145064509e-7 3.8123053997075606e-7 3.401035251680717e-7
          1.8322530403550423e-7 3.8019055206210235e-7 3.3819839976420293e-7 1.835783323292858e-7 2.989765103653872e-7 2.962062474663034e-7
          7.249579076726894e-7 6.785146156565527e-7 6.962781076859829e-7 5.969775125197515e-7 6.832141660842967e-7 7.439157167554342e-7
          7.048968415161424e-7 7.693312662118253e-7 7.032388549506409e-7 7.235463682452103e-7 5.234265881587808e-7 6.672120748753857e-7
          7.00805175855497e-7 7.511621741778891e-7 7.365769039384564e-7 8.013193667117622e-7 7.723553962398924e-7 8.360563584065245e-7
          7.448124929216793e-7 7.662928369469484e-7 5.883611146733145e-7 7.353584073820531e-7 7.727279969339851e-7 8.013460612644758e-7
          3.96662916649414e-7 4.62304803453261e-7 3.978613042738602e-7 4.661763581085328e-7 2.809317351131955e-7 3.2274916443181193e-7
          3.190256706341532e-7 5.27946690257108e-7 5.344914119432054e-7 3.6456659375042833e-7 3.9832949259023564e-7 4.694654778721677e-7
          3.9812552103972445e-7 4.7217323918771443e-7 2.698690949020496e-7 3.153677993860446e-7 3.115181250546887e-7 5.406014631540997e-7
          5.462209573357044e-7 3.608665038700396e-7 1.8301089521031046e-7 1.769946105376056e-7 3.7862681864942185e-7 3.3573327621080916e-7
          1.7105965584834105e-7 3.7644919196223604e-7 3.326557273800242e-7 1.709783258649008e-7 2.9283973377219664e-7 2.888622627978124e-7
          7.682540451238267e-7 7.139280344784019e-7 7.317406513967556e-7 6.181655302999929e-7 1.718913153480046e-7 1.6521067833940658e-7
          3.7346779391789425e-7 3.288307784564931e-7 1.5954800379773807e-7 3.6957433091128053e-7 3.241706445879395e-7 1.5853004133080853e-7
          2.8419376299509197e-7 2.787669582645985e-7 8.132514222625003e-7 7.497451799302498e-7 7.678803712293963e-7 6.374473906228797e-7
          8.112506897931597e-7 8.7330262235218e-7 8.533778613919504e-7 9.131947116864816e-7 7.883457815163702e-7 8.109313118039196e-7
          6.602360314271992e-7 8.132211176315691e-7 8.571599194911594e-7 8.567938384224974e-7 8.990353388165803e-7 9.559767586881484e-7
          9.485919091921744e-7 0.0000010019375801752569 8.340004904576503e-7 8.574724733621641e-7 7.466121055959438e-7 9.049140360893768e-7
          9.56907703269862e-7 9.167586373106688e-7 3.9729580598968544e-7 4.7428991311604404e-7 3.957450979440503e-7 4.757189877175527e-7
          2.5929906874534644e-7 3.072428181105479e-7 3.025869138082788e-7 5.512840202424026e-7 5.556928774910551e-7 3.551865674757494e-7
          3.933852723050722e-7 4.763553335737516e-7 3.9012948475346216e-7 4.760882372808565e-7 2.469062479375037e-7 2.9762786479191903e-7
          2.9251477899572406e-7 5.59325394842431e-7 5.620469898082509e-7 3.4834948164633436e-7 3.8256228392883873e-7 3.7636739264189696e-7
          4.466891359024539e-7 4.4439650456251083e-7 3.1145377594847455e-7 3.6607946098597404e-7 3.86589087329629e-7 5.108159878760691e-7
          5.124256164831246e-7 4.207051460234735e-7
        </DataArray>
        <DataArray type="Float64" Name="gradient_matprop_error" format="ascii" RangeMin="0" RangeMax="0">
          0 0 0 0 0 0
          0 0 0 0 0 0
          0 0 0 0 0 0
          0 0 0 0 0 0
          0 0 0 0 0 0
          0 0 0 0 0 0
          0 0 0 0 0 0
          0 0 0 0 0 0
          0 0 0 0 0 0
          0 0 0 0 0 0
          0 0 0 0 0 0
          0 0 0 0 0 0
          0 0 0 0 0 0
          0 0 0 0 0 0
          0 0 0 0 0 0
          0 0 0 0 0 0
          0 0 0 0 0 0
          0 0 0 0 0 0
          0 0 0 0 0 0
          0 0 0 0 0 0
          0 0 0 0 0 0
          0 0 0 0 0 0
          0 0 0 0 0 0
          0 0 0 0 0 0
          0 0 0 0 0 0
          0 0 0 0 0 0
          0 0 0 0 0 0
          0 0 0 0 0 0
          0 0 0 0 0 0
          0 0 0 0 0 0
          0 0 0 0 0 0
          0 0 0 0 0 0
          0 0 0 0 0 0
          0 0 0 0 0 0
          0 0 0 0 0 0
          0 0 0 0 0 0
          0 0 0 0 0 0
          0 0 0 0 0 0
          0 0 0 0 0 0
          0 0 0 0 0 0
          0 0 0 0 0 0
          0 0 0 0 0 0
          0 0 0 0 0 0
          0 0 0 0 0 0
          0 0 0 0 0 0
          0 0 0 0 0 0
          0 0 0 0 0 0
          0 0 0 0 0 0
          0 0 0 0 0 0
          0 0 0 0 0 0
          0 0 0 0 0 0
          0 0 0 0 0 0
          0 0 0 0 0 0
          0 0 0 0 0 0
          0 0 0 0 0 0
          0 0 0 0 0 0
          0 0 0 0 0 0
          0 0 0 0 0 0
          0 0 0 0 0 0
          0 0 0 0 0 0
          0 0 0 0 0 0
          0 0 0 0 0 0
          0 0 0 0 0 0
          0 0 0 0 0 0
          0 0 0 0 0 0
          0 0 0 0 0 0
          0 0 0 0 0 0
          0 0 0 0 0 0
          0 0 0 0 0 0
          0 0 0 0 0 0
          0 0 0 0 0 0
          0 0 0 0 0 0
          0 0 0 0 0 0
          0 0 0 0 0 0
          0 0 0 0 0 0
          0 0 0 0 0 0
          0 0 0 0 0 0
          0 0 0 0 0 0
          0 0 0 0 0 0
          0 0 0 0 0 0
          0 0 0 0 0 0
          0 0 0 0 0 0
          0 0 0 0 0 0
          0 0 0 0 0 0
          0 0 0 0 0 0
          0 0 0 0 0 0
          0 0 0 0 0 0
          0 0 0 0 0 0
          0 0 0 0 0 0
          0 0 0 0 0 0
          0 0 0 0 0 0
          0 0 0 0 0 0
          0 0 0 0 0 0
          0 0 0 0 0 0
          0 0 0 0 0 0
          0 0 0 0 0 0
          0 0 0 0 0 0
          0 0
        </DataArray>
        <DataArray type="Float64" Name="initial_marker" format="ascii" RangeMin="0" RangeMax="0">
          0 0 0 0 0 0
          0 0 0 0 0 0
          0 0 0 0 0 0
          0 0 0 0 0 0
          0 0 0 0 0 0
          0 0 0 0 0 0
          0 0 0 0 0 0
          0 0 0 0 0 0
          0 0 0 0 0 0
          0 0 0 0 0 0
          0 0 0 0 0 0
          0 0 0 0 0 0
          0 0 0 0 0 0
          0 0 0 0 0 0
          0 0 0 0 0 0
          0 0 0 0 0 0
          0 0 0 0 0 0
          0 0 0 0 0 0
          0 0 0 0 0 0
          0 0 0 0 0 0
          0 0 0 0 0 0
          0 0 0 0 0 0
          0 0 0 0 0 0
          0 0 0 0 0 0
          0 0 0 0 0 0
          0 0 0 0 0 0
          0 0 0 0 0 0
          0 0 0 0 0 0
          0 0 0 0 0 0
          0 0 0 0 0 0
          0 0 0 0 0 0
          0 0 0 0 0 0
          0 0 0 0 0 0
          0 0 0 0 0 0
          0 0 0 0 0 0
          0 0 0 0 0 0
          0 0 0 0 0 0
          0 0 0 0 0 0
          0 0 0 0 0 0
          0 0 0 0 0 0
          0 0 0 0 0 0
          0 0 0 0 0 0
          0 0 0 0 0 0
          0 0 0 0 0 0
          0 0 0 0 0 0
          0 0 0 0 0 0
          0 0 0 0 0 0
          0 0 0 0 0 0
          0 0 0 0 0 0
          0 0 0 0 0 0
          0 0 0 0 0 0
          0 0 0 0 0 0
          0 0 0 0 0 0
          0 0 0 0 0 0
          0 0 0 0 0 0
          0 0 0 0 0 0
          0 0 0 0 0 0
          0 0 0 0 0 0
          0 0 0 0 0 0
          0 0 0 0 0 0
          0 0 0 0 0 0
          0 0 0 0 0 0
          0 0 0 0 0 0
          0 0 0 0 0 0
          0 0 0 0 0 0
          0 0 0 0 0 0
          0 0 0 0 0 0
          0 0 0 0 0 0
          0 0 0 0 0 0
          0 0 0 0 0 0
          0 0 0 0 0 0
          0 0 0 0 0 0
          0 0 0 0 0 0
          0 0 0 0 0 0
          0 0 0 0 0 0
          0 0 0 0 0 0
          0 0 0 0 0 0
          0 0 0 0 0 0
          0 0 0 0 0 0
          0 0 0 0 0 0
          0 0 0 0 0 0
          0 0 0 0 0 0
          0 0 0 0 0 0
          0 0 0 0 0 0
          0 0 0 0 0 0
          0 0 0 0 0 0
          0 0 0 0 0 0
          0 0 0 0 0 0
          0 0 0 0 0 0
          0 0 0 0 0 0
          0 0 0 0 0 0
          0 0 0 0 0 0
          0 0 0 0 0 0
          0 0 0 0 0 0
          0 0 0 0 0 0
          0 0 0 0 0 0
          0 0 0 0 0 0
          0 0
        </DataArray>
        <DataArray type="Float64" Name="markers_norefine" format="ascii" RangeMin="0" RangeMax="0">
          0 0 0 0 0 0
          0 0 0 0 0 0
          0 0 0 0 0 0
          0 0 0 0 0 0
          0 0 0 0 0 0
          0 0 0 0 0 0
          0 0 0 0 0 0
          0 0 0 0 0 0
          0 0 0 0 0 0
          0 0 0 0 0 0
          0 0 0 0 0 0
          0 0 0 0 0 0
          0 0 0 0 0 0
          0 0 0 0 0 0
          0 0 0 0 0 0
          0 0 0 0 0 0
          0 0 0 0 0 0
          0 0 0 0 0 0
          0 0 0 0 0 0
          0 0 0 0 0 0
          0 0 0 0 0 0
          0 0 0 0 0 0
          0 0 0 0 0 0
          0 0 0 0 0 0
          0 0 0 0 0 0
          0 0 0 0 0 0
          0 0 0 0 0 0
          0 0 0 0 0 0
          0 0 0 0 0 0
          0 0 0 0 0 0
          0 0 0 0 0 0
          0 0 0 0 0 0
          0 0 0 0 0 0
          0 0 0 0 0 0
          0 0 0 0 0 0
          0 0 0 0 0 0
          0 0 0 0 0 0
          0 0 0 0 0 0
          0 0 0 0 0 0
          0 0 0 0 0 0
          0 0 0 0 0 0
          0 0 0 0 0 0
          0 0 0 0 0 0
          0 0 0 0 0 0
          0 0 0 0 0 0
          0 0 0 0 0 0
          0 0 0 0 0 0
          0 0 0 0 0 0
          0 0 0 0 0 0
          0 0 0 0 0 0
          0 0 0 0 0 0
          0 0 0 0 0 0
          0 0 0 0 0 0
          0 0 0 0 0 0
          0 0 0 0 0 0
          0 0 0 0 0 0
          0 0 0 0 0 0
          0 0 0 0 0 0
          0 0 0 0 0 0
          0 0 0 0 0 0
          0 0 0 0 0 0
          0 0 0 0 0 0
          0 0 0 0 0 0
          0 0 0 0 0 0
          0 0 0 0 0 0
          0 0 0 0 0 0
          0 0 0 0 0 0
          0 0 0 0 0 0
          0 0 0 0 0 0
          0 0 0 0 0 0
          0 0 0 0 0 0
          0 0 0 0 0 0
          0 0 0 0 0 0
          0 0 0 0 0 0
          0 0 0 0 0 0
          0 0 0 0 0 0
          0 0 0 0 0 0
          0 0 0 0 0 0
          0 0 0 0 0 0
          0 0 0 0 0 0
          0 0 0 0 0 0
          0 0 0 0 0 0
          0 0 0 0 0 0
          0 0 0 0 0 0
          0 0 0 0 0 0
          0 0 0 0 0 0
          0 0 0 0 0 0
          0 0 0 0 0 0
          0 0 0 0 0 0
          0 0 0 0 0 0
          0 0 0 0 0 0
          0 0 0 0 0 0
          0 0 0 0 0 0
          0 0 0 0 0 0
          0 0 0 0 0 0
          0 0 0 0 0 0
          0 0 0 0 0 0
          0 0
        </DataArray>
        <DataArray type="Float64" Name="markers_mustrefine" format="ascii" RangeMin="0" RangeMax="0">
          0 0 0 0 0 0
          0 0 0 0 0 0
          0 0 0 0 0 0
          0 0 0 0 0 0
          0 0 0 0 0 0
          0 0 0 0 0 0
          0 0 0 0 0 0
          0 0 0 0 0 0
          0 0 0 0 0 0
          0 0 0 0 0 0
          0 0 0 0 0 0
          0 0 0 0 0 0
          0 0 0 0 0 0
          0 0 0 0 0 0
          0 0 0 0 0 0
          0 0 0 0 0 0
          0 0 0 0 0 0
          0 0 0 0 0 0
          0 0 0 0 0 0
          0 0 0 0 0 0
          0 0 0 0 0 0
          0 0 0 0 0 0
          0 0 0 0 0 0
          0 0 0 0 0 0
          0 0 0 0 0 0
          0 0 0 0 0 0
          0 0 0 0 0 0
          0 0 0 0 0 0
          0 0 0 0 0 0
          0 0 0 0 0 0
          0 0 0 0 0 0
          0 0 0 0 0 0
          0 0 0 0 0 0
          0 0 0 0 0 0
          0 0 0 0 0 0
          0 0 0 0 0 0
          0 0 0 0 0 0
          0 0 0 0 0 0
          0 0 0 0 0 0
          0 0 0 0 0 0
          0 0 0 0 0 0
          0 0 0 0 0 0
          0 0 0 0 0 0
          0 0 0 0 0 0
          0 0 0 0 0 0
          0 0 0 0 0 0
          0 0 0 0 0 0
          0 0 0 0 0 0
          0 0 0 0 0 0
          0 0 0 0 0 0
          0 0 0 0 0 0
          0 0 0 0 0 0
          0 0 0 0 0 0
          0 0 0 0 0 0
          0 0 0 0 0 0
          0 0 0 0 0 0
          0 0 0 0 0 0
          0 0 0 0 0 0
          0 0 0 0 0 0
          0 0 0 0 0 0
          0 0 0 0 0 0
          0 0 0 0 0 0
          0 0 0 0 0 0
          0 0 0 0 0 0
          0 0 0 0 0 0
          0 0 0 0 0 0
          0 0 0 0 0 0
          0 0 0 0 0 0
          0 0 0 0 0 0
          0 0 0 0 0 0
          0 0 0 0 0 0
          0 0 0 0 0 0
          0 0 0 0 0 0
          0 0 0 0 0 0
          0 0 0 0 0 0
          0 0 0 0 0 0
          0 0 0 0 0 0
          0 0 0 0 0 0
          0 0 0 0 0 0
          0 0 0 0 0 0
          0 0 0 0 0 0
          0 0 0 0 0 0
          0 0 0 0 0 0
          0 0 0 0 0 0
          0 0 0 0 0 0
          0 0 0 0 0 0
          0 0 0 0 0 0
          0 0 0 0 0 0
          0 0 0 0 0 0
          0 0 0 0 0 0
          0 0 0 0 0 0
          0 0 0 0 0 0
          0 0 0 0 0 0
          0 0 0 0 0 0
          0 0 0 0 0 0
          0 0 0 0 0 0
          0 0 0 0 0 0
          0 0
        </DataArray>
        <DataArray type="Float64" Name="gradient_marker" format="ascii" RangeMin="1" RangeMax="1">
          1 1 1 1 1 1
          1 1 1 1 1 1
          1 1 1 1 1 1
          1 1 1 1 1 1
          1 1 1 1 1 1
          1 1 1 1 1 1
          1 1 1 1 1 1
          1 1 1 1 1 1
          1 1 1 1 1 1
          1 1 1 1 1 1
          1 1 1 1 1 1
          1 1 1 1 1 1
          1 1 1 1 1 1
          1 1 1 1 1 1
          1 1 1 1 1 1
          1 1 1 1 1 1
          1 1 1 1 1 1
          1 1 1 1 1 1
          1 1 1 1 1 1
          1 1 1 1 1 1
          1 1 1 1 1 1
          1 1 1 1 1 1
          1 1 1 1 1 1
          1 1 1 1 1 1
          1 1 1 1 1 1
          1 1 1 1 1 1
          1 1 1 1 1 1
          1 1 1 1 1 1
          1 1 1 1 1 1
          1 1 1 1 1 1
          1 1 1 1 1 1