<?xml version="1.0"?>
<VTKFile type="UnstructuredGrid" version="0.1" byte_order="LittleEndian" header_type="UInt32" compressor="vtkZLibDataCompressor">
  <UnstructuredGrid>
    <Piece NumberOfPoints="571" NumberOfCells="307">
      <PointData>
        <DataArray type="Int32" Name="libmesh_node_id" format="ascii" RangeMin="309" RangeMax="3040">
          309 310 367 432 433 434
          435 436 437 438 439 440
          441 443 444 445 553 555
          558 563 564 565 566 567
          569 570 571 572 573 574
          576 577 578 584 585 590
          635 636 638 639 655 658
          663 665 705 706 707 710
          711 712 713 714 715 716
          717 718 719 720 725 726
          730 733 735 736 737 738
          739 740 741 742 743 744
          745 746 747 748 752 753
          765 766 772 978 979 980
          983 1012 1013 1017 1020 1022
          1023 1024 1025 1026 1027 1028
          1029 1030 1031 1032 1033 1034
          1035 1036 1037 1038 1039 1040
          1041 1042 1043 1044 1045 1046
          1047 1048 1049 1051 1052 1053
          1054 1055 1058 1060 1061 1064
          1066 1067 1069 1070 1071 1072
          1073 1074 1075 1076 1077 1078
          1079 1080 1081 1082 1084 1085
          1086 1087 1089 1090 1091 1092
          1093 1094 1095 1096 1097 1098
          1099 1142 1143 1144 1147 1495
          1496 1499 1504 1505 1506 1507
          1508 1509 1510 1666 1668 1669
          1670 1671 1673 1675 1676 1677
          1678 1679 1680 1681 1682 1683
          1685 1686 1687 1688 1689 1690
          1691 1694 1695 1697 1702 1703
          1704 1705 1706 1707 1710 1711
          1713 1715 1717 1719 1720 1721
          1722 1723 1724 1725 1738 1739
          1741 1744 1754 1756 1758 1760
          1761 1762 1763 1764 1765 1766
          1767 1768 1769 1770 1771 1774
          1776 1777 1779 1780 1781 1782
          1783 1784 1785 1786 1787 1788
          1789 1790 1791 1793 1794 1795
          1796 1797 1798 1799 1800 1801
          1802 1803 1804 1805 1808 1810
          1811 1813 1814 1815 1816 1817
          1818 1819 1820 1821 1823 1825
          1827 1831 1836 1838 1883 1885
          2687 2693 2773 2774 2776 2777
          2778 2779 2780 2789 2791 2792
          2793 2805 2806 2807 2808 2809
          2810 2811 2812 2813 2814 2822
          2823 2825 2826 2827 2829 2830
          2831 2832 2833 2834 2835 2836
          2837 2838 2839 2840 2841 2842
          2843 2844 2845 2846 2847 2848
          2849 2850 2851 2852 2854 2855
          2856 2857 2858 2859 2860 2861
          2862 2863 2864 2865 2866 2869
          2871 2872 2874 2875 2876 2877
          2878 2880 2881 2882 2883 2884
          2885 2886 2887 2888 2889 2890
          2891 2892 2893 2894 2895 2896
          2897 2898 2899 2900 2901 2902
          2903 2904 2905 2906 2907 2908
          2909 2910 2911 2912 2913 2914
          2915 2916 2917 2918 2919 2920
          2921 2922 2923 2924 2925 2926
          2927 2928 2929 2930 2931 2932
          2933 2934 2935 2936 2937 2938
          2939 2940 2941 2942 2943 2944
          2945 2946 2947 2948 2949 2950
          2951 2952 2953 2954 2955 2956
          2957 2958 2959 2960 2963 2965
          2966 2968 2969 2970 2971 2972
          2973 2974 2975 2976 2978 2980
          2982 2983 2984 2985 2986 2987
          2988 2989 2990 2991 2992 2993
          2994 2997 2999 3000 3002 3003
          3004 3005 3006 3007 3008 3009
          3010 3012 3014 3016 3017 3018
          3019 3020 3021 3022 3023 3024
          3026 3027 3028 3029 3030 3031
          3032 3033 3034 3036 3038 3040
          580 568 1065 1083 575 1088
          1100 1101 579 1102 1103 1138
          1122 1139 1140 1141 1145 1146
          1684 1772 1773 1775 1778 1063
          1792 1809 1822 1824 1826 1829
          1864 1867 1830 1866 1868 1837
          1884 1886 1872 1887 1119 1888
          1889 2853 2867 2868 2870 1062
          2873 2961 2962 2964 1806 2967
          1807 2879 2977 2979 2981 2995
          2996 2998 366 3001 1812 3011
          3013 3015 1068 3025 3035 3037
          3039
        </DataArray>
        <DataArray type="Float64" Name="bounds" format="ascii" RangeMin="0" RangeMax="0">
          0 0 0 0 0 0
          0 0 0 0 0 0
          0 0 0 0 0 0
          0 0 0 0 0 0
          0 0 0 0 0 0
          0 0 0 0 0 0
          0 0 0 0 0 0
          0 0 0 0 0 0
          0 0 0 0 0 0
          0 0 0 0 0 0
          0 0 0 0 0 0
          0 0 0 0 0 0
          0 0 0 0 0 0
          0 0 0 0 0 0
          0 0 0 0 0 0
          0 0 0 0 0 0
          0 0 0 0 0 0
          0 0 0 0 0 0
          0 0 0 0 0 0
          0 0 0 0 0 0
          0 0 0 0 0 0
          0 0 0 0 0 0
          0 0 0 0 0 0
          0 0 0 0 0 0
          0 0 0 0 0 0
          0 0 0 0 0 0
          0 0 0 0 0 0
          0 0 0 0 0 0
          0 0 0 0 0 0
          0 0 0 0 0 0
          0 0 0 0 0 0
          0 0 0 0 0 0
          0 0 0 0 0 0
          0 0 0 0 0 0
          0 0 0 0 0 0
          0 0 0 0 0 0
          0 0 0 0 0 0
          0 0 0 0 0 0
          0 0 0 0 0 0
          0 0 0 0 0 0
          0 0 0 0 0 0
          0 0 0 0 0 0
          0 0 0 0 0 0
          0 0 0 0 0 0
          0 0 0 0 0 0
          0 0 0 0 0 0
          0 0 0 0 0 0
          0 0 0 0 0 0
          0 0 0 0 0 0
          0 0 0 0 0 0
          0 0 0 0 0 0
          0 0 0 0 0 0
          0 0 0 0 0 0
          0 0 0 0 0 0
          0 0 0 0 0 0
          0 0 0 0 0 0
          0 0 0 0 0 0
          0 0 0 0 0 0
          0 0 0 0 0 0
          0 0 0 0 0 0
          0 0 0 0 0 0
          0 0 0 0 0 0
          0 0 0 0 0 0
          0 0 0 0 0 0
          0 0 0 0 0 0
          0 0 0 0 0 0
          0 0 0 0 0 0
          0 0 0 0 0 0
          0 0 0 0 0 0
          0 0 0 0 0 0
          0 0 0 0 0 0
          0 0 0 0 0 0
          0 0 0 0 0 0
          0 0 0 0 0 0
          0 0 0 0 0 0
          0 0 0 0 0 0
          0 0 0 0 0 0
          0 0 0 0 0 0
          0 0 0 0 0 0
          0 0 0 0 0 0
          0 0 0 0 0 0
          0 0 0 0 0 0
          0 0 0 0 0 0
          0 0 0 0 0 0
          0 0 0 0 0 0
          0 0 0 0 0 0
          0 0 0 0 0 0
          0 0 0 0 0 0
          0 0 0 0 0 0
          0 0 0 0 0 0
          0 0 0 0 0 0
          0 0 0 0 0 0
          0 0 0 0 0 0
          0 0 0 0 0 0
          0 0 0 0 0 0
          0
        </DataArray>
        <DataArray type="Float64" Name="gradient_error" format="ascii" RangeMin="1.0782853497447844e-9" RangeMax="4.491148659985933e-7">
          3.410989326132383e-9 2.454167215353102e-9 2.5583047651980727e-9 3.961031170382675e-9 3.5779020857409403e-9 6.335543992788564e-8
          1.756384994096076e-8 3.6323175768128017e-9 2.0654154611431656e-8 7.536021693755341e-8 2.7959668216022287e-9 3.6411488553877735e-9
          3.1334607243501014e-9 1.3790702014559e-7 3.43696216891961e-8 6.972898485924441e-9 4.358133045179283e-8 3.7609327533112757e-7
          7.41747276960501e-8 4.2593522108277205e-8 7.827057455337187e-8 3.565580501626617e-7 2.7081522863535024e-7 8.419086591370631e-8
          2.3292573954361046e-7 7.589764496163431e-8 8.570963982308458e-8 8.337957230897805e-8 2.9975977937084686e-9 4.4142087095451044e-7
          8.040782386395082e-8 1.2858620850663262e-8 3.7421064136757634e-8 4.39354099007491e-8 3.554669829822726e-8 7.968022276890373e-9
          2.218247944581227e-9 1.5331121041508942e-9 1.2244818875546883e-9 1.122970781678127e-9 1.606285361564057e-9 1.0782853497447844e-9
          2.6047349335735205e-9 1.3093323946851776e-9 3.782393363070258e-9 1.4318154021319332e-8 1.2731065619591172e-8 1.1143977217863011e-8
          5.342620416925723e-9 5.357197632151939e-9 1.7951043846282612e-8 1.812768986204701e-8 4.7810426474443025e-9 1.5358692684745087e-8
          1.544728354458857e-8 5.371774847378156e-9 1.8304335877811405e-8 1.5535874404432057e-8 1.3134380393274061e-8 2.9563352646953612e-8
          6.624976160667005e-9 4.599232490063316e-8 1.0058187528025308e-8 1.6378683372388548e-8 9.348996032562585e-9 1.0571661288811734e-8
          3.2701397202183612e-9 4.338415983093683e-9 3.0177118860956205e-9 2.2699179216751788e-8 1.1794326545060885e-8 5.406692245969005e-9
          2.4013120452656298e-9 2.309932928513119e-9 7.699500886236864e-9 7.4379242771913855e-9 2.218553811760608e-9 7.1763476681459074e-9
          4.418460469393171e-9 4.665486145500495e-9 4.912511821607819e-9 9.147594721842487e-8 3.318557396217672e-7 2.84909273478701e-7
          1.718488413627367e-7 2.0465059293740406e-7 3.738646204458016e-7 1.6252194945079213e-7 4.491148659985933e-7 7.873530147388751e-8
          7.353327632269152e-8 3.205559367598116e-7 2.718353421339341e-7 5.5951762655831996e-8 3.0380652982051597e-7 2.545227689539196e-7
          5.935556295231311e-8 1.549750607052911e-7 1.6238183430266246e-7 3.53922894048632e-7 2.978849213514857e-7 2.9368474691857947e-7
          2.598913696183412e-7 3.213323687061523e-8 3.824434938818973e-8 2.802298940239309e-7 2.3119775135991076e-7 2.32625746927209e-8
          2.4951876417560813e-7 2.0165162493439158e-7 4.4355461905764234e-8 1.8216560869589056e-7 1.5378448569317506e-7 3.5288757692545504e-7
          2.833108179816629e-7 2.645557837263268e-7 2.6178180032749224e-7 1.2246901409888525e-7 9.307596621061554e-8 1.3717270631906214e-7
          3.56857427818324e-7 3.5202751065624177e-7 9.915683115126692e-8 6.02941106311261e-8 1.551359119935478e-7 3.382233812043867e-7
          4.384377251647989e-9 6.52021536925587e-8 4.356143369548392e-7 1.843994273784868e-7 3.567405000272359e-7 1.946913220645132e-7
          3.321265809454763e-7 8.401724709821497e-8 1.3454778956649693e-7 1.0485804836049949e-7 4.3520169077027257e-7 4.120992006255958e-7
          1.5880930281019198e-7 2.1974505254361314e-7 2.9837163595197143e-7 1.8109321806084035e-7 6.582010133453716e-8 7.418071869041234e-8
          4.601346167779576e-8 3.7699821936032967e-7 8.25413360462875e-8 1.0361103430149535e-8 1.5348997127766416e-8 2.129999794416315e-7
          1.6725494644171446e-7 1.2473436257119136e-8 1.694756899419004e-7 1.284680289962436e-7 2.0336890825383298e-8 1.2150991344179744e-7
          8.746036805058683e-8 2.626064863255162e-8 2.4150399796789447e-8 1.0620568027192094e-8 2.2040150961027272e-8 3.640816987590352e-8
          7.35474904288508e-8 4.1360105467863034e-8 3.644228935015312e-8 6.348091741146373e-8 3.7121412333323675e-8 5.84437279980749e-8
          2.250470396717554e-8 4.0126460920401796e-8 4.021996926280904e-8 1.4062447646000468e-7 1.525072319928521e-7 1.4679272851185264e-7
          1.5345717643982284e-7 1.2993676403572078e-7 1.0379457597916938e-7 1.0653977485045507e-7 1.0862743213122135e-7 9.428424666032174e-8
          1.6840229262341874e-7 1.6072680675789786e-7 1.6855909912267306e-7 1.384762081150238e-7 1.872180611081681e-7 1.767648639672551e-7
          1.4611396687537394e-7 1.0913414199053707e-7 1.0848550571773817e-7 9.436718864340352e-8 1.070461782921407e-7 1.0456237157368135e-7
          8.817608965987556e-8 1.49218959768283e-7 1.4794680704219016e-7 1.397585058838575e-7 1.5718160129588012e-7 1.5556826163527138e-7
          1.6598618557192406e-7 1.6397568037251177e-7 1.4613526043385162e-7 1.528552503334579e-7 9.644308033732464e-8 1.295053107216766e-7
          1.1957438737288268e-7 1.0630641729414778e-7 1.4572256897779917e-7 1.237620827348881e-7 1.2758378950627362e-7 1.0920856657673557e-7
          1.1142225351873086e-7 1.52582541934992e-7 1.5981628833232315e-7 1.3971172442694654e-7 5.599216737700759e-9 9.539122998074522e-9
          1.0136668370125846e-7 6.2456243005935115e-9 1.7720532475788274e-7 1.707148965356871e-7 1.8131821973244504e-7 1.7571020098800455e-7
          1.7328607817481354e-7 1.423339832458722e-7 1.613688692703118e-7 1.599611955136305e-7 1.6741602866846804e-7 9.845285037690753e-8
          1.0232737542057228e-7 8.671064545887054e-8 1.4571128009740237e-7 1.073753275173578e-7 1.4910199101956405e-7 1.7521809522761184e-7
          1.92922313557692e-8 7.047498871516344e-8 1.65606755426016e-7 1.3054733190598866e-7 1.3287871981023815e-7 1.1203422814633888e-7
          1.1144501462277465e-7 1.6748059078229492e-7 1.754829908552473e-7 1.4945468427933363e-7 1.347308062318156e-7 1.3584006828649734e-7
          1.0999556729775431e-7 1.0735451167869121e-7 1.8373745044417057e-7 1.5766295432483692e-7 6.640967559717999e-9 1.007979907738153e-8
          7.845061861305024e-9 1.116007914642778e-8 1.0813458125953947e-7 9.165028918751887e-8 3.6443037099750457e-9 7.412536339241284e-9
          8.784891650765529e-9 1.0573966996436454e-7 9.431021316674828e-9 1.2764292783625531e-8 7.436631748026555e-8 5.272140691625401e-9
          1.0542543077610228e-8 2.160593912475172e-8 1.87959945527421e-7 1.7567307610389788e-7 1.7926137405711028e-7 1.88175801062007e-7
          1.9291923131169235e-7 1.5773926755087486e-7 1.8931464720482754e-7 1.6266436873201073e-7 1.971211960471401e-7 1.2037414240634855e-7
          2.1073152838023936e-7 1.5096860740548286e-7 1.007834299967403e-7 7.764858788661545e-8 1.3591241540886278e-7 1.0317631181518974e-7
          1.5334401402795403e-8 2.1012100627576387e-8 1.0429257685107984e-8 1.1501803601992224e-8 1.4988339376820335e-8 5.171851386713394e-9
          6.129335242549889e-9 6.447691709012537e-9 9.478706537223757e-9 1.9316165041357696e-8 2.1230000847951183e-8 1.530473563536967e-8
          1.5409846869131624e-8 3.4237360161451726e-9 4.157585709452894e-9 3.823847400741616e-9 4.626333687492502e-9 6.507181692567489e-9
          6.869583956275245e-9 2.6986401396743625e-9 3.61135897179678e-9 4.026489758148975e-9 5.761361664036612e-9 1.2200967601296203e-8
          1.2244835120171516e-8 1.6179322302035934e-8 1.1200447335480848e-8 1.1290205957218794e-8 2.5298535004159403e-8 1.4024158221873672e-8
          1.5158850708216346e-8 1.507440513912034e-8 1.85996640095187e-8 2.505782902190248e-8 2.4988380672514945e-8 2.4918932323127407e-8
          1.3899799106164506e-8 1.5109239651115355e-8 1.830300080526543e-8 1.9053714461646735e-8 2.161947042552684e-8 2.225855980502177e-8
          2.2333156026575304e-8 2.2920940689227164e-8 2.36270634345086e-8 2.405313265122706e-8 2.6235227501526024e-8 2.6058118506121786e-8
          2.7391103158971067e-8 2.5881009510717548e-8 2.8785826536913805e-8 2.859867233862963e-8 2.841151814034546e-8 2.5390965621127213e-8
          2.5479904376410887e-8 2.6142302696698715e-8 2.6426021542988484e-8 2.5568843131694564e-8 2.670974038927824e-8 1.91131693433282e-8
          1.9979899679604175e-8 2.0357193973456883e-8 2.1492286520136804e-8 2.698305377559209e-8 2.7346109353357625e-8 2.7709164931123165e-8
          1.984317489234511e-8 2.095532814878077e-8 2.2763629595839525e-8 2.4421946827963593e-8 2.5300761375358617e-8 2.6060294127277094e-8
          2.6227227855724038e-8 2.829852973436237e-8 1.0546337149847808e-8 1.1566900035088229e-8 1.0770970701760409e-8 1.1749135250032165e-8
          1.509520561932295e-8 1.5268682745860768e-8 6.101375534159366e-9 6.880069967362463e-9 7.403602211317614e-9 9.740982986222477e-9
          1.1083205194243528e-8 1.2046129995766368e-8 1.1407082840826211e-8 1.2393384908062e-8 1.5539762642759122e-8 1.5900605840104844e-8
          7.20882387344338e-9 7.99736849501101e-9 8.671605766940532e-9 1.0554248482404429e-8 1.97310608405721e-8 2.016779821898444e-8
          2.1859173362826953e-8 2.252553074455127e-8 1.557158202024406e-8 1.5802003406596536e-8 1.9319962468608727e-8 2.064331110342512e-8
          2.1192007622877236e-8 2.3216151718621203e-8 2.396249054084257e-8 1.6129444146857524e-8 1.654846115594992e-8 1.9936304445484827e-8
          4.222628397050441e-9 5.1148174452485e-9 4.635944413557439e-9 5.631225658180644e-9 7.349122393195991e-9 7.92208512584907e-9
          3.3110218036040964e-9 4.444444317732181e-9 4.8791122546700545e-9 6.807026043074218e-9 5.0754588885877065e-9 6.177287057376654e-9
          5.550826403999894e-9 6.758790752412004e-9 8.57270266710595e-9 9.310207029617458e-9 3.999881312611202e-9 5.342857465148671e-9
          5.845751749604034e-9 8.062719193274552e-9 1.2403406974545538e-8 1.2680154187445342e-8 1.6115575656145652e-8 1.6142645025996398e-8
          1.1506301164220307e-8 1.1833338194644731e-8 1.4976417074152446e-8 1.3074358013772536e-8 1.3543855773197246e-8 1.6282425919498773e-8
          1.9856379647445592e-8 1.2255509251453104e-8 1.274774104574052e-8 1.507141373404324e-8 1.1769121420659852e-8 1.2796991943012594e-8
          1.2350728054033843e-8 1.339239049053876e-8 1.6345124835281975e-8 1.6938736907119382e-8 8.593624131633235e-9 9.459802773334935e-9
          1.0347539839144185e-8 1.1896880131586997e-8 1.3210189645704339e-8 1.4207892382155976e-8 1.7707110086689927e-8 1.0319106925139062e-8
          1.1306994670415988e-8 1.3779088885924298e-8 2.1845849602483032e-8 2.2610164617184953e-8 2.4826311999767457e-8 2.5776908347174824e-8
          1.7066803124886104e-8 1.77562590178258e-8 2.287314151777162e-8 2.347869137092558e-8 2.6748757687078913e-8 1.8628848246675597e-8
          2.448940301792667e-8 6.067440521161812e-9 7.390985415037798e-9 6.632589230797918e-9 8.087056518592542e-9 1.0161689508750433e-8
          1.112219309559637e-8 4.8062406744488615e-9 6.398240056922549e-9 7.010366320066358e-9 9.609777021021409e-9 7.256665847306547e-9
          8.853491653682362e-9 1.2181894267181247e-8 5.7894283653238e-9 7.691668801368781e-9 1.1577792403084903e-8 1.4102841364083622e-8
          1.4872777801063647e-8 2.180624002542488e-8 2.2422441645314928e-8 1.3341828855397513e-8 1.4152605425486987e-8 2.1098932710321228e-8
          1.5884057563299714e-8 2.328824869828888e-8 1.524057351937534e-8 2.244188568958548e-8 2.7060188983534245e-8 2.7112460988158787e-8
          2.752388820994819e-8 2.716473299278333e-8 2.777067497565009e-8 2.9084115827738e-8 2.8253580201255003e-8 3.0325642538572474e-8
          3.117187829775596e-8 2.7699266514184787e-8 2.8857037423294088e-8 2.8382886997099988e-8 2.991188477328004e-8 2.762785805271949e-8
          2.8629959018850178e-8 2.8512193792944973e-8 3.002130760822275e-8 3.132076187216286e-8 2.9716972677873035e-8 3.146964544656975e-8
          1.2562478696480587e-7 3.404362155222243e-7 3.1151740138412915e-7 2.543831293129366e-7 4.143668153257497e-7 3.2767304056503285e-7
          3.1541130477789675e-7 2.3510689675337144e-7 2.7525047770916935e-7 1.933923410166388e-7 1.8090397638592344e-7 1.3786446630272515e-7
          2.682676073969528e-7 2.0072571453603248e-7 9.389126256254946e-8 1.4153493966158336e-7 2.635869627693398e-7 1.8917861676061728e-7
          1.8489600015269713e-7 1.1371544035232418e-7 1.5796321035524966e-7 1.8339442296784235e-7 7.572582205490456e-8 1.7751513502833002e-7
          1.9220560889408e-7 8.038290881849217e-8 1.7220418350355426e-7 2.0547685744970387e-7 1.2732189816324925e-7 1.9240385908748852e-7
          1.6726063972175738e-7 1.917287353847627e-7 1.9849617372135411e-7 1.4530718402744942e-7 1.6786462479173968e-7 9.542895564439625e-8
          1.3432012889566303e-7 9.726355910140077e-8 1.908989009875247e-7 2.0053234690014593e-7 1.7416640728814628e-7 2.077216758151015e-7
          1.6109807606915483e-7 2.995514686494406e-8 2.7844853198355798e-8 2.8304808835309696e-8 2.87647644722636e-8 2.053181962111966e-8
          2.1659834073263324e-8 1.4291872356560093e-8 1.5217614642431272e-8 1.864856136545632e-8 1.1267485698283508e-8 1.2360154016670865e-8
          1.4970306647483843e-8 2.7206918739216784e-8 2.4459290234997572e-8 2.7764814667384953e-8 1.967861360062754e-8 7.951100510002961e-9
          9.702007337370909e-9 1.3361311259786899e-8 6.3696539428812645e-9 8.45373858541132e-9 1.2719766694037339e-8 1.711761944678354e-8
          2.428639025643619e-8 1.6589673423090366e-8 2.3439912697344225e-8 3.1647439401405323e-8 3.124840074114944e-8 3.288955150815865e-8
          3.084936208089354e-8
        </DataArray>
        <DataArray type="Float64" Name="gradient_matprop_error" format="ascii" RangeMin="0" RangeMax="0">
          0 0 0 0 0 0
          0 0 0 0 0 0
          0 0 0 0 0 0
          0 0 0 0 0 0
          0 0 0 0 0 0
          0 0 0 0 0 0
          0 0 0 0 0 0
          0 0 0 0 0 0
          0 0 0 0 0 0
          0 0 0 0 0 0
          0 0 0 0 0 0
          0 0 0 0 0 0
          0 0 0 0 0 0
          0 0 0 0 0 0
          0 0 0 0 0 0
          0 0 0 0 0 0
          0 0 0 0 0 0
          0 0 0 0 0 0
          0 0 0 0 0 0
          0 0 0 0 0 0
          0 0 0 0 0 0
          0 0 0 0 0 0
          0 0 0 0 0 0
          0 0 0 0 0 0
          0 0 0 0 0 0
          0 0 0 0 0 0
          0 0 0 0 0 0
          0 0 0 0 0 0
          0 0 0 0 0 0
          0 0 0 0 0 0
          0 0 0 0 0 0
          0 0 0 0 0 0
          0 0 0 0 0 0
          0 0 0 0 0 0
          0 0 0 0 0 0
          0 0 0 0 0 0
          0 0 0 0 0 0
          0 0 0 0 0 0
          0 0 0 0 0 0
          0 0 0 0 0 0
          0 0 0 0 0 0
          0 0 0 0 0 0
          0 0 0 0 0 0
          0 0 0 0 0 0
          0 0 0 0 0 0
          0 0 0 0 0 0
          0 0 0 0 0 0
          0 0 0 0 0 0
          0 0 0 0 0 0
          0 0 0 0 0 0
          0 0 0 0 0 0
          0 0 0 0 0 0
          0 0 0 0 0 0
          0 0 0 0 0 0
          0 0 0 0 0 0
          0 0 0 0 0 0
          0 0 0 0 0 0
          0 0 0 0 0 0
          0 0 0 0 0 0
          0 0 0 0 0 0
          0 0 0 0 0 0
          0 0 0 0 0 0
          0 0 0 0 0 0
          0 0 0 0 0 0
          0 0 0 0 0 0
          0 0 0 0 0 0
          0 0 0 0 0 0
          0 0 0 0 0 0
          0 0 0 0 0 0
          0 0 0 0 0 0
          0 0 0 0 0 0
          0 0 0 0 0 0
          0 0 0 0 0 0
          0 0 0 0 0 0
          0 0 0 0 0 0
          0 0 0 0 0 0
          0 0 0 0 0 0
          0 0 0 0 0 0
          0 0 0 0 0 0
          0 0 0 0 0 0
          0 0 0 0 0 0
          0 0 0 0 0 0
          0 0 0 0 0 0
          0 0 0 0 0 0
          0 0 0 0 0 0
          0 0 0 0 0 0
          0 0 0 0 0 0
          0 0 0 0 0 0
          0 0 0 0 0 0
          0 0 0 0 0 0
          0 0 0 0 0 0
          0 0 0 0 0 0
          0 0 0 0 0 0
          0 0 0 0 0 0
          0 0 0 0 0 0
          0
        </DataArray>
        <DataArray type="Float64" Name="initial_marker" format="ascii" RangeMin="0" RangeMax="2">
          0 0 0 0 0 0
          0 0 0 0 0 0
          0 0 0 0 0 1
          0 0 0 2 1 0
          1 0 0 0 2 2
          0 0 0 0 0 0
          0 0 0 0 0 0
          0 0 0 0 0 0
          0 0 0 0 0 0
          0 0 0 0 0 0
          0 0 0 0 0 0
          0 0 0 0 0 0
          0 0 0 0 0 0
          0 0 0 0 1 1
          0.5 0 0.5 0 1 0
          0 1 1 0 1 1
          0 0.5 0.6666666666666666 2 2 2
          1 0 0 1 1 0
          1 1 0 1 1 2
          2 2 1.3333333333333333 2 2 2
          1.5 1.5 2 2 2 1.5
          2 2 2 0 0.5 0
          0.5 0 0 0 1 1
          0 0 0.5 0 0 0
          0 1 0 0 0 1
          1 0 1 1 0 1
          1 0 0 0 0 0
          0 0 0 0 0 0
          0 0 0 2 2 2
          2 2 2 2 2 2
          2 2 2 2 2 2
          2 2 2 2 2 2
          2 2 2 2 2 2
          2 2 2 2 2 2
          2 2 2 2 2 2
          2 2 2 2 2 2
          2 2 2 2 2 2
          2 2 2 2 2 2
          2 2 2 2 2 2
          2 2 2 2 2 2
          2 2 2 2 2 2
          2 2 2 2 2 2
          2 2 2 2 2 2
          2 2 2 2 2 2
          2 2 2 2 2 2
          2 2 2 2 2 2
          2 2 2 2 2 2
          2 2 2 2 2 2
          2 2 2 2 2 2
          2 2 2 2 2 2
          2 2 2 2 2 2
          2 2 2 2 2 2
          2 2 2 2 2 2
          2 2 2 2 2 2
          2 2 2 2 2 2
          2 2 2 2 2 2
          2 2 2 2 2 2
          2 2 2 2 2 2
          2 2 2 2 2 2
          2 2 2 2 2 2
          2 2 2 2 2 2
          2 2 2 2 2 2
          2 2 2 2 2 2
          2 2 2 2 2 2
          2 2 2 2 2 2
          2 2 2 2 2 2
          2 2 2 2 2 2
          2 2 2 2 2 2
          2 2 2 2 2 2
          2 2 2 2 2 2
          2 2 2 2 2 2
          2 2 2 2 2 2
          2 2 2 2 2 2
          2 2 2 2 2 2
          2 2 2 2 2 2
          2 2 2 2 2 2
          2 2 2 2 2 2
          2 2 2 2 2 2
          2 2 2 2 2 2
          2 2 2 2 2 2
          2 2 2 2 2 2
          2 2 2 2 2 2
          2 2 2 2 2 2
          1 2 1.5 0.5 2 1
          2 2 2 2 1.3333333333333333 0
          1.5 0.5 0 0.5 1 1
          2 2 2 2 2 2
          2 2 2 2 2 2
          2 2 2 2 2 2
          2 2 2 2 2 2
          2 2 2 2 2 2
          2 2 2 2 2 2
          2 2 2 2 2 2
          2 2 2 2 2 2
          2 2 2 2 2 2
          2
        </DataArray>
        <DataArray type="Float64" Name="markers_norefine" format="ascii" RangeMin="0" RangeMax="2">
          0 0 0 0 0 0
          0 0 0 0 0 0
          0 0 0 0 0 0
          0 0 0 0 0 0
          0 0 0 0 2 0
          0 0 0 0 0 0
          0 0 0 0 0 0
          0 0 0 0 0 0
          0 0 0 0 0 0
          0 0 0 0 0 0
          0 0 0 0 0 0
          0 0 0 0 0 0
          0 0 0 0 0 0
          0 0 0 0 0 0
          0 0 0 0 0 0
          0 0 0 0 0 0
          0 0 0 0 0 0
          0 0 0 0 0 0
          0 0 0 0 0 0
          0 0 0 0 1 0
          0 0 1 1 0 0
          2 1.5 0 0 0 0
          0 0 0 0 0 0
          0 0 0 0 0 0
          0 0 0 0 0 0
          0 0 0 0 0 0
          0 0 0 0 0 0
          0 0 0 0 0 0
          0 0 0 0 0 0
          0 0 0 0 0 0
          0 0 0 0 0 0
          0 0 0 0 0 0
          0 0 0 0 0 0
          0 0 0 0 0.5 0
          0 0 0 0 0 0
          0 0 0 0 2 2
          0.5 2 0 0 0 0
          0 0 0 0 0 1
          1 1 0 0 0 0
          2 1 0 0 0 0
          0 0 0 0 0 0
          0 0 0 0 2 2
          2 2 1 1 2 2
          2 1 2 2 1.25 2
          2 2 0 0 0 0
          0 0 0 0 0 0
          0 0 0 0 0 0
          2 0 2 2 1.5 2
          2 2 2 0.5 0 1.5
          1.5 2 2 2 2 2
          2 2 2 2 2 2
          2 2 2 2 0 2
          2 2 1.5 0 0 0
          2 2 1.3333333333333333 2 0.5 1
          0 1 1 0 0 0
          0 0 0 0 0 0.5
          0.25 1 0.5 0 0 1.5
          1.25 1.5 1.3333333333333333 1 0.75 0.5
          2 1.75 1.6666666666666667 1 1 0
          1 0 2 2 2 2
          1.75 2 2 2 2 2
          2 2 2 2 2 2
          2 2 2 2 1 1.5
          0.5 1 1.75 2 1.5 1.5
          1.5 1 1 2 2 2
          2 2 2 2 2 2
          2 2 2 2 2 2
          2 2 2 2 2 2
          2 2 2 2 2 2
          2 2 2 2 2 2
          1.6666666666666667 2 2 2 2 2
          2 2 2 2 2 2
          2 2 2 2 2 2
          2 2 1.5 1.5 1 1
          2 2 1.3333333333333333 1.5 1 2
          2 2 2 2 2 2
          2 2 2 2 2 2
          2 2 2 2 2 2
          2 1.5 1.75 2 2 2
          2 2 2 2 0 0.5
          0 1 0 0.5 0 1
          0 0.5 0.75 0 0 1
          1 0 1 0 1 0
          0 0 0 0 0 0
          0 0 0 0 0 0
          0 0 0 0 0 0
          0 0 0 0 1.5 0
          0 1.5 0 0 0 0
          0 0 0 0 0 0
          0 0 0.5 0 0.5 0
          0 0 1 1 1 2
          2 2 2 2 2 2
          2 1 1.5 1 2 2
          2 2 2 2 2 2
          2 2 2 1 1 0
          1
        </DataArray>
        <DataArray type="Float64" Name="markers_mustrefine" format="ascii" RangeMin="0" RangeMax="2">
          0 0 0 0 0 0
          0 0 0 0 0 0
          0 0 0 0 0 1
          0 0 0 2 1 0
          1 0 0 0 2 2
          0 0 0 0 0 0
          0 0 0 0 0 0
          0 0 0 0 0 0
          0 0 0 0 0 0
          0 0 0 0 0 0
          0 0 0 0 0 0
          0 0 0 0 0 0
          0 0 0 0 0 0
          0 0 0 0 1 1
          0.5 0 0.5 0 1 0
          0 1 1 0 1 1
          0 0.5 0.6666666666666666 2 2 2
          1 0 0 1 1 0
          1 1 0 1 1 2
          2 2 1.3333333333333333 2 2 2
          1.5 1.5 2 2 2 1.5
          2 2 2 0 0.5 0
          0.5 0 0 0 1 1
          0 0 0.5 0 0 0
          0 1 0 0 0 1
          1 0 1 1 0 1
          1 0 0 0 0 0
          0 0 0 0 0 0
          0 0 0 2 2 2
          2 2 2 2 2 2
          2 2 2 2 2 2
          2 2 2 2 2 2
          2 2 2 2 2 2
          2 2 2 2 2 2
          2 2 2 2 2 2
          2 2 2 2 2 2
          2 2 2 2 2 2
          2 2 2 2 2 2
          2 2 2 2 2 2
          2 2 2 2 2 2
          2 2 2 2 2 2
          2 2 2 2 2 2
          2 2 2 2 2 2
          2 2 2 2 2 2
          2 2 2 2 2 2
          2 2 2 2 2 2
          2 2 2 2 2 2
          2 2 2 2 2 2
          2 2 2 2 2 2
          2 2 2 2 2 2
          2 2 2 2 2 2
          2 2 2 2 2 2
          2 2 2 2 2 2
          2 2 2 2 2 2
          2 2 2 2 2 2
          2 2 2 2 2 2
          2 2 2 2 2 2
          2 2 2 2 2 2
          2 2 2 2 2 2
          2 2 2 2 2 2
          2 2 2 2 2 2
          2 2 2 2 2 2
          2 2 2 2 2 2
          2 2 2 2 2 2
          2 2 2 2 2 2
          2 2 2 2 2 2
          2 2 2 2 2 2
          2 2 2 2 2 2
          2 2 2 2 2 2
          2 2 2 2 2 2
          2 2 2 2 2 2
          2 2 2 2 2 2
          2 2 2 2 2 2
          2 2 2 2 2 2
          2 2 2 2 2 2
          2 2 2 2 2 2
          2 2 2 2 2 2
          2 2 2 2 2 2
          2 2 2 2 2 2
          2 2 2 2 2 2
          2 2 2 2 2 2
          2 2 2 2 2 2
          2 2 2 2 2 2
          1 2 1.5 0.5 2 1
          2 2 2 2 1.3333333333333333 0
          1.5 0.5 0 0.5 1 1
          2 2 2 2 2 2
          2 2 2 2 2 2
          2 2 2 2 2 2
          2 2 2 2 2 2
          2 2 2 2 2 2
          2 2 2 2 2 2
          2 2 2 2 2 2
          2 2 2 2 2 2
          2 2 2 2 2 2
          2
        </DataArray>
        <DataArray type="Float64" Name="gradient_marker" format="ascii" RangeMin="0" RangeMax="1">
          1 1 1 1 1 0.5
          0.75 1 0.5 1 1 1
          1 1 0.5 1 0.5 0.875
          0.625 0.5 0.625 1 0.625 0.75
          0.75 0.8333333333333334 0.625 0.75 0 1
          0.5 0.5 0.75 1 0.75 0.5
          1 1 1 1 1 1
          1 1 1 1 1 1
          1 1 1 1 1 1
          1 1 1 1 1 1
          1 1 1 1 1 1
          1 1 1 1 1 1
          1 1 1 1 1 1
          1 1 1 0 0.5 0.5
          0.5 0.625 0.875 0.75 1 0
          0 0.5 0.5 0 0.5 0.5
          0 0.375 0.3333333333333333 1 0.5 0.75
          0.625 0 0 0.5 0.5 0
          0.5 0.5 0 0.5 0.5 1
          0.75 0.75 0.6666666666666666 0.75 0.5 0.75
          0.75 0.75 0.5 0.25 0.75 0.75
          0 0.25 1 0.375 0.625 0.3333333333333333
          0.5 0 0.25 0 0.75 0.5
          0.5 0.5 0.5 0.5 0 0
          0 0.5 0 0 0 0.5
          0.5 0 0.5 0.375 0 0.5
          0.25 0 0 0 0 0
          0.25 0 0 0.125 0 0
          0 0 0 0.5 1 0.75
          1 0.25 0 0 0 0
          1 1 1 0.5 1 1
          0.5 0 0 0 0 0