<?xml version="1.0"?>
<VTKFile type="UnstructuredGrid" version="0.1" byte_order="LittleEndian" header_type="UInt32" compressor="vtkZLibDataCompressor">
  <UnstructuredGrid>
    <Piece NumberOfPoints="594" NumberOfCells="313">
      <PointData>
        <DataArray type="Int32" Name="libmesh_node_id" format="ascii" RangeMin="28" RangeMax="5713">
          32 33 34 35 36 37
          38 39 40 41 42 43
          44 45 46 47 48 49
          50 51 92 93 94 95
          96 97 98 99 100 101
          130 131 132 133 134 135
          136 137 138 139 160 161
          162 163 164 185 186 187
          188 189 190 216 217 218
          242 243 244 245 246 247
          273 274 275 299 300 301
          302 303 304 330 331 332
          356 357 358 359 360 361
          387 388 389 401 402 405
          411 415 474 475 476 477
          478 479 480 481 482 483
          484 485 486 487 488 489
          490 491 492 493 494 498
          499 500 502 503 504 506
          785 786 787 788 789 790
          791 792 793 794 795 796
          797 798 799 800 801 802
          803 804 805 806 807 808
          809 810 811 812 813 814
          815 816 817 818 819 820
          821 825 826 828 829 831
          1240 1241 1242 1243 1246 1247
          1248 1249 1261 1263 1268 1271
          1290 1291 1292 1293 1294 1295
          1296 1300 1301 1302 1310 1311
          1312 1313 1316 1317 1318 1320
          1321 1323 1370 1371 1372 1373
          1374 1375 1376 1380 1381 1382
          1384 1385 1386 1387 1390 1391
          1392 1394 1395 1397 1548 1549
          1550 1551 1552 1553 1554 1555
          1556 1557 1558 1559 1560 1561
          2327 2328 2329 2330 2331 2332
          2333 2334 2335 2336 2337 2338
          2339 2340 2341 2342 2343 2344
          2345 2346 5056 5057 5058 5059
          5060 5061 5062 5063 5064 5065
          5066 5067 5068 5069 5070 5071
          5072 5073 5074 5075 5076 5077
          5078 5079 5169 5170 5171 5172
          5173 5174 5175 5176 5177 5178
          5179 5180 5181 5182 5183 5184
          5185 5186 5187 5188 5189 5190
          5191 5192 5193 5194 5195 5196
          5197 5198 5199 5200 5201 5202
          5203 5204 5205 5206 5207 5208
          5209 5210 5211 5212 5213 5214
          5215 5216 5217 5218 5219 5220
          5221 5222 5223 5224 5225 5226
          5227 5228 5229 5230 5231 5232
          5233 5234 5235 5236 5237 5238
          5239 5264 5265 5266 5267 5268
          5269 5304 5305 5306 5307 5308
          5309 5310 5311 5312 5313 5314
          5315 5316 5317 5318 5319 5591
          5592 5593 5594 5595 5596 5597
          5598 5599 5600 5601 5602 5603
          5604 5605 5606 5607 5608 5609
          5610 5611 5612 5613 5614 5615
          5616 5617 5618 5619 5620 5621
          5622 5623 5624 5625 5626 5627
          5628 5629 5630 5631 5632 5633
          5634 5635 5636 5637 5638 5639
          5640 5641 5642 5643 5644 5645
          5646 5647 5648 5649 5650 5651
          5652 5653 5654 5655 5656 5657
          5658 5659 5660 5661 5662 5663
          5664 5665 5666 5667 5668 5669
          5670 5671 5672 5673 5674 5675
          5676 5677 5678 5679 5680 5681
          5682 5683 5684 5685 5686 5687
          5688 5689 5690 5691 5692 5693
          5694 5695 5696 5697 5698 5699
          5700 5701 5702 5703 5704 5705
          5706 5707 5708 5709 5710 5711
          5712 5713 28 29 30 31
          90 91 128 129 159 126
          127 183 184 191 192 193
          194 195 196 158 215 219
          220 221 240 241 248 249
          272 276 298 329 306 333
          400 409 404 410 495 497
          501 496 822 823 824 827
          413 830 505 1244 1245 621
          622 625 631 399 406 1260
          1262 1266 1267 417 1270 1273
          1297 1298 1299 1303 403 1314
          1315 1319 414 1322 1377 1378
          1379 1383 1388 1389 1393 1396
          5159 5161 5164 5258 5259 5260
          5263 297 5296 5297 5300 355
          5302 386 5541 5542 5543 5546
          5160 5549 5563 5564 5566 354
          5569 5167 5583 5584 5587 5589
        </DataArray>
        <DataArray type="Float64" Name="bounds" format="ascii" RangeMin="0" RangeMax="0">
          0 0 0 0 0 0
          0 0 0 0 0 0
          0 0 0 0 0 0
          0 0 0 0 0 0
          0 0 0 0 0 0
          0 0 0 0 0 0
          0 0 0 0 0 0
          0 0 0 0 0 0
          0 0 0 0 0 0
          0 0 0 0 0 0
          0 0 0 0 0 0
          0 0 0 0 0 0
          0 0 0 0 0 0
          0 0 0 0 0 0
          0 0 0 0 0 0
          0 0 0 0 0 0
          0 0 0 0 0 0
          0 0 0 0 0 0
          0 0 0 0 0 0
          0 0 0 0 0 0
          0 0 0 0 0 0
          0 0 0 0 0 0
          0 0 0 0 0 0
          0 0 0 0 0 0
          0 0 0 0 0 0
          0 0 0 0 0 0
          0 0 0 0 0 0
          0 0 0 0 0 0
          0 0 0 0 0 0
          0 0 0 0 0 0
          0 0 0 0 0 0
          0 0 0 0 0 0
          0 0 0 0 0 0
          0 0 0 0 0 0
          0 0 0 0 0 0
          0 0 0 0 0 0
          0 0 0 0 0 0
          0 0 0 0 0 0
          0 0 0 0 0 0
          0 0 0 0 0 0
          0 0 0 0 0 0
          0 0 0 0 0 0
          0 0 0 0 0 0
          0 0 0 0 0 0
          0 0 0 0 0 0
          0 0 0 0 0 0
          0 0 0 0 0 0
          0 0 0 0 0 0
          0 0 0 0 0 0
          0 0 0 0 0 0
          0 0 0 0 0 0
          0 0 0 0 0 0
          0 0 0 0 0 0
          0 0 0 0 0 0
          0 0 0 0 0 0
          0 0 0 0 0 0
          0 0 0 0 0 0
          0 0 0 0 0 0
          0 0 0 0 0 0
          0 0 0 0 0 0
          0 0 0 0 0 0
          0 0 0 0 0 0
          0 0 0 0 0 0
          0 0 0 0 0 0
          0 0 0 0 0 0
          0 0 0 0 0 0
          0 0 0 0 0 0
          0 0 0 0 0 0
          0 0 0 0 0 0
          0 0 0 0 0 0
          0 0 0 0 0 0
          0 0 0 0 0 0
          0 0 0 0 0 0
          0 0 0 0 0 0
          0 0 0 0 0 0
          0 0 0 0 0 0
          0 0 0 0 0 0
          0 0 0 0 0 0
          0 0 0 0 0 0
          0 0 0 0 0 0
          0 0 0 0 0 0
          0 0 0 0 0 0
          0 0 0 0 0 0
          0 0 0 0 0 0
          0 0 0 0 0 0
          0 0 0 0 0 0
          0 0 0 0 0 0
          0 0 0 0 0 0
          0 0 0 0 0 0
          0 0 0 0 0 0
          0 0 0 0 0 0
          0 0 0 0 0 0
          0 0 0 0 0 0
          0 0 0 0 0 0
          0 0 0 0 0 0
          0 0 0 0 0 0
          0 0 0 0 0 0
          0 0 0 0 0 0
          0 0 0 0 0 0
        </DataArray>
        <DataArray type="Float64" Name="gradient_error" format="ascii" RangeMin="2.854491953319793e-12" RangeMax="0.000002183593500617743">
          1.7976184692927427e-10 1.1524003020572355e-10 4.689479683302122e-10 3.0302661325331524e-10 2.3018873516955296e-10 1.318743716345047e-10
          6.15278485452957e-10 3.529511198675901e-10 1.2758161958775083e-10 7.442053952849652e-11 3.295570212138506e-10 1.930896409429919e-10
          1.9749801285088416e-11 1.5067199980772664e-11 4.587832060450232e-11 3.669364619220851e-11 6.559151152514591e-12 4.706821552917193e-12
          1.5670931984699134e-11 1.1775818386603805e-11 5.0718213482172836e-11 1.371052581764184e-10 3.356000809945642e-11 9.062375428222325e-11
          2.1259459469242195e-11 5.662226067213316e-11 1.0384598676456907e-11 2.7508971779914712e-11 2.854491953319793e-12 7.880704788508478e-12
          1.912161946726521e-9 1.2587192320222221e-9 2.5227159063669925e-9 1.4609636217600305e-9 1.3200861774430587e-9 7.827665355267814e-10
          1.6754387171045996e-10 1.4307725190820705e-10 5.9820170393679e-11 4.7627699947194436e-11 6.052765173179224e-10 3.992113371530684e-10
          2.4544689361050453e-10 1.1861063210595415e-10 3.5435229500709874e-11 6.5289089930591184e-9 4.814290442058179e-9 7.74999971129524e-9
          5.210519094145091e-9 1.018869891036414e-8 5.9726948798649584e-9 3.0996718910572392e-9 2.671038476994941e-9 1.756690849365775e-9
          1.0443861370576816e-8 1.0574297864317961e-8 2.2745790834573748e-8 1.2251647484579528e-8 3.168458409391388e-8 1.181047835002828e-8
          1.1222422018514028e-8 1.2411225269093662e-8 1.023590379785878e-8 1.3517864468446165e-7 2.1587363351472052e-7 2.0015892327795238e-7
          1.6674205426742372e-7 5.378195883986399e-7 1.0330924613353593e-7 1.1490073116869307e-8 1.2506846155968552e-8 1.2052317251754186e-8
          0.00000104741164659463 1.9896784335378845e-7 0.0000014079008226543494 3.136585916800314e-7 1.5051126965659645e-7 9.815891569910689e-7
          4.241701420695672e-8 3.331245051820902e-8 7.524885608963379e-8 3.5143945651349823e-7 0.000001028814936936995 0.0000010515184191588572
          5.55976343239353e-7 0.0000015239475473977418 5.78269622006265e-7 4.0214320777416594e-7 2.3475857348435025e-7 0.000001035451308135975
          0.000001411856234900229 0.0000010849270446466953 6.262218748518273e-7 1.8013676110283986e-7 6.045948444153494e-7 2.536410421728451e-7
          0.0000016567203859305842 0.000001917134448239682 0.0000012302008301762052 0.0000010297995945971399 2.881738897778911e-7 5.210739303654023e-7
          9.102281540042466e-7 7.113937052041593e-7 3.1018220425836786e-7 5.629555813198517e-7 0.0000010109826611936326 6.22926513414423e-7
          6.491916370566782e-7 0.0000010300852696088944 1.6479585351313318e-7 3.2030907188389366e-7 7.783164512612257e-7 4.760448311776286e-7
          0.0000019591733236212636 0.0000016729461345716494 0.0000011695336029398952 0.000001771995204181141 0.0000014743166178713149 0.0000016285877367388357
          0.000001743114651093736 0.000001386718945522035 0.000001785156223069889 0.0000012987643734290808 9.681585529013471e-7 0.000001586129780695732
          0.0000018637157849254673 0.000002183593500617743 2.9688217397403393e-7 2.9335460915829326e-7 2.849482347181563e-7 2.196545890876818e-7
          2.2670411526006022e-7 2.6604351449409243e-7 2.5488611924557114e-7 3.0895163607126917e-7 2.3586547200968044e-7 2.7830381491891175e-7
          2.8888817257470765e-7 3.061072339929295e-7 2.930658774333734e-7 3.209559310661221e-7 1.5545721689030125e-7 2.2326676847555343e-7
          2.162235704406808e-7 2.3272856830553377e-7 3.088644997686284e-7 3.240261596712616e-7 3.2283782133847234e-7 2.477366517448111e-7
          2.9274184976459334e-7 3.18720015620337e-7 3.3568667099139256e-7 1.7389136540583835e-7 2.4471314220319695e-7 3.349632132738649e-7
          2.1346260875771347e-8 1.3909587121027054e-8 2.8737302752381e-8 1.3530115471772826e-7 8.397743946895316e-8 6.472913366282762e-9
          1.9549581065157538e-8 3.265372422017809e-8 2.0773271779770432e-8 1.1251802276030452e-7 4.08721647611575e-8 2.042627737408386e-7
          8.413406365819661e-8 6.970663722460984e-8 1.0893891046413531e-7 2.2983912239141969e-7 2.1871861159351186e-7 1.705692402648744e-7
          1.8128141066872401e-7 5.527921079102307e-8 1.2241986893623693e-7 1.3272369894602834e-7 2.218932047804245e-7 2.3929587497082654e-7
          3.297813665765264e-7 3.484218806737447e-7 9.856503797174801e-8 1.4938126966067575e-7 2.2073089832775227e-7 4.3766952837262833e-7
          4.5754788637666287e-7 2.0019750134960353e-7 2.2016300492486135e-7 2.1286915170835834e-7 2.1523950665278478e-7 2.682369690187316e-7
          2.7331669309180036e-7 2.588871185296567e-7 2.5463185863151665e-7 2.055752984918553e-7 2.44457543967513e-7 2.410267482443017e-7
          2.7783303724691714e-7 2.723942638037956e-7 2.969925376713968e-7 2.904233738092621e-7 2.4280499364418956e-7 2.6035878114438424e-7
          2.596770433144231e-7 3.161520380958765e-7 3.084524838147286e-7 2.779125686445788e-7 2.652087951604661e-7 2.642505486313736e-7
          2.437543252630753e-7 2.270477009701218e-7 2.2167870398001544e-7 2.4197871037869994e-7 2.3500408744277597e-7 2.6329230210228114e-7
          2.6227871677738444e-7 2.4296047391543014e-7 1.7814861279956478e-7 2.1970687212602623e-7 2.2625384962247662e-7 2.6126513145248773e-7
          2.368807538710433e-7 2.2564460038365562e-7 2.3335251412694644e-7 2.6632297603475134e-7 2.66347044094646e-7 2.5176677909380535e-7
          2.5054994109024615e-7 2.1440844689626795e-7 2.3718651409296475e-7 2.34776906145741e-7 2.662486563672573e-7 2.6236673684477725e-7
          2.863150265892014e-7 2.8474269640371806e-7 2.4548688369549693e-7 2.6579849892066834e-7 2.7052305931423715e-7 3.0638139681114543e-7
          3.0711865596265893e-7 2.8611011414583975e-7 1.6632828352790657e-8 1.3667125551371365e-8 9.986199712324991e-9 6.199010996895828e-8
          8.47304205922236e-8 6.573785805463634e-8 5.470893205059455e-8 2.2404050915770557e-8 1.2269034445685593e-7 8.391772606888625e-8
          1.0701422749952072e-8 4.674529551704905e-8 4.7427754132230804e-8 4.514510768091657e-8 1.5856444329147106e-7 2.4625970248758294e-7
          2.6525271696483985e-7 2.4878619818154755e-7 5.0174191321779956e-8 3.1191120142672274e-8 1.569434435500808e-7 9.929535898185643e-8
          1.2208048963564595e-8 4.1647274413632046e-8 1.2356544371547494e-7 2.872459922926975e-7 8.84773106739971e-7 7.045695503347105e-7
          9.345044135983011e-7 6.856883763826781e-7 3.131448785336575e-7 2.907401199088092e-7 2.5826183398256353e-7 9.104730936171314e-7
          0.000001014805009082187 0.0000010847669582477016 2.109249119410232e-7 9.850518099290182e-7 6.598921263125162e-7 2.464300766591869e-7
          0.0000012105108381210141 0.0000011571374351008703 2.3410170533963475e-7 2.4531784633954896e-8 2.28073914734366e-8 1.2042012422803717e-7
          8.022655291867927e-8 6.500766363029685e-9 3.882820339805162e-8 1.8929354257091752e-8 2.1630846382211945e-7 1.3764571436392192e-7
          7.115564043307356e-8 2.087895286984763e-7 1.6738816408771296e-7 1.5463702448180313e-7 2.901009636484231e-7 2.731992611148449e-7
          2.277811213947427e-7 2.441376763585685e-7 1.750888150808293e-7 2.645186075349466e-7 2.1933129468825257e-7 1.259867994769496e-7
          1.823629816746405e-7 1.981743890687139e-7 1.7414398184155853e-7 0.000001060775606566131 9.190309699482671e-7 9.045082858998642e-7
          6.482712965928966e-7 0.0000015432982206609625 0.0000016532699633107545 0.000001638109967226574 0.0000015380379372205547 0.0000010600197229811873
          0.000001040831782167791 0.0000015225977070204604 0.000001726332073258386 0.0000016006976308767145 0.0000012670020830091955 3.0083058041315463e-7
          3.1774444658306214e-7 4.058842813929248e-7 4.219335798924708e-7 2.9186151872097885e-7 3.972579370095108e-7 2.1141993770842546e-7
          3.1467908796586805e-7 2.949812492295061e-7 3.266909497444418e-7 5.10937982372695e-7 5.261227132018794e-7 5.026543552980428e-7
          4.179382382233106e-7 1.2965616719286663e-8 1.0405992061610735e-8 5.044465516656568e-8 4.8494740990694336e-8 7.846367403934806e-9
          4.6544826814822986e-8 1.3176763952636704e-8 4.1748238036941986e-8 1.6403002539598486e-8 3.3619855761921696e-8 8.30844795813226e-9
          3.3168866980707076e-8 2.401519764298587e-8 7.031971212124726e-8 5.083670898424489e-8 5.802928600328189e-8 1.962527774776645e-8
          4.541198322642859e-8 3.918739881063712e-9 1.40735699691756e-8 7.119868870509072e-8 2.422840005728749e-8 1.62592290109631e-7
          1.542145844252637e-7 3.64641264127136e-7 3.1857406950712214e-7 1.4943895686010954e-7 3.5854910040338505e-7 3.119411993078273e-7
          1.4583687874089643e-7 2.7250687488710823e-7 2.653332982122696e-7 8.604532507147123e-7 7.860649277994716e-7 8.041927812622135e-7
          6.539808127022832e-7 1.5713653984659475e-7 1.4548966646168578e-7 3.5115579320601e-7 3.041574090130502e-7 1.4274017359701644e-7
          3.423232369457532e-7 2.9510762621984615e-7 1.3384279307677682e-7 2.5715902482009043e-7 2.4789201549393904e-7 9.094837838492942e-7
          8.221495585290932e-7 8.397973510929285e-7 6.660727238444969e-7 0.0000010024559516961706 0.0000010514077041370205 0.000001061064150053704
          0.0000011047597358191179 8.812462853389042e-7 9.051865183884176e-7 8.506956401075576e-7 0.0000010136191072640783 0.0000010755773508693539
          9.811097871410437e-7 0.000001124866420248418 0.0000011624168814879992 0.0000011943274783517564 0.0000012248655590203273 9.291347817944995e-7
          9.528886581842747e-7 9.75940319363673e-7 0.0000011433597974822268 0.000001217611494697474 0.0000010493981061039555 3.8588153788314734e-7
          4.7478686399223015e-7 3.805330061812864e-7 4.72308527012051e-7 2.3317384742790706e-7 2.874406138845221e-7 2.826993388317983e-7
          5.636921901013129e-7 5.640840478428156e-7 3.4170738034113705e-7 3.739620391566834e-7 4.6848022436060653e-7 3.660374695706848e-7
          4.631191989456248e-7 2.1933657319766015e-7 2.7865822785979425e-7 2.75864721211599e-7 5.629984095645297e-7 5.602009283205646e-7
          3.379798825219283e-7 1.5901770759952722e-7 1.4162797255751148e-7 3.3189359668601586e-7 2.846673250230359e-7 1.4274244596989364e-7
          3.197430207551604e-7 2.727290335505401e-7 1.2423823751549574e-7 2.3744105336005591e-7 2.2571504634591983e-7 9.59736238150309e-7
          8.569981735419746e-7 8.735900558322798e-7 6.713392500695597e-7 1.7358660303589794e-7 1.467728238495502e-7 3.0577840499350454e-7
          2.592115809346793e-7 1.1995904466320244e-7 2.1264475687585398e-7 0.0000010103088620310637 8.894475603402806e-7 6.666105066661499e-7
          0.000001270007341067459 0.0000012927163630831554 0.0000013527146451100078 0.0000013667889903372892 9.762200800125694e-7 9.9883992257561e-7
          0.0000011253116916068045 0.0000012991430565709217 0.0000013891134901412052 0.000001120753219523107 0.0000014434628996642392 0.0000014481371141789754
          0.0000010204604741447387 0.0000013042782822174623 0.0000014890294456971982 0.0000011936704228345049 3.5661080288200706e-7 4.5600156030279533e-7
          3.4552809707815597e-7 4.4691233888075797e-7 2.0772407342261509e-7 2.749883456793035e-7 2.7700816817486634e-7 5.553923177235836e-7
          5.482965806833599e-7 3.422526179359919e-7 3.3262193662000435e-7 4.356072512498662e-7 2.025848705405537e-7 2.831048829039671e-7
          5.385925658797281e-7 3.6362489526738045e-7 1.7747115305843433e-10 1.1598333302683966e-10 4.334643208659124e-10 2.9210675709336816e-10
          5.449551299524499e-11 1.5074919332082398e-10 1.6817200532089538e-9 1.1829269699685807e-9 6.841338867282076e-10 2.767770936956561e-9
          1.6816710187824193e-9 1.0867691047372014e-8 6.868018280917102e-9 5.238543310576717e-9 3.1516096039957707e-9 6.163065842827783e-10
          5.645678936000438e-10 2.299198587306857e-10 1.9477877047052236e-10 5.95571100608278e-10 2.8683455144621902e-9 1.0646758974148238e-9
          5.128292029173094e-10 1.5963768221035898e-10 1.7907935512942784e-8 1.0197648060944406e-8 6.293595864759132e-9 5.530757035929548e-9
          8.814078338454276e-9 5.3400815323731225e-9 2.6088516117878263e-7 1.2077047706423565e-8 2.8972514934352927e-8 5.487235047577487e-9
          8.190048087218892e-8 7.597698552071694e-8 5.0019193439395e-7 9.570586551803344e-8 5.172704085302957e-7 5.761514871080329e-7
          6.543849359402781e-7 3.3864151976850857e-7 3.365443937448413e-7 2.612490217257468e-7 3.0827676634018926e-7 3.507190038510882e-7
          1.840346582587035e-7 2.5844738236387193e-7 3.51116338979102e-7 5.845482915092993e-8 3.9002205108043734e-8 3.6465817151378396e-9
          1.1408248341198758e-8 1.0398822174129404e-8 9.389396007060049e-9 5.985456901454447e-8 3.231238840196008e-8 1.2621871690947341e-8
          5.068472327743154e-8 4.18261458517112e-9 1.768774989519454e-8 1.0552366567913347e-7 8.874757486391573e-8 3.119288520521796e-8
          2.465721945012017e-8 1.982282513364873e-7 1.498758957566479e-7 1.0152354017680844e-7 2.9665585652627604e-7 1.8852263764278634e-7
          2.9120150190021307e-7 5.298077829352762e-8 5.031042478778359e-7 3.9388036615763985e-7 2.1353822499677602e-7 2.7991030266340246e-7
          2.64260431084976e-7 2.4861055950654965e-7 2.8438636188469177e-7 3.053345313836482e-7 2.6453556601975156e-7 3.2628270088260455e-7
          3.09651934855421e-7 7.17678097602005e-7 3.342162579846091e-7 1.2173143596026711e-8 4.537691435198652e-8 4.4628359130011484e-8
          4.387980390803645e-8 1.195894303981752e-7 1.3876651349507511e-8 6.094731091548374e-8 3.967198443421906e-8 2.4642297724416255e-7
          1.0801797048145999e-7 6.806926323723124e-8 1.5954800379773807e-7 3.6957433091128053e-7 3.241706445879395e-7 2.787669582645985e-7
          8.365936293519026e-7 7.678803712293963e-7 9.485919091921744e-7 0.0000010019375801752569 8.574724733621641e-7 7.962203280851924e-7
          9.56907703269862e-7 9.484048906541986e-7 3.9012948475346216e-7 4.760882372808565e-7 2.9251477899572406e-7 5.620469898082509e-7
        </DataArray>
        <DataArray type="Float64" Name="gradient_matprop_error" format="ascii" RangeMin="0" RangeMax="0">
          0 0 0 0 0 0
          0 0 0 0 0 0
          0 0 0 0 0 0
          0 0 0 0 0 0
          0 0 0 0 0 0
          0 0 0 0 0 0
          0 0 0 0 0 0
          0 0 0 0 0 0
          0 0 0 0 0 0
          0 0 0 0 0 0
          0 0 0 0 0 0
          0 0 0 0 0 0
          0 0 0 0 0 0
          0 0 0 0 0 0
          0 0 0 0 0 0
          0 0 0 0 0 0
          0 0 0 0 0 0
          0 0 0 0 0 0
          0 0 0 0 0 0
          0 0 0 0 0 0
          0 0 0 0 0 0
          0 0 0 0 0 0
          0 0 0 0 0 0
          0 0 0 0 0 0
          0 0 0 0 0 0
          0 0 0 0 0 0
          0 0 0 0 0 0
          0 0 0 0 0 0
          0 0 0 0 0 0
          0 0 0 0 0 0
          0 0 0 0 0 0
          0 0 0 0 0 0
          0 0 0 0 0 0
          0 0 0 0 0 0
          0 0 0 0 0 0
          0 0 0 0 0 0
          0 0 0 0 0 0
          0 0 0 0 0 0
          0 0 0 0 0 0
          0 0 0 0 0 0
          0 0 0 0 0 0
          0 0 0 0 0 0
          0 0 0 0 0 0
          0 0 0 0 0 0
          0 0 0 0 0 0
          0 0 0 0 0 0
          0 0 0 0 0 0
          0 0 0 0 0 0
          0 0 0 0 0 0
          0 0 0 0 0 0
          0 0 0 0 0 0
          0 0 0 0 0 0
          0 0 0 0 0 0
          0 0 0 0 0 0
          0 0 0 0 0 0
          0 0 0 0 0 0
          0 0 0 0 0 0
          0 0 0 0 0 0
          0 0 0 0 0 0
          0 0 0 0 0 0
          0 0 0 0 0 0
          0 0 0 0 0 0
          0 0 0 0 0 0
          0 0 0 0 0 0
          0 0 0 0 0 0
          0 0 0 0 0 0
          0 0 0 0 0 0
          0 0 0 0 0 0
          0 0 0 0 0 0
          0 0 0 0 0 0
          0 0 0 0 0 0
          0 0 0 0 0 0
          0 0 0 0 0 0
          0 0 0 0 0 0
          0 0 0 0 0 0
          0 0 0 0 0 0
          0 0 0 0 0 0
          0 0 0 0 0 0
          0 0 0 0 0 0
          0 0 0 0 0 0
          0 0 0 0 0 0
          0 0 0 0 0 0
          0 0 0 0 0 0
          0 0 0 0 0 0
          0 0 0 0 0 0
          0 0 0 0 0 0
          0 0 0 0 0 0
          0 0 0 0 0 0
          0 0 0 0 0 0
          0 0 0 0 0 0
          0 0 0 0 0 0
          0 0 0 0 0 0
          0 0 0 0 0 0
          0 0 0 0 0 0
          0 0 0 0 0 0
          0 0 0 0 0 0
          0 0 0 0 0 0
          0 0 0 0 0 0
          0 0 0 0 0 0
        </DataArray>
        <DataArray type="Float64" Name="initial_marker" format="ascii" RangeMin="0" RangeMax="2">
          0 0 0 0 0 0
          0 0 0 0 0 0
          0 0 0 0 0 0
          0 0 0 0 0 0
          0 0 0 0 0 0
          0 0 0 0 0 0
          0 0 0 0 0 0
          0 0 0 0 0 0
          0 0 0 0 0 0
          0 0 0 0 0 0
          0 0 0 0 0 0
          0 0 0 0 0 0
          0 0 0 0 1 0
          0 0 0 0 0 0
          0 0 0 0 0 0
          0 0 0 0 0 0
          0 0 0 0 0 0
          0 0 0.5 0 0 0
          0 0 2 0 0 0
          0 0 0 0 0 0
          0 0 0 0 0 0
          0 0 0 0 0 0.5
          1 0.5 0.25 0.25 1.5 0.75
          0 0 0 0 2 1
          0.5 1 0 1 0.5 2
          1.25 0 0.25 2 1.5 0.5
          0 0 0 0 0 0
          0 0 0 0 0 0
          0 0 0 0 0 0
          0 0 0 0 0 0
          0 0 0 0 0 0
          0 0 0 0 0 0
          0 0 0 0 0 0
          0 0 0 0 0 0
          0 0 0 0 0 0
          0 0 0 0 0 0
          0 0 0 0 0 0
          0 0 0 0 0 0
          0 0 0 0 0 0
          0 0 0 0 0 0
          0 0 0 0 0 0
          0 0 0 0 0 0
          0 0 0 0 0 0
          0 0 0 0 0 0
          0 0 0 0 0 0
          0 0 0 0 0 0
          0 0 0 0 0 0
          0 0 0 0 0 0
          0 0 0 0 0 0
          0 0 0 0 0 0
          0 0 0 0 0 0
          0 0 0 0 0 0
          0 0 0 0 0 0
          0 0 0 0 0 0
          0 0 0 0 0 0
          0 0 0 0 0 0
          0 0 0 0 0 0
          0 0 0 0 0 0
          0 0 0 0 0 0
          0 0 0 0 0 0
          0 0 0 0 0 0
          0 0 0 0 0 0
          0 0 0 0 0 0
          0 0 0 0 0 0
          0 0 0 0 0 0
          0 0 0 0 0 0
          0 0 0 0 0 0
          0 0 0 0 0 0
          0 0 0 0 0 0
          0 0 0 0 0 0
          0 0 0 0 0 0
          0 0 0 0 0 0
          0 0 0 0 0 0
          0 0 0 0 0 0
          0 0 0 0 0 0
          0 0 0 0 0 0
          0 0 0 0 0 0
          0 0 0 0 0 0
          0 0 0 0 0 0
          0 0 0 0 0 0
          0 0 0 0 0 0
          0 0 0 0 0 0
          0 0 0 0 0 0
          0 0 0 0 0 0
          0 0 0 0 0 0
          0 0 0 0 0 0
          0 0 0 0 0 0
          0 1 0.5 2 1.5 0.5
          2 2 1 0 0 0
          0 0 0 0 0 0
          0 0 0 0 0 0
          0 0 0 0 0 0
          0 0 0 0 0 0
          0 0 0 0 0 0
          0 0 0 0 0 0
          0 0 0 0 0 0
          0 0 0 0 0 0
          0 0 0 0 0 0
          0 0 0 0 0 0
        </DataArray>
        <DataArray type="Float64" Name="markers_norefine" format="ascii" RangeMin="0" RangeMax="0">
          0 0 0 0 0 0
          0 0 0 0 0 0
          0 0 0 0 0 0
          0 0 0 0 0 0
          0 0 0 0 0 0
          0 0 0 0 0 0
          0 0 0 0 0 0
          0 0 0 0 0 0
          0 0 0 0 0 0
          0 0 0 0 0 0
          0 0 0 0 0 0
          0 0 0 0 0 0
          0 0 0 0 0 0
          0 0 0 0 0 0
          0 0 0 0 0 0
          0 0 0 0 0 0
          0 0 0 0 0 0
          0 0 0 0 0 0
          0 0 0 0 0 0
          0 0 0 0 0 0
          0 0 0 0 0 0
          0 0 0 0 0 0
          0 0 0 0 0 0
          0 0 0 0 0 0
          0 0 0 0 0 0
          0 0 0 0 0 0
          0 0 0 0 0 0
          0 0 0 0 0 0
          0 0 0 0 0 0
          0 0 0 0 0 0
          0 0 0 0 0 0
          0 0 0 0 0 0
          0 0 0 0 0 0
          0 0 0 0 0 0
          0 0 0 0 0 0
          0 0 0 0 0 0
          0 0 0 0 0 0
          0 0 0 0 0 0
          0 0 0 0 0 0
          0 0 0 0 0 0
          0 0 0 0 0 0
          0 0 0 0 0 0
          0 0 0 0 0 0
          0 0 0 0 0 0
          0 0 0 0 0 0
          0 0 0 0 0 0
          0 0 0 0 0 0
          0 0 0 0 0 0
          0 0 0 0 0 0
          0 0 0 0 0 0
          0 0 0 0 0 0
          0 0 0 0 0 0
          0 0 0 0 0 0
          0 0 0 0 0 0
          0 0 0 0 0 0
          0 0 0 0 0 0
          0 0 0 0 0 0
          0 0 0 0 0 0
          0 0 0 0 0 0
          0 0 0 0 0 0
          0 0 0 0 0 0
          0 0 0 0 0 0
          0 0 0 0 0 0
          0 0 0 0 0 0
          0 0 0 0 0 0
          0 0 0 0 0 0
          0 0 0 0 0 0
          0 0 0 0 0 0
          0 0 0 0 0 0
          0 0 0 0 0 0
          0 0 0 0 0 0
          0 0 0 0 0 0
          0 0 0 0 0 0
          0 0 0 0 0 0
          0 0 0 0 0 0
          0 0 0 0 0 0
          0 0 0 0 0 0
          0 0 0 0 0 0
          0 0 0 0 0 0
          0 0 0 0 0 0
          0 0 0 0 0 0
          0 0 0 0 0 0
          0 0 0 0 0 0
          0 0 0 0 0 0
          0 0 0 0 0 0
          0 0 0 0 0 0
          0 0 0 0 0 0
          0 0 0 0 0 0
          0 0 0 0 0 0
          0 0 0 0 0 0
          0 0 0 0 0 0
          0 0 0 0 0 0
          0 0 0 0 0 0
          0 0 0 0 0 0
          0 0 0 0 0 0
          0 0 0 0 0 0
          0 0 0 0 0 0
          0 0 0 0 0 0
          0 0 0 0 0 0
        </DataArray>
        <DataArray type="Float64" Name="markers_mustrefine" format="ascii" RangeMin="0" RangeMax="2">
          0 0 0 0 0 0
          0 0 0 0 0 0
          0 0 0 0 0 0
          0 0 0 0 0 0
          0 0 0 0 0 0
          0 0 0 0 0 0
          0 0 0 0 0 0
          0 0 0 0 0 0
          0 0 0 0 0 0
          0 0 0 0 0 0
          0 0 0 0 0 0
          0 0 0 0 0 0
          0 0 0 0 1 0
          0 0 0 0 0 0
          0 0 0 0 0 0
          0 0 0 0 0 0
          0 0 0 0 0 0
          0 0 0.5 0 0 0
          0 0 2 0 0 0
          0 0 0 0 0 0
          0 0 0 0 0 0
          0 0 0 0 0 0.5
          1 0.5 0.25 0.25 1.5 0.75
          0 0 0 0 2 1
          0.5 1 0 1 0.5 2
          1.25 0 0.25 2 1.5 0.5
          0 0 0 0 0 0
          0 0 0 0 0 0
          0 0 0 0 0 0
          0 0 0 0 0 0
          0 0 0 0 0 0
          0 0 0 0 0 0
          0 0 0 0 0 0
          0 0 0 0 0 0
          0 0 0 0 0 0
          0 0 0 0 0 0
          0 0 0 0 0 0
          0 0 0 0 0 0
          0 0 0 0 0 0
          0 0 0 0 0 0
          0 0 0 0 0 0
          0 0 0 0 0 0
          0 0 0 0 0 0
          0 0 0 0 0 0
          0 0 0 0 0 0
          0 0 0 0 0 0
          0 0 0 0 0 0
          0 0 0 0 0 0
          0 0 0 0 0 0
          0 0 0 0 0 0
          0 0 0 0 0 0
          0 0 0 0 0 0
          0 0 0 0 0 0
          0 0 0 0 0 0
          0 0 0 0 0 0
          0 0 0 0 0 0
          0 0 0 0 0 0
          0 0 0 0 0 0
          0 0 0 0 0 0
          0 0 0 0 0 0
          0 0 0 0 0 0
          0 0 0 0 0 0
          0 0 0 0 0 0
          0 0 0 0 0 0
          0 0 0 0 0 0
          0 0 0 0 0 0
          0 0 0 0 0 0
          0 0 0 0 0 0
          0 0 0 0 0 0
          0 0 0 0 0 0
          0 0 0 0 0 0
          0 0 0 0 0 0
          0 0 0 0 0 0
          0 0 0 0 0 0
          0 0 0 0 0 0
          0 0 0 0 0 0
          0 0 0 0 0 0
          0 0 0 0 0 0
          0 0 0 0 0 0
          0 0 0 0 0 0
          0 0 0 0 0 0
          0 0 0 0 0 0
          0 0 0 0 0 0
          0 0 0 0 0 0
          0 0 0 0 0 0
          0 0 0 0 0 0
          0 0 0 0 0 0
          0 1 0.5 2 1.5 0.5
          2 2 1 0 0 0
          0 0 0 0 0 0
          0 0 0 0 0 0
          0 0 0 0 0 0
          0 0 0 0 0 0
          0 0 0 0 0 0
          0 0 0 0 0 0
          0 0 0 0 0 0
          0 0 0 0 0 0
          0 0 0 0 0 0
          0 0 0 0 0 0
        </DataArray>
        <DataArray type="Float64" Name="gradient_marker" format="ascii" RangeMin="1" RangeMax="1">
          1 1 1 1 1 1
          1 1 1 1 1 1
          1 1 1 1 1 1
          1 1 1 1 1 1
          1 1 1 1 1 1