<?xml version="1.0"?>
<VTKFile type="UnstructuredGrid" version="0.1" byte_order="LittleEndian" header_type="UInt32" compressor="vtkZLibDataCompressor">
  <UnstructuredGrid>
    <Piece NumberOfPoints="714" NumberOfCells="364">
      <PointData>
        <DataArray type="Int32" Name="libmesh_node_id" format="ascii" RangeMin="268" RangeMax="5915">
          348 426 427 428 429 460
          461 505 506 507 538 539
          621 622 624 625 626 627
          628 629 630 632 633 634
          635 636 637 638 639 640
          641 642 643 644 645 646
          647 648 784 789 794 798
          799 800 801 803 806 808
          809 810 811 812 813 814
          815 816 817 818 819 820
          821 856 857 858 859 860
          861 862 863 864 865 904
          905 906 907 908 909 910
          911 912 913 1016 1017 1018
          1019 1020 1021 1022 1023 1024
          1025 1026 1027 1028 1029 1030
          1031 1032 1033 1034 1035 1036
          1037 1038 1039 1040 1041 1042
          1043 1044 1045 1046 1047 1048
          1049 1050 1051 1052 1053 1054
          1055 1484 1521 1543 1544 1545
          1546 1547 1548 1549 1550 1551
          1552 1554 1555 1556 1568 1570
          1571 1572 1574 1575 1576 1587
          1588 1589 1590 1591 1592 1593
          1594 1595 1596 1597 1598 1599
          1600 1899 1900 1903 1904 1906
          1908 1909 1910 1911 1912 1913
          1914 1915 1916 1917 1918 1919
          1920 2680 2681 2682 2683 2684
          2685 2689 2762 2763 2767 2768
          2769 2772 2773 2774 2775 2776
          2777 2781 2782 2783 2784 2785
          2786 2787 2788 2789 2790 2791
          2792 2793 2794 2795 2796 2797
          2798 2799 2800 2801 2806 2807
          2811 2816 2817 2821 2822 2823
          2824 2825 2826 2827 2828 2829
          2830 2831 2832 2833 2834 2835
          2856 2857 2859 2860 2862 2863
          2864 2865 2867 2868 2869 2880
          2881 2882 2883 2884 2885 2886
          2887 2888 2889 2900 2901 2902
          2903 2904 2905 2906 2907 2908
          2909 2930 2931 2932 2933 2934
          2935 2936 2937 2938 2939 2940
          2941 2942 2943 2944 2945 2946
          2947 2948 2949 3039 3040 3041
          3042 3043 3044 3045 3046 3047
          3048 3049 3050 3051 3052 3053
          3054 3055 3056 3057 3058 3059
          3060 3061 3062 3063 3064 3065
          3069 3070 3071 3072 3073 3074
          3075 3076 3077 3078 3079 3080
          3081 3082 3083 3084 3085 3100
          3101 3102 3103 3104 3105 3106
          3107 3108 3109 3110 3111 3112
          3113 3114 3115 3116 3117 3118
          3119 3120 3121 3122 3123 3124
          3125 3126 3127 3128 3129 3130
          3131 3132 3133 3134 3135 3136
          3137 3138 3139 3140 3141 3142
          3143 3144 3145 3146 4889 5420
          5421 5424 5429 5430 5431 5434
          5457 5458 5461 5464 5465 5468
          5492 5519 5520 5523 5533 5534
          5535 5536 5537 5538 5539 5540
          5541 5542 5543 5544 5545 5546
          5547 5548 5549 5550 5551 5552
          5553 5554 5555 5556 5557 5558
          5559 5560 5561 5562 5563 5564
          5565 5566 5567 5568 5569 5570
          5571 5572 5573 5574 5575 5576
          5577 5578 5579 5580 5581 5582
          5583 5584 5585 5586 5587 5610
          5611 5614 5617 5618 5621 5644
          5645 5648 5651 5652 5655 5678
          5679 5682 5683 5684 5685 5686
          5687 5688 5689 5712 5713 5716
          5717 5718 5719 5720 5721 5722
          5723 5724 5725 5726 5727 5728
          5729 5730 5731 5732 5733 5734
          5735 5736 5737 5738 5739 5740
          5741 5742 5743 5744 5745 5746
          5747 5748 5749 5750 5751 5752
          5753 5754 5755 5756 5757 5758
          5759 5760 5761 5762 5763 5764
          5765 5766 5767 5768 5769 5770
          5771 5772 5773 5774 5775 5776
          5777 5778 5779 5780 5781 5782
          5783 5784 5785 5786 5787 5788
          5789 5790 5791 5792 5793 5794
          5795 5796 5797 5798 5799 5800
          5801 5802 5803 5804 5805 5806
          5807 5808 5809 5810 5811 5812
          5813 5814 5815 5816 5817 5818
          5819 5820 5821 5822 5823 5889
          5890 5891 5892 5893 5894 5895
          5896 5897 5898 5909 5910 5911
          5912 5913 5914 5915 268 270
          271 269 346 349 347 272
          273 350 351 352 353 430
          431 382 381 425 459 383
          384 462 508 509 540 611
          613 616 850 851 852 855
          424 896 897 900 503 902
          537 990 991 992 995 795
          1008 1009 1012 1014 802 807
          1533 1535 1538 1536 1537 1905
          1907 1577 1581 1579 1580 1583
          1585 2674 797 2718 2720 2668
          2651 2669 2672 1541 3095 3096
          3099 1562 2848 2754 2849 2852
          805 2854 5097 4988 5098 5101
          2705 5103 5022 5123 5125 1560
          5127 2722 5138 5139 5142 5144
          5244 5346 5348 2739 5350 2752
          5360 5362 5364 5278 5374 5376
          1565 5378 2756 5388 5390 5392
        </DataArray>
        <DataArray type="Float64" Name="bounds" format="ascii" RangeMin="0" RangeMax="0">
          0 0 0 0 0 0
          0 0 0 0 0 0
          0 0 0 0 0 0
          0 0 0 0 0 0
          0 0 0 0 0 0
          0 0 0 0 0 0
          0 0 0 0 0 0
          0 0 0 0 0 0
          0 0 0 0 0 0
          0 0 0 0 0 0
          0 0 0 0 0 0
          0 0 0 0 0 0
          0 0 0 0 0 0
          0 0 0 0 0 0
          0 0 0 0 0 0
          0 0 0 0 0 0
          0 0 0 0 0 0
          0 0 0 0 0 0
          0 0 0 0 0 0
          0 0 0 0 0 0
          0 0 0 0 0 0
          0 0 0 0 0 0
          0 0 0 0 0 0
          0 0 0 0 0 0
          0 0 0 0 0 0
          0 0 0 0 0 0
          0 0 0 0 0 0
          0 0 0 0 0 0
          0 0 0 0 0 0
          0 0 0 0 0 0
          0 0 0 0 0 0
          0 0 0 0 0 0
          0 0 0 0 0 0
          0 0 0 0 0 0
          0 0 0 0 0 0
          0 0 0 0 0 0
          0 0 0 0 0 0
          0 0 0 0 0 0
          0 0 0 0 0 0
          0 0 0 0 0 0
          0 0 0 0 0 0
          0 0 0 0 0 0
          0 0 0 0 0 0
          0 0 0 0 0 0
          0 0 0 0 0 0
          0 0 0 0 0 0
          0 0 0 0 0 0
          0 0 0 0 0 0
          0 0 0 0 0 0
          0 0 0 0 0 0
          0 0 0 0 0 0
          0 0 0 0 0 0
          0 0 0 0 0 0
          0 0 0 0 0 0
          0 0 0 0 0 0
          0 0 0 0 0 0
          0 0 0 0 0 0
          0 0 0 0 0 0
          0 0 0 0 0 0
          0 0 0 0 0 0
          0 0 0 0 0 0
          0 0 0 0 0 0
          0 0 0 0 0 0
          0 0 0 0 0 0
          0 0 0 0 0 0
          0 0 0 0 0 0
          0 0 0 0 0 0
          0 0 0 0 0 0
          0 0 0 0 0 0
          0 0 0 0 0 0
          0 0 0 0 0 0
          0 0 0 0 0 0
          0 0 0 0 0 0
          0 0 0 0 0 0
          0 0 0 0 0 0
          0 0 0 0 0 0
          0 0 0 0 0 0
          0 0 0 0 0 0
          0 0 0 0 0 0
          0 0 0 0 0 0
          0 0 0 0 0 0
          0 0 0 0 0 0
          0 0 0 0 0 0
          0 0 0 0 0 0
          0 0 0 0 0 0
          0 0 0 0 0 0
          0 0 0 0 0 0
          0 0 0 0 0 0
          0 0 0 0 0 0
          0 0 0 0 0 0
          0 0 0 0 0 0
          0 0 0 0 0 0
          0 0 0 0 0 0
          0 0 0 0 0 0
          0 0 0 0 0 0
          0 0 0 0 0 0
          0 0 0 0 0 0
          0 0 0 0 0 0
          0 0 0 0 0 0
          0 0 0 0 0 0
          0 0 0 0 0 0
          0 0 0 0 0 0
          0 0 0 0 0 0
          0 0 0 0 0 0
          0 0 0 0 0 0
          0 0 0 0 0 0
          0 0 0 0 0 0
          0 0 0 0 0 0
          0 0 0 0 0 0
          0 0 0 0 0 0
          0 0 0 0 0 0
          0 0 0 0 0 0
          0 0 0 0 0 0
          0 0 0 0 0 0
          0 0 0 0 0 0
          0 0 0 0 0 0
          0 0 0 0 0 0
          0 0 0 0 0 0
          0 0 0 0 0 0
        </DataArray>
        <DataArray type="Float64" Name="gradient_error" format="ascii" RangeMin="1.0522090934744152e-13" RangeMax="1.7019314247423994e-8">
          3.7831923420013886e-11 1.938284534433445e-11 8.490520747504905e-11 6.460770421949761e-13 1.760344287778373e-12 1.1472290298224206e-10
          2.902697342744012e-12 1.0587479455925923e-11 8.972787238678184e-13 5.002135587693217e-13 7.926565991267435e-12 3.503056534254054e-13
          2.171300890352918e-10 2.786846705089286e-10 2.78723057617416e-10 3.438513614107886e-11 3.054239124519569e-12 1.7665250425513756e-11
          3.0970659702920907e-10 2.2081312804753161e-10 2.5825751216226553e-11 1.1244659519252915e-9 1.2080175152486592e-11 1.6195075485427306e-10
          1.6516737729457494e-12 2.123411408270045e-12 5.281202286228551e-13 1.1874312686987007e-12 6.260985533861162e-13 8.769690896312473e-13
          6.895053940826421e-13 2.009830549939141e-12 1.7129793482469008e-12 4.4839942045182673e-13 1.8828917479544773e-12 6.085285364908657e-13
          7.575412169950854e-13 1.4973966081209041e-12 3.8011168999668784e-10 5.005568185855134e-10 3.55009412936762e-11 3.230322600914302e-12
          2.698092835224081e-12 3.1197489892210904e-12 2.372954048242092e-11 8.20718143433782e-12 5.048712068198352e-12 4.718023751014619e-13
          7.724386843184511e-13 1.1226174468173251e-12 9.171101720119886e-13 3.453768995439319e-13 1.4340292180747486e-12 9.595831151040757e-13
          1.1236441690779067e-12 1.408592568462885e-12 4.593420625512405e-13 3.475829181319198e-12 1.336972491584279e-12 1.5555780107133258e-12
          1.6204507771566853e-12 6.159322728176523e-11 6.769754623233401e-11 1.663370968359079e-10 1.7780574691372122e-10 1.1797066706434088e-11
          2.2029330954956547e-11 2.514993812327122e-11 7.380186518290277e-11 1.8927439699153454e-10 2.827054529158589e-11 9.381769222365455e-11
          1.0527974036336105e-10 2.1441612212291732e-11 1.7047915180464528e-11 5.607958980606758e-11 5.763268241569952e-11 1.1406241228484285e-11
          1.1674178850306752e-10 1.2654218148637331e-11 5.918577502533146e-11 8.278589572375675e-10 6.038850026889798e-10 2.395337289150275e-9
          1.724700280902873e-9 1.0463646543990564e-10 4.897902922936793e-10 2.7567845039606943e-10 3.7991104814039227e-10 1.0540632726554715e-9
          6.156660849845954e-11 1.3969434605811538e-11 1.4286517298829907e-11 3.8055250277718834e-11 2.679906268804317e-11 4.717720385897265e-12
          4.559139130716007e-12 5.1202167984846075e-12 1.4603599991848275e-11 1.5542875098367508e-11 5.681294466253207e-12 5.71460214526049e-10
          7.31407758889533e-10 2.860844648234762e-10 3.7981853306573577e-10 1.9073609710158214e-10 2.321063157704364e-10 1.1709277782480226e-10
          8.913553032530171e-10 4.735526013079954e-10 2.734765344392907e-10 2.870789610269354e-11 3.607423056461387e-11 5.549491657216517e-12
          8.965823029746268e-12 7.829537204511231e-12 1.2280570160439353e-11 3.3776604121088048e-12 4.34405650265342e-11 1.2382154402276016e-11
          1.6731603116367476e-11 3.156376518238782e-10 3.710083757273426e-9 1.8634687976468344e-12 1.5089850081771177e-12 1.1375086661242526e-12
          1.1608005534730438e-12 6.217603825105046e-13 8.251956428916482e-13 8.144999114866534e-13 1.2861864784856046e-12 2.289982256632534e-12
          9.00050391444283e-13 4.171015020164335e-12 2.2811250231729975e-12 4.9105304190826366e-12 7.883144620677539e-11 4.944436863692142e-12
          2.02427704738174e-11 4.498271127531259e-12 3.2637593495010545e-10 9.345333090979094e-12 1.776636304744964e-11 8.630855419465331e-13
          1.359823001182709e-12 2.5455544339559502e-12 2.327170401751453e-12 6.403680327367571e-13 2.8981583798638253e-12 2.0765761184117562e-12
          1.591034196326624e-12 1.9182473477802062e-12 8.364738598303091e-13 4.664900632628569e-12 2.7629279643675463e-12 3.0596906200271935e-12
          1.6556890446333173e-12 1.1130480095671513e-10 2.763093480886166e-10 1.8843822188243005e-10 1.2222763637180356e-11 3.963802387073671e-12
          1.4014899751894945e-11 5.8068498544963246e-11 1.2331766386147723e-11 5.93787671611275e-12 8.764384802994531e-12 3.0287440419018842e-12
          3.2765550166912182e-12 6.333429088037457e-12 1.1688383923598984e-11 2.5205982689755473e-12 1.0626571934813919e-11 2.789001914509702e-12
          1.4860527170738484e-11 3.9581953763983544e-13 4.333261821348705e-12 3.6032725497629e-12 6.724144895696694e-13 3.7008904761229206e-12
          2.5492237698768384e-12 7.672824326771658e-12 6.013209529225009e-11 1.399782025134688e-11 3.6838923089092397e-10 3.399280361356467e-12
          2.7532819470502986e-12 2.664871515697877e-12 5.04177404099298e-12 4.0462773295028115e-12 3.297274854823849e-12 5.34995501228423e-12
          4.1987087729391685e-12 1.4529098019986755e-11 9.497686479256194e-12 2.3961323361749086e-11 4.68427023152938e-12 1.3236495911922485e-11
          1.0574029324572828e-11 1.9924858627807836e-11 1.5126735800706435e-11 7.371181685751224e-11 2.646811832350609e-11 3.282872853138668e-11
          3.90723991577849e-12 5.6315527835839656e-12 1.5115335842716104e-12 4.347377627762894e-12 2.117294852038859e-12 5.116897177532415e-12
          2.1270625783417183e-12 1.1220123489049755e-11 5.114701550535565e-12 1.173212851464164e-11 1.0809752367509864e-9 2.294553233731619e-10
          1.5369608018307179e-9 3.892810634001781e-11 6.797771564864093e-12 5.5028525719038494e-11 1.9173138755894385e-10 4.528080202127331e-11
          5.511751984419623e-11 1.8705145422584052e-11 2.6936301006822845e-10 5.899757510475867e-11 7.041915314825635e-11 1.3875663173357085e-11
          5.6152719384616755e-12 1.0201062126264733e-11 4.71063269052157e-12 1.2973705005277987e-11 7.1266078170107185e-12 6.728521439789292e-12
          3.530693998328697e-12 2.836722001023999e-12 2.7910901272689395e-12 1.8450821215123994e-12 3.346672189077649e-12 2.485994229015675e-12
          3.2423840387390823e-12 2.0082699085997823e-12 3.644267017677633e-12 4.175586457562346e-12 4.1777517408837554e-12 1.6817062845999175e-12
          1.598549663271602e-12 2.224083331304961e-12 2.0157493092412466e-12 9.040430487744542e-13 7.37594019153988e-13 7.67385292188244e-13
          1.5153930419432869e-12 1.8074152871775315e-12 7.971765652225e-13 1.0668325516976756e-12 1.321038357296563e-12 4.841293500452824e-13
          3.8399174502820343e-13 1.1606258029434928e-12 8.838228734826915e-13 3.732263476867902e-13 1.5752441628954501e-12 2.838541400111245e-13
          6.0701994402189e-13 9.248772892077637e-13 1.001473777352094e-12 8.402234884347985e-13 8.995227157105865e-13 6.029777960197893e-13
          2.8805197574443837e-13 4.65071687806414e-13 1.0780702654964244e-12 9.588219429863744e-13 6.420913998683896e-13 9.295915663543262e-13
          1.3115539900592119e-12 4.1686709825532176e-13 4.487401544804159e-13 6.536789863438292e-13 6.94468309945946e-13 4.639331959917532e-13
          1.693516413764098e-12 4.806132107055102e-13 7.352576335480626e-13 1.904773657153352e-12 3.296898747102379e-12 1.081947384006627e-12
          1.2456494752844853e-12 2.391675576042896e-12 3.2711465378291632e-12 1.4659825214662126e-12 2.2464118646301961e-13 1.7943826142210013e-13
          4.5140243908229717e-13 3.348598713246375e-13 1.0522090934744152e-13 1.4288232148161601e-13 1.462476790123185e-13 1.3423533638118067e-13
          2.183173035669778e-13 1.49613036543021e-13 7.860396383795001e-13 1.1248566538191587e-12 3.955941055671551e-13 4.818239944671516e-13
          5.59085941631442e-13 7.623652972232421e-13 5.456941262333721e-13 1.4636736692588173e-12 5.680538833671482e-13 9.656446528150422e-13
          3.950050081400858e-13 3.5389805804669236e-13 1.1374793587629494e-12 9.555630252514566e-13 3.3387484902122697e-13 3.3077869137920094e-13
          3.000257070831552e-13 3.127911079532989e-13 7.73646691739964e-13 2.692727227871094e-13 6.82947987148978e-13 3.188503267060837e-12
          4.295352815890356e-13 1.5543451550831545e-12 8.578005339325299e-13 1.873891963659193e-12 1.2075855568899819e-12 9.910672851108203e-13
          9.116429076712306e-13 2.8789329400782778e-12 2.3759547781407645e-12 5.878804600664098e-13 9.79507219235925e-13 8.801433912491283e-13
          8.322185302316409e-13 1.8729766162032517e-12 7.807795632623317e-13 2.1906122925860604e-12 2.9523339779457074e-12 9.119724046280933e-13
          1.0787183359695318e-12 1.1278899807267266e-12 1.3511048128727993e-12 8.060483191264108e-13 3.714055663305353e-12 1.2454642673109704e-12
          1.5743196450188721e-12 3.990591790849076e-12 8.221585903830516e-12 2.2842023428099507e-12 3.831328008069561e-12 2.5565433218586203e-12
          4.082892402701153e-12 2.703769575001827e-12 2.344778798227716e-11 8.224691009052794e-12 7.757595133602025e-12 4.526331589430428e-11
          1.2893224922736398e-11 1.1645267834160711e-11 5.6099055828876875e-12 5.60836358408662e-11 1.6138640168558192e-11 1.338458688466106e-11
          2.6024541526826154e-12 3.3209158612095845e-12 1.474777384419707e-12 1.485187434693975e-12 1.9995458116346175e-12 2.2697061237607795e-12
          1.1582012259859463e-12 4.039377569736554e-12 1.4955974849682425e-12 2.539866435886941e-12 1.1989244719579335e-11 3.6894509680052226e-11
          1.8778656896414026e-11 1.1892203944074296e-10 4.211294255071802e-12 9.082110265004724e-12 4.945925772004731e-12 2.889177072798246e-11
          3.2340103244158723e-10 1.6291618277141884e-10 7.325009617760682e-10 7.787429801593204e-11 3.5295760397938135e-11 1.7513834299246646e-10
          6.958514863013547e-12 1.5128830538695943e-11 7.37319259284087e-12 3.365613150455978e-11 6.126028787019887e-12 8.69670897940137e-12
          1.8857965148528898e-11 4.5578870935046224e-12 9.720993802190678e-12 6.0691499908018165e-12 1.2022614403433996e-11 6.351801399630649e-12
          5.841208672979068e-11 2.976609413143071e-11 3.0985209943030063e-11 2.4371029645849046e-12 4.7572277326837e-12 1.7910802763058793e-12
          3.0589122045781175e-12 1.7339554350994316e-12 3.203381567627534e-12 2.148003367866532e-12 1.435143782736176e-11 8.066842809107781e-12
          9.111851727282059e-12 1.5396137571592795e-10 7.78963088435843e-11 6.343014900520305e-11 3.890049578893883e-11 3.4112698902522547e-10
          1.722008863728034e-10 1.364930879145424e-10 3.731928410615178e-11 1.7007294974021366e-11 2.253023863343694e-11 1.0349789743401808e-11
          8.224845575634047e-11 3.728947492772789e-11 3.991255480585502e-11 1.502422820853559e-11 2.3924985032752574e-11 1.0827628477269449e-11
          1.6397742400264977e-11 9.402682634260358e-12 1.3931798764412217e-11 1.0588504583454532e-11 4.890950153919104e-11 2.9248531900595685e-11
          2.5815109895069466e-11 4.40623782667718e-12 7.349660532796148e-12 2.7683737943971806e-12 4.33652759019074e-12 2.9277550667703963e-12
          4.632653180826027e-12 2.8873537254265452e-12 1.5977427661332577e-11 7.797442048500666e-12 9.65077883109928e-12 1.3746982489081448e-9
          6.92264905502169e-10 2.140483759286521e-9 3.2849583261738737e-10 1.4728249220126178e-10 5.129317484852662e-10 2.7807110584892057e-9
          1.4081483318550364e-9 3.031671751009358e-9 6.686993525583033e-10 2.9893402215960556e-10 7.301681682467529e-10 6.259332201038819e-11
          2.5201657085166562e-11 9.706773735525118e-11 1.6949488384246037e-11 6.090724539551087e-12 9.63129160647529e-12 4.263146527528493e-12
          2.603893050225721e-11 9.31161273644378e-12 1.4843503574626458e-11 1.2621587132350884e-10 5.047398006964003e-11 1.3771679699174923e-10
          3.366433349802288e-11 1.199957244862544e-11 1.917596166732075e-11 8.348161629249251e-12 3.6651175313834454e-11 1.3049614284644188e-11
          2.089101885587157e-11 6.32973935435531e-10 3.1894690659438607e-10 2.4814524533198e-10 1.2530432829062064e-10 9.827451441630933e-10
          4.947509971159451e-10 3.797051307446583e-10 1.523569692253552e-10 6.896734003392916e-11 5.994758119846331e-11 3.350497835499579e-11
          2.3587339416944936e-10 1.0653747023926022e-10 9.196321144788338e-11 8.609283478971529e-11 4.375462628560539e-11 4.21702583492359e-11
          2.236559963135733e-11 1.2872201882801747e-10 6.5420983495538e-11 6.092878918808786e-11 1.607968263290119e-11 2.122155427588177e-11
          1.062680296667737e-11 1.3592796613829961e-11 1.0177407584437046e-11 1.2082574612817582e-11 8.626916719727076e-12 3.1650749490052854e-11
          1.689509026524255e-11 1.6155986908228223e-11 1.2783552651533368e-9 6.436504317006546e-10 4.903133127381769e-10 2.4741964465500394e-10
          1.395031934091029e-9 7.024354395477683e-10 5.338912013258067e-10 3.062345041547624e-10 1.3799288494196218e-10 1.1865565573236776e-10
          5.3977002659888e-11 3.33952291967018e-10 1.5034425741861273e-10 1.2916600951334554e-10 1.6401538660567336e-10 8.321805085117045e-11
          7.664693996727157e-11 3.911139174141366e-11 1.7777914391332985e-10 9.02145175932124e-11 8.260751336126438e-11 4.036760746846315e-11
          1.8700107481229244e-11 1.9446782007247513e-11 9.643751696195537e-12 4.3797141875682933e-11 2.0336974695085936e-11 2.0569331839236697e-11
          2.945694159734806e-11 1.1937960005215931e-11 1.7434811082032202e-11 7.146449048793624e-12 4.545809016994724e-11 1.844001790997632e-11
          2.13180298921216e-11 3.3883367836761507e-12 4.615862422174537e-12 1.9700069073099613e-12 2.544742654460974e-12 2.22019901659187e-12
          2.880472659271541e-12 1.6573537351526762e-12 7.0689539650254845e-12 3.767877104968712e-12 4.304144474240058e-12 5.901582632311505e-11
          2.394942678753698e-11 2.3342745928012357e-11 1.1947865024771773e-11 6.43675834172817e-11 2.6150915385794336e-11 2.5661254916216064e-11
          9.11091362661533e-12 4.838930748165336e-12 5.5720486369511676e-12 3.066907910293417e-12 9.927307383852613e-12 5.261585688005236e-12
          6.076554627373432e-12 7.811222038158854e-12 8.378994716070159e-12 5.064849631866026e-12 5.153137472678271e-12 5.240988442335147e-12
          4.911290021028158e-12 3.297489938987433e-12 8.946767393981463e-12 5.241425313490516e-12 4.5815915997211704e-12 1.5106028217551983e-12
          2.0436254962505285e-12 7.879025622604923e-13 1.0265560284428394e-12 1.175480709773725e-12 1.5558551412039815e-12 7.980244982998008e-13
          3.117817619658331e-12 1.540598404608788e-12 2.3429859443786752e-12 3.999040577793429e-12 1.976087201748092e-12 3.0032659506156462e-12
          1.5267076224479225e-12 4.339094087016054e-12 2.136187088903794e-12 3.2567895851081803e-12 8.350329357050616e-11 4.204464540289246e-11
          3.9046181652745007e-11 7.608523864318319e-11 2.0127499846790208e-10 8.823412888129904e-11 2.3525752203643325e-10 2.4288676254574916e-12
          2.0154391696490765e-12 2.3906482674835583e-12 3.1837743125922043e-12 5.001599787460646e-13 5.484836816469576e-13 4.279494120976466e-13
          4.800032421770151e-13 1.3599434852673374e-10 2.797203971369706e-10 1.200205500124098e-9 3.24099920232679e-10 3.972142943614254e-12
          5.968073845478504e-13 5.320570722563837e-13 3.9617300809576507e-13 3.6813814344413535e-13 3.4010327879250573e-13 1.6856599122557841e-9
          1.7019314247423994e-8 1.1407516049299476e-9 2.588930921710012e-10 7.519088165145945e-10 7.159761375901329e-10 6.800434586656711e-10
          1.9075491801289973e-9 4.115550213687592e-10 4.769369579534995e-10 2.0761135933666252e-10 9.158001580626853e-10 5.4231889453824e-10
          2.1731783843377215e-10 2.1817638764280733e-9 7.301942687805231e-9 6.271745151864107e-9 5.241547615922982e-9 2.176751251830105e-11
          1.1169711823176346e-9 1.813478965713052e-9 7.105569854907528e-10 2.50998674910847e-9 5.002343319596986e-11 8.860090150036493e-11
          7.250131011885221e-12 4.813567214906541e-12 1.2056249085980532e-11 1.537499846799266e-11 6.006381797664226e-11 7.996120991104296e-11
          1.612074413304357e-11 1.4761945261800628e-10 1.5926562020317628e-10 3.1388364673522657e-11 4.922306144426779e-11 8.393345518976817e-11
          6.353868923942307e-11 3.038035132558795e-11 3.363883498031003e-11 6.246108681177094e-11 4.255892362241679e-11 2.077011861052755e-12
          8.820306327729735e-12 9.456593170136512e-12 4.50815602217213e-12 2.3676163274770117e-11 1.1505001219770243e-11 2.4626332551132563e-11
          1.0389269891887627e-11 8.3724110051189e-11 6.759326512232444e-11 1.7662921434261954e-10 1.2775586426978467e-10 1.8227675324566537e-11
          2.269153394527008e-10 1.5807286217741537e-10 1.6276457886282862e-11 6.91268618810005e-11 3.524059370446936e-11 2.2342080085741202e-11
          2.2344753624533584e-10 1.0943789194639853e-10 6.081224637297968e-10 2.890468779423147e-10 1.196254577740619e-10 1.3742330095092421e-9
          6.407020254879365e-10 2.570096682485219e-10 2.7297554936203808e-11 4.4855842263098744e-11 2.417789571517956e-11 9.235652821489344e-11
          2.565164159289803e-9 1.1886555283839044e-9 4.665644659983613e-10 3.967245782094453e-9 1.8427023696216437e-9 7.143689006434879e-10
          1.621091928874493e-10 7.912125969116662e-11 2.4283680131417325e-10 5.125766024929047e-9 2.3924888379695368e-9 9.223712734914134e-10
          5.5768108072774806e-9 2.6089026440022105e-9 1.0043271650625767e-9 3.0973695722236696e-10 1.4632579312319717e-10 3.3571977075149277e-10
        </DataArray>
        <DataArray type="Float64" Name="gradient_matprop_error" format="ascii" RangeMin="0" RangeMax="0">
          0 0 0 0 0 0
          0 0 0 0 0 0
          0 0 0 0 0 0
          0 0 0 0 0 0
          0 0 0 0 0 0
          0 0 0 0 0 0
          0 0 0 0 0 0
          0 0 0 0 0 0
          0 0 0 0 0 0
          0 0 0 0 0 0
          0 0 0 0 0 0
          0 0 0 0 0 0
          0 0 0 0 0 0
          0 0 0 0 0 0
          0 0 0 0 0 0
          0 0 0 0 0 0
          0 0 0 0 0 0
          0 0 0 0 0 0
          0 0 0 0 0 0
          0 0 0 0 0 0
          0 0 0 0 0 0
          0 0 0 0 0 0
          0 0 0 0 0 0
          0 0 0 0 0 0
          0 0 0 0 0 0
          0 0 0 0 0 0
          0 0 0 0 0 0
          0 0 0 0 0 0
          0 0 0 0 0 0
          0 0 0 0 0 0
          0 0 0 0 0 0
          0 0 0 0 0 0
          0 0 0 0 0 0
          0 0 0 0 0 0
          0 0 0 0 0 0
          0 0 0 0 0 0
          0 0 0 0 0 0
          0 0 0 0 0 0
          0 0 0 0 0 0
          0 0 0 0 0 0
          0 0 0 0 0 0
          0 0 0 0 0 0
          0 0 0 0 0 0
          0 0 0 0 0 0
          0 0 0 0 0 0
          0 0 0 0 0 0
          0 0 0 0 0 0
          0 0 0 0 0 0
          0 0 0 0 0 0
          0 0 0 0 0 0
          0 0 0 0 0 0
          0 0 0 0 0 0
          0 0 0 0 0 0
          0 0 0 0 0 0
          0 0 0 0 0 0
          0 0 0 0 0 0
          0 0 0 0 0 0
          0 0 0 0 0 0
          0 0 0 0 0 0
          0 0 0 0 0 0
          0 0 0 0 0 0
          0 0 0 0 0 0
          0 0 0 0 0 0
          0 0 0 0 0 0
          0 0 0 0 0 0
          0 0 0 0 0 0
          0 0 0 0 0 0
          0 0 0 0 0 0
          0 0 0 0 0 0
          0 0 0 0 0 0
          0 0 0 0 0 0
          0 0 0 0 0 0
          0 0 0 0 0 0
          0 0 0 0 0 0
          0 0 0 0 0 0
          0 0 0 0 0 0
          0 0 0 0 0 0
          0 0 0 0 0 0
          0 0 0 0 0 0
          0 0 0 0 0 0
          0 0 0 0 0 0
          0 0 0 0 0 0
          0 0 0 0 0 0
          0 0 0 0 0 0
          0 0 0 0 0 0
          0 0 0 0 0 0
          0 0 0 0 0 0
          0 0 0 0 0 0
          0 0 0 0 0 0
          0 0 0 0 0 0
          0 0 0 0 0 0
          0 0 0 0 0 0
          0 0 0 0 0 0
          0 0 0 0 0 0
          0 0 0 0 0 0
          0 0 0 0 0 0
          0 0 0 0 0 0
          0 0 0 0 0 0
          0 0 0 0 0 0
          0 0 0 0 0 0
          0 0 0 0 0 0
          0 0 0 0 0 0
          0 0 0 0 0 0
          0 0 0 0 0 0
          0 0 0 0 0 0
          0 0 0 0 0 0
          0 0 0 0 0 0
          0 0 0 0 0 0
          0 0 0 0 0 0
          0 0 0 0 0 0
          0 0 0 0 0 0
          0 0 0 0 0 0
          0 0 0 0 0 0
          0 0 0 0 0 0
          0 0 0 0 0 0
          0 0 0 0 0 0
          0 0 0 0 0 0
          0 0 0 0 0 0
          0 0 0 0 0 0
        </DataArray>
        <DataArray type="Float64" Name="initial_marker" format="ascii" RangeMin="0" RangeMax="2">
          0 0 0 0 0 0
          0 0 0 0 0 0
          0 0 0 0 0 0
          0 0 0 0 0 0
          0 0 0 0 0 0
          0 0 0 0 0 0
          0 0 0 0 0 0
          0 0 0 0 0 0
          0 0 0 0 0 0
          0 0 0 0 0 0
          0 0 0 0 0 0
          0 0 0 0 0 0
          0 0 0 0 0 0
          0 0 0 0 0 0
          0 0 0 0 0 0
          0 0 0 0 0 0
          0 0 0 0 0 0
          0 0 0 0 0 0
          0 0 0 0 0 0
          0 0 0 0 0 0
          0 0 0 0 0 0
          0 0 0 0 0 0
          0 0 0 0 2 0.25
          0 0 2 1 0 0
          0 0 0 0 0 0
          0 0 0 0 0 0
          0 0 0 0 0 0
          0 0 0 0 0 0
          0 0 0 0 0 0
          0 0 0 0 0 0
          0 0.25 2 1.25 2 0
          0 0 0 0 0 0.25
          0 1.75 0 0.5 0 0
          0 0 0 1.75 0.75 0
          0 0 0 0 0 0
          0 0 0 0 2 2
          2 2 0.5 2 2 1.75
          0.5 0 2 2 0.5 0.5
          0 0 0 0.5 0 0
          0 0 0 0 0 0
          0 0 0 0 0 0
          0 0 0 0 0 0
          0 0 0 0 0 0
          0 0 0 0 0 0
          0 0 0 0 0 0
          0 0 0 0 0 0
          0 0 0 0 0 0
          0 0 0 0 0 0
          0 0 0 0 0 0
          0 0 0 0 0 0
          0 0 0 0 0 0
          0 0 0 0 0 0
          0 0 0 0 0 0
          0 0 0 0 0 0
          0 0 0 0 0 0
          0 0 0 0 0 0
          0 0 0 0 0 0
          0 0 0 0 0 0
          0 0 0 0 0 0
          0 0 0 0 0 0
          0 0 0 0 0 0
          0 0 0 0 0 0
          0 0 0 0 1 1.75
          1.25 2 0 0.75 0.3333333333333333 1.75
          2 2 2 2 2 2
          1 1.75 1.3333333333333333 2 1.3333333333333333 0.5
          1 0 0.5 0 0.5 0
          1.75 1.5 1.3333333333333333 0 0.25 0
          0 0 0 0 1 0.6666666666666666
          0.5 2 2 1.75 1.6666666666666667 2
          2 2 1.75 1.25 1.5 0.5
          2 1.75 1.6666666666666667 0.5 0.75 0
          0.5 0 0 0 1.25 1
          0.5 0.5 0.75 0 0.5 0
          0 0 1.25 1 0.5 2
          2 2 2 2 2 2
          2 2 2 2 2 2
          2 2 2 1.25 1.5 0.6666666666666666
          2 1.5 1.5 2 2 2
          2 1.5 1.75 1 2 1.5
          2 2 2 2 2 2
          2 2 2 2 1.75 1.6666666666666667
          2 2 2 1.75 1.25 1.5
          0.5 2 1.5 2 0.5 0.75
          0 0.5 0 0 0 1