<?xml version="1.0"?>
<VTKFile type="UnstructuredGrid" version="0.1" byte_order="LittleEndian" header_type="UInt32" compressor="vtkZLibDataCompressor">
  <UnstructuredGrid>
    <Piece NumberOfPoints="542" NumberOfCells="313">
      <PointData>
        <DataArray type="Int32" Name="libmesh_node_id" format="ascii" RangeMin="490" RangeMax="3489">
          490 491 498 499 633 634
          635 636 637 638 639 640
          641 642 643 644 645 646
          655 660 817 818 820 821
          836 838 842 843 846 852
          1144 1145 1146 1149 1152 1154
          1155 1156 1157 1158 1159 1160
          1161 1162 1163 1164 1165 1166
          1167 1170 1171 1173 1176 1178
          1179 1180 1181 1182 1183 1184
          1185 1186 1187 1190 1191 1194
          1196 1198 1199 1200 1201 1202
          1203 1204 1205 1206 1207 1256
          1257 1258 1259 1260 1261 1262
          1263 1264 1265 1822 1828 1830
          1831 1832 1833 1834 1835 1836
          1837 1838 1839 1840 1841 1842
          1843 1854 1855 1856 1857 1858
          1859 1860 1861 1862 1863 1872
          1874 1875 1876 1877 1888 1889
          1890 1891 1892 1893 1894 1895
          1896 1897 1905 1906 1907 1908
          1909 1910 1911 1912 1913 1914
          1915 1916 1917 1918 1919 1920
          1921 1922 1923 1924 1925 1926
          1927 1928 1929 1930 1931 1932
          1933 1934 1935 1936 1937 1938
          1939 1940 1941 1942 1943 1944
          1945 1946 1947 1948 1949 1950
          1951 1952 1953 1954 1955 1956
          1957 1958 1959 1960 1961 1962
          1963 1964 1965 1966 1967 1968
          1969 1970 1971 1972 1973 1974
          1975 1976 1977 1978 1979 2916
          2918 2919 2920 2921 2923 2925
          2926 2927 2998 2999 3001 3004
          3006 3007 3008 3009 3010 3011
          3012 3013 3014 3015 3017 3019
          3021 3023 3024 3025 3026 3027
          3028 3029 3032 3033 3035 3038
          3040 3041 3042 3043 3044 3045
          3046 3047 3048 3049 3051 3053
          3055 3057 3058 3059 3060 3061
          3062 3063 3069 3071 3072 3073
          3075 3077 3079 3081 3082 3083
          3084 3085 3086 3087 3088 3089
          3090 3091 3092 3093 3094 3095
          3096 3097 3098 3099 3100 3101
          3102 3103 3104 3105 3106 3107
          3108 3109 3110 3111 3112 3113
          3114 3115 3116 3117 3118 3119
          3120 3121 3122 3123 3124 3125
          3126 3127 3128 3129 3130 3131
          3132 3133 3134 3135 3136 3137
          3138 3139 3140 3141 3142 3143
          3144 3145 3146 3147 3148 3149
          3150 3151 3152 3153 3154 3155
          3156 3157 3158 3159 3160 3161
          3162 3163 3164 3165 3166 3167
          3168 3169 3170 3171 3172 3173
          3174 3175 3176 3177 3178 3179
          3180 3181 3182 3183 3184 3185
          3186 3187 3188 3189 3190 3191
          3192 3193 3194 3195 3196 3197
          3198 3199 3200 3201 3202 3203
          3204 3205 3206 3207 3208 3209
          3210 3211 3212 3213 3214 3215
          3216 3217 3218 3219 3220 3221
          3222 3223 3224 3225 3226 3227
          3228 3229 3230 3231 3232 3233
          3234 3235 3236 3237 3238 3239
          3240 3241 3242 3243 3244 3245
          3246 3247 3248 3249 3250 3251
          3252 3253 3254 3255 3256 3257
          3258 3259 3260 3261 3262 3263
          3264 3265 3266 3267 3268 3269
          3270 3271 3272 3273 3274 3275
          3276 3277 3278 3279 3280 3281
          3282 3283 3284 3285 3286 3287
          3288 3289 3290 3291 3292 3293
          3294 3295 3296 3297 3298 3299
          3300 3301 3302 3303 3304 3305
          3306 3307 3308 3309 3310 3311
          3312 3313 3314 3315 3316 3317
          3318 3319 3320 3321 3322 3323
          3324 3325 3326 3327 3328 3329
          3330 3331 3332 3333 3334 3335
          3429 3430 3433 3435 3436 3438
          3449 3451 3453 3455 3463 3464
          3467 3469 3470 3472 3483 3485
          3487 3489
        </DataArray>
        <DataArray type="Float64" Name="bounds" format="ascii" RangeMin="0" RangeMax="0">
          0 0 0 0 0 0
          0 0 0 0 0 0
          0 0 0 0 0 0
          0 0 0 0 0 0
          0 0 0 0 0 0
          0 0 0 0 0 0
          0 0 0 0 0 0
          0 0 0 0 0 0
          0 0 0 0 0 0
          0 0 0 0 0 0
          0 0 0 0 0 0
          0 0 0 0 0 0
          0 0 0 0 0 0
          0 0 0 0 0 0
          0 0 0 0 0 0
          0 0 0 0 0 0
          0 0 0 0 0 0
          0 0 0 0 0 0
          0 0 0 0 0 0
          0 0 0 0 0 0
          0 0 0 0 0 0
          0 0 0 0 0 0
          0 0 0 0 0 0
          0 0 0 0 0 0
          0 0 0 0 0 0
          0 0 0 0 0 0
          0 0 0 0 0 0
          0 0 0 0 0 0
          0 0 0 0 0 0
          0 0 0 0 0 0
          0 0 0 0 0 0
          0 0 0 0 0 0
          0 0 0 0 0 0
          0 0 0 0 0 0
          0 0 0 0 0 0
          0 0 0 0 0 0
          0 0 0 0 0 0
          0 0 0 0 0 0
          0 0 0 0 0 0
          0 0 0 0 0 0
          0 0 0 0 0 0
          0 0 0 0 0 0
          0 0 0 0 0 0
          0 0 0 0 0 0
          0 0 0 0 0 0
          0 0 0 0 0 0
          0 0 0 0 0 0
          0 0 0 0 0 0
          0 0 0 0 0 0
          0 0 0 0 0 0
          0 0 0 0 0 0
          0 0 0 0 0 0
          0 0 0 0 0 0
          0 0 0 0 0 0
          0 0 0 0 0 0
          0 0 0 0 0 0
          0 0 0 0 0 0
          0 0 0 0 0 0
          0 0 0 0 0 0
          0 0 0 0 0 0
          0 0 0 0 0 0
          0 0 0 0 0 0
          0 0 0 0 0 0
          0 0 0 0 0 0
          0 0 0 0 0 0
          0 0 0 0 0 0
          0 0 0 0 0 0
          0 0 0 0 0 0
          0 0 0 0 0 0
          0 0 0 0 0 0
          0 0 0 0 0 0
          0 0 0 0 0 0
          0 0 0 0 0 0
          0 0 0 0 0 0
          0 0 0 0 0 0
          0 0 0 0 0 0
          0 0 0 0 0 0
          0 0 0 0 0 0
          0 0 0 0 0 0
          0 0 0 0 0 0
          0 0 0 0 0 0
          0 0 0 0 0 0
          0 0 0 0 0 0
          0 0 0 0 0 0
          0 0 0 0 0 0
          0 0 0 0 0 0
          0 0 0 0 0 0
          0 0 0 0 0 0
          0 0 0 0 0 0
          0 0 0 0 0 0
          0 0
        </DataArray>
        <DataArray type="Float64" Name="gradient_error" format="ascii" RangeMin="9.822454434110198e-10" RangeMax="4.6959246737047634e-7">
          1.6284516917683278e-8 3.483242970459799e-8 8.910154688409198e-9 1.6934467323803713e-8 2.142795748536991e-8 8.64106754254655e-8
          2.665704165675903e-7 2.330235138260568e-7 4.077112276947831e-8 2.164147997391585e-7 1.4336807841789975e-7 9.70548144960148e-8
          8.526578747561951e-8 3.6825247448759653e-8 4.344689178471153e-9 4.6959246737047634e-7 4.1520222247055494e-7 5.884118017048675e-8
          9.832567926089365e-9 3.1083070086274846e-9 2.0082735009040032e-8 1.992698103621483e-8 1.0463157084405195e-8 9.9447861674725e-9
          8.294859977528936e-9 2.9524791548871744e-9 1.13492237683553e-8 3.2317024735748566e-9 9.822454434110198e-10 1.1679587492568194e-9
          1.9400749042631505e-8 1.901149858655776e-7 1.5856057647897853e-7 1.2700616709237952e-7 2.1319552506440814e-7 1.2672126412974506e-8
          1.7028897774106974e-8 1.654197400684155e-7 1.3433113966349469e-7 1.5140992508719293e-8 1.3364020917873908e-7 1.0576712956664248e-7
          2.138566913523944e-8 1.032425392585739e-7 7.789404995454587e-8 2.458783874294323e-7 1.908322682932439e-7 1.6105551166257443e-7
          1.941453291478266e-7 1.0876198214014852e-7 1.539547608423254e-7 3.5435676253124415e-7 1.8209126691220302e-8 2.277481453563154e-8
          1.7451582751452167e-7 2.732915450784746e-8 1.3699648786061026e-7 3.3085101585000826e-7 2.907213829939292e-7 6.078656107508067e-9
          2.1695865896800055e-8 2.8219590976980704e-8 4.5291549635590517e-7 2.20065149108677e-7 3.173171937901782e-7 8.030937121412947e-8
          4.1456923847167954e-7 1.8248587949194135e-7 2.745842959743696e-7 1.4013241275014285e-7 2.2153596951177003e-7 4.033732149161276e-8
          4.961365143721219e-8 2.5392214341988218e-8 3.666827124567979e-7 3.0293952627339715e-7 5.888998138281162e-8 9.663862662454247e-8
          1.6138427172686683e-7 3.959399500310003e-8 1.0197508649535072e-7 1.1075120602067722e-8 1.0704711658893565e-8 4.463975392462571e-9
          2.2612991682919114e-7 1.459595011521594e-7 1.0334302715719407e-8 1.5339635070793688e-7 9.704188994194472e-8 1.681238907550175e-7
          1.580079863813263e-7 1.619166390796122e-7 1.2989645546751e-7 1.780951821769845e-7 1.6460942619893778e-7 1.6531896610234795e-7
          1.2878502627010196e-7 9.470226225002808e-8 9.126029680614804e-8 7.750369557267115e-8 8.677748821489759e-8 8.101043688007293e-8
          6.710859411048224e-8 1.7262046598165704e-7 1.6882855148186293e-7 1.8195357503295134e-7 1.7752212569365648e-7 1.5352159649816015e-7
          1.5957114772807963e-7 1.0218104774275875e-7 1.043516417134011e-7 1.1092179192604389e-7 1.4504863345607945e-7 1.2497889566659107e-7
          1.0390617223138443e-7 1.667632471022221e-7 1.744387474581307e-7 1.4977563465792493e-7 7.490763021374355e-9 1.0345703266565459e-8
          8.648330098325636e-9 1.1544581956215976e-8 6.411517368082024e-8 6.816806504684272e-8 3.689588542385595e-9 7.521884126832267e-9
          8.88380802587402e-9 1.7350887423087373e-8 1.4805818805754994e-7 1.567726567936813e-7 1.8525071585354392e-7 1.949254241477886e-7
          1.109278967216527e-7 1.17776750505965e-7 1.9608098271266065e-7 1.4314098668685007e-7 1.6223018545198607e-7 1.0169346184635925e-7
          1.4580838261307674e-7 1.6562849129404515e-7 1.716047751161233e-7 6.715567685962455e-8 9.380477418742696e-8 7.603487445732892e-8
          1.6377365246965706e-7 1.0525357225837123e-7 1.5204268870275644e-7 1.0824264127974835e-7 1.5790231150890843e-7 1.772130769128651e-7
          1.819667243188129e-7 2.4773942660215565e-8 8.181807471722215e-8 8.86182993824978e-8 1.5640870775284466e-7 1.2606295909737133e-7
          1.2644084277611784e-7 1.0230202804589542e-7 9.969026929772741e-8 1.8252116364187871e-7 1.9081887990050658e-7 1.5862147333389755e-7
          1.256961815183315e-7 1.2332218494262792e-7 9.593624299692186e-8 9.05440659948624e-8 1.685896052980766e-7 1.4288713270738694e-7
          1.6423251675143057e-7 1.0089049103481196e-8 1.3135081705565722e-8 1.1940344029140753e-8 1.5234523774999234e-8 7.297993357714756e-8
          7.861306442741101e-8 5.122230042898447e-9 1.0448573368781235e-8 1.2296447095737692e-8 1.9564056983002945e-8 1.4094033331974472e-8
          1.7912907741549247e-8 1.678055183689574e-8 2.1322668722405236e-8 5.565185235448429e-8 3.152539479615389e-8 7.296749621362924e-9
          1.4634262022137783e-8 1.772403535645826e-8 2.458632099398106e-8 1.6617421762332917e-7 1.7604871572344323e-7 2.0478514930433026e-7
          2.1448566676592593e-7 1.250149678925004e-7 1.3238356218954128e-7 2.1942771245998507e-7 1.5633119369639106e-7 1.3399143819009338e-7
          2.2326889932667519e-7 2.2982593687162566e-7 1.3965074397235997e-7 1.465244301578793e-7 2.4283665703385074e-7 1.6355789472626296e-8
          1.552840978834862e-8 1.652767226952149e-8 1.6805318025125485e-8 1.9836928874397337e-8 2.2544553456699877e-8 2.320732704995396e-8
          2.392498207300928e-8 2.4267731101807596e-8 1.2043613402558343e-8 1.2847072462095048e-8 1.5754020797911174e-8 8.154849855429923e-9
          1.245237597885571e-8 1.3236318059360692e-8 1.292985932782092e-8 1.3719800441323001e-8 1.6108812400938706e-8 1.6550114695657316e-8
          8.052926519832503e-9 8.74591973472292e-9 9.39793773496571e-9 1.0896352481876847e-8 2.0142740485999302e-8 2.2427970897808004e-8
          1.5067109385105902e-8 2.0638457977711975e-8 2.1189565925971925e-8 2.3079551293412204e-8 2.3788644015454303e-8 1.5454930285682186e-8
          1.592789779829134e-8 2.053693152642316e-8 4.959403169977684e-9 5.9624423978216474e-9 8.121667344002915e-9 4.953540536347251e-9
          5.366874249536084e-9 6.460038422037308e-9 5.80648050469008e-9 6.994186375392843e-9 8.794874511678568e-9 9.534212859851523e-9
          4.0042376287699616e-9 5.373201223828669e-9 5.826780138374789e-9 8.177739987083514e-9 1.1504693017364855e-8 1.8380732659915774e-8
          1.0616094779816619e-8 1.2022396823150837e-8 1.2687651203392674e-8 1.8794590369536595e-8 1.9278321944207904e-8 1.1204521980407292e-8
          1.1973656589137239e-8 1.772946919194686e-8 2.4661065511468844e-8 2.5518900271995775e-8 2.640400115448511e-8 2.6539143079170098e-8
          2.4348200690869895e-8 2.5666469034297728e-8 2.4035335870270946e-8 2.513204202181051e-8 2.5931421477497236e-8 2.6683150522030895e-8
          2.7794967999756572e-8 2.4745183771625237e-8 2.545884180050936e-8 2.6827157964891685e-8 2.7696975701970057e-8 2.8563701216319017e-8
          2.84055378790244e-8 2.970267195976618e-8 2.8247374541729783e-8 2.772418923714822e-8 2.7588632952878934e-8 2.7453076668609645e-8
          1.6150144587629056e-8 1.715148032459026e-8 2.0788692705941077e-8 2.064429380428502e-8 2.8181519820605294e-8 2.816869288069342e-8
          2.916338384384757e-8 2.928946714186912e-8 2.8155865940781545e-8 2.9415550439890665e-8 2.215382413661127e-8 2.2820337187066644e-8
          2.3573451684201524e-8 2.387460133356752e-8 2.4702069499586895e-8 2.553864774859341e-8 2.6268367452155215e-8 2.6448856239947875e-8
          2.744623556714565e-8 2.8247608954237232e-8 3.1019637012418525e-8 3.091579935704658e-8 3.227373370091058e-8 3.081196170167463e-8
          3.404270807380349e-8 3.383041291090715e-8 3.55193647485095e-8 3.3618117748010817e-8 3.022418241443175e-8 3.0388784634099617e-8
          3.1333435321014585e-8 3.155315532318915e-8 3.055338685376748e-8 3.177287532536371e-8 2.3712943769645496e-8 2.4518045297474754e-8
          2.557397607140587e-8 2.5740352183704182e-8 3.251976985187276e-8 3.281063811819672e-8 3.382098650154104e-8 3.417781104847438e-8
          3.3101506384520674e-8 3.453463559540772e-8 2.5949824185365723e-8 2.676511928400366e-8 2.8149187467494143e-8 2.8101713642913873e-8
          2.855185969951233e-8 2.982712356194994e-8 3.0528956498520124e-8 3.134355668936628e-8 3.306929505382902e-8 3.39287204266123e-8
          3.2241685348519773e-8 3.316302699342002e-8 3.4770899239628365e-8 3.201141434888955e-8 1.3460218288696719e-8 1.4287933187543898e-8
          1.4012329312344308e-8 1.4887876281324278e-8 1.7093493478696794e-8 1.7744824406806242e-8 9.314916367354885e-9 1.0129907378651754e-8
          1.0951470787745185e-8 1.228615062211336e-8 1.4628143379031201e-8 1.5541437086880322e-8 1.5462663539335354e-8 1.6396640803335916e-8
          1.852277601739495e-8 1.9463256773091963e-8 1.0977231919495675e-8 1.1870606405145242e-8 1.288311655274341e-8 1.4113020988107415e-8
          2.183279068682565e-8 2.2586204365043417e-8 2.4594242502648792e-8 2.54461831667786e-8 1.653307826403283e-8 1.7288802255439772e-8
          2.1588224573831182e-8 2.3447935250939504e-8 2.4418425666242037e-8 2.6305049261818548e-8 2.7240955853636622e-8 1.818918920920062e-8
          1.923314204535548e-8 2.3073503535020413e-8 6.287451530081666e-9 7.576613950310457e-9 6.814571817401294e-9 8.211856263636536e-9
          1.0334691399107464e-8 1.1197246556533725e-8 4.7153623152179396e-9 6.3177991938149336e-9 6.853629557413548e-9 9.639774707096766e-9
          7.390219555933263e-9 8.906427834378187e-9 8.027190514198561e-9 9.675409884620772e-9 1.2143016852283099e-8 1.3200447394800104e-8
          5.573952182606606e-9 7.445690540455686e-9 8.107227225995574e-9 1.132582043270665e-8 1.3498202352170363e-8 1.443471940238507e-8
          1.986158550442798e-8 2.0584881129921497e-8 1.289376005033947e-8 1.3925595275384025e-8 1.880089292468036e-8 1.548729671958349e-8
          1.6668474343976298e-8 2.1480019442916642e-8 2.2558670484681187e-8 1.504322928269687e-8 1.6261280362580056e-8 2.0531028368002605e-8
          1.6547355969098587e-8 1.7479748408282246e-8 1.784323799193298e-8 1.875368477980035e-8 2.0543788604515484e-8 2.1793761743945963e-8
          1.2966209819420676e-8 1.4000644871635131e-8 1.5247225253225727e-8 1.6501095632153643e-8 1.9369815928156454e-8 2.0245979674065697e-8
          2.1129595539026943e-8 2.1985845294882354e-8 2.3287230176261143e-8 2.5040859143224732e-8 1.5356351206942906e-8 1.6642357810401862e-8
          1.8222931514165e-8 1.9499403362131543e-8 2.5522081118325074e-8 2.6739636884087402e-8 2.8368725875085073e-8 3.1109320060800144e-8
          2.043859984616447e-8 2.1804059360103594e-8 2.5134093737383442e-8 2.811832225238901e-8 2.979582517702058e-8 3.291893284842871e-8
          3.4562690973930874e-8 2.33586322065565e-8 2.5192181738620806e-8 2.982769299818399e-8 8.741218753070158e-9 1.0534905491524316e-8
          9.545658659802928e-9 1.1503231518089733e-8 1.4382940907785837e-8 1.569769099095651e-8 6.647570082650133e-9 8.853697372546007e-9
          9.704006891984697e-9 1.3388145487669252e-8 1.0460024035754217e-8 1.260682023098408e-8 1.1509465527216448e-8 1.387634441719656e-8
          1.7176423743857972e-8 1.8876081254142004e-8 8.044160773146115e-9 1.0681508946774794e-8 1.1816398809278785e-8 1.606837816211959e-8
          1.8002844104710506e-8 1.9553327698470484e-8 2.3823413695978905e-8 2.5303152803508342e-8 1.7620791054229887e-8 1.9150686882958635e-8
          2.304993441170766e-8 2.1353157353806396e-8 2.3373705734372463e-8 2.702418579819305e-8 2.8961141202802345e-8 2.0882138109911527e-8
          2.2885403291715456e-8 2.630213087026325e-8 2.7322017130790027e-8 2.8307062995455606e-8 2.8756867887661622e-8 2.9397118403900266e-8
          3.0597810159698744e-8 3.1406360868701723e-8 2.6770082593440336e-8 2.770134759919966e-8 2.9009792454689757e-8 3.03170193401308e-8
          2.621814805609064e-8 2.7095632202943713e-8 2.9262717021717893e-8 2.877358814330396e-8 2.9983365608221555e-8 3.169833324819852e-8
          3.310907340047612e-8 2.8150057882707658e-8 2.9368921056744373e-8 3.199030562769532e-8 3.355746024535117e-8 3.289872400420311e-8
          3.1893599250926796e-8 3.3812296272463997e-8 3.420509399344577e-8 3.437600888622479e-8 3.5965980301617076e-8 3.369847964782282e-8
          3.515860577370188e-8 3.521295611213075e-8 3.690169593850174e-8 3.641734833060426e-8 3.1307611007220814e-8 3.276425317244814e-8
          3.4536793246311626e-8 3.609427852928408e-8 3.072162276351482e-8 3.2246679507291564e-8 3.486849249917747e-8 3.44070056808746e-8
          3.626048478433546e-8 3.787272341147388e-8 3.983715943070382e-8 3.397708991651725e-8 3.5878639055273235e-8 3.829629510849533e-8
          2.3116496381777667e-8 2.399076868976657e-8 2.708390063128277e-8 1.8407399952123315e-8 2.00323111173746e-8 2.343918923302127e-8
          3.175923438252167e-8 3.6410632909826924e-8 2.735872170808659e-8 3.359938535423572e-8 1.2719587998033904e-8 1.5348671709159302e-8
          2.0849289542819165e-8 9.916761380209646e-9 1.3142030721741127e-8 1.9648130444202256e-8 2.5667599093308325e-8 3.1140580983595145e-8
          2.522243619320893e-8 3.038731989129004e-8
        </DataArray>
        <DataArray type="Float64" Name="gradient_matprop_error" format="ascii" RangeMin="0" RangeMax="0">
          0 0 0 0 0 0
          0 0 0 0 0 0
          0 0 0 0 0 0
          0 0 0 0 0 0
          0 0 0 0 0 0
          0 0 0 0 0 0
          0 0 0 0 0 0
          0 0 0 0 0 0
          0 0 0 0 0 0
          0 0 0 0 0 0
          0 0 0 0 0 0
          0 0 0 0 0 0
          0 0 0 0 0 0
          0 0 0 0 0 0
          0 0 0 0 0 0
          0 0 0 0 0 0
          0 0 0 0 0 0
          0 0 0 0 0 0
          0 0 0 0 0 0
          0 0 0 0 0 0
          0 0 0 0 0 0
          0 0 0 0 0 0
          0 0 0 0 0 0
          0 0 0 0 0 0
          0 0 0 0 0 0
          0 0 0 0 0 0
          0 0 0 0 0 0
          0 0 0 0 0 0
          0 0 0 0 0 0
          0 0 0 0 0 0
          0 0 0 0 0 0
          0 0 0 0 0 0
          0 0 0 0 0 0
          0 0 0 0 0 0
          0 0 0 0 0 0
          0 0 0 0 0 0
          0 0 0 0 0 0
          0 0 0 0 0 0
          0 0 0 0 0 0
          0 0 0 0 0 0
          0 0 0 0 0 0
          0 0 0 0 0 0
          0 0 0 0 0 0
          0 0 0 0 0 0
          0 0 0 0 0 0
          0 0 0 0 0 0
          0 0 0 0 0 0
          0 0 0 0 0 0
          0 0 0 0 0 0
          0 0 0 0 0 0
          0 0 0 0 0 0
          0 0 0 0 0 0
          0 0 0 0 0 0
          0 0 0 0 0 0
          0 0 0 0 0 0
          0 0 0 0 0 0
          0 0 0 0 0 0
          0 0 0 0 0 0
          0 0 0 0 0 0
          0 0 0 0 0 0
          0 0 0 0 0 0
          0 0 0 0 0 0
          0 0 0 0 0 0
          0 0 0 0 0 0
          0 0 0 0 0 0
          0 0 0 0 0 0
          0 0 0 0 0 0
          0 0 0 0 0 0
          0 0 0 0 0 0
          0 0 0 0 0 0
          0 0 0 0 0 0
          0 0 0 0 0 0
          0 0 0 0 0 0
          0 0 0 0 0 0
          0 0 0 0 0 0
          0 0 0 0 0 0
          0 0 0 0 0 0
          0 0 0 0 0 0
          0 0 0 0 0 0
          0 0 0 0 0 0
          0 0 0 0 0 0
          0 0 0 0 0 0
          0 0 0 0 0 0
          0 0 0 0 0 0
          0 0 0 0 0 0
          0 0 0 0 0 0
          0 0 0 0 0 0
          0 0 0 0 0 0
          0 0 0 0 0 0
          0 0 0 0 0 0
          0 0
        </DataArray>
        <DataArray type="Float64" Name="initial_marker" format="ascii" RangeMin="0" RangeMax="2">
          0 0 2 0 0 0
          2 1 0 2 1 0
          0 0 2 2 2 0
          0 0 0 0 0 0
          0 0 0 0 0 0
          0 1 1 1 2 0
          0 1 1 0 1 1
          0 1 1 2 2 2
          1.3333333333333333 2 2 1.5 2 2
          2 2 2 1.5 1.5 2
          2 2 2 0 0.5 0
          1 0 0.5 0 0.5 0
          0 0 1 1 0 0
          0.5 0 0.5 0 0 0
          1 1 0 2 2 2
          2 2 2 2 2 2
          2 2 2 2 2 2
          2 2 2 2 2 2
          2 2 2 2 2 2
          2 2 2 2 2 2
          2 2 2 2 2 2
          2 2 2 2 2 2
          2 2 2 2 2 2
          2 2 2 2 2 2
          2 2 2 2 2 2
          2 2 2 2 2 2
          2 2 2 2 2 2
          2 2 2 2 2 2
          2 2 2 2 2 2
          2 2 2 2 2 2
          2 2 2 2 2 2
          2 2 2 2 2 2
          2 2 2 2 2 2
          2 2 2 2 2 2
          2 2 2 2 2 2
          2 2 2 2 2 2
          2 2 2 2 2 2
          2 2 2 2 2 2
          2 2 2 2 2 2
          2 2 2 2 2 2
          2 2 2 2 2 2
          2 2 2 2 2 2
          2 2 2 2 2 2
          2 2 2 2 2 2
          2 2 2 2 2 2
          2 2 2 2 2 2
          2 2 2 2 2 2
          2 2 2 2 2 2
          2 2 2 2 2 2
          2 2 2 2 2 2
          2 2 2 2 2 2
          2 2 2 2 2 2
          2 2 2 2 2 2
          2 2 2 2 2 2
          2 2 2 2 2 2
          2 2 2 2 2 2
          2 2 2 2 2 2
          2 2 2 2 2 2
          2 2 2 2 2 2
          2 2 2 2 2 2
          2 2 2 2 2 2
          2 2 2 2 2 2
          2 2 2 2 2 2
          2 2 2 2 2 2
          2 2 2 2 2 2
          2 2 2 2 2 2
          2 2 2 2 2 2
          2 2 2 2 2 2
          2 2 2 2 2 2
          2 2 2 2 2 2
          2 2 2 2 2 2
          2 2 2 2 2 2
          2 2 2 2 2 2
          2 2 2 2 2 2
          2 2 2 2 2 2
          2 2 2 2 2 2
          2 2 2 2 2 2
          2 2 2 2 2 2
          2 2 2 2 2 2
          2 2 2 2 2 2
          2 2 2 2 2 2
          2 2 2 2 2 2
          2 2 2 2 2 2
          2 2 2 2 2 2
          2 2 2 2 2 2
          2 2 2 2 2 2
          2 2 2 2 2 2
          2 2 2 2 2 2
          2 2 2 2 2 2
          2 2 2 2 2 2
          2 2
        </DataArray>
        <DataArray type="Float64" Name="markers_norefine" format="ascii" RangeMin="0" RangeMax="2">
          0 0 2 0 0 0
          0 0 0 0 0 0
          0 0 2 0 0 0
          0 0 0 0 0 0
          0 0 0 0 0 0
          0 0 0 0 0 0
          0 0 0 0 0 0
          0 0 0 0 0 0
          0 1 0 0 2 2
          0 2 0.5 0 0 2
          2 2 0 0 0 0
          0 0 0 0 0 0
          0 0 0 0 0 0
          0 0 0 0 0 0
          0 0 0 0 0 0
          0 0 0 0 0 0
          0 0 0 0 0 0
          0 0 0 0 0 0
          0 1 1 1 0 0
          0 0 0 0 2 2
          2 2 1.25 1.5 2 2
          2 2 0 0 0 0
          0 0 0 0 0 0
          0 0 0 1 1 1
          0 0 0 0 0 0
          0 2 1.5 1.5 0.5 0
          0 0 0 0 0 0
          0 0 0 0 0 0
          0 2 2 2 2 1.5
          1.5 2 2 2 2 2
          2 2 2 1.75 2 2
          2 2 2 0 0 0
          0 0 0 0 0 0
          0 0 0 0 0 2
          2 2 2 2 1 1
          1 0 2 2 2 2
          2 2 2 2 2 2
          2 2 2 2 1.5 1
          2 1.5 1.5 1 1 2
          2 2 2 2 2 2
          2 2 2 2 2 2
          2 2 2 2 2 1.75
          2 2 2 2 2 2
          2 2 0.5 1 1 0
          0.75 0 1 1 1 0
          0 1 1 0 0 0
          0 0 0 0 0 0
          2 2 1.3333333333333333 2 0.5 0.25
          1 0.5 0 0 1.5 1.25
          1.5 1.3333333333333333 1 1 0 1
          1 0 0 0 0 0
          0 0 0 0 1 0.75
          1 1 0.5 1 2 1.75
          2 1.6666666666666667 1 1 1 1
          1 1 2 2 2 2
          1.5 2 1 2 2 1
          0 0 0 0 2 2
          2 2 2 2 2 2
          2 2 2 2 2 2
          2 2 2 2 2 2
          1.5 1.5 1 1 2 2
          2 1.5 1.5 1 1 2
          2 2 2 2 2 2
          2 2 2 2 2 2
          2 2 2 2 2 2
          2 2 2 2 2 2
          2 2 2 2 2 2
          2 2 2 2 2 2
          2 2 2 2 2 2
          2 2 2 2 2 2
          2 2 2 2 2 2
          2 2 1.75 2 1.5 1.6666666666666667
          2 2 2 2 2 1.5
          1.5 2 2 2 2 2
          2 2 2 2 2 2
          2 2 2 2 2 2
          2 2 2 2 2 2
          2 2 2 2 2 2
          2 2 2 2 2 2
          2 2 1 1 0 1
          1 0 1 1 0 0
          1 1 0 1 1 0
          0 1 1 0 0.5 0
          1 1 0 0.5 0.5 0
          0 1 1 0 1 1
          0 0 1 1 0 1
          1 0 0 1 1 0
          2 2 2 2 2 2
          2 1.5 2 2 2 2
          2 2 2 2 2 2
          2 2
        </DataArray>
        <DataArray type="Float64" Name="markers_mustrefine" format="ascii" RangeMin="0" RangeMax="2">
          0 0 2 0 0 0
          2 1 0 2 1 0
          0 0 2 2 2 0
          0 0 0 0 0 0
          0 0 0 0 0 0
          0 1 1 1 2 0
          0 1 1 0 1 1
          0 1 1 2 2 2
          1.3333333333333333 2 2 1.5 2 2
          2 2 2 1.5 1.5 2
          2 2 2 0 0.5 0
          1 0 0.5 0 0.5 0
          0 0 1 1 0 0
          0.5 0 0.5 0 0 0
          1 1 0 2 2 2
          2 2 2 2 2 2
          2 2 2 2 2 2
          2 2 2 2 2 2
          2 2 2 2 2 2
          2 2 2 2 2 2
          2 2 2 2 2 2
          2 2 2 2 2 2
          2 2 2 2 2 2
          2 2 2 2 2 2
          2 2 2 2 2 2
          2 2 2 2 2 2
          2 2 2 2 2 2
          2 2 2 2 2 2
          2 2 2 2 2 2
          2 2 2 2 2 2
          2 2 2 2 2 2
          2 2 2 2 2 2
          2 2 2 2 2 2
          2 2 2 2 2 2
          2 2 2 2 2 2
          2 2 2 2 2 2
          2 2 2 2 2 2
          2 2 2 2 2 2
          2 2 2 2 2 2
          2 2 2 2 2 2
          2 2 2 2 2 2
          2 2 2 2 2 2
          2 2 2 2 2 2
          2 2 2 2 2 2
          2 2 2 2 2 2
          2 2 2 2 2 2
          2 2 2 2 2 2
          2 2 2 2 2 2
          2 2 2 2 2 2
          2 2 2 2 2 2
          2 2 2 2 2 2
          2 2 2 2 2 2
          2 2 2 2 2 2
          2 2 2 2 2 2
          2 2 2 2 2 2
          2 2 2 2 2 2
          2 2 2 2 2 2
          2 2 2 2 2 2
          2 2 2 2 2 2
          2 2 2 2 2 2
          2 2 2 2 2 2
          2 2 2 2 2 2
          2 2 2 2 2 2
          2 2 2 2 2 2
          2 2 2 2 2 2
          2 2 2 2 2 2
          2 2 2 2 2 2
          2 2 2 2 2 2
          2 2 2 2 2 2
          2 2 2 2 2 2
          2 2 2 2 2 2
          2 2 2 2 2 2
          2 2 2 2 2 2
          2 2 2 2 2 2
          2 2 2 2 2 2
          2 2 2 2 2 2
          2 2 2 2 2 2
          2 2 2 2 2 2
          2 2 2 2 2 2
          2 2 2 2 2 2
          2 2 2 2 2 2
          2 2 2 2 2 2
          2 2 2 2 2 2
          2 2 2 2 2 2
          2 2 2 2 2 2
          2 2 2 2 2 2
          2 2 2 2 2 2
          2 2 2 2 2 2
          2 2 2 2 2 2
          2 2 2 2 2 2
          2 2
        </DataArray>
        <DataArray type="Float64" Name="gradient_marker" format="ascii" RangeMin="0" RangeMax="1">
          0.5 1 0 0.5 0.5 0.75
          1 0.75 0.75 1 0.625 1
          0.75 0.75 0 1 1 0.5
          0.625 0.5 1 1 1 1
          1 1 1 1 1 1
          0 0.5 0.5 0.5 0.75 0
          0 0.5 0.5 0 0.5 0.375
          0 0.5 0.25 1 0.75 0.625
          0.6666666666666666 0.5 0.75 0.75 0 0
          0.75 0 0.5 0.75 0.75 0
          0 0 1 0.5 0.5 0
          0.5 0.5 0.5 0.5 0.5 0
          0 0 0.5 0.5 0 0.5
          0.5 0.16666666666666666 0.375 0 0 0
          0.5 0.5 0 1 0 1
          1 1 0.5 1 1 1
          0.5 0 0 0 0 0
          0 1 1 1 1 0.75
          0.75 0.5 0.5 0.5 0.75 0.25
          0 0.75 0.75 0.5 0 0
          0 0 0.25 0.25 0 0
          0 0 0.75 0.75 1 1
          0.5 0.5 1 0.75 0.875 0.5
          0.75 0.75 0.75 0.25 0.375 0.25
          0.75 0.5 0.75 0.5 0.75 0.75
          0.75 0 0.25 0.25 0.625 0.25
          0.25 0 0 0.75 0.75 0.5
          0.25 0.25 0 0 0.625 0.5
          0.5 0 0 0 0 0.25
          0.25 0 0 0 0 0
          0 0 0 0.125 0 0
          0 0 0 0.75 0.75 1
          1 0.5 0.5 1 0.625 0.5
          1 1 0.5 0.5 1 0
          0 0 0 0 0 0
          0 0 0 0 0 0
          0 0 0 0 0 0
          0 0 0 0 0 0
          0 0 0 0 0 0
          0 0 0 0 0 0
          0 0 0 0 0 0
          0 0 0 0 0 0
          0 0 0 0 0 0
          0 0 0 0 0 0
          0 0 0 0 0 0
          0 0 0 0 0 0
          0 0 0 0 0 0
          0 0 0 0 0 0
          0 0 0 0 0 0
          0 0 0 0 0 0
          0 0 0 0 0 0
          0 0 0 0 0 0
          0 0 0 0 0 0
          0 0 0 0 0 0
          0 0 0 0 0 0
          0 0 0 0 0 0
          0 0 0 0 0 0
          0 0 0 0 0 0
          0 0 0 0 0 0
          0 0 0 0 0 0
          0 0 0 0 0 0
          0 0 0 0 0 0
          0 0 0 0 0 0
          0 0 0 0 0 0
          0 0 0 0 0 0
          0 0 0 0 0 0
          0 0 0 0 0 0
          0 0 0 0 0 0
          0 0 0 0 0 0
          0 0 0 0 0 0
          0 0 0 0 0 0
          0 0 0 0 0 0
          0 0 0 0 0 0
          0 0 0 0 0 0
          0 0 0 0 0 0
          0 0 0 0 0 0
          0 0 0 0 0 0
          0 0 0 0 0 0
          0 0 0 0 0 0
          0 0 0 0 0 0
          0 0 0 0 0 0
          0 0 0 0 0 0
          0 0 0 0 0 0
          0 0 0 0 0 0
          0 0 0 0 0 0
          0 0 0 0 0 0
          0 0 0 0 0 0
          0 0 0 0 0 0
          0 0 0 0 0 0
          0 0 0 0 0 0
          0 0
        </DataArray>
        <DataArray type="Float64" Name="gradient_matprop_marker" format="ascii" RangeMin="0" RangeMax="0">