<?xml version="1.0"?>
<VTKFile type="UnstructuredGrid" version="0.1" byte_order="LittleEndian" header_type="UInt32" compressor="vtkZLibDataCompressor">
  <UnstructuredGrid>
    <Piece NumberOfPoints="749" NumberOfCells="497">
      <PointData>
        <DataArray type="Int32" Name="libmesh_node_id" format="ascii" RangeMin="913" RangeMax="7224">
          913 921 1056 1057 1058 1064
          1066 1067 1068 1069 1509 1510
          1511 1512 1513 1514 1515 1516
          1517 1518 1521 1535 1536 1538
          1541 1563 1564 1565 1566 1567
          1570 1571 1573 1574 1576 1653
          1654 1767 1768 1769 1770 1771
          1772 1773 1774 1775 1776 2549
          2550 2551 2552 2553 2554 2555
          2556 2557 2558 2559 2560 2561
          2562 2570 2571 2572 2573 2574
          2575 2576 2577 2578 2590 2591
          2592 2593 2594 2595 2596 2597
          2598 2599 2607 2608 2610 2611
          2612 2750 2751 2752 2753 2754
          2755 2756 2757 2758 2759 2760
          2761 2762 2763 2764 2765 2766
          2767 2768 2771 2772 2774 2775
          2777 2778 2779 2780 2781 2782
          2783 2784 2785 2786 2787 2788
          2789 2795 2798 2799 2800 2801
          2802 2803 2804 2805 2806 2807
          2808 2809 2812 2814 2815 2817
          2818 2819 2820 2821 2822 2823
          2824 2825 2829 3042 3043 3044
          3045 3046 3047 3048 3049 3050
          3051 3052 3053 3054 3055 3056
          3057 3058 3151 3152 3153 3154
          3155 3156 3157 3158 3159 3160
          3161 3162 3163 3164 3165 3166
          3167 3168 3169 3170 3171 3172
          3173 3174 3175 3176 3177 5505
          5506 5507 5510 5513 5515 5516
          5517 5518 5519 5520 5521 5522
          5523 5524 5525 5526 5527 5528
          5531 5532 5535 5537 5539 5540
          5541 5542 5543 5544 5545 5546
          5547 5548 5551 5552 5554 5557
          5559 5560 5561 5562 5563 5564
          5565 5566 5567 5568 5570 5572
          5574 5576 5577 5578 5579 5580
          5581 5582 5650 5651 5654 5656
          5658 5659 5660 5661 5662 5663
          5664 5665 5666 5667 5670 5671
          5674 5676 5678 5679 5680 5681
          5682 5683 5684 5685 5686 5687
          5689 5691 5693 5695 5696 5697
          5698 5699 5700 5701 5703 5705
          5707 5709 5710 5711 5712 5713
          5714 5786 5787 5789 5792 5794
          5795 5796 5797 5798 5799 5800
          5801 5802 5803 5805 5807 5809
          5811 5812 5813 5814 5815 5816
          5817 5820 5821 5823 5826 5828
          5829 5830 5831 5832 5833 5834
          5835 5836 5837 5839 5841 5843
          5845 5846 5847 5848 5849 5850
          5851 5909 5911 5913 5915 5916
          5917 5918 5919 5920 5921 5923
          5927 5929 5930 5932 5933 5934
          5937 5939 5941 5943 5944 5945
          5946 5947 5948 5949 5951 5955
          5957 5958 5960 5961 5962 6750
          6751 6752 6753 6754 6755 6756
          6757 6758 6759 6760 6761 6762
          6763 6764 6765 6766 6767 6768
          6769 6770 6771 6772 6773 6774
          6775 6776 6777 6778 6779 6780
          6781 6782 6783 6784 6785 6786
          6787 6788 6789 6790 6791 6792
          6793 6794 6795 6796 6797 6798
          6799 6800 6801 6802 6803 6804
          6805 6806 6807 6808 6809 6810
          6811 6812 6813 6814 6815 6816
          6817 6818 6819 6820 6821 6822
          6823 6824 6825 6826 6827 6828
          6829 6830 6831 6832 6833 6834
          6835 6836 6837 6838 6839 6840
          6841 6842 6843 6844 6845 6846
          6847 6848 6849 6850 6851 6852
          6853 6854 6855 6856 6857 6858
          6859 6860 6861 6862 6863 6864
          6865 6880 6881 6882 6883 6884
          6885 6886 6897 6898 6899 6900
          6901 6902 6903 6904 6905 6906
          6907 6908 6909 6910 6911 6912
          6913 6914 6915 6916 6917 6918
          6919 6920 6921 6922 6923 6924
          6925 6926 6927 6928 6929 6930
          6931 6932 6933 6934 6935 6936
          6937 6938 6939 6940 6941 6942
          6943 6944 6945 6946 6947 6948
          6949 6950 6951 6952 6953 6954
          6955 6956 6957 6958 6959 6960
          6961 6962 6963 6964 6965 6966
          6967 6998 6999 7000 7001 7002
          7003 7004 7005 7006 7007 7008
          7009 7010 7011 7012 7013 7014
          7015 7016 7017 7018 7019 7020
          7021 7022 7023 7024 7025 7026
          7027 7028 7029 7030 7031 7032
          7033 7034 7035 7036 7037 7038
          7039 7040 7041 7042 7043 7044
          7045 7046 7047 7048 7049 7050
          7051 7052 7053 7054 7055 7056
          7057 7058 7059 7060 7061 7062
          7063 7064 7065 7066 7067 7068
          7069 7070 7071 7072 7073 7074
          7075 7086 7087 7088 7089 7090
          7091 7092 7100 7101 7102 7103
          7104 7105 7106 7107 7108 7109
          7120 7121 7122 7123 7124 7125
          7126 7134 7135 7136 7137 7138
          7139 7140 7141 7142 7143 7144
          7145 7146 7147 7148 7149 7150
          7151 7152 7153 7154 7155 7156
          7157 7158 7159 7160 7161 7162
          7163 7164 7165 7166 7167 7168
          7169 7170 7171 7172 7173 7174
          7175 7176 7177 7178 7179 7180
          7181 7182 7183 7184 7185 7186
          7187 7188 7189 7190 7191 7192
          7193 7194 7195 7196 7218 7219
          7220 7221 7222 7223 7224 1180
          1183 1184 1181 1052 1053
        </DataArray>
        <DataArray type="Float64" Name="bounds" format="ascii" RangeMin="0" RangeMax="0">
          0 0 0 0 0 0
          0 0 0 0 0 0
          0 0 0 0 0 0
          0 0 0 0 0 0
          0 0 0 0 0 0
          0 0 0 0 0 0
          0 0 0 0 0 0
          0 0 0 0 0 0
          0 0 0 0 0 0
          0 0 0 0 0 0
          0 0 0 0 0 0
          0 0 0 0 0 0
          0 0 0 0 0 0
          0 0 0 0 0 0
          0 0 0 0 0 0
          0 0 0 0 0 0
          0 0 0 0 0 0
          0 0 0 0 0 0
          0 0 0 0 0 0
          0 0 0 0 0 0
          0 0 0 0 0 0
          0 0 0 0 0 0
          0 0 0 0 0 0
          0 0 0 0 0 0
          0 0 0 0 0 0
          0 0 0 0 0 0
          0 0 0 0 0 0
          0 0 0 0 0 0
          0 0 0 0 0 0
          0 0 0 0 0 0
          0 0 0 0 0 0
          0 0 0 0 0 0
          0 0 0 0 0 0
          0 0 0 0 0 0
          0 0 0 0 0 0
          0 0 0 0 0 0
          0 0 0 0 0 0
          0 0 0 0 0 0
          0 0 0 0 0 0
          0 0 0 0 0 0
          0 0 0 0 0 0
          0 0 0 0 0 0
          0 0 0 0 0 0
          0 0 0 0 0 0
          0 0 0 0 0 0
          0 0 0 0 0 0
          0 0 0 0 0 0
          0 0 0 0 0 0
          0 0 0 0 0 0
          0 0 0 0 0 0
          0 0 0 0 0 0
          0 0 0 0 0 0
          0 0 0 0 0 0
          0 0 0 0 0 0
          0 0 0 0 0 0
          0 0 0 0 0 0
          0 0 0 0 0 0
          0 0 0 0 0 0
          0 0 0 0 0 0
          0 0 0 0 0 0
          0 0 0 0 0 0
          0 0 0 0 0 0
          0 0 0 0 0 0
          0 0 0 0 0 0
          0 0 0 0 0 0
          0 0 0 0 0 0
          0 0 0 0 0 0
          0 0 0 0 0 0
          0 0 0 0 0 0
          0 0 0 0 0 0
          0 0 0 0 0 0
          0 0 0 0 0 0
          0 0 0 0 0 0
          0 0 0 0 0 0
          0 0 0 0 0 0
          0 0 0 0 0 0
          0 0 0 0 0 0
          0 0 0 0 0 0
          0 0 0 0 0 0
          0 0 0 0 0 0
          0 0 0 0 0 0
          0 0 0 0 0 0
          0 0 0 0 0 0
          0 0 0 0 0 0
          0 0 0 0 0 0
          0 0 0 0 0 0
          0 0 0 0 0 0
          0 0 0 0 0 0
          0 0 0 0 0 0
          0 0 0 0 0 0
          0 0 0 0 0 0
          0 0 0 0 0 0
          0 0 0 0 0 0
          0 0 0 0 0 0
          0 0 0 0 0 0
          0 0 0 0 0 0
          0 0 0 0 0 0
          0 0 0 0 0 0
          0 0 0 0 0 0
          0 0 0 0 0 0
          0 0 0 0 0 0
          0 0 0 0 0 0
          0 0 0 0 0 0
          0 0 0 0 0 0
          0 0 0 0 0 0
          0 0 0 0 0 0
          0 0 0 0 0 0
          0 0 0 0 0 0
          0 0 0 0 0 0
          0 0 0 0 0 0
          0 0 0 0 0 0
          0 0 0 0 0 0
          0 0 0 0 0 0
          0 0 0 0 0 0
          0 0 0 0 0 0
          0 0 0 0 0 0
          0 0 0 0 0 0
          0 0 0 0 0 0
          0 0 0 0 0 0
          0 0 0 0 0 0
          0 0 0 0 0 0
          0 0 0 0 0 0
          0 0 0 0 0 0
          0 0 0 0 0 0
          0 0 0 0 0
        </DataArray>
        <DataArray type="Float64" Name="gradient_error" format="ascii" RangeMin="3.085882612110508e-13" RangeMax="6.954858926576244e-10">
          3.8605362918550325e-11 3.2616577756132374e-10 3.2026817786294906e-11 1.1489258412059316e-11 7.15082710501517e-12 7.59256411160614e-11
          6.043359865584352e-12 5.889666458324236e-12 1.1466582140308529e-12 2.1456160878303004e-12 4.680650346425464e-11 4.266762930251743e-11
          3.212530932891541e-11 2.8554792898275763e-11 1.2610499599825155e-11 8.977589984032575e-12 8.256206170487648e-12 3.3139377100987156e-11
          2.1938248402037974e-11 7.812274024464528e-12 9.190313347728274e-12 9.38940084533673e-11 6.35172220828033e-11 2.0831272439958024e-11
          2.4448111864833626e-10 1.8890784427726623e-12 2.3568529031821267e-12 1.4222527922189012e-11 9.60972100772222e-12 1.448989721701492e-12
          4.911479567916689e-12 3.144761846173936e-12 5.510976874741667e-11 3.904646491562317e-11 1.1582265036333471e-11 7.996411019719744e-12
          7.380640015545902e-12 4.0019284379685974e-12 3.712967102688795e-12 2.5142886846072277e-12 2.7838251950482334e-12 1.399726165646671e-12
          1.1101605678107428e-12 1.5216577299990344e-12 3.0228386910978533e-12 4.153250905260918e-12 2.0676127185236793e-12 2.4978752424326352e-11
          2.3657848069836666e-11 4.571578032467748e-11 4.224281631326003e-11 1.0863570635231454e-11 1.9711194641792247e-11 1.8212463320547384e-11
          2.0199219231244855e-11 3.3409920413762525e-11 1.4401802388589897e-11 2.146854160481033e-10 1.947474437009337e-10 8.508789078390014e-11
          1.4574831741893357e-10 1.5646744414355788e-11 2.2794902869315424e-11 6.925167117907763e-12 9.811570214203196e-12 1.0846205121341499e-11
          1.3548867269173801e-11 6.894189553190933e-12 9.085315251179174e-11 3.947447699986463e-11 6.190153795620315e-10 5.634776082640459e-10
          2.8078326783340896e-10 2.54417409780948e-10 4.20710329430068e-10 1.8787099755903605e-10 6.803850823665024e-10 6.505807673194383e-10
          3.0730502787634296e-10 5.32728059861728e-10 2.5395479819927203e-10 1.120500106794652e-10 5.454484198189028e-11 3.4364229759800106e-10
          1.5380314009741505e-10 4.78658943478993e-12 4.530727869501075e-12 7.958311806866265e-12 7.352526620569793e-12 1.765890528051085e-12
          3.0039903908254666e-12 2.771138260043641e-12 3.834518492680942e-12 5.808642603924127e-12 2.5767319860346706e-12 3.797189403994614e-11
          3.439779282943429e-11 1.2884145442169623e-11 2.5657833334734508e-11 1.182715705991982e-12 1.1052013826322573e-12 1.4894820811185104e-12
          1.379104778738047e-12 1.119014151420492e-12 1.6553796525459853e-12 1.569262207999632e-12 4.932081133919937e-12 4.468990558062339e-12
          3.3361790991333113e-12 3.691836925583256e-12 4.6634403583272704e-12 3.4289307650509237e-12 3.0133717745013413e-12 5.335423989835721e-12
          4.788256460183593e-12 2.7365794839104935e-12 1.592710988648679e-11 5.969217872069138e-12 8.390833013501283e-12 2.487964903194903e-12
          1.5882069258614838e-12 2.076722402121379e-12 1.1598657505664378e-10 1.0478003999586352e-10 4.386280535176909e-11 3.955052413563721e-11
          7.683883177304934e-11 2.8886873233890538e-11 1.4074574249915386e-10 1.311596472573012e-10 5.09370042746005e-11 1.0214582635394788e-10
          1.523832620398765e-11 1.372499476370787e-11 1.0003808001787022e-11 1.9688738062539433e-11 1.8086023167087916e-11 1.3700652059717875e-11
          4.55141372024854e-11 1.705578985198598e-11 2.2060958237564504e-11 8.263233422750675e-12 6.313251876670488e-11 2.3835614084325635e-11
          3.0845419280447135e-11 5.904026464832985e-12 8.290335549106418e-12 7.772997630182778e-12 7.61357493833863e-12 2.2512930527524057e-11
          2.1525078114201038e-11 4.279011442430923e-12 1.0986589798626416e-11 1.046116438759109e-11 7.2548944895421306e-12 1.8957418510192142e-11
          9.049677381200789e-12 6.6340704504191395e-12 1.5427554749928033e-11 3.3805868473787014e-12 7.079871958427689e-12 5.491285554427968e-12
          1.1278826348227662e-11 5.8623756942171386e-12 2.214666230194816e-12 2.132774479126498e-12 4.798892447518856e-12 4.569955267966375e-12
          1.0025339189687816e-12 1.9813051461312268e-12 1.8709603104120193e-12 1.9129598222831263e-12 3.9329845766799815e-12 1.8502660983039523e-12
          4.415807893715091e-13 4.550869362715332e-13 7.419334110577602e-13 7.143829978558969e-13 3.085882612110508e-13 3.6682553643030493e-13
          4.059235331480421e-13 4.685930831715572e-13 6.868325846540336e-13 4.4502152986577936e-13 1.687840707003383e-12 3.0237627420947092e-12
          1.1869023026062036e-12 1.8112508103951033e-12 1.6006444974986928e-12 2.522574419243352e-12 1.5929342752639738e-12 1.2492403152437984e-11
          2.0599588062551905e-11 2.023445732210086e-11 1.9179658486832298e-11 4.482006548012333e-11 8.31997808182595e-12 8.181296060863802e-12
          1.3566459979163162e-11 1.3326404896437383e-11 5.339266442596046e-12 8.83083709001447e-12 8.675426246933136e-12 7.785712176813639e-12
          1.2635494241408272e-11 8.227318506042538e-12 3.0265756730158293e-11 2.9672379462434154e-11 1.932460498089922e-11 2.7965126734887993e-11
          1.0929227213766988e-11 1.755010338604195e-11 1.5514816318266385e-11 3.8291776861840555e-11 7.176488091222056e-12 1.1569777515209642e-11
          4.687684563420936e-12 7.534611794438396e-12 6.404193267311327e-12 1.0234342264170639e-11 6.6644341140026984e-12 2.5348168756514124e-11
          1.6507577142221434e-11 2.211543397145642e-11 1.0062900040251889e-10 9.842605843452887e-11 9.211928162073535e-11 2.095097470839701e-10
          6.687135617659528e-11 6.540306570246581e-11 4.364418461732253e-11 4.26842797362002e-11 6.120045893613825e-11 3.993722095794912e-11
          1.4339627258018516e-10 1.3991764642188969e-10 9.160646380019884e-11 1.3000108562493215e-10 8.254427159531788e-11 7.088216923531495e-11
          1.725079426883131e-10 5.482293158235168e-11 3.576962045721251e-11 4.706029915340648e-11 3.070004108678985e-11 1.1507665887239481e-10
          7.52848157930897e-11 9.714309542432753e-11 8.420315581325302e-12 1.3268240296253526e-11 1.0992255102564596e-11 2.8090383774405486e-11
          5.536681356944678e-12 8.753796084649818e-12 3.6155934233463297e-12 5.697037896215722e-12 4.6713856195436455e-12 7.260083696941316e-12
          4.7270500126901455e-12 1.859316386111451e-11 1.210693258339518e-11 1.508235883782453e-11 5.796010558730565e-12 8.838438317140784e-12
          6.884659554522508e-12 1.787751577688009e-11 3.895232443894022e-12 5.8599338280845285e-12 2.618932765308007e-12 3.802901836203605e-12
          3.1602676452260657e-12 4.563600530138642e-12 3.2680171458857474e-12 1.1837818256290652e-11 7.6680121716208e-12 8.966630068131782e-12
          5.841275405827701e-11 4.6282015539865256e-11 1.1761931018186962e-10 3.876578653846031e-11 2.528722384870968e-11 3.0702129405756165e-11
          2.0023901841359156e-11 7.832136381958528e-11 5.1180948743300785e-11 6.044125413658656e-11 3.5335980518031704e-11 2.6052154105266927e-11
          6.735859636762546e-11 2.3450445370036696e-11 1.5297925312587446e-11 1.7301772301999434e-11 1.1279445619602515e-11 4.4768027100345e-11
          2.921923793034843e-11 4.09246956707262e-10 3.9898376727316814e-10 3.69683494219815e-10 6.047601000975253e-10 2.7557812422411535e-10
          2.6857872749114367e-10 1.815205305838659e-10 1.768661034317036e-10 2.4862048107120167e-10 1.636069049558805e-10 4.2198686848640426e-10
          4.1199639638687923e-10 2.739875423442279e-10 3.8315294447610015e-10 3.255002434018458e-10 2.7236890599360366e-10 4.996763036427007e-10
          2.1859244875030628e-10 1.4369274515266936e-10 1.8259124828514672e-10 1.1987208129329315e-10 3.388193795999416e-10 2.2447266505361408e-10
          2.843252494871875e-10 6.954858926576244e-10 6.845902166656773e-10 6.507153750353811e-10 6.737967709152748e-10 4.825931380273181e-10
          4.743412887828564e-10 3.2618990364094497e-10 3.2021087827979573e-10 4.4909392828470553e-10 3.0214074537255074e-10 4.776003831390624e-10
          4.719448331425366e-10 3.216968866960173e-10 4.5307669921825314e-10 5.924799148363922e-10 5.123359536122668e-10 6.042677928397199e-10
          4.0667048251960974e-10 2.7232248600868095e-10 3.4954914794622576e-10 2.328856171976143e-10 4.1764637818603164e-10 2.8142112628473106e-10
          3.652983242646449e-10 2.167414595164577e-10 1.6428407002808543e-10 3.357611121297445e-10 1.4502544301153426e-10 9.507960064682507e-11
          1.0972012470991303e-10 7.183862780797929e-11 2.2612882559569395e-10 1.4901104768905443e-10 1.7047128034049742e-10 1.1893128545202586e-10
          1.8235729136522663e-10 7.929367416983785e-11 5.185714582576681e-11 3.590778301696594e-11 1.220521788790845e-10 8.004964796358575e-11
          4.1820001846439684e-10 3.214018865985018e-10 4.418830169174057e-10 2.836624356173845e-10 1.8807602833492144e-10 2.1687367460098235e-10
          1.4318363686338137e-10 3.0079153459432567e-10 2.000663299984966e-10 2.3245085257782511e-10 2.3277910357884277e-10 2.5078679815388733e-10
          1.5638649300754262e-10 1.0288780975450573e-10 7.005525975860968e-11 1.6876981183566904e-10 1.1119883656170921e-10 3.4635963827660004e-12
          3.4081099472678237e-12 5.65068373444573e-12 5.551785103714408e-12 2.1548054024240806e-12 3.564721164993597e-12 3.502132428389362e-12
          3.2459979451649655e-12 5.265472438360036e-12 3.321988233759081e-12 1.2629942102666924e-11 1.2382123327132301e-11 7.801877300558873e-12
          1.1669537766890067e-11 1.3572650981299364e-12 1.3322919909161724e-12 2.2101198365344377e-12 2.1698941237218833e-12 8.246873041989983e-13
          1.3512442638525843e-12 1.3256985051177627e-12 1.2744663291488968e-12 2.0588659921169762e-12 1.2588236212840528e-12 4.931943574109527e-12
          4.834864867524698e-12 2.944693548501521e-12 4.553846472780996e-12 2.9911048235077468e-12 4.821454048768245e-12 1.8993429074134906e-12
          3.043793836835038e-12 2.6776310352685207e-12 4.266060996849731e-12 2.6980649792332615e-12 1.057735776133519e-11 6.664432101054468e-12
          9.224490692198426e-12 1.2014567754571934e-12 1.8901267992098304e-12 7.730718929228148e-13 1.1511291910364781e-12 1.1076834509312779e-12
          1.6740929452331119e-12 1.1161327828957784e-12 4.1269376732777446e-12 2.4948152512287753e-12 3.596403909088026e-12 2.797990972077018e-11
          2.7364053752211544e-11 1.7621258523098885e-11 1.7233199207086327e-11 2.5601929536728454e-11 1.6123739951590242e-11 6.0289884617571e-11
          5.88171253258982e-11 3.704308424930402e-11 5.4621670288898e-11 1.0902600107537582e-11 1.0662247740264468e-11 6.629955135165564e-12
          6.48357968861925e-12 9.975308620665609e-12 6.0645521702590875e-12 2.3461714170244494e-11 2.2887598260717947e-11 1.3874585638820459e-11
          2.1252983409991367e-11 2.2928958292641616e-11 1.4442232786289545e-11 1.967803473638334e-11 1.2395440870707246e-11 4.831573153997989e-11
          3.042332178300884e-11 4.0751593264024856e-11 8.942035747649635e-12 5.437300921454648e-12 7.685574984723508e-12 4.673781135043411e-12
          1.8796623975470943e-11 1.1395330672044716e-11 1.5850953094128882e-11 5.255931754628508e-13 5.161123433451468e-13 8.039580217686629e-13
          7.895839452765614e-13 4.120954615651151e-13 5.943250603793136e-13 5.848366161473366e-13 4.935609738480734e-13 7.488561146708707e-13
          5.529472068542938e-13 1.7970148092055963e-12 1.7614020303140176e-12 1.2181573100959445e-12 1.6569436929457806e-12 4.865922990467331e-13
          6.857251936689674e-13 3.781739008676728e-13 5.151203393050486e-13 4.926941616247625e-13 6.489480267806537e-13 4.996944368168693e-13
          1.4825703890997817e-12 1.0314713342624656e-12 1.4632622554621259e-12 3.970554995680557e-12 3.882712044786045e-12 2.326540784528451e-12
          2.2749422957219327e-12 3.631027505622627e-12 2.1270995048656785e-12 8.456663311770543e-12 8.249974913182062e-12 4.8117616833368285e-12
          7.661417351537963e-12 3.249089300854927e-12 1.901738374772397e-12 2.7813819269516542e-12 1.6259143999390009e-12 6.7772128146602706e-12
          3.953859941197851e-12 5.717143163022882e-12 2.3428363296162147e-12 3.646968430945641e-12 1.5425142518412502e-12 2.294941679423676e-12
          2.0078955698524553e-12 3.006475708137853e-12 2.067713514674569e-12 7.75611931679144e-12 4.8584289007060084e-12 6.277183131045448e-12
          1.022459391300597e-12 1.4258080202050107e-12 8.31982289746116e-13 1.1027193285673626e-12 9.9085165705764e-13 1.2956201750388347e-12
          1.0265680802229713e-12 2.9863124182373742e-12 2.133511502526134e-12 2.7388290914679578e-12 1.7097838015749472e-12 2.3873431516184136e-12
          1.360425612304823e-12 1.836335630101598e-12 1.5770243205955825e-12 2.0883994489524423e-12 1.6233473128152326e-12 4.860196066319616e-12
          3.5557351022202416e-12 4.174596208588049e-12 1.62220323636661e-11 1.0224105523367031e-11 1.2862124508330271e-11 8.106105260622111e-12
          3.2825272940947056e-11 2.0663821401050308e-11 2.5306371047983687e-11 6.330649766880124e-12 3.8418125251506244e-12 4.9961191600270715e-12
          3.0245015283596796e-12 1.2766239904893465e-11 7.740677211131352e-12 9.841885073221647e-12 9.811437370209727e-12 6.167566118428654e-12
          7.202832752037558e-12 4.5183063156402945e-12 1.872512612282334e-11 1.1782607971030654e-11 1.3344781410912456e-11 2.534244051672906e-12
          3.788530743286103e-12 1.5246750645266348e-12 2.2918943803513916e-12 1.8824383731488066e-12 2.7718552890361713e-12 1.6763196348519766e-12
          7.281220478010938e-12 4.4183770939085325e-12 5.182224404276115e-12 1.4771631461948185e-12 2.279656010855553e-12 8.623379918524822e-13
          1.3314043570847432e-12 1.1739394388630311e-12 1.7953442490665912e-12 1.0498994869083469e-12 4.606911900081741e-12 2.689772447086019e-12
          3.5539669859803233e-12 1.1702787076468064e-10 1.1400619798047379e-10 7.388006121009799e-11 7.19632448020649e-11 1.0540454567387222e-10
          6.650983399067977e-11 1.825172620558579e-10 1.7802189088258182e-10 1.1309001415351323e-10 1.6510314456531853e-10 4.5687757014298363e-11
          4.449875219830822e-11 2.768331926743312e-11 2.69616646955295e-11 4.111731876923139e-11 2.4909922324854856e-11 7.209964964745186e-11
          7.027942937475789e-11 4.2746060785913575e-11 6.506481334816818e-11 9.250309986863383e-11 5.833876721166404e-11 7.709803127023863e-11
          4.859480581275266e-11 1.4540844806658636e-10 9.21496068923415e-11 1.2144466175717277e-10 3.6054662433459686e-11 2.1839841079065168e-11
          3.002336358731641e-11 1.818493836495908e-11 5.7158798027405964e-11 3.471558939634822e-11 4.760405123379264e-11 2.1499439938175862e-10
          2.1082745601711976e-10 1.3831864135721113e-10 1.3551354363268935e-10 1.9835532639909852e-10 1.2718178073958706e-10 2.1696795326835277e-10
          2.136485966885465e-10 1.3839948333128354e-10 2.0321984490874032e-10 8.692739523264168e-11 8.509749683029274e-11 5.3400787134305e-11
          5.224143870778414e-11 7.969643406679242e-11 4.883720903587619e-11 8.911186450028243e-11 8.752070478825739e-11 5.406939594343119e-11
          8.267810210658279e-11 1.780721899912805e-10 1.1379083539473019e-10 1.5163554119010754e-10 9.65479230531313e-11 1.8505722484333776e-10
          1.1885719399881453e-10 1.598362139250979e-10 7.110047673167854e-11 4.346325467039324e-11 6.014428514401745e-11 3.6672356814084816e-11
          7.460842729622892e-11 4.5798509191732845e-11 6.384413339763056e-11 1.6438808325847233e-11 1.6010050927987532e-11 9.568081674959125e-12
          9.318649412439364e-12 1.479135197352734e-11 8.609768524609727e-12 2.612506392647198e-11 2.5455576546344633e-11 1.4845906868344497e-11
          2.3541709187285483e-11 1.2968417130847428e-11 7.549650764022827e-12 1.0799285819438428e-11 6.288779642753644e-12 2.065092091299513e-11
          1.2034320924877165e-11 1.7173124824991254e-11 3.208374679434039e-11 3.13690067966349e-11 1.8859874186547444e-11 1.8430523070380203e-11
          2.9279325516789236e-11 1.717977599309038e-11 3.33110590049146e-11 3.26526881063435e-11 1.9284445373941207e-11 3.068742078383362e-11
          2.600309733333587e-11 1.5230240763644852e-11 2.1893230259298502e-11 1.2799961147595811e-11 2.750465738485728e-11 1.6165724460207635e-11
          2.3374967598123984e-11 6.109587991347497e-11 3.848764504597024e-11 4.6123475826445386e-11 2.9043143889415484e-11 9.61224481322927e-11
          6.072236371643779e-11 7.214388783272357e-11 2.3773275714113533e-11 1.4400016284660415e-11 1.7937962165366683e-11 1.0868664350114228e-11
          3.757735964336372e-11 2.2785453961700496e-11 2.814147988168481e-11 3.32713057773763e-11 2.094402059265706e-11 2.3026745833688933e-11
          1.4491894149263059e-11 5.146142801774903e-11 3.243374626801371e-11 3.502547022276709e-11 1.2936775433046506e-11 7.842978042195807e-12
          8.951695091580466e-12 5.430085153560567e-12 2.004330742430076e-11 1.2146110020945733e-11 1.3630684783196873e-11 1.2196719575509855e-10
          7.739949658516997e-11 9.253400628973814e-11 5.855972898902501e-11 1.3011363581669195e-10 8.27806353796324e-11 9.958938507194543e-11
          4.808429852408811e-11 2.925312401257375e-11 3.630058526876849e-11 2.2046218389315892e-11 5.154578072628385e-11 3.1424104229011e-11
          3.919455398781965e-11 6.631106927200175e-11 4.1877710460645637e-11 4.5059933506131865e-11 2.8416965098810928e-11 7.175902692705344e-11
          4.536840603599279e-11 4.88765138921302e-11 2.591994334246059e-11 1.5724514559397465e-11 1.7573865907452965e-11 1.0659418771116322e-11
          2.8107199181290095e-11 1.7065124669654167e-11 1.9086575828044424e-11 8.554281779094078e-12 4.984554564731361e-12 6.460568230295518e-12
          3.768770593841605e-12 1.3540027211083434e-11 7.886108602145497e-12 1.0134143646081914e-11 1.7431879185377383e-11 1.0176378753641662e-11
          1.3119732764954472e-11 7.651471035021653e-12 1.8760592582128855e-11 1.0970575260600012e-11 1.4201129785645657e-11 1.5310809441217916e-10
          3.9375452828355276e-11 3.3930128428271866e-11 1.3629942845188943e-10 2.140872476458677e-10 1.745288943203578e-10
        </DataArray>
        <DataArray type="Float64" Name="gradient_matprop_error" format="ascii" RangeMin="0" RangeMax="0">
          0 0 0 0 0 0
          0 0 0 0 0 0
          0 0 0 0 0 0
          0 0 0 0 0 0
          0 0 0 0 0 0
          0 0 0 0 0 0
          0 0 0 0 0 0
          0 0 0 0 0 0
          0 0 0 0 0 0
          0 0 0 0 0 0
          0 0 0 0 0 0
          0 0 0 0 0 0
          0 0 0 0 0 0
          0 0 0 0 0 0
          0 0 0 0 0 0
          0 0 0 0 0 0
          0 0 0 0 0 0
          0 0 0 0 0 0
          0 0 0 0 0 0
          0 0 0 0 0 0
          0 0 0 0 0 0
          0 0 0 0 0 0
          0 0 0 0 0 0
          0 0 0 0 0 0
          0 0 0 0 0 0
          0 0 0 0 0 0
          0 0 0 0 0 0
          0 0 0 0 0 0
          0 0 0 0 0 0
          0 0 0 0 0 0
          0 0 0 0 0 0
          0 0 0 0 0 0
          0 0 0 0 0 0
          0 0 0 0 0 0
          0 0 0 0 0 0
          0 0 0 0 0 0
          0 0 0 0 0 0
          0 0 0 0 0 0
          0 0 0 0 0 0
          0 0 0 0 0 0
          0 0 0 0 0 0
          0 0 0 0 0 0
          0 0 0 0 0 0
          0 0 0 0 0 0
          0 0 0 0 0 0
          0 0 0 0 0 0
          0 0 0 0 0 0
          0 0 0 0 0 0
          0 0 0 0 0 0
          0 0 0 0 0 0
          0 0 0 0 0 0
          0 0 0 0 0 0
          0 0 0 0 0 0
          0 0 0 0 0 0
          0 0 0 0 0 0
          0 0 0 0 0 0
          0 0 0 0 0 0
          0 0 0 0 0 0
          0 0 0 0 0 0
          0 0 0 0 0 0
          0 0 0 0 0 0
          0 0 0 0 0 0
          0 0 0 0 0 0
          0 0 0 0 0 0
          0 0 0 0 0 0
          0 0 0 0 0 0
          0 0 0 0 0 0
          0 0 0 0 0 0
          0 0 0 0 0 0
          0 0 0 0 0 0
          0 0 0 0 0 0
          0 0 0 0 0 0
          0 0 0 0 0 0
          0 0 0 0 0 0
          0 0 0 0 0 0
          0 0 0 0 0 0
          0 0 0 0 0 0
          0 0 0 0 0 0
          0 0 0 0 0 0
          0 0 0 0 0 0
          0 0 0 0 0 0
          0 0 0 0 0 0
          0 0 0 0 0 0
          0 0 0 0 0 0
          0 0 0 0 0 0
          0 0 0 0 0 0
          0 0 0 0 0 0
          0 0 0 0 0 0
          0 0 0 0 0 0
          0 0 0 0 0 0
          0 0 0 0 0 0
          0 0 0 0 0 0
          0 0 0 0 0 0
          0 0 0 0 0 0
          0 0 0 0 0 0
          0 0 0 0 0 0
          0 0 0 0 0 0
          0 0 0 0 0 0
          0 0 0 0 0 0
          0 0 0 0 0 0
          0 0 0 0 0 0
          0 0 0 0 0 0
          0 0 0 0 0 0
          0 0 0 0 0 0
          0 0 0 0 0 0
          0 0 0 0 0 0
          0 0 0 0 0 0
          0 0 0 0 0 0
          0 0 0 0 0 0
          0 0 0 0 0 0
          0 0 0 0 0 0
          0 0 0 0 0 0
          0 0 0 0 0 0
          0 0 0 0 0 0
          0 0 0 0 0 0
          0 0 0 0 0 0
          0 0 0 0 0 0
          0 0 0 0 0 0
          0 0 0 0 0 0
          0 0 0 0 0 0
          0 0 0 0 0 0
          0 0 0 0 0 0
          0 0 0 0 0 0
          0 0 0 0 0 0
          0 0 0 0 0
        </DataArray>
        <DataArray type="Float64" Name="initial_marker" format="ascii" RangeMin="0" RangeMax="2">
          0 2 0 1 0 2
          0 0 0 0 0 0
          0 0 0 0 0 0
          0 0 0.5 2 2 2
          2 0 0 2 2 0
          0 2 2 2 2 0
          0 0 0 0 0 0
          0 0 0 0 0 1
          1 2 2 1 2 2
          1 2 2 2 2 2
          2 0.5 2 0 2 0
          2 1.5 2 2 2 2
          2 2 2 2 2 2
          2 2 2 2 2 2
          2 0 0 2 2 0
          2 2 0 2 1.5 2
          2 2 2 0 0 1
          1 0 0 1 2 2
          2 0 1.75 0 1 0
          1 0.25 2 2 2 0
          0.25 2 2 2 2 2
          2 2 2 2 2 2
          2 2 2 2 2 2
          2 2 2 2 2 2
          2 2 2 0 0 0
          0 0 0 0 0 0
          0 0 0 0 0 0