<?xml version="1.0"?>
<VTKFile type="UnstructuredGrid" version="0.1" byte_order="LittleEndian" header_type="UInt32" compressor="vtkZLibDataCompressor">
  <UnstructuredGrid>
    <Piece NumberOfPoints="725" NumberOfCells="478">
      <PointData>
        <DataArray type="Int32" Name="libmesh_node_id" format="ascii" RangeMin="816" RangeMax="5417">
          816 902 1029 1052 1053 1062
          1167 1168 1180 1181 1421 1422
          1423 1429 1443 1444 1449 1495
          1496 1497 1498 1499 1500 1501
          1504 1505 1506 1523 1524 1527
          1529 1530 1531 2111 2112 2113
          2116 2119 2133 2134 2139 2221
          2222 2224 2227 2237 2241 2255
          2256 2258 2261 2271 2275 2399
          2400 2401 2402 2403 2404 2405
          2406 2407 2408 2409 2410 2411
          2412 2413 2414 2415 2416 2420
          2421 2423 2424 2426 2427 2428
          2429 2430 2434 2435 2437 2438
          2444 2471 2472 2473 2474 2475
          2476 2477 2478 2479 2480 2481
          2482 2485 2487 2488 2490 2491
          2492 2495 2496 2498 2505 2506
          2507 2508 2509 2510 2511 2512
          2513 2514 2515 2516 2517 2518
          2519 2520 2521 2522 2523 2524
          2525 2526 2529 2530 3671 3672
          3673 3676 3679 3693 3694 3697
          3699 3721 3722 3725 3727 3741
          3742 3745 3747 4059 4060 4062
          4065 4075 4077 4079 4093 4094
          4096 4099 4109 4111 4113 4138
          4140 4142 4152 4156 4166 4168
          4170 4180 4184 4266 4267 4269
          4272 4282 4284 4286 4300 4301
          4303 4306 4316 4318 4320 4372
          4374 4376 4386 4390 4400 4402
          4404 4414 4418 4710 4711 4712
          4713 4714 4715 4716 4717 4718
          4719 4720 4721 4722 4723 4724
          4725 4726 4727 4728 4729 4730
          4731 4732 4733 4734 4735 4736
          4737 4738 4739 4740 4741 4742
          4743 4744 4745 4746 4747 4748
          4749 4750 4751 4752 4753 4754
          4755 4756 4757 4758 4759 4760
          4761 4762 4763 4764 4765 4766
          4767 4768 4769 4770 4771 4786
          4787 4788 4789 4790 4791 4792
          4793 4794 4795 4806 4807 4808
          4809 4810 4811 4812 4813 4814
          4815 4816 4817 4818 4819 4820
          4821 4822 4823 4824 4825 4826
          4827 4828 4829 4830 4831 4832
          4833 4834 4836 4837 4838 4839
          4840 4841 4842 4843 4844 4846
          4847 4848 4849 4850 4851 4852
          4853 4854 4855 4934 4935 4936
          4937 4938 4939 4940 4941 4942
          4943 4944 4945 4946 4947 4948
          4949 4950 4951 4952 4953 4954
          4955 4956 4957 4958 4959 4960
          4961 4962 4963 4964 4965 4966
          4967 4968 4969 4970 4971 4972
          4973 4974 4975 4976 4977 4978
          4979 4980 4981 4982 4983 4984
          4985 4986 4987 4988 4989 4990
          4991 4992 4993 4994 4995 4996
          4997 4998 4999 5000 5001 5002
          5003 5004 5005 5006 5007 5008
          5009 5010 5011 5022 5023 5024
          5025 5026 5027 5028 5036 5037
          5038 5039 5040 5041 5042 5043
          5044 5045 5052 5053 5055 5056
          5057 5058 5059 5060 5061 5062
          5067 5069 5070 5071 5072 5073
          5074 5075 5076 5077 5078 5079
          5080 5081 5082 5083 5084 5085
          5088 5089 5091 5092 5095 5096
          5098 5099 5100 5101 5102 5103
          5104 5105 5106 5107 5108 5109
          5110 5111 5112 5113 5116 5117
          5119 5120 5122 5123 5124 5126
          5127 5128 5129 5130 5131 5132
          5157 5158 5159 5160 5161 5162
          5168 5185 5186 5187 5188 5189
          5190 5191 5192 5193 5194 5195
          5196 5197 5198 5199 5200 5201
          5202 5203 5204 5205 5206 5207
          5208 5209 5210 5211 5212 5213
          5214 5215 5216 5217 5218 5219
          5220 5221 5222 5223 5224 5225
          5226 5227 5228 5229 5230 5231
          5232 5233 5234 5235 5236 5237
          5238 5239 5240 5241 5242 5243
          5244 5245 5246 5247 5248 5249
          5250 5251 5252 5253 5254 5255
          5256 5257 5258 5259 5260 5261
          5262 5263 5264 5265 5266 5267
          5268 5269 5270 5271 5272 5273
          5274 5275 5276 5277 5278 5279
          5280 5281 5282 5283 5284 5285
          5286 5287 5288 5289 5290 5291
          5292 5293 5294 5295 5296 5297
          5298 5299 5300 5301 5302 5303
          5304 5305 5306 5307 5308 5309
          5310 5311 5312 5313 5314 5315
          5316 5317 5318 5319 5320 5321
          5322 5323 5324 5325 5326 5327
          5328 5329 5330 5331 5332 5333
          5334 5335 5336 5339 5340 5342
          5343 5345 5346 5347 5349 5350
          5351 5352 5353 5354 5355 5356
          5357 5358 5359 5360 5361 5362
          5363 5364 5367 5368 5370 5371
          5374 5375 5377 5378 5381 5382
          5384 5385 5388 5389 5405 5406
          5409 5410 5412 5413 5416 5417
          1028 1502 1503 1426 2431 2432
          2137 2433 4835 1030 2436 4845
          1508 5086 4154 5087 5090 2239
          2493 5093 5094 5097 2494 5114
          4182 5115 5118 1446 2497 5121
          5125 5337 4388 5338 5341 2273
          2527 5344 5348 5365 4416 5366
          5369 1036 2531 5372 5376
        </DataArray>
        <DataArray type="Float64" Name="bounds" format="ascii" RangeMin="0" RangeMax="0">
          0 0 0 0 0 0
          0 0 0 0 0 0
          0 0 0 0 0 0
          0 0 0 0 0 0
          0 0 0 0 0 0
          0 0 0 0 0 0
          0 0 0 0 0 0
          0 0 0 0 0 0
          0 0 0 0 0 0
          0 0 0 0 0 0
          0 0 0 0 0 0
          0 0 0 0 0 0
          0 0 0 0 0 0
          0 0 0 0 0 0
          0 0 0 0 0 0
          0 0 0 0 0 0
          0 0 0 0 0 0
          0 0 0 0 0 0
          0 0 0 0 0 0
          0 0 0 0 0 0
          0 0 0 0 0 0
          0 0 0 0 0 0
          0 0 0 0 0 0
          0 0 0 0 0 0
          0 0 0 0 0 0
          0 0 0 0 0 0
          0 0 0 0 0 0
          0 0 0 0 0 0
          0 0 0 0 0 0
          0 0 0 0 0 0
          0 0 0 0 0 0
          0 0 0 0 0 0
          0 0 0 0 0 0
          0 0 0 0 0 0
          0 0 0 0 0 0
          0 0 0 0 0 0
          0 0 0 0 0 0
          0 0 0 0 0 0
          0 0 0 0 0 0
          0 0 0 0 0 0
          0 0 0 0 0 0
          0 0 0 0 0 0
          0 0 0 0 0 0
          0 0 0 0 0 0
          0 0 0 0 0 0
          0 0 0 0 0 0
          0 0 0 0 0 0
          0 0 0 0 0 0
          0 0 0 0 0 0
          0 0 0 0 0 0
          0 0 0 0 0 0
          0 0 0 0 0 0
          0 0 0 0 0 0
          0 0 0 0 0 0
          0 0 0 0 0 0
          0 0 0 0 0 0
          0 0 0 0 0 0
          0 0 0 0 0 0
          0 0 0 0 0 0
          0 0 0 0 0 0
          0 0 0 0 0 0
          0 0 0 0 0 0
          0 0 0 0 0 0
          0 0 0 0 0 0
          0 0 0 0 0 0
          0 0 0 0 0 0
          0 0 0 0 0 0
          0 0 0 0 0 0
          0 0 0 0 0 0
          0 0 0 0 0 0
          0 0 0 0 0 0
          0 0 0 0 0 0
          0 0 0 0 0 0
          0 0 0 0 0 0
          0 0 0 0 0 0
          0 0 0 0 0 0
          0 0 0 0 0 0
          0 0 0 0 0 0
          0 0 0 0 0 0
          0 0 0 0 0 0
          0 0 0 0 0 0
          0 0 0 0 0 0
          0 0 0 0 0 0
          0 0 0 0 0 0
          0 0 0 0 0 0
          0 0 0 0 0 0
          0 0 0 0 0 0
          0 0 0 0 0 0
          0 0 0 0 0 0
          0 0 0 0 0 0
          0 0 0 0 0 0
          0 0 0 0 0 0
          0 0 0 0 0 0
          0 0 0 0 0 0
          0 0 0 0 0 0
          0 0 0 0 0 0
          0 0 0 0 0 0
          0 0 0 0 0 0
          0 0 0 0 0 0
          0 0 0 0 0 0
          0 0 0 0 0 0
          0 0 0 0 0 0
          0 0 0 0 0 0
          0 0 0 0 0 0
          0 0 0 0 0 0
          0 0 0 0 0 0
          0 0 0 0 0 0
          0 0 0 0 0 0
          0 0 0 0 0 0
          0 0 0 0 0 0
          0 0 0 0 0 0
          0 0 0 0 0 0
          0 0 0 0 0 0
          0 0 0 0 0 0
          0 0 0 0 0 0
          0 0 0 0 0 0
          0 0 0 0 0 0
          0 0 0 0 0 0
          0 0 0 0 0 0
          0 0 0 0 0 0
          0 0 0 0 0
        </DataArray>
        <DataArray type="Float64" Name="gradient_error" format="ascii" RangeMin="3.554357138149482e-11" RangeMax="9.629223021124545e-9">
          5.089031957976899e-9 1.3313403789121337e-9 6.609380558435843e-10 2.140872476458677e-10 1.745288943203578e-10 2.9802806385535088e-9
          6.043410578318665e-10 5.147254365611716e-10 1.5310809441217916e-10 1.3629942845188943e-10 1.3418015444826476e-9 1.1297715573466898e-9
          9.888083676636956e-10 5.286755154572152e-10 6.270915997405751e-9 4.733132822793033e-9 7.80599695364061e-9 5.261982597244564e-10
          4.729643756604581e-10 3.9031038775401955e-10 3.4352531261003716e-10 1.4640848412861582e-10 1.18701915486002e-10 1.0444832535201206e-10
          7.269642943494207e-11 2.6531732667735813e-10 2.0838113495747966e-10 3.5561634348829134e-9 2.6284456587509813e-9 1.047015091108695e-9
          5.2190512377347115e-9 5.932224208535365e-9 2.92772787859254e-9 7.156152964924529e-10 4.87297232021037e-10 4.667713993770807e-10
          4.115685227425145e-10 6.250328171719392e-10 5.262766088495466e-10 3.370830661024554e-10 3.992098449505922e-10 2.2031543288015673e-9
          2.0732242577084197e-9 1.7269682674621597e-9 5.846551208366484e-9 1.2733495280952025e-9 3.366471575611127e-9 9.629223021124545e-9
          9.544099547802284e-9 8.75272370396413e-9 5.8889699991989916e-9 6.52123712913897e-9 7.53076035795103e-9 4.3861172618245937e-10
          4.212429892335976e-10 2.9024478200265593e-10 2.778692275114931e-10 2.4360562660483865e-10 1.6861819545091738e-10 1.6102636961499635e-10
          3.7104360510820895e-10 2.430952730770993e-10 1.4058222325016758e-10 4.3039524737128217e-10 4.059232305291399e-10 2.497191615205876e-10
          3.407378401258556e-10 1.4141442679508956e-10 1.353820972128488e-10 9.402146711389826e-11 8.975464840370531e-11 1.185734858612318e-10
          7.824085120709259e-11 1.5388167518556404e-10 1.446059721148497e-10 1.1996323523412347e-10 2.9918874407934795e-10 1.9457633639716422e-10
          1.7268980879214687e-10 1.1264115784613628e-10 2.543629476332808e-10 1.5412086478564685e-10 9.334935869460968e-11 8.67450499777581e-11
          1.0901203701748205e-10 1.5789368913318958e-9 1.4792869646571016e-9 1.0571829423995274e-9 9.86328370316734e-10 1.2163481049954323e-9
          8.013472991703637e-10 4.868673572589295e-9 4.519577909561804e-9 3.297665794956803e-9 3.6331132760579598e-9 6.561575789154253e-10
          6.099702289614533e-10 4.906234551858186e-10 2.436987705437537e-9 2.2481192294210364e-9 1.760725091617277e-9 8.782450691604298e-10
          5.682669286397976e-10 2.54234903972432e-9 1.7926863766199458e-9 3.428146890127299e-10 8.756720096880969e-9 8.518965543436768e-9
          7.293260924538734e-9 6.8576101905083696e-9 7.3320867526316315e-9 5.549185005453186e-9 4.373416130747821e-9 5.6482172706522375e-9
          5.863748252530607e-9 7.30280883605597e-9 5.17817333626459e-9 4.845241810609978e-9 3.515400935403947e-9 3.2857765750742105e-9
          3.935097472794215e-9 2.6251218341447884e-9 4.241484875406052e-9 4.402610786540632e-9 3.082530194502581e-9 4.206260152649178e-9
          5.1465988692277125e-9 3.839796808933231e-9 6.086655916898459e-9 4.550601164437268e-9 2.2654523497326894e-10 3.420836693311138e-10
          3.3752503772373875e-10 3.2433118334162836e-10 6.517722912785916e-10 2.0460791241060924e-10 3.0364900331470077e-10 2.769082939032654e-10
          5.829044064188939e-10 1.6745675884728453e-10 2.460508426521253e-10 2.1343524876697004e-10 4.662367445253277e-10 1.3460974817419514e-10
          1.8018085299156603e-10 1.6337835200942033e-10 3.299707998889298e-10 1.2312237367960577e-9 1.213359334716529e-9 1.16129301751806e-9
          2.1699410244472866e-9 1.0794276118985199e-9 9.744042347499787e-10 1.9213504415002596e-9 3.784092454625557e-9 3.7226542625411027e-9
          3.5452190183111926e-9 6.162260960353703e-9 3.2708381162874436e-9 2.9253226930927677e-9 5.3535898927627035e-9 8.541977796826572e-10
          7.272486669310783e-10 1.5055837328472495e-9 6.027809271390257e-10 1.044689864121606e-9 2.5354844823567696e-9 2.1284316958846933e-9
          4.0516276044890174e-9 1.730661405297159e-9 2.7119249502924747e-9 9.129256697285102e-9 9.004767755718768e-9 8.61858402290593e-9
          9.613173569869996e-9 7.96401115962307e-9 7.080185025191997e-9 9.315485289878047e-9 6.9368795211583e-9 7.0947864955453e-9
          7.492929339702663e-9 5.325344845618446e-9 8.054891422908129e-9 8.481339466878974e-9 6.7943666545333085e-9 6.041272107400638e-9
          4.959243274306966e-9 7.78899101038042e-9 3.946157996020841e-9 5.181708302638073e-9 8.29539794496925e-9 7.371234132559381e-9
          8.152471370791565e-9 6.000474728697493e-9 6.249314238235808e-9 1.8123889459458586e-10 1.7880421984968146e-10 2.7263110218895467e-10
          2.689238194510862e-10 1.3995134220321354e-10 2.1512672177813226e-10 2.1215713124405465e-10 1.7188746426353116e-10 2.5820123523146733e-10
          2.035787915616639e-10 5.365932790172117e-10 5.289582373885262e-10 4.24138819357253e-10 5.067108103774821e-10 1.0904967163406158e-10
          1.0755527487787988e-10 1.673324685408455e-10 1.6499309300121928e-10 8.16748671307889e-11 1.2846709625989754e-10 1.2665271958582125e-10
          1.0333188001641304e-10 1.5824021270406776e-10 1.2141099267378204e-10 3.4044522008233095e-10 3.3540444982029964e-10 2.6132579705000114e-10
          3.207389852643804e-10 1.6119869467995454e-10 2.4141465214179837e-10 1.2608905666714065e-10 1.901694932209734e-10 1.4737678309726413e-10
          2.197785654270016e-10 1.7287481751841997e-10 4.717324325309966e-10 3.773320202455524e-10 4.268475905618725e-10 9.683679835779028e-11
          1.4769343002205011e-10 7.347148566636322e-11 1.1322158888006966e-10 8.836414918181969e-11 1.3409268584892447e-10 1.0269136445330823e-10
          2.9775338466740754e-10 2.3154695393743457e-10 2.6840001711339077e-10 6.247438313074076e-11 6.161555656181413e-11 9.747827605008926e-11
          9.609025161422407e-11 4.599142516198856e-11 7.298449951902988e-11 7.193929844250472e-11 5.91470382745716e-11 9.206357383004788e-11
          6.889195684627692e-11 2.0362729887055127e-10 2.0052141239891748e-10 1.5150650886815077e-10 1.914942383001315e-10 5.529748967468772e-11
          8.575727885407809e-11 4.118332730823559e-11 6.410331913805067e-11 5.065436119739164e-11 7.774279950849942e-11 5.811925662565826e-11
          1.7737162507344852e-10 1.3381244933895156e-10 1.5932907320818348e-10 1.3151970230306274e-10 1.9488112406943184e-10 1.0248524034281874e-10
          1.5295505938677896e-10 1.1582155281885293e-10 1.6858429520555917e-10 1.3194781168901718e-10 3.7536486932873695e-10 2.9890235441854473e-10
          3.203642851255378e-10 7.853305383356201e-11 1.184312664315009e-10 5.982934373333827e-11 9.060906421560598e-11 6.883733200509169e-11
          1.0195957811196487e-10 7.787548298122737e-11 2.3493623456717635e-10 1.8202136850174736e-10 1.9942781588188299e-10 1.0489260391007974e-10
          1.4148882960312813e-10 8.146615786450066e-11 1.1052953022684328e-10 1.0141994653167463e-10 1.2765755661387833e-10 9.969286484096616e-11
          2.636742301151163e-10 2.0862543192582724e-10 6.228866128646581e-11 8.520679674569192e-11 4.7512227993518955e-11 6.498233823299741e-11
          6.031118267068556e-11 7.673175053016466e-11 5.850864535245579e-11 1.6309866811602975e-10 1.2577860771541262e-10 4.5944253488453484e-11
          6.848162039435356e-11 3.554357138149482e-11 5.0958953212399904e-11 4.126317027680934e-11 5.852563567100767e-11 4.644482846921905e-11
          1.3887359267812408e-10 1.0392118556772615e-10 1.1715365817145896e-10 1.023385546269884e-9 1.0080582620027478e-9 8.386078385350965e-10
          8.256853169538188e-10 9.634460183208927e-10 7.881184961433232e-10 1.8796712875467863e-9 1.850303556924875e-9 1.5534213410303579e-9
          1.7648731283302884e-9 6.763035616618688e-10 6.656168983402235e-10 5.363133935008829e-10 5.276500566807383e-10 6.345819753674382e-10
          5.02516737858616e-10 1.303817249954888e-9 1.282060342544463e-9 1.0390011286491352e-9 1.218944513344937e-9 8.934562982107154e-10
          7.293217701656445e-10 8.039717648475287e-10 6.544088043991523e-10 1.6310278767587202e-9 1.3634541325832678e-9 1.4604087694206508e-9
          5.861195755790236e-10 4.633482873358235e-10 5.245892473583852e-10 4.13800177765037e-10 1.1205866838007974e-9 9.044771645556696e-10
          9.961349631128261e-10 3.302013756481395e-9 3.2477392350064613e-9 2.8431152664480255e-9 2.7952670935942264e-9 3.090643563870943e-9
          2.6564920633665294e-9 5.5712096836900495e-9 5.470493405623885e-9 4.778621427209837e-9 5.179416411789007e-9 2.4089875520085554e-9
          2.367079048679154e-9 2.0038783808380383e-9 1.9677071601488588e-9 2.245450939780275e-9 1.862919002837357e-9 4.190006632681663e-9
          4.112109885297145e-9 3.48963056087746e-9 3.888307014204481e-9 2.846358887396102e-9 2.4400196911518123e-9 2.536691459455114e-9
          2.1654058345179357e-9 4.730320664926079e-9 4.123058403185703e-9 4.173685372188061e-9 2.0559240345551207e-9 1.7002065633399399e-9
          1.8165060475168743e-9 1.495703639651995e-9 3.544861209376815e-9 3.000939686736429e-9 3.1167613797569274e-9 4.1804645760233776e-10
          4.111637845391972e-10 3.202607768299353e-10 3.149032554210085e-10 3.9121336269984857e-10 2.9938497680762377e-10 8.410149279379425e-10
          8.261524320567234e-10 6.44282982912528e-10 7.83153257942312e-10 3.601722382617979e-10 2.752668927116526e-10 3.2102577679801616e-10
          2.448938290279883e-10 7.165134394821537e-10 5.569259473063072e-10 6.328960845777462e-10 1.6342130807097902e-9 1.6036398757859874e-9
          1.3052538530211413e-9 1.2800474407264516e-9 1.5152625732669598e-9 1.2073061200212806e-9 2.9718304607077486e-9 2.914926959480983e-9
          2.3884574488845737e-9 2.750213516194537e-9 1.9543057781475835e-9 1.913799849320795e-9 1.7970153194152113e-9 1.3785916110983129e-9
          1.0951482762064365e-9 1.2076892421831527e-9 9.555024439013076e-10 2.4946770964989848e-9 2.0311686839543866e-9 2.1739998160790024e-9
          1.6173997376141285e-9 1.394911156826687e-9 7.020315695095055e-10 5.694481945392799e-10 5.950035257649831e-10 4.806975979241251e-10
          1.2670001455876138e-9 1.050361055085702e-9 1.0652373664586057e-9 4.550995877089698e-10 3.5811285526199893e-10 3.8282612584813136e-10
          3.004009377227306e-10 8.564251999274716e-10 6.861951257822203e-10 7.124740303530598e-10 4.907291737892781e-10 3.945968093625001e-10
          8.680857831240596e-10 7.113463884292758e-10 3.130011515522409e-10 2.447573577692219e-10 5.738826023559501e-10 4.5544661678014803e-10
          2.186765170734956e-9 1.8563695031901435e-9 1.8232416958311062e-9 1.5375846295465749e-9 3.5650043781634134e-9 3.0935419331784346e-9
          2.947995804007798e-9 1.548766833741147e-9 1.2684212577369228e-9 1.274520732146612e-9 1.0372485422922052e-9 2.6411320447139956e-9
          2.213911764245875e-9 2.154964136378721e-9 1.4707960664848474e-9 1.2309345530122758e-9 2.3560107343122784e-9 2.0146329510631655e-9
          1.0128470150361024e-9 8.185501954360626e-10 6.243077807491874e-10 1.6928755856132594e-9 1.396147409748558e-9 2.775266351199272e-10
          2.1153329849956562e-10 2.3265714672744822e-10 1.772092176458085e-10 5.39974482236525e-10 4.1722870269059785e-10 4.4531825863603865e-10
          1.0188486271527e-9 8.021513288501891e-10 8.281826823269775e-10 6.484970394227285e-10 1.8192782580483828e-9 1.4640061889672915e-9
          1.1526609073141215e-9 8.372920160262451e-9 8.241069526039356e-9 7.534331377678397e-9 7.401107751758876e-9 7.845608795244268e-9
          7.009696127166506e-9 9.20289400736924e-9 9.184366997853734e-9 8.709154911505806e-9 9.078882024873574e-9 6.610428962593479e-9
          6.486258054756355e-9 5.672203845702081e-9 5.561832560573536e-9 6.1239545872721375e-9 5.24353087068118e-9 8.17173147283293e-9
          8.085787465771664e-9 7.187267408235107e-9 7.800073985564574e-9 7.200361622879918e-9 6.389552789557458e-9 6.35072050494387e-9
          5.599223537134854e-9 8.75770181398647e-9 8.086727015502242e-9 8.097655712768436e-9 5.559445680136076e-9 4.755400129316237e-9
          4.8573289319609e-9 4.1530376687619796e-9 7.2609468688668475e-9 6.296178916837312e-9 6.45749450699183e-9 6.627935657834178e-9
          6.798280454964776e-9 6.461191588019128e-9 6.664277749229311e-9 7.26347281660871e-9 7.1572245381676045e-9 4.635797036232569e-9
          4.88109397949713e-9 4.726365745150853e-9 5.6110926435483224e-9 6.583044891023037e-9 6.740780967909858e-9 6.481994468624115e-9
          6.5482162106960595e-9 7.074370027641601e-9 6.632043595829438e-9 4.771144048917886e-9 5.111176563628592e-9 5.427992758615831e-9
          5.913734608757881e-9 7.84519941439171e-9 7.620204640681866e-9 8.121844669296687e-9 7.639350868791495e-9 6.710817478956e-9
          6.711304569854841e-9 7.6014422549651e-9 7.236339397500683e-9 6.4974599891476075e-9 6.929442059829038e-9 6.021777450437732e-9
          6.625911143804383e-9 6.119516186239299e-9 6.757972061896473e-9 4.781306766966715e-9 4.688331219634592e-9 3.9790507263819786e-9
          3.902242616878781e-9 4.421073544080333e-9 3.679926102214373e-9 6.216577220975189e-9 6.11355835024099e-9 5.0937115106502124e-9
          5.80927842289935e-9 3.266460707151842e-9 3.2015887726247814e-9 2.625344819893429e-9 2.570548923473626e-9 3.013047855004074e-9
          2.4117744607171832e-9 4.281397147654984e-9 4.2140214666850965e-9 3.4579324261226874e-9 4.013837456210939e-9 4.010922174932748e-9
          3.3341880427543274e-9 3.4993529349623098e-9 2.897208280786584e-9 5.322983943753534e-9 4.449865030403817e-9 4.697675335144383e-9
          2.718840255077235e-9 2.165604686406534e-9 2.3479185543553266e-9 1.8581319010349564e-9 3.6873717137682004e-9 3.002995565301008e-9
          3.2494807180145508e-9 5.818798837530244e-9 5.820901852168045e-9 4.891707131470412e-9 4.882481897708087e-9 5.763299216485475e-9
          4.81579707828536e-9 4.971112637604749e-9 5.06832010256705e-9 4.301320690560746e-9 5.238398631778095e-9 4.053027146581243e-9
          4.046361767959463e-9 3.38592685974133e-9 3.379718288285893e-9 3.999156668417214e-9 3.3361428317820473e-9 3.5310776519014246e-9
          3.5760289305692584e-9 3.0169728015150374e-9 3.658570598552572e-9 5.536050349118081e-9 4.622390158897513e-9 5.093144916330639e-9
          4.272769629090962e-9 5.264597605239109e-9 4.397465830100801e-9 5.019456360349213e-9 3.855601390029305e-9 3.201635241261323e-9
          3.5707501225979063e-9 2.9363881266431317e-9 3.6725009234405033e-9 3.0797287346750528e-9 3.5299608638129475e-9 5.381373354066788e-9
          4.725854527882112e-9 4.401028213743819e-9 3.854646161069431e-9 7.076643821702401e-9 6.2923785612605305e-9 5.838673377288043e-9
          4.093047712420634e-9 3.492891773630662e-9 3.3266516701930078e-9 2.822567494823781e-9 5.4820628586005675e-9 4.705193901196436e-9
          4.475038175207123e-9 3.486988309371727e-9 3.0365287393185205e-9 4.6149941735132434e-9 4.058139289744054e-9 2.6004266140265244e-9
          2.186103251309549e-9 1.6227877761865609e-9 3.518726126403159e-9 3.0013581812505004e-9 7.721295470113258e-9 7.001558952897211e-9
          6.6727429327359055e-9 5.904989648323315e-9 7.673147245120483e-9 7.039519427561813e-9 6.86083810798392e-9 6.149864134276291e-9
          5.278422084390084e-9 5.1372808410594135e-9 4.418375356827373e-9 6.222773339705102e-9 5.342440407284653e-9 5.2938322470715925e-9
          5.3553475952019775e-9 4.718682288463483e-9 5.5802775028624404e-9 4.915589560578097e-9 4.110221623938782e-9 3.5337890474809387e-9
          4.2839517763354215e-9 3.6913905214747822e-9 2.9301307132685564e-9 2.409133559272683e-9 3.989056677808278e-9 3.333385054496225e-9
          1.9372094422037177e-9 1.5213812160878456e-9 2.7306830768099267e-9 2.1841657668885914e-9 4.479466135504062e-9 3.7739287850057525e-9
          4.528597187848125e-9 3.822786014856005e-9 3.1343959469282406e-9 2.543987368613633e-9 3.192799718497063e-9 2.6079855572517126e-9
          9.396895445953776e-10 3.5427614380307904e-10 2.4122145348909794e-10 6.594227464347379e-10 2.2301356855385944e-10 2.8628854404658106e-10
          4.917236607526086e-10 1.6662836387813325e-10 2.3919833944249294e-10 4.822581958550208e-10 2.967805997031115e-10 1.4748218058832227e-10
          1.7631124259065105e-10 3.928114909143621e-10 4.851176669495298e-10 3.1433855222934184e-10 6.862601342940462e-10 8.319074796115167e-10
          5.586968769816597e-10 2.482425094273401e-10 1.9332722310721274e-10 4.480885272457863e-10 3.5373395666345914e-10 1.148572482976728e-9
          1.3636785169074017e-9 9.531879561672918e-10 1.8187447765044758e-9 2.1144279832437844e-9 1.5400217016514714e-9 7.781360013664397e-10
          1.2815800750752553e-9 2.6706021538852613e-9 3.0484046464093353e-9 2.3029545470096006e-9 3.5296131448495053e-9 3.980979980624012e-9
          3.0841319129700695e-9 1.9514711152103444e-9 2.6502907513366964e-9 4.123865769184728e-9 4.629128428512255e-9 3.6276422173269485e-9
          4.320617756810404e-9 4.846161702615626e-9 3.807347662002232e-9 3.1431940198335046e-9 3.3075214726721184e-9
        </DataArray>
        <DataArray type="Float64" Name="gradient_matprop_error" format="ascii" RangeMin="0" RangeMax="0">
          0 0 0 0 0 0
          0 0 0 0 0 0
          0 0 0 0 0 0
          0 0 0 0 0 0
          0 0 0 0 0 0
          0 0 0 0 0 0
          0 0 0 0 0 0
          0 0 0 0 0 0
          0 0 0 0 0 0
          0 0 0 0 0 0
          0 0 0 0 0 0
          0 0 0 0 0 0
          0 0 0 0 0 0
          0 0 0 0 0 0
          0 0 0 0 0 0
          0 0 0 0 0 0
          0 0 0 0 0 0
          0 0 0 0 0 0
          0 0 0 0 0 0
          0 0 0 0 0 0
          0 0 0 0 0 0
          0 0 0 0 0 0
          0 0 0 0 0 0
          0 0 0 0 0 0
          0 0 0 0 0 0
          0 0 0 0 0 0
          0 0 0 0 0 0
          0 0 0 0 0 0
          0 0 0 0 0 0
          0 0 0 0 0 0
          0 0 0 0 0 0
          0 0 0 0 0 0
          0 0 0 0 0 0
          0 0 0 0 0 0
          0 0 0 0 0 0
          0 0 0 0 0 0
          0 0 0 0 0 0
          0 0 0 0 0 0
          0 0 0 0 0 0
          0 0 0 0 0 0
          0 0 0 0 0 0
          0 0 0 0 0 0
          0 0 0 0 0 0
          0 0 0 0 0 0
          0 0 0 0 0 0
          0 0 0 0 0 0
          0 0 0 0 0 0
          0 0 0 0 0 0
          0 0 0 0 0 0
          0 0 0 0 0 0
          0 0 0 0 0 0
          0 0 0 0 0 0
          0 0 0 0 0 0
          0 0 0 0 0 0
          0 0 0 0 0 0
          0 0 0 0 0 0
          0 0 0 0 0 0
          0 0 0 0 0 0
          0 0 0 0 0 0
          0 0 0 0 0 0
          0 0 0 0 0 0
          0 0 0 0 0 0
          0 0 0 0 0 0
          0 0 0 0 0 0
          0 0 0 0 0 0
          0 0 0 0 0 0
          0 0 0 0 0 0
          0 0 0 0 0 0
          0 0 0 0 0 0
          0 0 0 0 0 0
          0 0 0 0 0 0
          0 0 0 0 0 0
          0 0 0 0 0 0
          0 0 0 0 0 0
          0 0 0 0 0 0
          0 0 0 0 0 0
          0 0 0 0 0 0
          0 0 0 0 0 0
          0 0 0 0 0 0
          0 0 0 0 0 0
          0 0 0 0 0 0
          0 0 0 0 0 0
          0 0 0 0 0 0
          0 0 0 0 0 0
          0 0 0 0 0 0
          0 0 0 0 0 0
          0 0 0 0 0 0
          0 0 0 0 0 0
          0 0 0 0 0 0
          0 0 0 0 0 0
          0 0 0 0 0 0
          0 0 0 0 0 0
          0 0 0 0 0 0
          0 0 0 0 0 0
          0 0 0 0 0 0
          0 0 0 0 0 0
          0 0 0 0 0 0
          0 0 0 0 0 0
          0 0 0 0 0 0
          0 0 0 0 0 0
          0 0 0 0 0 0
          0 0 0 0 0 0
          0 0 0 0 0 0
          0 0 0 0 0 0
          0 0 0 0 0 0
          0 0 0 0 0 0
          0 0 0 0 0 0
          0 0 0 0 0 0
          0 0 0 0 0 0
          0 0 0 0 0 0
          0 0 0 0 0 0
          0 0 0 0 0 0
          0 0 0 0 0 0
          0 0 0 0 0 0
          0 0 0 0 0 0
          0 0 0 0 0 0
          0 0 0 0 0 0
          0 0 0 0 0 0
          0 0 0 0 0 0
          0 0 0 0 0 0
          0 0 0 0 0
        </DataArray>
        <DataArray type="Float64" Name="initial_marker" format="ascii" RangeMin="0" RangeMax="2">
          2 0 2 0 0 2
          0 0 0 0 0 0
          0 2 2 2 2 0
          0 0 0 0 0 0
          0 2 2 2 2 2
          2 2 2 0 0 0
          0 2 0 0 2 2
          2 2 2 2 2 2
          2 2 2 2 2 0
          0 0 0 0 0 0
          0 0 0 2 2 2
          2 0 0 0 0 0
          0 2 2 2 0 0
          0 0 2 2 0 0
          1.75 2 2 2 2 2
          2 2 2 2 2 2
          2 2 2 2 2 2
          2 2 2 2 2 2
          2 2 2 2 2 2
          2 2 2 2 2 2
          2 2 2 2 2 2
          2 2 2 2 0 1
          1 1 2 0 1 1
          2 0 1 1 2 0
          1 1 2 2 2 2
          2 2 2 2 2 2
          2 2 2 2 2 2
          2 2 2 2 2 2
          2 2 2 2 2 2
          2 2 2 2 2 2
          2 2 2 2 2 2
          2 2 2 2 2 2
          2 2 2 0 0 1
          1 0 1 1 0 1
          1 2 2 2 2 0
          0 1 1 0 1 1
          0 1 1 2 2 2
          2 0 1 0 1 0
          1 1 2 2 2 0
          1 0 1 0 1 1
          2 2 2 0 0 1
          1 0 1 1 0 1
          1 2 2 2 2 0
          1 0 1 0 1 1
          2 2 2 0 1 0
          1 0 1 1 2 2
          2 0 1 0 1 0
          1 1 2 2 2 0
          1 0 0.75 0 1 0.5
          2 1.75 0 0.5 0 0.5
          0 0 0 1.5 1.5 0
          1 0 1 0 1 1
          2 2 2 2 2 2
          2 2 2 2 2 2
          2 2 2 2 2 2
          2 2 2 2 2 2
          2 2 2 2 2 2
          2 2 2 2 2 2
          2 2 2 2 2 2
          2 2 2 2 2 2
          2 2 2 2 2 2
          2 2 2 2 2 2
          2 2 2 2 2 2
          2 2 2 2 2 2
          2 2 2 2 2 2
          2 2 2 2 2 2
          2 2 2 2 2 2
          2 2 2 2 2 2
          2 2 2 2 2 2
          2 2 2 2 2 2
          2 2 2 2 2 2
          2 2 2 2 2 2
          2 2 2 2 2 2
          2 2 2 2 2 2
          2 2 2 2 2 2
          2 2 2 2 2 2
          2 2 2 2 2 2
          2 2 2 2 2 2
          2 2 2 2 2 2
          2 2 2 2 2 2
          2 2 2 2 2 2
          2 2 2 2 2 2
          2 2 2 2 2 2
          2 2 2 2 2 2
          2 2 2 2 2 2
          2 2 2 2 2 2
          2 2 2 2 2 2
          2 2 2 2 2 2
          2 2 2 2 2 2
          2 2 2 2 2 2