<?xml version="1.0"?>
<VTKFile type="UnstructuredGrid" version="0.1" byte_order="LittleEndian" header_type="UInt32" compressor="vtkZLibDataCompressor">
  <UnstructuredGrid>
    <Piece NumberOfPoints="479" NumberOfCells="252">
      <PointData>
        <DataArray type="Int32" Name="libmesh_node_id" format="ascii" RangeMin="179" RangeMax="3247">
          179 268 269 270 278 279
          280 367 368 371 372 374
          381 382 384 385 388 428
          429 435 436 531 532 533
          534 535 537 538 555 563
          564 565 566 567 568 569
          570 571 572 573 792 793
          794 795 796 797 798 799
          800 801 802 803 804 846
          847 848 849 850 852 853
          854 855 856 857 859 1105
          1106 1107 1108 1109 1110 1111
          1112 1113 1114 1115 1116 1117
          1118 1368 1369 1370 1371 1374
          1376 1377 1378 1379 1380 1381
          1382 1383 1384 1385 1386 1387
          1388 1389 1390 1391 1392 1394
          1396 1397 1398 1399 1400 1401
          1402 1403 1404 1405 1477 1479
          1485 1487 1556 1557 1558 1559
          1560 1561 1562 1563 1564 1565
          1566 1567 1568 1569 1570 1571
          1572 1573 1577 1578 1579 1581
          1583 1584 1585 1586 1587 1588
          1589 1590 1591 1592 1593 1594
          1595 1596 1597 1598 1599 1600
          1601 1603 1862 1863 1864 1865
          1866 1867 1868 1869 1870 1871
          1872 1873 1874 1875 1876 1877
          1878 1879 1883 1884 1885 1886
          1887 1888 1889 1890 1891 1892
          1893 1894 1895 1896 1897 1898
          1899 1900 1901 1902 2282 2283
          2284 2285 2286 2287 2288 2289
          2290 2291 2292 2293 2294 2295
          2296 2297 2298 2299 2300 2301
          2544 2545 2546 2551 2552 2582
          2583 2585 2586 2587 2750 2751
          2752 2753 2754 2755 2756 2757
          2758 2759 2760 2761 2762 2763
          2764 2765 2766 2767 2768 2769
          2770 2771 2772 2773 2774 2775
          2776 2777 2778 2779 2780 2781
          2782 2783 2784 2785 2786 2787
          2788 2789 2790 2791 2792 2793
          2794 2795 2796 2797 2798 2799
          2800 2801 2802 2803 2804 2805
          2806 2807 2808 2809 2810 2811
          2812 2813 2814 2815 2816 2817
          2818 2819 2820 2821 2822 2823
          2824 2825 2826 2827 2828 2829
          2830 2831 2832 2833 2834 2835
          2836 2837 2838 2839 2840 2841
          2842 2843 2844 2845 2860 2861
          2862 2863 2864 2865 2866 2867
          2868 2869 2880 2881 2882 2883
          2884 2885 2889 2900 2901 2902
          2903 2904 2905 2906 2914 2915
          2916 2917 2918 2919 2920 2921
          2922 2923 2924 2925 2926 2927
          2928 2929 2930 2931 2932 2933
          2934 2935 2936 2937 2938 2939
          2940 2941 2942 2943 3026 3027
          3028 3029 3030 3031 3046 3047
          3048 3049 3055 3056 3116 3117
          3162 3163 3164 3165 3169 3170
          3171 3172 3176 3177 3178 3179
          3180 3181 3182 3186 3187 3188
          3189 3190 3191 3192 3224 3225
          3226 3227 3238 3239 3240 3241
          3242 3243 3244 376 389 574
          556 805 373 838 836 840
          894 896 898 1488 1489 1501
          1495 1502 1503 1497 1504 1910
          1880 1664 1911 1881 1912 1665
          1913 1917 1671 1918 3052 3166
          2584 1646 3167 3168 1662 3059
          3173 1647 3174 3175 1663 3183
          2588 3184 3185 3193 3194 3195
          3230 3245 1669 3246 3247
        </DataArray>
        <DataArray type="Float64" Name="bounds" format="ascii" RangeMin="0" RangeMax="0">
          0 0 0 0 0 0
          0 0 0 0 0 0
          0 0 0 0 0 0
          0 0 0 0 0 0
          0 0 0 0 0 0
          0 0 0 0 0 0
          0 0 0 0 0 0
          0 0 0 0 0 0
          0 0 0 0 0 0
          0 0 0 0 0 0
          0 0 0 0 0 0
          0 0 0 0 0 0
          0 0 0 0 0 0
          0 0 0 0 0 0
          0 0 0 0 0 0
          0 0 0 0 0 0
          0 0 0 0 0 0
          0 0 0 0 0 0
          0 0 0 0 0 0
          0 0 0 0 0 0
          0 0 0 0 0 0
          0 0 0 0 0 0
          0 0 0 0 0 0
          0 0 0 0 0 0
          0 0 0 0 0 0
          0 0 0 0 0 0
          0 0 0 0 0 0
          0 0 0 0 0 0
          0 0 0 0 0 0
          0 0 0 0 0 0
          0 0 0 0 0 0
          0 0 0 0 0 0
          0 0 0 0 0 0
          0 0 0 0 0 0
          0 0 0 0 0 0
          0 0 0 0 0 0
          0 0 0 0 0 0
          0 0 0 0 0 0
          0 0 0 0 0 0
          0 0 0 0 0 0
          0 0 0 0 0 0
          0 0 0 0 0 0
          0 0 0 0 0 0
          0 0 0 0 0 0
          0 0 0 0 0 0
          0 0 0 0 0 0
          0 0 0 0 0 0
          0 0 0 0 0 0
          0 0 0 0 0 0
          0 0 0 0 0 0
          0 0 0 0 0 0
          0 0 0 0 0 0
          0 0 0 0 0 0
          0 0 0 0 0 0
          0 0 0 0 0 0
          0 0 0 0 0 0
          0 0 0 0 0 0
          0 0 0 0 0 0
          0 0 0 0 0 0
          0 0 0 0 0 0
          0 0 0 0 0 0
          0 0 0 0 0 0
          0 0 0 0 0 0
          0 0 0 0 0 0
          0 0 0 0 0 0
          0 0 0 0 0 0
          0 0 0 0 0 0
          0 0 0 0 0 0
          0 0 0 0 0 0
          0 0 0 0 0 0
          0 0 0 0 0 0
          0 0 0 0 0 0
          0 0 0 0 0 0
          0 0 0 0 0 0
          0 0 0 0 0 0
          0 0 0 0 0 0
          0 0 0 0 0 0
          0 0 0 0 0 0
          0 0 0 0 0 0
          0 0 0 0 0
        </DataArray>
        <DataArray type="Float64" Name="gradient_error" format="ascii" RangeMin="3.226926423595155e-11" RangeMax="1.826885282338788e-7">
          6.670133235565915e-10 1.7796723502153522e-9 2.6678253621308978e-9 2.2791040400163363e-9 9.904716302536e-11 3.0752155465719737e-10
          5.1375824170286885e-11 1.2269494377316803e-8 3.783031723229839e-8 2.6151479290417254e-9 4.95255685324241e-8 4.215357974143967e-8
          9.376059675089378e-11 2.7956631246429476e-10 2.2924866879651728e-10 6.928433882840474e-11 3.136478227752463e-10 5.817476567899206e-10
          6.149129075362175e-10 1.1117087476933669e-10 1.356275921462981e-10 5.7987595401588484e-9 4.880881764000676e-9 4.4912325207892796e-10
          1.405236580901901e-9 1.2474410547195422e-9 3.963003987842503e-9 1.0915054616026268e-9 1.2924106365649444e-9 9.399296972641486e-11
          1.2969561467035794e-10 8.808317661263989e-11 1.8971844742453694e-10 4.034569142568591e-11 5.2741546400231214e-11 7.517715935787024e-11
          1.65398259614301e-10 2.8864243431707466e-10 9.761277231550929e-11 2.9933088195586595e-10 6.829542796641612e-9 7.97893753975221e-9
          8.913537416732709e-8 6.569581333878018e-8 2.28810654491396e-9 4.31726879467833e-9 3.5978748846360437e-9 8.448967618934205e-9
          2.7267048925422218e-8 3.955807006661172e-9 1.826885282338788e-7 1.1286888323941172e-7 2.445936137405291e-8 1.343544249708453e-10
          4.723031751099601e-10 2.2434161217520362e-10 6.260601185854302e-10 1.7088577468936203e-10 1.4764164280926985e-10 7.58529976468772e-10
          1.3784857225001685e-9 3.142827260939936e-10 3.178352988517676e-9 1.0394810924798671e-9 1.2332697610545312e-9 5.399808860526262e-9
          8.61634127112287e-9 1.665305806113602e-9 3.4189145433681216e-9 3.030014766046925e-9 5.488112653173019e-9 1.7428170233791785e-9
          4.779667789037966e-10 1.1923965330151095e-9 1.7687934496320015e-10 3.0134620828268534e-10 2.883189539717166e-10 5.600056395331232e-10
          1.7966415427179546e-10 2.2712999486139045e-8 3.4473074035822874e-8 2.981087858284825e-8 2.043635909489053e-8 1.1767776291191591e-7
          1.860983198458963e-8 1.5929262349567222e-8 2.8806410970765917e-8 2.4990498189072382e-8 3.527142984807601e-9 1.2624440049496225e-8
          1.0958959254937618e-8 1.0674397108299437e-8 1.683375231104581e-8 7.328684548037129e-9 9.899261383491421e-8 8.363181331004198e-8
          4.132394140066284e-8 5.111628356730406e-8 8.546071811901761e-9 1.2172030212426158e-8 8.620025364944887e-9 3.5586134638529165e-8
          6.039040084998537e-9 9.420327049542741e-9 2.588054097615524e-9 4.225693403758985e-9 3.977978667943011e-9 6.3477348843727135e-9
          3.073304553120085e-9 2.3832050212198695e-8 1.0860817447811135e-8 1.370254607495898e-8 1.6788220387408836e-7 1.620742967297686e-7
          1.4604833272040295e-7 7.684491268393393e-8 5.036755854143984e-10 4.4300061057013346e-10 1.1081900979744763e-9 9.014398270345204e-10
          2.0213361026844441e-10 5.245299395681189e-10 4.1477558950301907e-10 7.731037890801489e-10 8.174612571337933e-10 3.462937149692756e-10
          5.871863506489823e-9 4.513637522235919e-9 2.372734459977643e-9 2.171874204295308e-9 9.196362689838685e-11 8.140876832129235e-11
          2.3113304552682143e-10 1.807036511964933e-10 1.344265130609945e-10 1.4465204176976303e-10 6.765575974369693e-11 1.10049440971267e-9
          4.622270249348814e-10 1.1846230759833678e-9 1.2333780139491924e-9 5.061948815363082e-10 5.255615086714139e-10 8.14116199559424e-10
          1.5088104085592402e-9 6.570499916872e-10 1.199409885278351e-9 5.159553346983775e-10 1.4935683680706765e-9 2.070923170809992e-10
          2.1475479707357788e-10 8.622665580072452e-11 8.795031226220484e-11 1.5222987940190565e-10 2.6732755401438474e-10 1.1272930720689943e-10
          2.1521933462561593e-10 2.5929352179040716e-10 9.808016037170565e-11 1.3428203836792598e-10 1.2442618795113676e-10 1.1457033753434757e-10
          6.50662796760613e-11 6.591763052997722e-11 1.0345831361570429e-10 9.681192518926594e-11 3.375510068824878e-11 7.263458886348258e-11
          6.919766242739506e-11 6.676898138389314e-11 9.016553676282756e-11 6.576073599130755e-11 5.59735974197877e-10 8.202960096150994e-10
          7.19455780737399e-10 6.186155518596988e-10 4.0427184949101133e-10 3.7813327996636275e-10 5.763380679825424e-10 5.216752688492185e-10
          1.3312276485019812e-10 2.3231833897507533e-10 2.2244045390264599e-10 3.519947104417142e-10 4.670124697158945e-10 2.1256256883021662e-10
          4.713470017722481e-11 5.0992104100749625e-11 9.158523150816288e-11 8.710639465762749e-11 3.226926423595155e-11 5.091391141616076e-11
          5.322663847100095e-11 5.484950802427445e-11 8.26275578070921e-11 5.5539365525841143e-11 6.223685758632934e-10 8.025060922275148e-10
          7.69554042841172e-10 6.925337946722608e-10 1.9997869380114402e-9 4.6295907931596905e-10 5.714941477645802e-10 4.94522699639468e-10
          1.3859583250328599e-9 3.982171001590794e-9 3.767317531574221e-9 3.2905898121819503e-9 8.694325798919247e-9 2.626240509527182e-9
          1.8502053917258397e-9 5.60415905493107e-9 9.806696314682265e-10 1.2371819536422961e-9 9.97718580081023e-10 2.4489785706661753e-9
          1.6545339605418826e-8 1.5278456705635315e-8 1.275128933478049e-8 9.928726680195297e-9 6.75576209389997e-9 4.290979583809204e-9
          2.496022609134759e-9 1.0253030237565843e-9 1.2865217575533846e-9 1.0178817733371295e-9 4.828728125825549e-10 4.647545740642207e-10
          6.799923116182103e-10 6.51889248424729e-10 2.499361918046472e-10 4.598753192187293e-10 4.399494310772576e-10 4.1448571013909275e-10
          5.802610841977791e-10 3.8425554210367323e-10 1.7092951540910744e-9 1.6227366272511504e-9 1.0519342304684832e-9 1.410716758508964e-9
          1.6751574784116572e-10 1.6046632471613442e-10 3.026385892640205e-10 2.8834345387005287e-10 1.0557249329120189e-10 2.0206119526703603e-10
          1.9185849721131156e-10 1.4088447802251464e-10 2.4975370356487824e-10 1.65049124392358e-10 7.659127338596504e-10 7.238520772299176e-10
          4.943792481063665e-10 6.124667301161809e-10 3.500270361571356e-10 4.748019390229758e-10 1.9139680670243703e-10 3.0684739382527274e-10
          3.177189875819723e-10 4.128678948816407e-10 2.652072463789849e-10 1.112168759672112e-9 6.960145469927801e-10 9.322512037174826e-10
          1.2438479326494792e-10 1.9800674445190154e-10 8.321619421981864e-11 1.3131632849491996e-10 1.2041753207596975e-10 1.7055440025013166e-10
          1.1419020736071107e-10 4.6359093015950897e-10 3.1072853158563465e-10 3.7342176391107695e-10 3.5146629307629297e-9 3.319630774253629e-9
          2.6235248154044778e-9 2.4683976195937567e-9 2.853674160135819e-9 2.064608332564949e-9 8.055954910112124e-9 7.491069657244369e-9
          5.493919832517798e-9 6.224497638390134e-9 1.8817780156143934e-9 1.76396557224124e-9 1.3246402268211098e-9 1.2382575202478383e-9
          1.4570859479422523e-9 1.0141999054782909e-9 4.3704706366854865e-9 4.0768759766308904e-9 2.954407792717954e-9 3.3094156065436254e-9
          2.231336636426612e-9 1.553124689861938e-9 1.5605878389337973e-9 1.0632275622926857e-9 4.718752762692383e-9 3.293670329523634e-9
          3.1928760977525125e-9 1.073284525685243e-9 7.365177867867192e-10 7.168303175029937e-10 4.828020501554755e-10 2.357148222864594e-9
          1.660886616451066e-9 1.5078067916628427e-9 7.25375007512655e-11 6.911881126343182e-11 1.3337798463526492e-10 1.2649710671334818e-10
          4.5845412845763125e-11 8.64951957019174e-11 8.206700111822213e-11 6.024366243395107e-11 1.0833244811620876e-10 6.998602464390805e-11
          3.526830365562733e-10 3.3178925308365634e-10 2.1719515755291947e-10 2.769556595051761e-10 5.198779161492124e-11 8.438387095526925e-11
          3.315677247764305e-11 5.39906633296626e-11 4.9188380137538476e-11 7.171907446955243e-11 4.5648083906035964e-11 2.0561294835530755e-10
          1.336315172454394e-10 1.6249921535255094e-10 9.084264936406409e-10 8.474728163525302e-10 6.036727831573464e-10 5.624213624263822e-10
          6.899808583683633e-10 4.561304321780316e-10 1.646327440676299e-9 4.963456705056258e-10 3.262568289464669e-10 3.215697476980424e-10
          2.100116739268401e-10 1.1388804082753907e-9 7.558324256065637e-10 7.025588839954574e-10 7.696334362603791e-10 1.027322088191568e-9
          4.529103783204111e-10 6.72221549283171e-10 6.206774668433554e-10 8.133920688414551e-10 5.082911123579849e-10 2.01487526720529e-9
          1.3189283608649516e-9 1.3807451895403406e-9 2.8838699061196234e-10 4.388842748378629e-10 1.8809105528952168e-10 2.899825408559929e-10
          2.2458833086437606e-10 3.226581990238072e-10 2.108715576924585e-10 8.857814573942659e-10 5.962365815214114e-10 5.633076235917018e-10
          1.2319518192102733e-10 1.9109456702173853e-10 8.041836723529446e-11 1.2453031605756974e-10 9.531281240700647e-11 1.3829840198633676e-10
          9.046001949374794e-11 3.972122541750912e-10 2.596210307940988e-10 2.453832159119614e-10 1.4789362468066285e-8 1.377352644591353e-8
          1.1730569321627626e-8 1.1012793010100892e-8 1.1463319394754256e-8 9.053185461698943e-9 8.675556763154067e-9 6.503186370443569e-9
          5.790885172122002e-9 4.153550898888209e-9 2.9817764470821966e-9 2.104516612290724e-9 1.4447577917386275e-9 9.595301662387879e-10
          3.583665133692192e-9 2.4327911056522577e-9 2.0481484363308355e-9 1.3306588400560246e-9 1.6816651003698132e-9 1.154529207634723e-9
          8.875208141558928e-10 5.946362178380483e-10 8.211570569196218e-10 1.0571758858775706e-9 4.988571434278827e-10 6.778053926480363e-10
          6.174645289915574e-10 7.85779982794241e-10 4.477920347755302e-10 3.2571241706798277e-10 4.4375980139450824e-10 2.1913362548079275e-10
          2.952871385762404e-10 2.3089372472301598e-10 2.932109612295507e-10 1.9739193682351394e-10 7.783691281330654e-10 5.116501261821573e-10
          3.9398839749683913e-10 2.563531936340563e-10 1.3773718319292314e-10 1.9023256810677426e-10 8.692000320005919e-11 1.2166197288996607e-10
          9.468328156716823e-11 1.2308448232427134e-10 7.729760123335917e-11 2.7344631031930647e-9 4.1321882373887546e-10 3.235813252016533e-10
          1.5537038167858538e-9 4.959828084725702e-8 1.1713210893884617e-8 9.9459531300317e-9 2.7023060041326343e-8 8.04822807923837e-9
          1.3441378434096389e-9 3.272729663326671e-10 9.915870236920277e-10 1.3788229056700797e-7 6.752283051084869e-8 5.633062677150438e-8
          7.208923411497552e-8 2.6186450647562602e-8 2.8408277223857465e-8 3.926209043620273e-8 9.490938269029616e-9 1.5018789283145665e-9
          2.082227579544199e-9 1.684203470265665e-9 2.018826065178963e-9 2.8477204119301004e-9 6.29621912249196e-10 7.482622170484273e-10
          8.236017333986446e-10 2.485708221101913e-10 3.031547274650523e-10 3.2596107940727627e-10 9.824741342091733e-9 5.884106245259906e-9
          6.9093885932298756e-9 7.367375291281269e-9 4.164360417942171e-9 3.3255903566074943e-9 2.2142891397047128e-9 5.4613022460570935e-9
          2.961406506383026e-9 3.948822965765855e-9 2.07386347292121e-9 1.5104278836686997e-9 1.0265233628861014e-9 1.6765982303895958e-9
          2.0147453879793626e-9 1.107056961921383e-9 1.2291897911134296e-9 7.305672221782721e-10 4.854571110405578e-10 4.603413033905505e-10
          6.869896435072527e-10 3.190419823661362e-10 4.492816595195628e-10 2.066969203326905e-10 1.9706858828538466e-10
        </DataArray>
        <DataArray type="Float64" Name="gradient_matprop_error" format="ascii" RangeMin="0" RangeMax="0">
          0 0 0 0 0 0
          0 0 0 0 0 0
          0 0 0 0 0 0
          0 0 0 0 0 0
          0 0 0 0 0 0
          0 0 0 0 0 0
          0 0 0 0 0 0
          0 0 0 0 0 0
          0 0 0 0 0 0
          0 0 0 0 0 0
          0 0 0 0 0 0
          0 0 0 0 0 0
          0 0 0 0 0 0
          0 0 0 0 0 0
          0 0 0 0 0 0
          0 0 0 0 0 0
          0 0 0 0 0 0
          0 0 0 0 0 0
          0 0 0 0 0 0
          0 0 0 0 0 0
          0 0 0 0 0 0
          0 0 0 0 0 0
          0 0 0 0 0 0
          0 0 0 0 0 0
          0 0 0 0 0 0
          0 0 0 0 0 0
          0 0 0 0 0 0
          0 0 0 0 0 0
          0 0 0 0 0 0
          0 0 0 0 0 0
          0 0 0 0 0 0
          0 0 0 0 0 0
          0 0 0 0 0 0
          0 0 0 0 0 0
          0 0 0 0 0 0
          0 0 0 0 0 0
          0 0 0 0 0 0
          0 0 0 0 0 0
          0 0 0 0 0 0
          0 0 0 0 0 0
          0 0 0 0 0 0
          0 0 0 0 0 0
          0 0 0 0 0 0
          0 0 0 0 0 0
          0 0 0 0 0 0
          0 0 0 0 0 0
          0 0 0 0 0 0
          0 0 0 0 0 0
          0 0 0 0 0 0
          0 0 0 0 0 0
          0 0 0 0 0 0
          0 0 0 0 0 0
          0 0 0 0 0 0
          0 0 0 0 0 0
          0 0 0 0 0 0
          0 0 0 0 0 0
          0 0 0 0 0 0
          0 0 0 0 0 0
          0 0 0 0 0 0
          0 0 0 0 0 0
          0 0 0 0 0 0
          0 0 0 0 0 0
          0 0 0 0 0 0
          0 0 0 0 0 0
          0 0 0 0 0 0
          0 0 0 0 0 0
          0 0 0 0 0 0
          0 0 0 0 0 0
          0 0 0 0 0 0
          0 0 0 0 0 0
          0 0 0 0 0 0
          0 0 0 0 0 0
          0 0 0 0 0 0
          0 0 0 0 0 0
          0 0 0 0 0 0
          0 0 0 0 0 0
          0 0 0 0 0 0
          0 0 0 0 0 0
          0 0 0 0 0 0
          0 0 0 0 0
        </DataArray>
        <DataArray type="Float64" Name="initial_marker" format="ascii" RangeMin="0" RangeMax="2">
          0 0 0 0 0 0
          0 0 0 0 2 0
          0 0 0 0 0 0
          0 0 0 0 0 0
          0 0 0 0 0 0
          0 0 0 0 0 0
          0 0 0 0 0 0
          1 0.75 0 1 0.25 0
          0.25 0 2 2 2 0
          0 0 0 0 0 0
          0 0 2 2 0 0
          0 0 0 0 0 0
          0 0 0 0 0 0
          0 2 2 2 1.5 2
          2 2 2 2 1 2
          2 1 1.5 1.5 2 2
          2 2 0 0.5 0 1.6666666666666667
          0 0.5 0 0.5 0 0
          0 1.5 1.5 1 2 2
          2 2 1 0.25 2 2
          0 2 2 0 1.5 1.5
          2 2 2 2 0 0
          2 2 0 1 0.5 2
          2 0 0.25 0 0 0
          0 0 1.5 1.5 0 0
          0 0 0 0 0 0
          1.25 0 0 0 0 0
          0 0 0 0 0 0
          0 0 0 0 0 0
          0 0 0 0 0 0
          0 0 0 0 0 0
          0 0 0 0 0 0
          0 0 0 0 2 2
          2 1.5 2 0 1 1
          2 2 2 2 2 2
          2 2 2 2 2 2
          2 2 2 2 2 2
          2 1 1.5 1 2 2
          2 2 1.5 2 1.75 1
          1.5 1.25 2 2 2 2
          1 0.5 1.5 1.25 0 1
          1 0 1 1 2 2
          2 2 0 1 0 1
          0 1 1 2 2 2
          0 1 0 1 0 1
          1 2 2 2 2 2
          2 2 2 2 2 2
          2 2 2 2 2 2
          2 2 2 2 2 2
          2 2 2 2 2 2
          2 2 2 2 2 2
          2 2 0 0 1 1
          0 1 1 0 1 1
          2 2 2 2 0 0.75
          0 0.5 0 0.5 0 1.75
          1.5 1.6666666666666667 2 2 2 2
          2 2 2 2 2 2
          2 2 2 2 2 2
          1.5 1.75 2 2 1.5 2
          2 2 1 1.5 1 1.5
          0 1 1 2 2 2
          1 1.5 1 1.5 0 1
          1 2 2 2 2 2
          2 2 2 2 2 2
          2 2 2 2 2 2
          2 2 2 2 2 2
          2 2 1 1.5 1 1.5
          0 1 1 1 1.5 1
          1.25 0 1 0.5 2 2
          2 1.75 1 1 0.5 0.75
          0 0 0 0 0 0
          0 0.75 0.25 0 0 0
          0 0 0 2 2 2
          2 2 2 2 1.3333333333333333 0
          0 1 0 0 0 0.75
          0 0 0.5 0 2 2
          2 2 2 2 2 2
          2 2 2 2 2 2
          2 2 2 2 1.75 2
          2 1.5 2 1.5 1
        </DataArray>
        <DataArray type="Float64" Name="markers_norefine" format="ascii" RangeMin="0" RangeMax="0">
          0 0 0 0 0 0
          0 0 0 0 0 0
          0 0 0 0 0 0
          0 0 0 0 0 0
          0 0 0 0 0 0
          0 0 0 0 0 0
          0 0 0 0 0 0
          0 0 0 0 0 0
          0 0 0 0 0 0
          0 0 0 0 0 0
          0 0 0 0 0 0
          0 0 0 0 0 0
          0 0 0 0 0 0
          0 0 0 0 0 0
          0 0 0 0 0 0
          0 0 0 0 0 0
          0 0 0 0 0 0
          0 0 0 0 0 0
          0 0 0 0 0 0
          0 0 0 0 0 0
          0 0 0 0 0 0
          0 0 0 0 0 0
          0 0 0 0 0 0
          0 0 0 0 0 0
          0 0 0 0 0 0
          0 0 0 0 0 0
          0 0 0 0 0 0
          0 0 0 0 0 0
          0 0 0 0 0 0
          0 0 0 0 0 0
          0 0 0 0 0 0
          0 0 0 0 0 0
          0 0 0 0 0 0
          0 0 0 0 0 0
          0 0 0 0 0 0
          0 0 0 0 0 0
          0 0 0 0 0 0
          0 0 0 0 0 0
          0 0 0 0 0 0
          0 0 0 0 0 0
          0 0 0 0 0 0
          0 0 0 0 0 0
          0 0 0 0 0 0
          0 0 0 0 0 0
          0 0 0 0 0 0
          0 0 0 0 0 0
          0 0 0 0 0 0
          0 0 0 0 0 0
          0 0 0 0 0 0
          0 0 0 0 0 0
          0 0 0 0 0 0
          0 0 0 0 0 0
          0 0 0 0 0 0
          0 0 0 0 0 0
          0 0 0 0 0 0
          0 0 0 0 0 0
          0 0 0 0 0 0
          0 0 0 0 0 0
          0 0 0 0 0 0
          0 0 0 0 0 0
          0 0 0 0 0 0
          0 0 0 0 0 0
          0 0 0 0 0 0
          0 0 0 0 0 0
          0 0 0 0 0 0
          0 0 0 0 0 0
          0 0 0 0 0 0
          0 0 0 0 0 0
          0 0 0 0 0 0
          0 0 0 0 0 0
          0 0 0 0 0 0
          0 0 0 0 0 0
          0 0 0 0 0 0
          0 0 0 0 0 0
          0 0 0 0 0 0
          0 0 0 0 0 0
          0 0 0 0 0 0
          0 0 0 0 0 0
          0 0 0 0 0 0
          0 0 0 0 0
        </DataArray>
        <DataArray type="Float64" Name="markers_mustrefine" format="ascii" RangeMin="0" RangeMax="2">
          0 0 0 0 0 0
          0 0 0 0 2 0
          0 0 0 0 0 0
          0 0 0 0 0 0
          0 0 0 0 0 0
          0 0 0 0 0 0
          0 0 0 0 0 0
          1 0.75 0 1 0.25 0
          0.25 0 2 2 2 0
          0 0 0 0 0 0
          0 0 2 2 0 0
          0 0 0 0 0 0
          0 0 0 0 0 0
          0 2 2 2 1.5 2
          2 2 2 2 1 2
          2 1 1.5 1.5 2 2
          2 2 0 0.5 0 1.6666666666666667
          0 0.5 0 0.5 0 0
          0 1.5 1.5 1 2 2
          2 2 1 0.25 2 2
          0 2 2 0 1.5 1.5
          2 2 2 2 0 0
          2 2 0 1 0.5 2
          2 0 0.25 0 0 0
          0 0 1.5 1.5 0 0
          0 0 0 0 0 0
          1.25 0 0 0 0 0
          0 0 0 0 0 0
          0 0 0 0 0 0
          0 0 0 0 0 0
          0 0 0 0 0 0
          0 0 0 0 0 0
          0 0 0 0 2 2
          2 1.5 2 0 1 1
          2 2 2 2 2 2
          2 2 2 2 2 2
          2 2 2 2 2 2
          2 1 1.5 1 2 2
          2 2 1.5 2 1.75 1
          1.5 1.25 2 2 2 2
          1 0.5 1.5 1.25 0 1
          1 0 1 1 2 2
          2 2 0 1 0 1
          0 1 1 2 2 2
          0 1 0 1 0 1
          1 2 2 2 2 2
          2 2 2 2 2 2
          2 2 2 2 2 2
          2 2 2 2 2 2
          2 2 2 2 2 2
          2 2 2 2 2 2
          2 2 0 0 1 1
          0 1 1 0 1 1
          2 2 2 2 0 0.75
          0 0.5 0 0.5 0 1.75
          1.5 1.6666666666666667 2 2 2 2
          2 2 2 2 2 2
          2 2 2 2 2 2
          1.5 1.75 2 2 1.5 2
          2 2 1 1.5 1 1.5
          0 1 1 2 2 2
          1 1.5 1 1.5 0 1
          1 2 2 2 2 2
          2 2 2 2 2 2
          2 2 2 2 2 2
          2 2 2 2 2 2
          2 2 1 1.5 1 1.5
          0 1 1 1 1.5 1
          1.25 0 1 0.5 2 2
          2 1.75 1 1 0.5 0.75
          0 0 0 0 0 0
          0 0.75 0.25 0 0 0
          0 0 0 2 2 2
          2 2 2 2 1.3333333333333333 0
          0 1 0 0 0 0.75
          0 0 0.5 0 2 2
          2 2 2 2 2 2
          2 2 2 2 2 2
          2 2 2 2 1.75 2
          2 1.5 2 1.5 1
        </DataArray>
        <DataArray type="Float64" Name="gradient_marker" format="ascii" RangeMin="0" RangeMax="1">
          1 1 0.75 0.875 1 1
          1 0.5 0.625 0.75 0.75 0.8333333333333334
          1 1 1 1 1 1
          1 1 1 1 1 1
          1 1 1 1 1 1
          1 1 1 1 1 1
          1 1 1 1 0 0
          0.25 0.25 0.6666666666666666 0.5 0.5 0
          0.125 0.5 0.75 0.375 0.5 1
          1 1 1 1 1 1
          1 1 1 1 1 0
          0 0.5 0.5 0 0 0.5
          1 1 1 1 1 1
          1 0 0 0 0 0.5
          0 0 0 0 0.6666666666666666 0.5
          0.5 0 0 0.5 0.5 0.25
          0.625 0 0 0 0 0
          0 0 0.5 0.5 0 0
          0.5 0 0.5 0 0.625 0.625
          0.5 0.75 1 1 1 1
          1 1 1 1 1 1
          1 1 1 1 1 1
          1 1 1 1 1 1
          1 1 1 1 1 1
          1 1 1 1 1 1
          1 1 1 1 1 1
          1 1 1 1 1 1
          1 1 1 1 1 1
          1 1 1 1 1 1
          1 1 1 1 1 1
          1 1 1 1 1 1
          1 1 1 1 1 1
          1 1 1 1 1 1
          1 1 1 1 1 1
          1 1 1 1 1 1
          1 1 1 1 1 1
          1 1 1 1 1 1
          1 1 1 1 1 1
          1 1 1 1 1 1
          1 1 1 1 1 1
          1 1 1 1 1 1
          1 1 1 1 1 1
          1 1 1 1 1 1
          1 1 1 1 1 1
          1 1 1 1 1 1
          1 1 1 1 1 1
          1 1 1 1 1 1
          1 1 1 1 1 1
          1 1 1 1 1 1
          1 1 1 1 1 1
          1 1 1 1 1 1
          1 1 1 1 1 1
          1 1 1 1 1 1
          1 1 1 1 1 1
          1 1 1 1 1 1
          1 1 1 1 1 1
          1 1 1 1 1 1
          1 1 1 1 1 1
          1 1 1 1 1 1
          1 1 1 1 1 1
          1 1 1 1 1 1
          1 1 1 1 1 1
          1 1 1 1 1 1
          1 1 1 1 1 1
          1 1 1 1 1 1
          1 1 1 1 1 1
          1 1 1 1 1 1
          1 1 1 1 1 1
          1 1 1 1 1 1
          1 1 1 1 1 1
          1 1 1 0.75 1 1
          1 0.125 0.5 0.5 0 0
          1 1 1 0.375 0.625 0.125
          0.25 0.5 0 0 0.6666666666666666 1
          1 1 1 1 1 1
          1 1 1 1 1 1
          1 1 1 1 1 1
          1 1 1 1 1 1
          1 1 1 1 1 1
          1 1 1 1 1
        </DataArray>
        <DataArray type="Float64" Name="gradient_matprop_marker" format="ascii" RangeMin="0" RangeMax="0">
          0 0 0 0 0 0
          0 0 0 0 0 0
          0 0 0 0 0 0
          0 0 0 0 0 0
          0 0 0 0 0 0
          0 0 0 0 0 0
          0 0 0 0 0 0
          0 0 0 0 0 0
          0 0 0 0 0 0
          0 0 0 0 0 0
          0 0 0 0 0 0
          0 0 0 0 0 0
          0 0 0 0 0 0
          0 0 0 0 0 0
          0 0 0 0 0 0
          0 0 0 0 0 0
          0 0 0 0 0 0
          0 0 0 0 0 0
          0 0 0 0 0 0
          0 0 0 0 0 0
          0 0 0 0 0 0
          0 0 0 0 0 0
          0 0 0 0 0 0
          0 0 0 0 0 0
          0 0 0 0 0 0
          0 0 0 0 0 0
          0 0 0 0 0 0
          0 0 0 0 0 0
          0 0 0 0 0 0
          0 0 0 0 0 0
          0 0 0 0 0 0
          0 0 0 0 0 0
          0 0 0 0 0 0
          0 0 0 0 0 0
          0 0 0 0 0 0
          0 0 0 0 0 0
          0 0 0 0 0 0
          0 0 0 0 0 0
          0 0 0 0 0 0
          0 0 0 0 0 0
          0 0 0 0 0 0
          0 0 0 0 0 0
          0 0 0 0 0 0
          0 0 0 0 0 0
          0 0 0 0 0 0
          0 0 0 0 0 0
          0 0 0 0 0 0
          0 0 0 0 0 0
          0 0 0 0 0 0
          0 0 0 0 0 0
          0 0 0 0 0 0
          0 0 0 0 0 0
          0 0 0 0 0 0
          0 0 0 0 0 0
          0 0 0 0 0 0
          0 0 0 0 0 0
          0 0 0 0 0 0
          0 0 0 0 0 0
          0 0 0 0 0 0
          0 0 0 0 0 0
          0 0 0 0 0 0
          0 0 0 0 0 0
          0 0 0 0 0 0
          0 0 0 0 0 0
          0 0 0 0 0 0
          0 0 0 0 0 0
          0 0 0 0 0 0
          0 0 0 0 0 0
          0 0 0 0 0 0
          0 0 0 0 0 0
          0 0 0 0 0 0
          0 0 0 0 0 0
          0 0 0 0 0 0
          0 0 0 0 0 0
          0 0 0 0 0 0
          0 0 0 0 0 0
          0 0 0 0 0 0
          0 0 0 0 0 0
          0 0 0 0 0 0
          0 0 0 0 0
        </DataArray>
        <DataArray type="Float64" Name="combo" format="ascii" RangeMin="0" RangeMax="1">
          1 1 0.75 0.875 1 1
          1 0.5 0.625 0.75 0.75 0.8333333333333334
          1 1 1 1 1 1
          1 1 1 1 1 1
          1 1 1 1 1 1
          1 1 1 1 1 1
          1 1 1 1 0 0
          0.25 0.25 0.6666666666666666 0.5 0.5 0
          0.125 0.5 0.75 0.375 0.5 1
          1 1 1 1 1 1
          1 1 1 1 1 0
          0 0.5 0.5 0 0 0.5
          1 1 1 1 1 1
          1 0 0 0 0 0.5
          0 0 0 0 0.6666666666666666 0.5
          0.5 0 0 0.5 0.5 0.25
          0.625 0 0 0 0 0
          0 0 0.5 0.5 0 0
          0.5 0 0.5 0 0.625 0.625
          0.5 0.75 1 1 1 1
          1 1 1 1 1 1
          1 1 1 1 1 1
          1 1 1 1 1 1
          1 1 1 1 1 1
          1 1 1 1 1 1
          1 1 1 1 1 1
          1 1 1 1 1 1
          1 1 1 1 1 1
          1 1 1 1 1 1
          1 1 1 1 1 1
          1 1 1 1 1 1
          1 1 1 1 1 1
          1 1 1 1 1 1
          1 1 1 1 1 1
          1 1 1 1 1 1
          1 1 1 1 1 1
          1 1 1 1 1 1
          1 1 1 1 1 1
          1 1 1 1 1 1
          1 1 1 1 1 1
          1 1 1 1 1 1
          1 1 1 1 1 1
          1 1 1 1 1 1
          1 1 1 1 1 1
          1 1 1 1 1 1
          1 1 1 1 1 1
          1 1 1 1 1 1
          1 1 1 1 1 1
          1 1 1 1 1 1
          1 1 1 1 1 1
          1 1 1 1 1 1
          1 1 1 1 1 1