<?xml version="1.0"?>
<VTKFile type="UnstructuredGrid" version="0.1" byte_order="LittleEndian" header_type="UInt32" compressor="vtkZLibDataCompressor">
  <UnstructuredGrid>
    <Piece NumberOfPoints="336" NumberOfCells="169">
      <PointData>
        <DataArray type="Int32" Name="libmesh_node_id" format="ascii" RangeMin="0" RangeMax="3109">
          0 1 2 3 4 5
          6 7 8 9 10 11
          40 41 42 43 44 45
          60 61 62 63 64 65
          80 81 82 90 91 92
          93 94 95 110 111 112
          120 121 122 123 124 125
          126 127 140 141 142 143
          150 151 152 153 154 155
          156 157 170 171 172 173
          180 181 182 183 184 185
          186 187 200 201 202 203
          2724 2725 2726 2727 2728 2729
          2730 2731 2732 2733 2734 2735
          2736 2737 2738 2739 2740 2741
          2742 2743 2744 2745 2746 2747
          2748 2749 2750 2751 2752 2753
          2754 2755 2756 2757 2758 2759
          2760 2761 2762 2763 2764 2765
          2766 2767 2768 2769 2770 2780
          2781 2782 2783 2784 2785 2786
          2787 2788 2789 2790 2791 2792
          2793 2852 2853 2854 2855 2856
          2857 2858 2859 2860 2861 2862
          2863 2864 2865 2872 2873 2874
          2875 2876 2877 2878 2879 2880
          2881 2882 2883 2884 2885 2886
          2887 2888 2889 2890 2891 2898
          2899 2900 2901 2902 2903 2904
          2905 2906 2907 2908 2909 2910
          2911 2912 2913 2914 2915 2916
          2917 2918 2919 2920 2921 2922
          2923 2924 2925 2926 2927 2928
          2929 2930 2931 2932 2933 2934
          2935 2936 2937 2938 2939 2940
          2941 2942 2943 2944 2945 2946
          2947 2948 2949 2950 2951 2952
          2953 2954 2955 2956 2957 2958
          2959 2960 2961 2962 2963 2964
          2965 2966 2967 2968 2969 2970
          2971 2972 2973 2974 2975 2976
          2977 2978 2979 2980 2981 2982
          2983 2984 2985 2986 2987 2988
          2989 2990 2991 2992 2993 2994
          2995 2996 2997 2998 2999 3000
          3001 3002 3003 3004 3005 3006
          3007 3008 3009 3010 3011 3012
          3013 3014 3015 3016 3017 3018
          3019 3020 3021 3022 3023 3024
          3025 3026 3027 3028 3029 3030
          3031 3032 3033 3034 3035 3036
          3037 3038 3039 3040 3041 3042
          3043 3044 3100 3101 3102 3103
          3104 3105 3106 3107 3108 3109
          12 13 14 15 46 47
          66 67 83 96 97 113
        </DataArray>
        <DataArray type="Float64" Name="bounds" format="ascii" RangeMin="0" RangeMax="0">
          0 0 0 0 0 0
          0 0 0 0 0 0
          0 0 0 0 0 0
          0 0 0 0 0 0
          0 0 0 0 0 0
          0 0 0 0 0 0
          0 0 0 0 0 0
          0 0 0 0 0 0
          0 0 0 0 0 0
          0 0 0 0 0 0
          0 0 0 0 0 0
          0 0 0 0 0 0
          0 0 0 0 0 0
          0 0 0 0 0 0
          0 0 0 0 0 0
          0 0 0 0 0 0
          0 0 0 0 0 0
          0 0 0 0 0 0
          0 0 0 0 0 0
          0 0 0 0 0 0
          0 0 0 0 0 0
          0 0 0 0 0 0
          0 0 0 0 0 0
          0 0 0 0 0 0
          0 0 0 0 0 0
          0 0 0 0 0 0
          0 0 0 0 0 0
          0 0 0 0 0 0
          0 0 0 0 0 0
          0 0 0 0 0 0
          0 0 0 0 0 0
          0 0 0 0 0 0
          0 0 0 0 0 0
          0 0 0 0 0 0
          0 0 0 0 0 0
          0 0 0 0 0 0
          0 0 0 0 0 0
          0 0 0 0 0 0
          0 0 0 0 0 0
          0 0 0 0 0 0
          0 0 0 0 0 0
          0 0 0 0 0 0
          0 0 0 0 0 0
          0 0 0 0 0 0
          0 0 0 0 0 0
          0 0 0 0 0 0
          0 0 0 0 0 0
          0 0 0 0 0 0
          0 0 0 0 0 0
          0 0 0 0 0 0
          0 0 0 0 0 0
          0 0 0 0 0 0
          0 0 0 0 0 0
          0 0 0 0 0 0
          0 0 0 0 0 0
          0 0 0 0 0 0
        </DataArray>
        <DataArray type="Float64" Name="gradient_error" format="ascii" RangeMin="8.390343445683e-10" RangeMax="0.0000016720218098028">
          1.6457693471469852e-9 1.4255459279495985e-9 1.1712919273034389e-9 1.286926490817402e-9 2.7233061648234023e-9 2.0762100009088575e-9
          1.492933763330334e-9 1.8273188271212233e-9 1.0284063062816342e-9 9.624091714407665e-10 1.2075538505705419e-9 1.0419927809666586e-9
          9.170379266572797e-10 9.280836344878188e-10 9.096575257518106e-10 9.313314894190443e-10 8.964120365998989e-10 8.76431711362775e-10
          1.2175884943301232e-8 9.163606066308196e-9 5.809863051887804e-9 7.460352416272185e-9 4.070320625644681e-9 2.9718293501680213e-9
          2.4561200374674126e-9 2.7448198892431386e-9 1.873338074691361e-9 5.399736800860703e-8 4.0925978234542336e-8 2.599155920792102e-8
          3.3350519134792185e-8 1.7525327515871012e-8 1.2569854612861377e-8 1.1057140181299704e-8 1.2703670260977336e-8 7.614381709851743e-9
          2.2247451221947253e-7 1.681078347574231e-7 1.0830130880425015e-7 1.3955642210520541e-7 6.250946552568788e-8 4.632444259519191e-8
          1.2238450095303202e-8 1.1869999466049832e-8 4.849478285107716e-8 5.6638331990938283e-8 3.146216154145932e-8 1.697734907053521e-8
          9.869318372700538e-7 9.60816986357072e-7 3.8660417901157703e-7 4.299937222994297e-7 5.217779067887405e-7 2.8812841984503565e-7
          7.475367326286607e-8 2.0146003055269345e-7 4.6241638307342214e-8 5.618599333061055e-8 2.8644598339881308e-8 1.5085339359564478e-8
          1.6739154734312584e-7 2.110944784718644e-7 8.035778218974631e-7 0.0000012245353844993618 3.007341141114488e-7 3.0913539486938466e-7
          4.834153393080979e-7 2.2418120556511165e-7 1.8923245524575338e-8 2.9657162208722637e-8 1.2035214482461215e-8 1.6112338362513294e-8
          0.000001627724486036 0.0000013236126570941053 0.0000013207214121196185 9.589729402756746e-7 9.769258396307555e-7 0.0000012325382779912266
          0.0000012151796672244805 0.0000013223571950231254 0.0000010141413666034389 0.0000010344090783098894 6.266547676310266e-7 9.315038100648021e-7
          9.297790147441377e-7 6.929092633821239e-7 1.828350977153051e-7 0.0000011450792161896378 0.0000011101231430120564 7.693525649992489e-7
          0.0000012363528524985778 0.0000016720218098028 0.000001307564457398118 0.0000010560483527305835 8.30632701268503e-7 6.053016150135256e-7
          7.469162216292795e-7 6.549330008526421e-7 5.544355788308461e-7 4.3396636703106384e-7 3.924761342954336e-7 2.512032068877962e-7
          3.913648243579595e-7 4.487260358863422e-7 3.3704575289373883e-7 8.449176741312997e-8 2.428216939839288e-7 4.550514620861588e-7
          4.810941974321765e-7 2.165733804784955e-7 5.154398414232924e-7 4.792808813733558e-7 3.0065484787580543e-7 3.4028953515806804e-7
          2.832273604475531e-7 3.785350845317742e-7 5.173689297906313e-7 6.026943095925702e-7 2.7021968251317555e-7 1.2586217851497833e-7
          1.3245426386001376e-7 1.9526892716414143e-7 2.039545890881915e-7 1.0906048827028985e-7 1.7580315964645117e-7 1.7915649920114186e-8
          2.2544190998017378e-8 2.480238248794292e-8 1.6260636924808183e-8 2.646756758133045e-7 2.754549143163692e-7 2.425458310226125e-7
          2.7172732075920567e-8 1.3656530987196704e-8 9.167795380595009e-9 8.376061115414434e-9 2.1283024598279534e-8 2.690436234858611e-8
          2.0708523116254363e-8 1.666270017447588e-8 8.765426573915097e-9 2.878449287257471e-8 2.4071745680261034e-8 4.67905977399331e-9
          1.4512683883922616e-8 1.2042375750672226e-8 1.935899848794736e-8 8.769172330948697e-8 1.5417324993225515e-7 6.686535762730305e-8
          1.3031633829882337e-7 9.619393950718169e-9 1.0459081535067764e-8 9.369313367875802e-9 2.2065477655502334e-7 1.9376731897034367e-7
          1.1298769119417358e-8 4.875895441107762e-8 1.0374745045655354e-7 3.192944926864195e-8 7.593260867635287e-8 4.773806240330039e-9
          1.0287714377167728e-8 9.750155202264438e-9 1.5873594650202946e-7 1.199357680840638e-7 1.5801622514005417e-8 3.0838693289457104e-7
          3.0279296959745564e-7 2.9652258171052634e-7 2.3448948434010063e-7 2.4022460430360164e-7 2.694160298966581e-7 2.632162235533959e-7
          3.192639527778702e-7 2.5448114547040823e-7 2.8524858755096354e-7 2.971990063003402e-7 2.986074554897145e-7 2.919429627666912e-7
          3.1601602963151885e-7 1.7206227571263228e-7 2.3603909019586056e-7 2.2990986539626548e-7 2.5123322232405685e-7 3.0001590467908884e-7
          3.4977783957884484e-7 3.4164633751693134e-7 2.7270158875769653e-7 3.060166913556801e-7 3.6673812985937237e-7 2.938536450345538e-7
          3.2771168772755354e-7 3.3351483545501783e-7 3.393317939536637e-7 3.394636616245261e-7 1.956253379365482e-7 2.7038704519442884e-7
          2.886852455957347e-7 3.4514875245230947e-7 4.064343596405081e-7 3.940678794439916e-7 3.1838974460797056e-7 3.4978325140126866e-7
          4.251636195812078e-7 3.456390512730814e-7 3.7594868721898806e-7 3.280614054403409e-7 3.4672620946723745e-7 3.7253288474842375e-7
          2.3034512957543303e-7 3.054986233585458e-7 3.2673375485676835e-7 3.653910134941341e-7 4.784114045534557e-7 4.6005039210471364e-7
          3.757628526537506e-7 4.069898444545376e-7 4.125322733141567e-7 4.0545421521932326e-7 4.3881337635627054e-7 3.758544922388764e-7
          3.974210375154371e-7 4.228775793499562e-7 2.731143007540455e-7 3.539292968043617e-7 3.8634110975615473e-7 4.1898758279199776e-7
          2.5270058289552434e-7 2.4706653662283067e-7 2.8778970769772826e-7 2.79669785233172e-7 2.572635126613626e-7 2.95700589493773e-7
          1.9538156096926752e-7 2.1895417661990698e-7 2.2053212413439115e-7 2.1781855778085133e-7 3.2287883249993207e-7 3.122730338435134e-7
          3.3413766632618344e-7 2.4252679227054645e-7 1.6589346634429776e-7 1.5313436918873997e-7 1.7322127309402754e-7 2.4043595565938253e-7
          2.3912642148729185e-7 2.1413629397731623e-7 2.141234035618626e-7 1.2537274114821648e-7 2.3677600319187958e-7 2.1293773822229723e-7
          1.403752720331822e-7 1.8914616646734067e-7 1.8781085146434267e-7 1.890994732527149e-7 4.2219962452847844e-7 3.9635745424221e-7
          4.2612750318019367e-7 3.582659569296417e-7 1.1466030018272046e-7 1.1346089623004853e-7 2.3457568808144344e-7 2.1007987413934624e-7
          1.0527943076316546e-7 2.3117889933408516e-7 2.0581685460395876e-7 1.122614922773766e-7 1.8558406019724905e-7 1.8045480987383236e-7
          4.851090920157441e-7 4.513646686303346e-7 4.758685328020248e-7 3.96504835529447e-7 4.3446959742457094e-7 4.7148666479503006e-7
          4.719586717183085e-7 5.110808725738505e-7 4.4984068552487774e-7 4.79488927733237e-7 3.3689932242247106e-7 4.253966398715325e-7
          4.7040947408369155e-7 4.812409661060426e-7 5.208668546030317e-7 5.591835306787014e-7 5.790584055373745e-7 6.145874116731936e-7
          5.115278677135651e-7 5.457059201165799e-7 4.2600660115474164e-7 5.223365761453777e-7 5.837920361870895e-7 5.577517961915204e-7
          2.6096696241276374e-7 3.0307029652998046e-7 2.6348260131858194e-7 3.0954707327977873e-7 1.8816662194848578e-7 2.1496295417569447e-7
          2.1031936452247596e-7 3.451736306471972e-7 3.5561154524097557e-7 2.4175928640290315e-7 2.644038868075059e-7 3.1471238785079014e-7
          2.634460789079455e-7 3.181788143148899e-7 1.7453375751652105e-7 2.0386924702882136e-7 1.9506220620563256e-7 3.650208888940744e-7
          3.729115497218342e-7 2.3320473654112173e-7 2.373185078404235e-7 2.3072362710926986e-7 2.7053466022937413e-7 2.6545195167210616e-7
          2.002156040476403e-7 2.2879365971884003e-7 2.356523793117406e-7 3.037508126183247e-7 3.0018027623494246e-7 2.573717153900398e-7
          8.390343445683e-10 8.602555436429639e-10 1.0062541153238658e-9 9.335310366802188e-10 8.814767427176278e-10 8.608079580365723e-10
          1.8488114891410533e-9 1.6157896397161603e-9 1.3827677902912675e-9 6.379911237577617e-9 5.4643025865848235e-9 4.548693935592029e-9
        </DataArray>
        <DataArray type="Float64" Name="gradient_matprop_error" format="ascii" RangeMin="0" RangeMax="0">
          0 0 0 0 0 0
          0 0 0 0 0 0
          0 0 0 0 0 0
          0 0 0 0 0 0
          0 0 0 0 0 0
          0 0 0 0 0 0
          0 0 0 0 0 0
          0 0 0 0 0 0
          0 0 0 0 0 0
          0 0 0 0 0 0
          0 0 0 0 0 0
          0 0 0 0 0 0
          0 0 0 0 0 0
          0 0 0 0 0 0
          0 0 0 0 0 0
          0 0 0 0 0 0
          0 0 0 0 0 0
          0 0 0 0 0 0
          0 0 0 0 0 0
          0 0 0 0 0 0
          0 0 0 0 0 0
          0 0 0 0 0 0
          0 0 0 0 0 0
          0 0 0 0 0 0
          0 0 0 0 0 0
          0 0 0 0 0 0
          0 0 0 0 0 0
          0 0 0 0 0 0
          0 0 0 0 0 0
          0 0 0 0 0 0
          0 0 0 0 0 0
          0 0 0 0 0 0
          0 0 0 0 0 0
          0 0 0 0 0 0
          0 0 0 0 0 0
          0 0 0 0 0 0
          0 0 0 0 0 0
          0 0 0 0 0 0
          0 0 0 0 0 0
          0 0 0 0 0 0
          0 0 0 0 0 0
          0 0 0 0 0 0
          0 0 0 0 0 0
          0 0 0 0 0 0
          0 0 0 0 0 0
          0 0 0 0 0 0
          0 0 0 0 0 0
          0 0 0 0 0 0
          0 0 0 0 0 0
          0 0 0 0 0 0
          0 0 0 0 0 0
          0 0 0 0 0 0
          0 0 0 0 0 0
          0 0 0 0 0 0
          0 0 0 0 0 0
          0 0 0 0 0 0
        </DataArray>
        <DataArray type="Float64" Name="initial_marker" format="ascii" RangeMin="0" RangeMax="0">
          0 0 0 0 0 0
          0 0 0 0 0 0
          0 0 0 0 0 0
          0 0 0 0 0 0
          0 0 0 0 0 0
          0 0 0 0 0 0
          0 0 0 0 0 0
          0 0 0 0 0 0
          0 0 0 0 0 0
          0 0 0 0 0 0
          0 0 0 0 0 0
          0 0 0 0 0 0
          0 0 0 0 0 0
          0 0 0 0 0 0
          0 0 0 0 0 0
          0 0 0 0 0 0
          0 0 0 0 0 0
          0 0 0 0 0 0
          0 0 0 0 0 0
          0 0 0 0 0 0
          0 0 0 0 0 0
          0 0 0 0 0 0
          0 0 0 0 0 0
          0 0 0 0 0 0
          0 0 0 0 0 0
          0 0 0 0 0 0
          0 0 0 0 0 0
          0 0 0 0 0 0
          0 0 0 0 0 0
          0 0 0 0 0 0
          0 0 0 0 0 0
          0 0 0 0 0 0
          0 0 0 0 0 0
          0 0 0 0 0 0
          0 0 0 0 0 0
          0 0 0 0 0 0
          0 0 0 0 0 0
          0 0 0 0 0 0
          0 0 0 0 0 0
          0 0 0 0 0 0
          0 0 0 0 0 0
          0 0 0 0 0 0
          0 0 0 0 0 0
          0 0 0 0 0 0
          0 0 0 0 0 0
          0 0 0 0 0 0
          0 0 0 0 0 0
          0 0 0 0 0 0
          0 0 0 0 0 0
          0 0 0 0 0 0
          0 0 0 0 0 0
          0 0 0 0 0 0
          0 0 0 0 0 0
          0 0 0 0 0 0
          0 0 0 0 0 0
          0 0 0 0 0 0
        </DataArray>
        <DataArray type="Float64" Name="markers_norefine" format="ascii" RangeMin="0" RangeMax="0">
          0 0 0 0 0 0
          0 0 0 0 0 0
          0 0 0 0 0 0
          0 0 0 0 0 0
          0 0 0 0 0 0
          0 0 0 0 0 0
          0 0 0 0 0 0
          0 0 0 0 0 0
          0 0 0 0 0 0
          0 0 0 0 0 0
          0 0 0 0 0 0
          0 0 0 0 0 0
          0 0 0 0 0 0
          0 0 0 0 0 0
          0 0 0 0 0 0
          0 0 0 0 0 0
          0 0 0 0 0 0
          0 0 0 0 0 0
          0 0 0 0 0 0
          0 0 0 0 0 0
          0 0 0 0 0 0
          0 0 0 0 0 0
          0 0 0 0 0 0
          0 0 0 0 0 0
          0 0 0 0 0 0
          0 0 0 0 0 0
          0 0 0 0 0 0
          0 0 0 0 0 0
          0 0 0 0 0 0
          0 0 0 0 0 0
          0 0 0 0 0 0
          0 0 0 0 0 0
          0 0 0 0 0 0
          0 0 0 0 0 0
          0 0 0 0 0 0
          0 0 0 0 0 0
          0 0 0 0 0 0
          0 0 0 0 0 0
          0 0 0 0 0 0
          0 0 0 0 0 0
          0 0 0 0 0 0
          0 0 0 0 0 0
          0 0 0 0 0 0
          0 0 0 0 0 0
          0 0 0 0 0 0
          0 0 0 0 0 0
          0 0 0 0 0 0
          0 0 0 0 0 0
          0 0 0 0 0 0
          0 0 0 0 0 0
          0 0 0 0 0 0
          0 0 0 0 0 0
          0 0 0 0 0 0
          0 0 0 0 0 0
          0 0 0 0 0 0
          0 0 0 0 0 0
        </DataArray>
        <DataArray type="Float64" Name="markers_mustrefine" format="ascii" RangeMin="0" RangeMax="0">
          0 0 0 0 0 0
          0 0 0 0 0 0
          0 0 0 0 0 0
          0 0 0 0 0 0
          0 0 0 0 0 0
          0 0 0 0 0 0
          0 0 0 0 0 0
          0 0 0 0 0 0
          0 0 0 0 0 0
          0 0 0 0 0 0
          0 0 0 0 0 0
          0 0 0 0 0 0
          0 0 0 0 0 0
          0 0 0 0 0 0
          0 0 0 0 0 0
          0 0 0 0 0 0
          0 0 0 0 0 0
          0 0 0 0 0 0
          0 0 0 0 0 0
          0 0 0 0 0 0
          0 0 0 0 0 0
          0 0 0 0 0 0
          0 0 0 0 0 0
          0 0 0 0 0 0
          0 0 0 0 0 0
          0 0 0 0 0 0
          0 0 0 0 0 0
          0 0 0 0 0 0
          0 0 0 0 0 0
          0 0 0 0 0 0
          0 0 0 0 0 0
          0 0 0 0 0 0
          0 0 0 0 0 0
          0 0 0 0 0 0
          0 0 0 0 0 0
          0 0 0 0 0 0
          0 0 0 0 0 0
          0 0 0 0 0 0
          0 0 0 0 0 0
          0 0 0 0 0 0
          0 0 0 0 0 0
          0 0 0 0 0 0
          0 0 0 0 0 0
          0 0 0 0 0 0
          0 0 0 0 0 0
          0 0 0 0 0 0
          0 0 0 0 0 0
          0 0 0 0 0 0
          0 0 0 0 0 0
          0 0 0 0 0 0
          0 0 0 0 0 0
          0 0 0 0 0 0
          0 0 0 0 0 0
          0 0 0 0 0 0
          0 0 0 0 0 0
          0 0 0 0 0 0
        </DataArray>
        <DataArray type="Float64" Name="gradient_marker" format="ascii" RangeMin="1" RangeMax="1">
          1 1 1 1 1 1
          1 1 1 1 1 1
          1 1 1 1 1 1
          1 1 1 1 1 1
          1 1 1 1 1 1
          1 1 1 1 1 1
          1 1 1 1 1 1
          1 1 1 1 1 1
          1 1 1 1 1 1
          1 1 1 1 1 1
          1 1 1 1 1 1
          1 1 1 1 1 1
          1 1 1 1 1 1
          1 1 1 1 1 1
          1 1 1 1 1 1
          1 1 1 1 1 1
          1 1 1 1 1 1
          1 1 1 1 1 1
          1 1 1 1 1 1
          1 1 1 1 1 1
          1 1 1 1 1 1
          1 1 1 1 1 1
          1 1 1 1 1 1
          1 1 1 1 1 1
          1 1 1 1 1 1
          1 1 1 1 1 1
          1 1 1 1 1 1
          1 1 1 1 1 1
          1 1 1 1 1 1
          1 1 1 1 1 1
          1 1 1 1 1 1
          1 1 1 1 1 1
          1 1 1 1 1 1
          1 1 1 1 1 1
          1 1 1 1 1 1
          1 1 1 1 1 1
          1 1 1 1 1 1
          1 1 1 1 1 1
          1 1 1 1 1 1
          1 1 1 1 1 1
          1 1 1 1 1 1
          1 1 1 1 1 1
          1 1 1 1 1 1
          1 1 1 1 1 1
          1 1 1 1 1 1
          1 1 1 1 1 1
          1 1 1 1 1 1
          1 1 1 1 1 1
          1 1 1 1 1 1
          1 1 1 1 1 1
          1 1 1 1 1 1
          1 1 1 1 1 1
          1 1 1 1 1 1
          1 1 1 1 1 1
          1 1 1 1 1 1
          1 1 1 1 1 1
        </DataArray>
        <DataArray type="Float64" Name="gradient_matprop_marker" format="ascii" RangeMin="0" RangeMax="0">
          0 0 0 0 0 0
          0 0 0 0 0 0
          0 0 0 0 0 0
          0 0 0 0 0 0
          0 0 0 0 0 0
          0 0 0 0 0 0
          0 0 0 0 0 0
          0 0 0 0 0 0
          0 0 0 0 0 0
          0 0 0 0 0 0
          0 0 0 0 0 0
          0 0 0 0 0 0
          0 0 0 0 0 0
          0 0 0 0 0 0
          0 0 0 0 0 0
          0 0 0 0 0 0
          0 0 0 0 0 0
          0 0 0 0 0 0
          0 0 0 0 0 0
          0 0 0 0 0 0
          0 0 0 0 0 0
          0 0 0 0 0 0
          0 0 0 0 0 0
          0 0 0 0 0 0
          0 0 0 0 0 0
          0 0 0 0 0 0
          0 0 0 0 0 0
          0 0 0 0 0 0
          0 0 0 0 0 0
          0 0 0 0 0 0
          0 0 0 0 0 0
          0 0 0 0 0 0
          0 0 0 0 0 0
          0 0 0 0 0 0
          0 0 0 0 0 0
          0 0 0 0 0 0
          0 0 0 0 0 0
          0 0 0 0 0 0
          0 0 0 0 0 0
          0 0 0 0 0 0
          0 0 0 0 0 0
          0 0 0 0 0 0
          0 0 0 0 0 0
          0 0 0 0 0 0
          0 0 0 0 0 0
          0 0 0 0 0 0
          0 0 0 0 0 0
          0 0 0 0 0 0
          0 0 0 0 0 0
          0 0 0 0 0 0
          0 0 0 0 0 0
          0 0 0 0 0 0
          0 0 0 0 0 0
          0 0 0 0 0 0
          0 0 0 0 0 0
          0 0 0 0 0 0
        </DataArray>
        <DataArray type="Float64" Name="combo" format="ascii" RangeMin="1" RangeMax="1">
          1 1 1 1 1 1
          1 1 1 1 1 1
          1 1 1 1 1 1
          1 1 1 1 1 1
          1 1 1 1 1 1
          1 1 1 1 1 1
          1 1 1 1 1 1
          1 1 1 1 1 1
          1 1 1 1 1 1
          1 1 1 1 1 1
          1 1 1 1 1 1
          1 1 1 1 1 1
          1 1 1 1 1 1
          1 1 1 1 1 1
          1 1 1 1 1 1
          1 1 1 1 1 1
          1 1 1 1 1 1
          1 1 1 1 1 1
          1 1 1 1 1 1
          1 1 1 1 1 1
          1 1 1 1 1 1
          1 1 1 1 1 1
          1 1 1 1 1 1
          1 1 1 1 1 1
          1 1 1 1 1 1
          1 1 1 1 1 1
          1 1 1 1 1 1
          1 1 1 1 1 1
          1 1 1 1 1 1
          1 1 1 1 1 1
          1 1 1 1 1 1
          1 1 1 1 1 1
          1 1 1 1 1 1
          1 1 1 1 1 1
          1 1 1 1 1 1
          1 1 1 1 1 1
          1 1 1 1 1 1
          1 1 1 1 1 1
          1 1 1 1 1 1
          1 1 1 1 1 1
          1 1 1 1 1 1
          1 1 1 1 1 1
          1 1 1 1 1 1
          1 1 1 1 1 1
          1 1 1 1 1 1
          1 1 1 1 1 1
          1 1 1 1 1 1
          1 1 1 1 1 1
          1 1 1 1 1 1
          1 1 1 1 1 1
          1 1 1 1 1 1
          1 1 1 1 1 1
          1 1 1 1 1 1
          1 1 1 1 1 1
          1 1 1 1 1 1
          1 1 1 1 1 1
        </DataArray>
        <DataArray type="Float64" Name="dHdT" format="ascii" RangeMin="25.80759190266588" RangeMax="29.953238147303566">
          25.811603658477285 25.811585065114738 25.81156438354649 25.811574073795974 25.81154238041053 25.81156564056351
          25.811592869375794 25.811580555426268 25.811551627107384 25.811546902217582 25.81160792864072 25.811615392182105
          25.811543701978245 25.81154448911466 25.811620098188072 25.811618730442014 25.811542177327777 25.811622855723492
          25.812207585681165 25.812101827783692 25.81197412506479 25.812030779531838 25.811908004888743 25.81186945550937
          25.81184642234589 25.81185397338252 25.811830906130005 25.81011508756116 25.810576301390608 25.81115464426085
          25.81090376239403 25.811430090861716 25.81162392412892 25.811732987131094 25.811692437226895 25.81181775739612
          25.81909585471948 25.81710307224613 25.815158009436004 25.81625270189827 25.812856602985125 25.813164087620173
          25.810668812767876 25.8123203699984 25.813212946625875 25.813409549077065 25.812804022093516 25.812474140252785
          26.162154532410128 26.152697306426884 25.908784574718577 25.919885351338884 26.049950356972523 25.885140721475615
          25.896364879791914 25.85853293708601 25.8143888535305 25.81521942344623 25.8132055566378 25.81261467137054
          28.295516672313298 28.59711208807964 26.28346886076326 26.35548433717583 29.13257706206182 26.158544879320843
          29.953238147303566 26.06445478848225 25.813540086280657 25.81656268870288 25.809211839876994 25.809105196050602
          26.490449357160962 26.317106160874868 26.321809855915824 27.072954860954095 27.09323806497625 26.665283118534724
          26.663647307521295 26.302159211209965 27.129993520321506 26.680366178657213 26.011491016332997 26.180818871289834
          26.186041319419 26.117167865193792 28.395570599641943 27.298818876621766 27.27308666687636 27.481557753434966
          26.35014672624668 26.45784965787402 26.276998955678934 27.166367822629528 26.69289207025257 26.042343509709756
          27.31588457734607 26.7017299163625 25.977160439687264 26.042198061965326 26.01305574426136 28.840170679180527
          27.68062257645095 27.760159116790483 26.19460815514321 25.926993041636507 25.91362298862014 27.45637313302456
          26.69788051665702 25.890126349455645 27.484092106350587 26.655442703078364 25.890979650691744 25.981230702490095
          25.948145270914246 29.48763068975593 27.842918951106043 27.922264359978993 26.114754463872785 25.84692262027944
          25.8489900005871 25.87326145992691 25.8765002853766 25.84182884763498 25.865682330386647 25.81462617248166
          25.815195329796797 25.815776168449666 25.813680762029104 25.899600299574374 25.9040105701661 25.889535813138323
          25.815764487111934 25.808960186000697 25.81055157365424 25.810818348826793 25.81185136206799 25.81059373685055
          25.81115425230204 25.81253174423024 25.81091288324284 25.80759190266588 25.80856489827455 25.812142961307792
          25.811714767753525 25.813212126392493 25.80953789388322 25.835610445607085 25.85672744159531 25.82962876379328
          25.84735826245083 25.813048265323488 25.811971506568508 25.810846072808502 25.877844437583537 25.865087761108374
          25.810894747813528 25.82443509260113 25.838217560390408 25.82001345682282 25.829953609275094 25.81215846441038
          25.810446436163556 25.81062059019679 25.85200002817968 25.83989376172736 25.808734407916727 27.664782492583324
          27.480887588307226 27.471977777977163 27.974006466368213 27.994197966124222 27.7818172161236 27.7665338348245
          27.50304479236209 28.04579868621674 27.820610149288278 27.296992684031128 27.569436466122973 27.559061203280788
          27.595421612359814 28.32361343966512 28.08274684393997 28.061089891671838 28.138175506214466 27.84188024821482
          27.736666682360188 27.531914845758564 28.11356154535074 27.87204831084695 27.566051220414387 28.188707748567516
          27.932435880325198 27.32716300915694 27.63053507634316 27.455352446962706 28.490456408341288 28.212181775935335
          28.298820540236008 27.933907143529385 27.82595001089964 27.604193342537055 28.269477034115155 27.999269570801015
          27.640914272202572 28.35752833328278 28.068104046510186 27.099434129586207 27.371267353214314 27.39470388063858
          28.71300405733067 28.394345799064975 28.495293820817796 27.64310057684243 27.92803655241199 27.676328502666394
          28.454204612291047 28.139779235110144 27.38388808252385 28.56231600861544 28.219434293507913 27.1112642662129
          27.415399437467023 27.437366099224434 28.98037267217011 28.603229967553894 28.718643523801205 27.71953460872114
          26.522280733851613 26.540152526882775 26.669865904224597 26.68388885678631 26.501388394905675 26.653627778538414
          26.24665338819822 26.334286791444402 26.357049712033053 26.309075937028354 26.817451074597592 26.827625186689858
          26.805867162171154 26.421920194690586 26.088999449679118 26.06320082645708 26.089039605511772 26.478424690643614
          26.450147170223598 26.377149178949175 26.400126863327028 26.02389811553471 26.40629950472203 26.33893574963487
          26.037402203235047 26.304151187674748 26.321829036010442 26.271571994547728 27.439659858264214 27.232261122229094
          27.237947378202847 26.935520232835533 26.013226269921326 25.998180923299298 26.375674063086578 26.308925722657683
          25.97427513931651 26.344349784934657 26.278306565763458 25.983135576677263 26.2421773822288 26.21226334659226
          27.472538247206757 27.23956931027439 27.23625396884554 26.902761067509484 28.684429203027833 28.30838012425705
          28.814768370966803 28.401258830413934 27.459658877124056 27.478828189539357 29.30083358029532 28.843335535497165
          28.980596288157216 27.801487491052043 28.954755081519817 28.497489779325928 29.109841920327096 28.600243034985233
          27.493438038121873 27.50421993102634 29.702555524877955 29.135511460119147 29.310316124489802 27.88334406886969
          26.476312944477506 26.634151095386045 26.447771473211745 26.610515560345007 26.195789962836372 26.28131548201023
          26.25112403147236 26.791989246294577 26.77325964747827 26.36684100118409 26.416878789837085 26.58251132666568
          26.38299114519554 26.550336039558353 26.138675123829792 26.21837105421966 26.182876366707383 26.748143863494278
          26.71768093392116 26.298066984609527 26.554187480598088 26.559811674699283 26.69765805398345 26.70479995625833
          26.291943376198226 26.38184350902514 26.395870595794296 26.84112862736881 26.84978823781738 26.471743641852054
          25.811535678160325 25.811538351940353 25.811629428239364 25.811627256309535 25.81154102572038 25.8116250843797
          25.81180528415443 25.81181160992913 25.81181793570382 25.811904959629754 25.8118978924339 25.811890825238045
        </DataArray>
        <DataArray type="Float64" Name="dk/dtemperature" format="ascii" RangeMin="0.011300667447636744" RangeMax="0.015804580349343195">
          0.015804580349343195 0.015804580349343192 0.015804580349343192 0.015804580349343195 0.015804580349343192 0.015804580349343192
          0.015804580349343192 0.015804580349343192 0.015804580349343192 0.015804580349343192 0.015804580349343192 0.015804580349343192
          0.015804580349343192 0.015804580349343195 0.015804580349343192 0.015804580349343192 0.015804580349343192 0.015804580349343192
          0.015804580349343192 0.015804580349343192 0.015804580349343192 0.015804580349343192 0.015804580349343192 0.015804580349343192
          0.015804580349343192 0.015804580349343192 0.015804580349343192 0.015804580349343192 0.015804580349343192 0.015804580349343192
          0.015804580349343192 0.015804580349343192 0.015804580349343192 0.015804580349343192 0.015804580349343192 0.015804580349343192
          0.015804580349343192 0.015804580349343192 0.015804580349343192 0.015804580349343192 0.015804580349343192 0.015804580349343192
          0.015804580349343192 0.015804580349343192 0.015804580349343192 0.015804580349343192 0.015804580349343192 0.015804580349343192
          0.015406044064425993 0.015447809861961505 0.015762814551807676 0.015762814551807676 0.015563546409349076 0.01576281455180768
          0.015804580349343192 0.015762814551807676 0.015804580349343192 0.015804580349343192 0.015804580349343192 0.015804580349343192
          0.012836189510041911 0.01249728270714829 0.01530678739498165 0.015254076945682312 0.012034839719977965 0.015435858805437788
          0.011300667447636744 0.01563751715920113 0.015804580349343192 0.015804580349343192 0.015804580349343192 0.015804580349343192