<?xml version="1.0"?>
<VTKFile type="UnstructuredGrid" version="0.1" byte_order="LittleEndian" header_type="UInt32" compressor="vtkZLibDataCompressor">
  <UnstructuredGrid>
    <Piece NumberOfPoints="303" NumberOfCells="164">
      <PointData>
        <DataArray type="Int32" Name="libmesh_node_id" format="ascii" RangeMin="231" RangeMax="2039">
          497 498 984 985 986 987
          988 990 991 996 997 998
          999 1003 1004 1320 1321 1322
          1323 1327 1328 1337 1338 1339
          1340 1341 1342 1343 1674 1675
          1676 1677 1678 1679 1680 1681
          1682 1683 1684 1685 1686 1687
          1688 1689 1690 1691 1692 1693
          1694 1695 1696 1697 1698 1699
          1700 1701 1702 1703 1704 1705
          1706 1707 1708 1709 1714 1715
          1716 1717 1718 1719 1720 1721
          1723 1724 1725 1726 1727 1728
          1729 1730 1731 1733 1734 1735
          1736 1737 1738 1739 1740 1741
          1742 1743 1744 1745 1746 1747
          1748 1749 1750 1751 1755 1756
          1758 1759 1761 1762 1763 1764
          1765 1766 1767 1768 1769 1770
          1771 1772 1773 1776 1777 1779
          1781 1782 1783 1784 1786 1802
          1804 1816 1817 1818 1819 1820
          1821 1822 1823 1824 1825 1826
          1827 1828 1830 1833 1834 1854
          1855 1856 1857 1858 1859 1860
          1861 1862 1864 1871 711 231
          715 712 713 716 717 714
          308 718 720 719 306 982
          983 918 919 920 989 487
          923 488 992 993 926 995
          489 1010 940 1011 941 1017
          946 501 1022 1020 1005 1023
          1021 1240 1238 504 310 523
          521 1312 1315 1316 1313 1319
          1318 1314 1324 1325 1326 1329
          309 1000 1333 1331 1012 1332
          1336 1024 1712 499 1722 994
          1732 500 1752 1753 1754 1757
          1001 1760 1002 1774 1775 1778
          1780 1785 1787 1788 1789 1006
          1790 1791 1007 1792 1793 1794
          1795 1796 1797 1798 1799 1803
          1805 1806 1807 1808 1009 1809
          1810 1811 1812 1829 1013 1835
          1831 1836 1837 1832 1838 1839
          1018 1863 1865 1866 1867 1868
          1869 1870 1027 1872 1873 1874
          1875 1876 1877 1903 1911 1912
          1904 1913 1914 1915 1906 1916
          1926 1921 1927 1928 1922 1929
          2038 2035 2039
        </DataArray>
        <DataArray type="Float64" Name="bounds" format="ascii" RangeMin="0" RangeMax="0">
          0 0 0 0 0 0
          0 0 0 0 0 0
          0 0 0 0 0 0
          0 0 0 0 0 0
          0 0 0 0 0 0
          0 0 0 0 0 0
          0 0 0 0 0 0
          0 0 0 0 0 0
          0 0 0 0 0 0
          0 0 0 0 0 0
          0 0 0 0 0 0
          0 0 0 0 0 0
          0 0 0 0 0 0
          0 0 0 0 0 0
          0 0 0 0 0 0
          0 0 0 0 0 0
          0 0 0 0 0 0
          0 0 0 0 0 0
          0 0 0 0 0 0
          0 0 0 0 0 0
          0 0 0 0 0 0
          0 0 0 0 0 0
          0 0 0 0 0 0
          0 0 0 0 0 0
          0 0 0 0 0 0
          0 0 0 0 0 0
          0 0 0 0 0 0
          0 0 0 0 0 0
          0 0 0 0 0 0
          0 0 0 0 0 0
          0 0 0 0 0 0
          0 0 0 0 0 0
          0 0 0 0 0 0
          0 0 0 0 0 0
          0 0 0 0 0 0
          0 0 0 0 0 0
          0 0 0 0 0 0
          0 0 0 0 0 0
          0 0 0 0 0 0
          0 0 0 0 0 0
          0 0 0 0 0 0
          0 0 0 0 0 0
          0 0 0 0 0 0
          0 0 0 0 0 0
          0 0 0 0 0 0
          0 0 0 0 0 0
          0 0 0 0 0 0
          0 0 0 0 0 0
          0 0 0 0 0 0
          0 0 0 0 0 0
          0 0 0
        </DataArray>
        <DataArray type="Float64" Name="gradient_error" format="ascii" RangeMin="3.8416493800847125e-10" RangeMax="1.3816272447791213e-7">
          4.522450477867321e-9 3.1825989301489154e-9 5.882513110554216e-8 5.2095302714071666e-8 4.141217058752025e-9 6.996010929200207e-9
          6.019823395103959e-9 3.685268841564194e-8 3.916600587449645e-9 2.270711787656624e-9 2.0515501724658934e-9 3.763738638046389e-9
          3.1825517282519275e-9 1.983951277457604e-9 2.3560079369037537e-9 9.750290774599315e-10 9.282932154202914e-10 2.224206207637454e-9
          2.0436307348163423e-9 8.010840958811802e-10 1.5810971889017446e-9 6.671648037923986e-10 1.0915520950746265e-9 4.922182687191177e-10
          7.032253371408812e-10 6.13718769203088e-10 8.839650743409945e-10 6.261365476688224e-10 4.299788972671055e-9 5.272863086020108e-9
          5.1373035522757574e-9 4.791110318641437e-9 1.0580523220054692e-8 3.5074373913920707e-9 3.415558205380969e-9 4.654919297426852e-9
          4.523876896045721e-9 2.1398249360544298e-9 3.452832099739031e-9 3.3413384381258904e-9 3.155706955317255e-9 4.172351120273559e-9
          3.0299190112904416e-9 9.534374972494651e-9 9.142439379189292e-9 6.736689756573703e-9 8.205643596538275e-9 3.4526302780218897e-9
          4.196312533101046e-9 3.445622988769937e-9 8.067402541462319e-9 2.740508026909888e-9 3.6186190264458478e-9 1.7083982893049413e-9
          2.5842427082883545e-9 2.2453585571075326e-9 2.950038266588974e-9 2.0773308610949402e-9 6.925749551570472e-9 5.016317615123124e-9
          5.4724367436869075e-9 1.8748735843452962e-8 1.7787548656906928e-8 1.5848700584351426e-8 1.6799937672238105e-8 1.6033261257508418e-8
          1.3351105295449177e-8 1.2812962999650359e-8 1.4259242476693798e-8 1.1316700542304827e-8 2.8141785648239932e-8 2.698893936514241e-8
          2.3976175683922015e-8 1.3419404108719465e-8 1.0531536248477973e-8 2.1621980291633914e-8 1.1915982728583191e-8 9.227088698022467e-9
          9.25502233011109e-9 6.99364840851219e-9 1.960248421507573e-8 1.4668514906141753e-8 1.541039813815536e-9 1.4922634303928485e-9
          2.454017322215735e-9 2.3698273443427317e-9 1.0319342823478872e-9 1.7208811432450641e-9 1.6590956268542722e-9 1.3647038116310813e-9
          2.1394867462472253e-9 1.4938533333698843e-9 5.201821668119728e-9 4.997099167936058e-9 3.6083660398965964e-9 4.434877277098569e-9
          7.180303918468173e-10 6.927026435911434e-10 1.1725930983731534e-9 1.1291848275460048e-9 6.334860834339144e-10 1.0141515880551448e-9
          2.6248080773615535e-9 2.512607912217905e-9 2.205675632019157e-9 1.1917909058439758e-9 1.8107964177972792e-9 8.399924616818612e-10
          1.2519728323731284e-9 9.898276701988853e-10 1.4353810725957906e-9 1.0766949690230436e-9 3.6549424237759164e-9 2.58922257434865e-9
          2.804139043180214e-9 5.791164547589117e-10 8.48512948477147e-10 5.586356379854638e-10 7.5449927756286e-10 1.772480346234362e-9
          1.5167809870482247e-9 1.0487399556179073e-8 1.0026380044458649e-8 7.90920535834298e-9 8.764257750727883e-9 7.032816188434811e-9
          5.220888161445346e-9 2.2077119909306923e-9 2.6920419097284306e-9 2.3049862893676144e-9 4.844572645455737e-9 1.7796371613538594e-9
          2.2855912079166e-9 1.1287924952505177e-9 1.5748268948556946e-9 1.5618383710477862e-9 1.956476189664419e-9 1.3334842380300831e-9
          4.105500088570957e-9 2.866289196074272e-9 7.94727383215026e-9 6.843021909343949e-9 4.9731808206503115e-9 7.90059069492817e-10
          1.0749616532872264e-9 6.740954802616245e-10 8.794100229678338e-10 6.981240339838125e-10 9.074178709527086e-10 7.558333558064746e-10
          2.009764243986392e-9 1.598824745217306e-9 3.623086743955319e-9 1.241207424280796e-9 3.3917535682977545e-9 1.7916869223723281e-9
          1.372772051880837e-9 3.971412152469136e-9 2.7570996918076237e-9 9.888981630939674e-10 1.1198497336242557e-9 2.8058131568558007e-9
          1.4528106115744189e-9 4.514887634423324e-9 1.6038411771143374e-9 4.833155284341e-9 6.175939793052706e-8 1.8872673677451503e-8
          1.7426297388913525e-8 3.871962811095822e-8 1.1747517781372118e-7 1.0504083663675916e-7 1.3609933904723566e-8 4.719831924083648e-8
          7.565933857468762e-8 1.1254806087245527e-7 6.673677745022293e-8 9.017303372083002e-8 1.3111472487048967e-7 8.875970978171587e-8
          1.3816272447791213e-7 1.0008282135650935e-8 2.007829359904843e-8 2.242687364294124e-8 4.494509328459349e-8 4.630780420269428e-8
          9.377836077997208e-8 1.5111928212867654e-9 1.7834008104710932e-9 2.177962515887336e-9 1.4846997251180453e-9 1.3738536838441166e-9
          2.069827030766985e-9 1.5219016467762972e-9 5.216036763568738e-9 5.576511837742588e-9 1.633981008964074e-9 1.8847843498316645e-9
          6.259648909086878e-9 8.342344350124753e-9 4.482947110887634e-9 4.153629983645815e-9 7.715254304361416e-9 3.29834386662887e-9
          6.258389845206172e-9 1.988738053651294e-9 4.736997617261755e-10 1.0146106696164963e-9 9.24034094238672e-10 8.157430547782115e-10
          1.010543118910477e-9 8.954967564096341e-10 2.2687829948084596e-9 4.38764224710242e-9 3.705865110947791e-9 1.3065770661038176e-9
          1.765191112763174e-9 2.0578788377042476e-9 3.3070791515794806e-8 2.4010149825796414e-8 2.2943296246306445e-8 1.9960283579548243e-8
          1.5852258512677635e-8 1.1636211176525364e-8 4.555124219081868e-10 7.753247579563871e-10 7.462294853276135e-10 6.688370744454668e-10
          1.756836128239661e-9 1.6800875510826936e-9 1.4700797973395215e-9 3.8416493800847125e-10 5.613510126509415e-10 5.021620891097889e-10
          1.1747065479222016e-9 7.537715594732538e-9 6.5283069411853765e-9 1.9450078366773585e-8 1.8530207785937686e-8 1.5095779761141395e-8
          1.4356821394375784e-8 1.6001216866190657e-8 1.2318684936560524e-8 5.67997737211184e-9 5.400022702564962e-9 3.876151642808872e-9
          3.679046542809761e-9 4.645272084222849e-9 3.149957777743266e-9 1.1202522922613715e-8 1.062387694620439e-8 5.172159587321533e-9
          3.77804441686626e-9 1.2532186457707556e-8 9.51833581809915e-9 8.979352112447366e-9 6.682885016013168e-9 3.640309709510396e-9
          2.4486835406431146e-9 2.620147338565781e-9 1.7458601769912368e-9 3.289956575017844e-9 3.524878746885638e-9 4.731496683635905e-9
          5.550288603944496e-9 3.3453252424137816e-9 1.0489119543096453e-8 1.1897598323183824e-8 7.982307453855918e-9 7.070733421890708e-9
          5.1994167782812915e-9 1.553767457238324e-9 2.5698260661921246e-9 2.371123936746124e-9 1.651941215363504e-9 5.982968603738387e-9
          4.35050995417377e-9 3.7794673783800485e-9 2.6840187995815207e-9 1.756627502880721e-9 8.107392993504308e-10 1.1617302593074035e-9
          8.114362255907151e-10 1.11659521141981e-9 7.34302112773941e-10 4.450646395550175e-8 4.157286623472035e-8 4.0475154191106766e-8
          4.3500041983545134e-8 3.70496881010462e-8 3.577812443224838e-8 3.666994837488238e-8 4.0551846382666876e-8 3.1570608177613266e-8
          2.994087471113514e-8 3.264972663724415e-8 2.4844780527553915e-8 2.178485631827778e-8 2.398655750182493e-8 1.7680675001895088e-8
          1.505178580414097e-8 1.694387097811695e-8 1.1730185716251018e-8
        </DataArray>
        <DataArray type="Float64" Name="gradient_matprop_error" format="ascii" RangeMin="0" RangeMax="0">
          0 0 0 0 0 0
          0 0 0 0 0 0
          0 0 0 0 0 0
          0 0 0 0 0 0
          0 0 0 0 0 0
          0 0 0 0 0 0
          0 0 0 0 0 0
          0 0 0 0 0 0
          0 0 0 0 0 0
          0 0 0 0 0 0
          0 0 0 0 0 0
          0 0 0 0 0 0
          0 0 0 0 0 0
          0 0 0 0 0 0
          0 0 0 0 0 0
          0 0 0 0 0 0
          0 0 0 0 0 0
          0 0 0 0 0 0
          0 0 0 0 0 0
          0 0 0 0 0 0
          0 0 0 0 0 0
          0 0 0 0 0 0
          0 0 0 0 0 0
          0 0 0 0 0 0
          0 0 0 0 0 0
          0 0 0 0 0 0
          0 0 0 0 0 0
          0 0 0 0 0 0
          0 0 0 0 0 0
          0 0 0 0 0 0
          0 0 0 0 0 0
          0 0 0 0 0 0
          0 0 0 0 0 0
          0 0 0 0 0 0
          0 0 0 0 0 0
          0 0 0 0 0 0
          0 0 0 0 0 0
          0 0 0 0 0 0
          0 0 0 0 0 0
          0 0 0 0 0 0
          0 0 0 0 0 0
          0 0 0 0 0 0
          0 0 0 0 0 0
          0 0 0 0 0 0
          0 0 0 0 0 0
          0 0 0 0 0 0
          0 0 0 0 0 0
          0 0 0 0 0 0
          0 0 0 0 0 0
          0 0 0 0 0 0
          0 0 0
        </DataArray>
        <DataArray type="Float64" Name="initial_marker" format="ascii" RangeMin="0" RangeMax="2">
          1 0 2 2 0.25 2
          2 2 2 0 0 2
          2 0 1.75 0 0 0
          0 0 0 0 0 0
          0 0 0 0 2 2
          2 1.5 2 2 2 2
          2 1.5 2 1.75 1 1.5
          1.25 2 2 2 2 0
          1 1 2 0 1 0
          1 0 1 1 2 2
          2 2 2 2 2 2
          2 2 2 2 2 2
          2 2 2 2 2 2
          2 2 2 2 1 0.5
          1.5 1.25 0 1 1 0
          1 1 2 2 2 2
          0 0 1 1 0 1
          2 2 2 0 1 0
          1 0 1 1 2 2
          2 0 1 0 1 2
          2 2 2 2 2 2
          2 0 0.5 0 1.5 0
          0.5 0 0.5 0 0 0
          1.5 1.5 2 2 2 0
          0.5 0 0.5 0 0 0
          1.5 1.6666666666666667 2 2 0 0
          0 0 0 0 0 0
          0 0 0 0 1 1
          0.75 1.3333333333333333 2 2 0.5 1
          2 2 2 2 2 2
          2 0.25 0.6666666666666666 1.25 1.5 2
          2 0 0 0 1.5 0.5
          0.5 0 0 0 0 0
          0 0 0 0 0 0
          0 0 0 0 0 0
          0 0 0 0 0 0
          0 0 2 2 2 2
          2 2 0 1 1 1
          2 2 2 0 1 1
          2 2 2 2 2 2
          2 2 2 2 2 2
          2 2 2 2 2 2
          2 2 2 2 2 2
          2 2 2 1 0.5 1.75
          2 1.5 2 2 2 2
          2 0.6666666666666666 2 1.5 1.5 2
          2 2 2 2 2 2
          1 1.5 1.5 2 2 2
          2 2 2 2 2 2
          2 2 2 2 2 2
          2 2 2
        </DataArray>
        <DataArray type="Float64" Name="markers_norefine" format="ascii" RangeMin="0" RangeMax="1">
          0 0 0 0 0 0
          0 0 0 0 0 0
          0 0 0 0 0 0
          0 0 0 0 0 0
          0 0 0 0 0 0
          0 0 0 0 0 0
          0 0 0 0 0 0
          0 0 0 0 0 0
          0 0 0 0 0 0
          0 0 0 0 0 0
          0 0 0 0 0 0
          0 0 0 0 0 0
          0 0 0 0 0 0
          0 0 0 0 0 0
          0 0 0 0 0 0
          0 0 0 0 0 0
          0 0 0 0 0 0
          0 0 0 0 0 0
          0 0 0 0 0 0
          0 0 0 0 0 0
          0 0 0 0 0 0
          0 0 0 0 0 0
          0 0 0 0 0 0
          0 0 0 0 0 0
          0 0 0 0 0 0
          0 0 0 0 0 0
          0 0 0 0 0 0
          0 0 0 0 0 0
          0 0 0 0 0 0
          0 0 0 0 0 0
          0 0 0 0 0 0
          0 0 0 0 0 0
          0 0 0 0 0 0
          0 0 0 0 0 0
          0 0 0 0 0 0
          0 0 0 0 0 0
          0 0 0 0 0 0
          0 0 0 0 0 0
          0 0 0 0 0 0
          0 0 0 0 0 0
          0 0 0 0 0 0
          0 0 0 0 0 0
          0 0 0 0 0 0
          0 0 0 0 0 0
          0 0 0 0 0 0
          0 0 0 0 0 0
          0 0 0 0 0 0
          0 0 0 1 0.5 0.25
          0.75 0 0 0 0.3333333333333333 0
          0 0 0 0 0 0
          0 0 0
        </DataArray>
        <DataArray type="Float64" Name="markers_mustrefine" format="ascii" RangeMin="0" RangeMax="2">
          1 0 2 2 0.25 2
          2 2 2 0 0 2
          2 0 1.75 0 0 0
          0 0 0 0 0 0
          0 0 0 0 2 2
          2 1.5 2 2 2 2
          2 1.5 2 1.75 1 1.5
          1.25 2 2 2 2 0
          1 1 2 0 1 0
          1 0 1 1 2 2
          2 2 2 2 2 2
          2 2 2 2 2 2
          2 2 2 2 2 2
          2 2 2 2 1 0.5
          1.5 1.25 0 1 1 0
          1 1 2 2 2 2
          0 0 1 1 0 1
          2 2 2 0 1 0
          1 0 1 1 2 2
          2 0 1 0 1 2
          2 2 2 2 2 2
          2 0 0.5 0 1.5 0
          0.5 0 0.5 0 0 0
          1.5 1.5 2 2 2 0
          0.5 0 0.5 0 0 0
          1.5 1.6666666666666667 2 2 0 0
          0 0 0 0 0 0
          0 0 0 0 1 1
          0.75 1.3333333333333333 2 2 0.5 1
          2 2 2 2 2 2
          2 0.25 0.6666666666666666 1.25 1.5 2
          2 0 0 0 1.5 0.5
          0.5 0 0 0 0 0
          0 0 0 0 0 0
          0 0 0 0 0 0
          0 0 0 0 0 0
          0 0 2 2 2 2
          2 2 0 1 1 1
          2 2 2 0 1 1
          2 2 2 2 2 2
          2 2 2 2 2 2
          2 2 2 2 2 2
          2 2 2 2 2 2
          2 2 2 1 0.5 1.75
          2 1.5 2 2 2 2
          2 0.6666666666666666 2 1.5 1.5 2
          2 2 2 2 2 2
          1 1.5 1.5 2 2 2
          2 2 2 2 2 2
          2 2 2 2 2 2
          2 2 2
        </DataArray>
        <DataArray type="Float64" Name="gradient_marker" format="ascii" RangeMin="0" RangeMax="1">
          1 1 0.75 0.75 1 1
          1 0.625 1 1 1 1
          1 1 1 1 1 1
          1 1 1 1 1 1
          1 1 1 1 1 1
          1 1 1 1 1 1
          1 1 1 1 1 1
          1 1 1 1 1 1
          1 1 1 1 1 1
          1 1 1 1 1 1
          1 1 1 1 1 1
          1 1 1 1 1 1
          1 1 1 1 1 1
          1 1 1 1 1 1
          1 1 1 1 1 1
          1 1 1 1 1 1
          1 1 1 1 1 1
          1 1 1 1 1 1
          1 1 1 1 1 1
          1 1 1 1 1 1
          1 1 1 1 1 1
          1 1 1 1 1 1
          1 1 1 1 1 1
          1 1 1 1 1 1
          1 1 1 1 1 1
          1 1 1 1 1 1
          1 1 1 1 1 1
          1 1 1 1 0.25 0.5
          0.5 0 0.5 0.5 0.5 0.125
          0.375 0.5 0.75 0.875 0.625 0.875
          0.75 0.5 0 0.5 0.125 0.625
          0.5 1 1 1 1 1
          1 1 1 1 1 1
          1 0.5 1 1 0.5 1
          0.5 1 1 1 1 1
          1 1 1 0.5 1 1
          1 1 0.6666666666666666 1 1 1
          1 1 1 1 1 1
          1 1 1 1 1 1
          1 1 1 1 1 1
          1 1 1 1 1 1
          1 1 1 1 1 1
          1 1 1 1 1 1
          1 1 1 1 1 1
          1 1 1 1 1 1
          1 1 1 1 1 1
          1 1 1 1 1 1
          1 1 1 0.5 1 1
          0.5 1 1 1 0.6666666666666666 1
          1 1 1 1 1 1
          1 1 1
        </DataArray>
        <DataArray type="Float64" Name="gradient_matprop_marker" format="ascii" RangeMin="0" RangeMax="0">
          0 0 0 0 0 0
          0 0 0 0 0 0
          0 0 0 0 0 0
          0 0 0 0 0 0
          0 0 0 0 0 0
          0 0 0 0 0 0
          0 0 0 0 0 0
          0 0 0 0 0 0
          0 0 0 0 0 0
          0 0 0 0 0 0
          0 0 0 0 0 0
          0 0 0 0 0 0
          0 0 0 0 0 0
          0 0 0 0 0 0
          0 0 0 0 0 0
          0 0 0 0 0 0
          0 0 0 0 0 0
          0 0 0 0 0 0
          0 0 0 0 0 0
          0 0 0 0 0 0
          0 0 0 0 0 0
          0 0 0 0 0 0
          0 0 0 0 0 0
          0 0 0 0 0 0
          0 0 0 0 0 0
          0 0 0 0 0 0
          0 0 0 0 0 0
          0 0 0 0 0 0
          0 0 0 0 0 0
          0 0 0 0 0 0
          0 0 0 0 0 0
          0 0 0 0 0 0
          0 0 0 0 0 0
          0 0 0 0 0 0
          0 0 0 0 0 0
          0 0 0 0 0 0
          0 0 0 0 0 0
          0 0 0 0 0 0
          0 0 0 0 0 0
          0 0 0 0 0 0
          0 0 0 0 0 0
          0 0 0 0 0 0
          0 0 0 0 0 0
          0 0 0 0 0 0
          0 0 0 0 0 0
          0 0 0 0 0 0
          0 0 0 0 0 0
          0 0 0 0 0 0
          0 0 0 0 0 0
          0 0 0 0 0 0
          0 0 0
        </DataArray>
        <DataArray type="Float64" Name="combo" format="ascii" RangeMin="0" RangeMax="1.25">
          1 1 0.75 0.75 1 1
          1 0.625 1 1 1 1
          1 1 1 1 1 1
          1 1 1 1 1 1
          1 1 1 1 1 1
          1 1 1 1 1 1
          1 1 1 1 1 1
          1 1 1 1 1 1
          1 1 1 1 1 1
          1 1 1 1 1 1
          1 1 1 1 1 1
          1 1 1 1 1 1
          1 1 1 1 1 1
          1 1 1 1 1 1
          1 1 1 1 1 1
          1 1 1 1 1 1
          1 1 1 1 1 1
          1 1 1 1 1 1
          1 1 1 1 1 1
          1 1 1 1 1 1
          1 1 1 1 1 1
          1 1 1 1 1 1
          1 1 1 1 1 1
          1 1 1 1 1 1
          1 1 1 1 1 1
          1 1 1 1 1 1
          1 1 1 1 1 1
          1 1 1 1 0.25 0.5
          0.5 0 0.5 0.5 0.5 0.125
          0.375 0.5 0.75 0.875 0.625 0.875
          0.75 0.5 0 0.5 0.125 0.625
          0.5 1 1 1 1 1
          1 1 1 1 1 1
          1 0.5 1 1 0.5 1
          0.5 1 1 1 1 1
          1 1 1 0.5 1 1
          1 1 0.6666666666666666 1 1 1
          1 1 1 1 1 1
          1 1 1 1 1 1
          1 1 1 1 1 1
          1 1 1 1 1 1
          1 1 1 1 1 1
          1 1 1 1 1 1
          1 1 1 1 1 1
          1 1 1 1 1 1
          1 1 1 1 1 1
          1 1 1 1 1 1
          1 1 1 1.25 1.25 1.125
          1.125 1 1 1 1 1
          1 1 1 1 1 1
          1 1 1
        </DataArray>
        <DataArray type="Float64" Name="dHdT" format="ascii" RangeMin="25.817364982871396" RangeMax="45.48057579882333">
          26.255129003764985 26.11133320083273 29.76340670875914 29.274844378690595 26.212196389027135 27.640948442286117
          27.368503726986496 28.148458797069456 26.8162907586837 26.025422042644237 26.00311981104078 26.72263270872636
          26.58269362586379 25.954486224224212 26.2824302157037 25.86007889629299 25.858003184234505 25.904534603464842
          25.897566283198245 25.85289443815737 25.881246506490083 25.847853135887096 25.866066483190693 25.837016551057573
          25.84785408253232 25.845844867635474 25.860237916332864 25.844686827410406 26.81618251759704 27.288730709891034
          27.248211720211838 27.133281263177153 28.715086633557675 26.68229078296921 26.659639726271287 27.07972069451444
          27.042911256238337 26.402094339957408 26.71675816163202 26.687903898393934 26.596526571157405 26.9395035568677
          26.607919862341014 28.39447698800965 28.28722822777445 27.56754762055894 28.008910785203177 26.63259320645418
          26.958224647317877 26.756401407498043 27.95265271824959 26.501651109247856 26.78620905237014 26.286176464031556
          26.4935261860007 26.390612209171955 26.611778539738594 26.366458544831033 27.63549809834383 27.098913652535906
          27.24365624680266 32.35947911697379 32.001252871118055 31.067825505145947 31.407108435798957 31.091706270502563
          29.767435422656142 29.540788333774763 30.283351650382027 28.967749406110038 35.0786651151943 34.74781618666436
          33.78169830840439 29.888247697029378 28.80198946606766 33.05721358253608 29.283763355478467 28.2703228373932
          28.361276619879032 27.61724017604575 32.213662636221024 30.340241454235343 26.237604706662076 26.225133963300447
          26.44860109148168 26.42749439772369 26.093316041432843 26.25018689127702 26.235407773295123 26.190554459707975
          26.369112238505195 26.19440078873224 27.113630152287445 27.06059395435551 26.685005821807827 26.91639936664479
          26.00467784541412 25.999203448993605 26.105902530255573 26.095990481968563 25.983235798669632 26.068349946622604
          26.43196424730172 26.40583320778724 26.335207079463455 26.14006753370151 26.285799184484354 26.034913580474285
          26.13673370481176 26.083836836100225 26.1944671077194 26.098829941479526 26.71944329280826 26.44211951233851
          26.51274998980325 25.96155456453285 26.030766387248498 25.950366584299523 26.010911314933345 26.239472906306272
          26.18198826177311 28.59736878919391 28.445684799674655 27.759970719100846 28.054330046852964 27.56276664799671
          27.091588959300026 26.37177216217539 26.562327834405913 26.469432352629816 27.086229490093846 26.282895274666256
          26.446248634385068 26.133827645114554 26.249041488083257 26.231803876742866 26.368452998260064 26.195428168979678
          26.89158772841582 26.561476216698026 27.940255361589934 27.620286916269723 27.081255455633602 26.032452264324913
          26.111358461757337 25.99126762557784 26.054803381712393 26.00892022437527 26.07354430399988 26.023705913930716
          26.32929844912047 26.213522033750028 26.703199262993646 26.115573008243267 25.838864922927836 25.81868940627436
          25.82216998801435 25.838438408960272 25.870755981222782 25.82981205658931 25.82793063811401 25.863450270835372
          25.817364982871396 25.83702695226257 25.82692144215229 25.859870739677756 27.446199713024274 26.85306084758972
          26.759684765961367 27.546635257845917 31.169344022490904 30.678437491697903 26.53214379969075 26.96205080740689
          29.316085660124443 39.405191953846845 36.49228915604273 35.140944266697474 37.03800695836512 32.21118643030367
          33.47897009031819 26.28570842930892 26.672450457787104 27.061122094687576 27.803004639446982 28.766491645762848
          30.074474333472985 25.88227243673883 25.88242936886454 25.919112437302406 26.020886853499558 25.923025722191937
          26.05247740697612 25.825173054156288 25.850471124291552 25.971569451009735 25.84998472338294 25.834387383938836
          25.88190457845287 26.167857084574734 25.996960882426393 25.983817980516328 26.14315526880834 25.951959358590372
          26.084752513813612 25.898435958481013 25.835633638246364 25.85539084462736 25.852520869238823 25.8501077084516
          25.906001783500653 25.896852672812024 25.919462033867816 26.019374759071418 26.02740145089747 25.879828164615965
          25.905680429161148 25.904354746533798 36.81047445491355 33.54322121541259 33.200879078327404 32.16693462258513
          30.59946480989053 29.034458197741074 25.934236063593936 26.003598261938116 25.997186485360327 25.97945917906312
          26.219442842570317 26.202155106738868 26.1555387149186 25.911013994692215 25.95603425578448 25.94392486222525
          26.09319713606982 27.656498216432066 27.386124492598594 31.934344191334606 31.56011589240397 30.191142380275814
          29.873993447428738 30.530317026275185 29.082142041879536 27.14327212547242 27.07293365472072 26.692561542755833
          26.646052290631296 26.888602210998382 26.524150361314867 28.703982347985626 28.50192066615292 27.04036412646383
          26.704985985199265 29.22080264241948 28.173470978420042 28.090642786779547 27.40811491509609 26.651454845961545
          26.366956695249634 26.420428602445845 26.21350153130067 26.69215192758382 26.336709670281245 27.059317229424728
          27.284556078099484 26.679073442286388 28.759768337029676 29.276679041048872 27.89325806892799 27.70524568626434
          27.144948519873452 26.227934693550925 26.42868017279046 26.41383279940286 26.224395570948037 27.289241216744525
          26.845552845303683 26.749608523511966 26.461925863687583 26.229920962710366 26.012698066318265 26.087066823195208
          26.022552587062414 26.089447129518142 25.99430166627267 45.48057579882333 42.48925923261983 41.36385657533124
          44.221504405210226 39.113097486943055 38.222489413741 38.508449357633225 41.283285565225285 36.093135767347164
          35.57344338197204 36.56171641420892 33.719968098500715 33.01418474920633 33.94243074089147 31.251777489255872
          30.45045511710721 31.272344284326376 29.0692069025452
        </DataArray>
        <DataArray type="Float64" Name="dk/dtemperature" format="ascii" RangeMin="0.007861776039690644" RangeMax="0.016113557231373348">
          0.015349936999062017 0.015585309912281738 0.011807135551979646 0.012208438601474433 0.015411390589712918 0.01357047909785683
          0.013894163180244954 0.013243398399404072 0.014568458611933182 0.015721048754272163 0.01576281455180768 0.014713634195571845
          0.014873088146741474 0.015804580349343192 0.015303202078024533 0.015804580349343195 0.015804580349343195 0.015804580349343195
          0.015804580349343192 0.015804580349343195 0.015804580349343192 0.015804580349343195 0.015804580349343192 0.015804580349343195
          0.015804580349343192 0.015804580349343195 0.015804580349343192 0.015804580349343192 0.014555632042317322 0.013995557611291945
          0.014010651985666074 0.014141108899691317 0.012560548527256753 0.014772009065694085 0.014772009065694085 0.014246657295909234
          0.01427131336401446 0.015083239737690659 0.014671868398036332 0.014707973168797454 0.014826103321538275 0.014387304058128384
          0.014815219873047689 0.012869893887352796 0.012948580462492596 0.01365369534292827 0.01319923899651531 0.014806226827530408
          0.014391582975382181 0.014649351788558005 0.013249182681237072 0.014952784520689669 0.014591042364269639 0.015264015192686244
          0.014981026754264135 0.015104122636458417 0.014821951053391593 0.015182685108027477 0.013598844586489908 0.014222755182861799
          0.014035374348117293 0.010217773776732823 0.010414148505506744 0.010920245373767516 0.01077356018298901 0.01095641049928975
          0.011802984132345089 0.011946144360927589 0.0114375337151064 0.012370153569305318 0.008346615613971332 0.008419234259336555
          0.008971259971060502 0.011613025233915478 0.012403678579357088 0.009484380522245485 0.01208741588356105 0.012958646207115765
          0.012832530262129676 0.013607461927246486 0.010063681229646432 0.011334316023944222 0.015303390778917014 0.015366039475220288
          0.015037699922305546 0.015077578710916265 0.015679282956736644 0.01539170279659753 0.015412585695365287 0.015449571070291318
          0.01517343876429597 0.01546240273097994 0.014203131987068157 0.014251376515245474 0.014748543860680596 0.014433977775892623
          0.01580458034934319 0.01580458034934319 0.01563751715920113 0.01563751715920113 0.01580458034934319 0.015668841507352767
          0.015121231517376578 0.015139032301567166 0.015244138698678378 0.015574868462897861 0.015310561412831243 0.015762814551807676
          0.015553985564130105 0.01572104875427216 0.015483285629747693 0.01563751715920113 0.014681933294147376 0.015058582821073307
          0.014964546027808777 0.01580458034934319 0.01573149020365604 0.01580458034934319 0.015762814551807676 0.01540214424598141
          0.01549989130828591 0.012686605814505971 0.0128106435041384 0.013488710408139865 0.013162256167125654 0.013671686525035592
          0.014225336640595403 0.015141108011384444 0.01490108047615022 0.01503015188660636 0.01422577779118998 0.015284898091454002
          0.015064055146955217 0.015595751361665617 0.01538006624156128 0.015386922373988046 0.015187654231529445 0.015470453969059073
          0.014464611917796086 0.014897620111275964 0.013254088904441543 0.013600041389166534 0.014238671503663973 0.015783697450575434
          0.01562707570981725 0.015804580349343192 0.01572104875427216 0.015804580349343192 0.015679282956736647 0.015762814551807676
          0.015240553381721263 0.015444203578238558 0.014716906708065747 0.015658400057968886 0.01580458034934319 0.015804580349343192
          0.015804580349343192 0.01580458034934319 0.015804580349343192 0.015804580349343192 0.015804580349343195 0.015804580349343192