<?xml version="1.0"?>
<VTKFile type="UnstructuredGrid" version="0.1" byte_order="LittleEndian" header_type="UInt32" compressor="vtkZLibDataCompressor">
  <UnstructuredGrid>
    <Piece NumberOfPoints="1165" NumberOfCells="834">
      <PointData>
        <DataArray type="Int32" Name="libmesh_node_id" format="ascii" RangeMin="608" RangeMax="10397">
          615 621 1519 1520 1521 1522
          1547 1548 1549 1550 1551 1553
          1554 1555 1556 1557 1558 1563
          1564 2887 2888 2889 2890 2897
          2898 2899 2900 2905 2906 2907
          2912 2913 2914 2949 2950 2953
          2955 2956 2958 2969 2973 3098
          3099 3100 3101 3102 3103 3104
          3105 3106 3107 3108 3109 3110
          3111 3112 3113 3114 3115 3116
          3117 3118 3119 3120 3121 3122
          3123 3124 3125 3126 3127 3129
          3130 3131 3132 3133 3134 3135
          3136 3137 3138 3139 3140 3141
          3142 3143 3144 3145 3146 3147
          3148 3149 3150 3151 3152 3153
          3154 3155 3156 3157 3158 3159
          3160 3161 3163 3164 3165 3166
          3167 3168 3169 3170 3171 3172
          3173 3174 3175 3176 3177 3180
          3182 3183 3185 3186 3190 3200
          3201 3202 3203 3204 3205 3206
          3207 3208 3209 3210 3211 3214
          3216 3217 3219 3220 3224 7977
          7978 7980 7983 7985 7986 7987
          7988 7989 7990 7991 7992 7993
          7994 7996 7998 8000 8002 8003
          8004 8005 8006 8007 8008 8043
          8044 8045 8046 8047 8048 8049
          8050 8051 8052 8053 8054 8055
          8056 8057 8058 8059 8060 8061
          8062 8063 8064 8065 8066 8067
          8068 8069 8070 8071 8072 8073
          8074 8075 8076 8097 8098 8099
          8100 8101 8102 8103 8104 8105
          8106 8107 8108 8109 8110 8111
          8112 8113 8114 8115 8116 8145
          8146 8147 8148 8149 8150 8151
          8152 8153 8154 8155 8156 8157
          8158 8159 8160 8161 8162 8163
          8164 8165 8166 8167 8168 8170
          8171 8172 8427 8428 8429 8430
          8445 8446 8447 8455 8456 8457
          8458 8459 8460 8461 8462 8463
          8464 8471 8472 8474 8475 8476
          8477 8478 8479 8480 8481 8486
          8488 8561 8562 8563 8575 8576
          8585 8586 8587 8588 8589 8590
          8591 8596 8598 8599 8600 8603
          8604 9448 9449 9451 9454 9456
          9457 9458 9459 9460 9461 9462
          9463 9464 9465 9467 9469 9471
          9473 9474 9475 9476 9477 9478
          9479 9482 9483 9485 9488 9490
          9491 9492 9493 9494 9495 9496
          9497 9498 9499 9501 9503 9505
          9507 9508 9509 9510 9511 9512
          9513 9514 9515 9516 9517 9518
          9519 9520 9521 9522 9523 9524
          9525 9526 9527 9528 9529 9530
          9531 9532 9533 9534 9535 9536
          9537 9538 9539 9540 9541 9542
          9543 9544 9545 9546 9547 9548
          9549 9550 9551 9552 9553 9554
          9555 9556 9557 9558 9559 9560
          9561 9562 9563 9564 9565 9566
          9567 9568 9569 9570 9571 9572
          9573 9574 9575 9576 9577 9578
          9579 9580 9581 9582 9583 9584
          9585 9586 9587 9588 9589 9590
          9591 9592 9593 9594 9595 9596
          9597 9598 9599 9600 9601 9602
          9603 9604 9605 9606 9607 9608
          9609 9610 9611 9612 9613 9614
          9615 9616 9617 9618 9619 9620
          9621 9622 9623 9624 9625 9626
          9627 9628 9629 9630 9631 9632
          9633 9634 9635 9636 9637 9638
          9639 9640 9641 9642 9643 9644
          9645 9646 9647 9648 9649 9650
          9651 9653 9654 9655 9656 9657
          9658 9659 9660 9661 9662 9663
          9664 9665 9666 9667 9668 9669
          9670 9671 9672 9673 9674 9675
          9676 9677 9678 9679 9681 9682
          9683 9686 9687 9689 9692 9694
          9695 9696 9697 9698 9699 9700
          9701 9702 9703 9705 9707 9709
          9711 9712 9713 9714 9715 9716
          9717 9720 9721 9723 9726 9728
          9729 9730 9731 9732 9733 9734
          9735 9736 9737 9739 9741 9743
          9745 9746 9747 9748 9749 9750
          9751 9752 9753 9754 9755 9756
          9757 9758 9759 9760 9761 9762
          9763 9764 9765 9766 9767 9768
          9769 9770 9771 9772 9773 9774
          9775 9776 9777 9778 9779 9780
          9781 9782 9783 9784 9785 9786
          9787 9788 9789 9790 9791 9792
          9793 9794 9795 9796 9797 9798
          9799 9800 9801 9802 9803 9804
          9805 9806 9807 9808 9809 9810
          9811 9812 9813 9814 9815 9816
          9817 9818 9819 9820 9821 9822
          9823 9824 9825 9826 9827 9828
          9829 9830 9831 9832 9833 9834
          9835 9836 9837 9838 9839 9840
          9841 9842 9843 9844 9845 9846
          9847 9848 9849 9850 9851 9852
          9853 9854 9855 9856 9857 9858
          9859 9860 9861 9862 9863 9864
          9865 9866 9867 9868 9869 9870
          9871 9872 9873 9874 9875 9876
          9877 9878 9879 9880 9881 9882
          9883 9884 9885 9886 9887 9888
          9889 9890 9891 9893 9894 9895
          9896 9897 9898 9899 9900 9901
          9902 9903 9904 9905 9906 9907
          9908 9909 9910 9911 9912 9913
          9914 9915 9916 9917 9918 9919
          9921 9922 9923 9924 9925 9926
          9927 9928 9929 9930 9931 9932
          9933 9934 9935 9936 9937 9938
          9939 9940 9941 9942 9943 9944
          9945 9946 9947 9948 9949 9950
          9951 9952 9953 9954 9955 9956
          9957 9958 9959 9960 9961 9962
          9963 9964 9965 9966 9967 9968
          9969 9970 9971 9972 9973 9974
          9975 9976 9977 9978 9979 9980
          9981 9982 9983 9984 9985 9986
          9987 9988 9989 9990 9991 9992
          9993 9994 9995 9996 9997 9998
          9999 10000 10001 10012 10013 10014
          10015 10016 10017 10018 10026 10027
          10028 10029 10030 10031 10032 10033
          10034 10035 10046 10047 10048 10049
          10050 10051 10052 10060 10061 10062
          10063 10064 10065 10066 10067 10068
          10069 10071 10072 10073 10074 10075
          10078 10079 10088 10089 10090 10091
          10092 10093 10094 10095 10096 10097
          10099 10100 10101 10102 10103 10106
          10107 10116 10117 10120 10121 10144
          10145 10148 10149 10172 10173 10174
          10175 10176 10177 10178 10179 10180
          10181 10182 10183 10184 10185 10186
          10187 10188 10189 10190 10191 10192
          10193 10194 10195 10196 10197 10198
          10199 10200 10201 10202 10203 10204
          10205 10206 10207 10208 10209 10210
          10211 10212 10213 10214 10215 10216
          10217 10218 10219 10220 10221 10222
          10223 10224 10225 10226 10227 10228
          10229 10230 10231 10232 10233 10234
          10235 10236 10237 10238 10239 10240
          10241 10242 10243 10244 10245 10246
          10247 10248 10249 10260 10261 10262
          10263 10264 10265 10266 10274 10275
          10276 10277 10278 10279 10280 10281
          10282 10283 10294 10295 10296 10297
          10298 10299 10300 10308 10309 10310
          10311 10312 10313 10314 10315 10316
          10317 10319 10320 10321 10322 10323
          10326 10327 10336 10337 10338 10339
          10340 10341 10342 10343 10344 10345
          10347 10348 10349 10350 10351 10354
          10355 10364 10365 10368 10369 10392
          10393 10396 10397 2648 2885 2901
          2661 1463 2665 2903 2663 608
          2762 2775 2777 2779 1494 2809
          2811 2813 613 7949 2881 7951
          7950 7975 7976 2882 7952 7979
          7981 7982 7984 7959 7960 2883
          7961 7962 2884 7966 7965 7995
          7967 7997 7999 8001 7972 7973
          7974 2886 8015 8016 2891 8017
          8018 2892 8025 8026 2893 8027
          8028 2894 8033 8034 8035 2895
          8040 8041 8042 2896 8084 8079
          8085 8086 2902 8094 8089 8095
          8096 2904 8121 8122 8123 2908
          8128 8129 8130 2909 8135 8136
          8137 2910 8142 8143 8144 9446
          9447 9450 9452 9453 9455 9466
          9468 9470 9472 9480 9481 9484
          9486 9487 9489 9500 9502 9504
          9506 7526 7482 7536 7538 1492
          7540 9684 9685 9688 9690 9691
          9693 9704 9706 9708 9710 9718
          9719 9722 9724 9725 9727 9738
          9740 9742 9744 7640 7714 7716
          2796 7718 7674 7728 7730 1497
          7732
        </DataArray>
        <DataArray type="Float64" Name="bounds" format="ascii" RangeMin="0" RangeMax="0">
          0 0 0 0 0 0
          0 0 0 0 0 0
          0 0 0 0 0 0
          0 0 0 0 0 0
          0 0 0 0 0 0
          0 0 0 0 0 0
          0 0 0 0 0 0
          0 0 0 0 0 0
          0 0 0 0 0 0
          0 0 0 0 0 0
          0 0 0 0 0 0
          0 0 0 0 0 0
          0 0 0 0 0 0
          0 0 0 0 0 0
          0 0 0 0 0 0
          0 0 0 0 0 0
          0 0 0 0 0 0
          0 0 0 0 0 0
          0 0 0 0 0 0
          0 0 0 0 0 0
          0 0 0 0 0 0
          0 0 0 0 0 0
          0 0 0 0 0 0
          0 0 0 0 0 0
          0 0 0 0 0 0
          0 0 0 0 0 0
          0 0 0 0 0 0
          0 0 0 0 0 0
          0 0 0 0 0 0
          0 0 0 0 0 0
          0 0 0 0 0 0
          0 0 0 0 0 0
          0 0 0 0 0 0
          0 0 0 0 0 0
          0 0 0 0 0 0
          0 0 0 0 0 0
          0 0 0 0 0 0
          0 0 0 0 0 0
          0 0 0 0 0 0
          0 0 0 0 0 0
          0 0 0 0 0 0
          0 0 0 0 0 0
          0 0 0 0 0 0
          0 0 0 0 0 0
          0 0 0 0 0 0
          0 0 0 0 0 0
          0 0 0 0 0 0
          0 0 0 0 0 0
          0 0 0 0 0 0
          0 0 0 0 0 0
          0 0 0 0 0 0
          0 0 0 0 0 0
          0 0 0 0 0 0
          0 0 0 0 0 0
          0 0 0 0 0 0
          0 0 0 0 0 0
          0 0 0 0 0 0
          0 0 0 0 0 0
          0 0 0 0 0 0
          0 0 0 0 0 0
          0 0 0 0 0 0
          0 0 0 0 0 0
          0 0 0 0 0 0
          0 0 0 0 0 0
          0 0 0 0 0 0
          0 0 0 0 0 0
          0 0 0 0 0 0
          0 0 0 0 0 0
          0 0 0 0 0 0
          0 0 0 0 0 0
          0 0 0 0 0 0
          0 0 0 0 0 0
          0 0 0 0 0 0
          0 0 0 0 0 0
          0 0 0 0 0 0
          0 0 0 0 0 0
          0 0 0 0 0 0
          0 0 0 0 0 0
          0 0 0 0 0 0
          0 0 0 0 0 0
          0 0 0 0 0 0
          0 0 0 0 0 0
          0 0 0 0 0 0
          0 0 0 0 0 0
          0 0 0 0 0 0
          0 0 0 0 0 0
          0 0 0 0 0 0
          0 0 0 0 0 0
          0 0 0 0 0 0
          0 0 0 0 0 0
          0 0 0 0 0 0
          0 0 0 0 0 0
          0 0 0 0 0 0
          0 0 0 0 0 0
          0 0 0 0 0 0
          0 0 0 0 0 0
          0 0 0 0 0 0
          0 0 0 0 0 0
          0 0 0 0 0 0
          0 0 0 0 0 0
          0 0 0 0 0 0
          0 0 0 0 0 0
          0 0 0 0 0 0
          0 0 0 0 0 0
          0 0 0 0 0 0
          0 0 0 0 0 0
          0 0 0 0 0 0
          0 0 0 0 0 0
          0 0 0 0 0 0
          0 0 0 0 0 0
          0 0 0 0 0 0
          0 0 0 0 0 0
          0 0 0 0 0 0
          0 0 0 0 0 0
          0 0 0 0 0 0
          0 0 0 0 0 0
          0 0 0 0 0 0
          0 0 0 0 0 0
          0 0 0 0 0 0
          0 0 0 0 0 0
          0 0 0 0 0 0
          0 0 0 0 0 0
          0 0 0 0 0 0
          0 0 0 0 0 0
          0 0 0 0 0 0
          0 0 0 0 0 0
          0 0 0 0 0 0
          0 0 0 0 0 0
          0 0 0 0 0 0
          0 0 0 0 0 0
          0 0 0 0 0 0
          0 0 0 0 0 0
          0 0 0 0 0 0
          0 0 0 0 0 0
          0 0 0 0 0 0
          0 0 0 0 0 0
          0 0 0 0 0 0
          0 0 0 0 0 0
          0 0 0 0 0 0
          0 0 0 0 0 0
          0 0 0 0 0 0
          0 0 0 0 0 0
          0 0 0 0 0 0
          0 0 0 0 0 0
          0 0 0 0 0 0
          0 0 0 0 0 0
          0 0 0 0 0 0
          0 0 0 0 0 0
          0 0 0 0 0 0
          0 0 0 0 0 0
          0 0 0 0 0 0
          0 0 0 0 0 0
          0 0 0 0 0 0
          0 0 0 0 0 0
          0 0 0 0 0 0
          0 0 0 0 0 0
          0 0 0 0 0 0
          0 0 0 0 0 0
          0 0 0 0 0 0
          0 0 0 0 0 0
          0 0 0 0 0 0
          0 0 0 0 0 0
          0 0 0 0 0 0
          0 0 0 0 0 0
          0 0 0 0 0 0
          0 0 0 0 0 0
          0 0 0 0 0 0
          0 0 0 0 0 0
          0 0 0 0 0 0
          0 0 0 0 0 0
          0 0 0 0 0 0
          0 0 0 0 0 0
          0 0 0 0 0 0
          0 0 0 0 0 0
          0 0 0 0 0 0
          0 0 0 0 0 0
          0 0 0 0 0 0
          0 0 0 0 0 0
          0 0 0 0 0 0
          0 0 0 0 0 0
          0 0 0 0 0 0
          0 0 0 0 0 0
          0 0 0 0 0 0
          0 0 0 0 0 0
          0 0 0 0 0 0
          0 0 0 0 0 0
          0 0 0 0 0 0
          0 0 0 0 0 0
          0 0 0 0 0 0
          0 0 0 0 0 0
          0 0 0 0 0 0
          0 0 0 0 0 0
          0 0 0 0 0 0
          0 0 0 0 0 0
          0
        </DataArray>
        <DataArray type="Float64" Name="gradient_error" format="ascii" RangeMin="7.502579427894148e-10" RangeMax="2.2383550393070754e-7">
          1.8203343865810497e-8 2.8793099824049023e-8 2.1336161200793906e-8 2.6018205089298777e-8 1.2237349791887456e-8 8.137482396063339e-9
          2.618942454176042e-8 3.7546409375788866e-8 2.665482567047823e-8 1.853649922102441e-8 1.1853305462609838e-8 2.679665310047633e-8
          4.077496780064526e-8 2.1406581162372864e-8 1.3526220582126237e-8 8.119701819743248e-9 4.2920276827204785e-9 9.38426279700343e-9
          5.0086773599613954e-9 1.9436112106211773e-8 2.8757634651599918e-8 3.0265143518029895e-8 7.165451733039706e-8 2.4087053652452962e-8
          2.688874291114802e-8 1.80378072277291e-8 1.9224957376317758e-8 8.82288800168727e-8 1.4854311327256352e-8 5.230604164523945e-8
          1.0303123563659169e-8 6.161181595521786e-9 5.123496293812016e-9 8.190195924751527e-9 7.411497331553043e-9 4.580272022197626e-9
          1.1126037584916898e-8 1.0250162164933641e-8 6.430235801943854e-9 2.190186261675983e-9 3.073128569808293e-9 2.1175305231135443e-8
          3.1414243055595776e-8 2.3465116772204127e-8 3.322930519283527e-8 5.8206526556697794e-8 3.258211281713493e-8 2.0364510878326613e-8
          3.5408711825102517e-8 3.6225836894196003e-8 3.781537489173266e-8 2.5024162558821197e-8 3.201931078526608e-8 2.3283058896303818e-8
          2.3146531215036243e-8 2.4632055431971086e-8 1.5570003679170844e-8 2.5920268749562182e-8 3.4940986829578725e-8 2.7524293735066064e-8
          2.940384633928879e-8 7.991143632172056e-8 1.8695686131637086e-8 6.46314022979741e-8 1.0116648743996194e-8 6.529493633301557e-8
          2.2306550638751478e-8 7.651674494387403e-8 1.3022628231295584e-8 7.897426798303259e-9 6.491394480629848e-9 1.544096975244886e-8
          9.417958901620588e-9 7.692958236018827e-9 1.8528466991324638e-8 3.799000580281227e-8 2.6849732264164952e-8 3.902209753203942e-8
          3.929036851549182e-8 4.011846030262411e-8 1.705099750863799e-8 3.87949485509676e-8 4.01608972553961e-8 3.975856153850931e-8
          2.7930691913424172e-8 3.6750097837423374e-8 2.819466999395864e-8 3.0230640407829005e-8 3.256870671387527e-8 2.0646401743366706e-8
          2.861079337278721e-8 3.7595649547675925e-8 3.1170529976885156e-8 3.362913217584382e-8 7.220316849459129e-8 2.488515104449657e-8
          8.520830184651407e-8 1.307958876548911e-8 7.45840416660778e-8 2.5839771006018985e-8 8.84432583909235e-8 1.7164469847425353e-8
          1.0462659764115866e-8 8.52648623410238e-9 1.7803470393441882e-8 1.0834579790151474e-8 8.826284395025654e-9 1.3926774797951068e-8
          1.3051210982931462e-8 6.753338024371462e-9 5.8954780151815404e-9 8.328310263308637e-9 3.53336172708401e-9 1.6398198477513364e-8
          1.547053754409287e-8 7.128464166070144e-9 9.986145164473778e-9 2.381402431610285e-9 2.0161661479479027e-9 1.2026476427425026e-9
          2.9078107779746614e-9 2.465475524280806e-9 1.467738713957618e-9 3.992657931950234e-9 4.808150221587739e-9 1.8179530560245512e-8
          1.715719210208686e-8 9.052935233838658e-9 7.977314130209511e-9 1.1119793963988343e-8 4.819673672309669e-9 1.881733045391011e-8
          1.7760366564848195e-8 8.279862569145417e-9 1.1523579099074184e-8 3.2761691657752417e-9 2.780711119938612e-9 1.6539996590695575e-9
          3.408645372462221e-9 2.8942504277227036e-9 1.7211475854465964e-9 5.372621356539922e-9 5.5745202055899505e-9 1.9176894883373866e-8
          2.2072665911822723e-8 2.7317294161555163e-8 2.2542387630130413e-8 2.015972974635381e-8 2.3255641906957227e-8 2.1673990701266365e-8
          2.438707086344546e-8 2.81105080933792e-8 2.804484441240038e-8 2.00960745633262e-8 2.3586204671684153e-8 2.4824688102886702e-8
          2.989238393731413e-8 2.8876464737551804e-8 2.630511592308961e-8 3.1659412692297774e-8 2.8606552111538624e-8 2.7204724848681266e-8
          2.4619263693593585e-8 2.2571378951321168e-8 3.175474647542362e-8 3.069214733168553e-8 2.8024731555616236e-8 2.273656138337916e-8
          2.4595338264505832e-8 2.193983029279947e-8 2.2931342965456543e-8 2.6539920732461592e-8 2.3428694523584942e-8 2.3225789847777547e-8
          2.5954528594866092e-8 2.561964455960408e-8 2.9478102306375695e-8 1.9157100538032168e-8 1.9626350498886966e-8 1.5806346945141618e-8
          1.6016707245460248e-8 1.9472715018803367e-8 1.5624569508993848e-8 2.2075287393790074e-8 2.2715737090106818e-8 1.8468109751298903e-8
          2.263464415830823e-8 2.4490339476798726e-8 2.0911292061141096e-8 1.9703001414434922e-8 1.660964153680372e-8 2.8128148708029705e-8
          2.428119556365204e-8 2.2841930870483383e-8 1.7156919674320736e-8 1.3594637835993298e-8 1.3528620157103028e-8 1.056010762563606e-8
          1.9889412493334408e-8 1.570972276627871e-8 1.5629142221688004e-8 2.0992755273387986e-8 1.6439707147882767e-8 2.4068236924375486e-8
          1.9722876063170232e-8 1.7267021118624425e-8 1.5228802160715757e-8 1.2985970286487639e-8 2.268565023457713e-8 1.992115210503464e-8
          1.7372603376256113e-8 1.257003533989759e-8 9.806941807622148e-9 1.4202232351093391e-8 1.1580993148238772e-8 9.683139448350177e-9
          8.85054286887104e-9 7.1290912119867915e-9 1.3127135373070989e-8 1.1049689556475672e-8 1.0031520668357944e-8 1.4852740816264095e-8
          1.2384001957086278e-8 1.09400272083429e-8 8.936773556231908e-9 1.7110679533127292e-8 1.4269355856092138e-8 1.2554525325750614e-8
          9.934016126051125e-9 7.614595870386154e-9 7.025780548700392e-9 5.292515635070907e-9 1.148713307870293e-8 8.850850805671173e-9
          8.139928664820863e-9 7.938466315344296e-9 6.333499654043729e-9 5.692959517775498e-9 4.437209581599615e-9 9.11322045645953e-9
          7.309781490229465e-9 6.538508543507047e-9 4.880767854316844e-9 3.618602779937828e-9 3.3557691104105742e-9 5.660307872996686e-9
          4.214100320574577e-9 3.891741038389917e-9 1.0931462401779893e-8 1.0887825211992976e-8 8.053873468676501e-9 1.0272847209823123e-8
          8.672392131249923e-9 6.126259343713985e-9 6.578173498762536e-9 1.2695226552100237e-8 1.2699123191249739e-8 9.651881541810752e-9
          9.518773595765022e-9 1.2084613703209642e-8 8.809557552668575e-9 1.4500174786464139e-8 1.4549658543897342e-8 1.1006994922249697e-8
          1.393561393595584e-8 7.908999836721987e-9 7.73164824730193e-9 7.032687275223778e-9 1.0275063472891536e-8 7.315763349182141e-9
          7.82662593908313e-9 5.483265485680613e-9 1.1924784113609561e-8 8.55499487266971e-9 9.124665991318458e-9 5.756709361017967e-9
          4.275423890359297e-9 4.66035014698012e-9 3.2138889061313187e-9 3.1964793497435594e-9 2.164403778235113e-9 1.4764032027848419e-9
          5.554780182338574e-9 3.848950671904042e-9 3.8101478389088404e-9 2.6195625678871703e-9 6.490294687829319e-9 4.518075795148195e-9
          4.45473443510459e-9 2.9848779478882773e-9 2.0244120437637285e-9 2.5765103524694856e-9 1.7615738897603237e-9 3.0104582421353643e-9
          2.0630569437968547e-9 2.076714107328043e-8 2.3901858184592413e-8 2.9765297176735947e-8 2.53022418917196e-8 2.1478731902391087e-8
          2.4657016400670105e-8 2.179868168920544e-8 2.5368546307782237e-8 3.111446229170047e-8 3.1885355844049156e-8 2.288942008495245e-8
          2.6350783459752367e-8 2.6723810488801502e-8 3.248560696630532e-8 3.357969617193955e-8 3.286010359854501e-8 3.4956495400126394e-8
          3.4335119910237624e-8 3.375677097838992e-8 3.140167307647549e-8 2.9397581782386342e-8 3.6208753236877734e-8 3.6211857111862246e-8
          3.444371486215622e-8 2.0952089442455488e-8 2.6157396477866972e-8 3.346001860333533e-8 2.6548752325582305e-8 2.3416483089482626e-8
          2.784078977519138e-8 2.5162935923737075e-8 2.8523962011876625e-8 3.4276884636400754e-8 3.4648223986241484e-8 2.3404125373017785e-8
          2.8818029026024237e-8 3.012678344973981e-8 3.6205121035420557e-8 3.630932751325207e-8 3.6378176120594926e-8 3.775881129960736e-8
          3.76763703260558e-8 3.8051070612490686e-8 3.687908533363017e-8 3.536145289767658e-8 3.901206531511103e-8 3.948425482964617e-8
          3.8590586539380375e-8 2.3037861763764096e-8 2.6474365206080036e-8 2.496695542748802e-8 2.7244445899454078e-8 3.1647544232510385e-8
          2.9798006483174885e-8 2.3519979314744547e-8 2.7095305349853698e-8 2.8008953243771527e-8 3.327221147281409e-8 2.4516185922536493e-8
          2.5488567118546197e-8 2.078231639437733e-8 2.1096517694793415e-8 2.5781158828216933e-8 2.0581635446215922e-8 2.610722694063874e-8
          2.7567159128242743e-8 2.3690890495476096e-8 2.8580282127588698e-8 3.145593834048496e-8 2.759633793788949e-8 2.6020143792351018e-8
          2.194210219088246e-8 3.432319794274753e-8 3.062873589963852e-8 2.9065567070684567e-8 2.2731400505808536e-8 1.7874889643518284e-8
          1.7781584214297946e-8 1.3922741943553808e-8 2.5511939097570143e-8 2.003986659002032e-8 1.99337049700185e-8 2.496648404063915e-8
          2.8276003493620076e-8 2.5196005305294627e-8 2.8561828605177637e-8 3.461499036670014e-8 3.3687375668512203e-8 2.6639094183550228e-8
          2.9801437421811344e-8 2.9297959361033363e-8 3.5860579753681255e-8 2.687708991592964e-8 2.8902608969661267e-8 2.5300733777747227e-8
          2.589860521186723e-8 3.085497902710087e-8 2.5526554276333237e-8 2.709499415433302e-8 2.9602073420577117e-8 2.75268255372505e-8
          3.254311964449842e-8 3.667001926795441e-8 3.323212047382255e-8 3.186462113063654e-8 2.7155118603938924e-8 3.846455959210277e-8
          3.5336639571900964e-8 3.4282282331531726e-8 2.8049331746036453e-8 2.212351857776468e-8 2.199487013309375e-8 1.7128408152506086e-8
          3.0235465023154756e-8 2.3993941103914036e-8 2.3862281196977405e-8 2.7087822454818312e-8 2.1032812326345403e-8 3.196064603397243e-8
          3.031604682768638e-8 3.012779038086173e-8 2.565141691687536e-8 2.26732870038703e-8 1.955562534690956e-8 1.677016821676234e-8
          2.8369551369338636e-8 2.5385982006102658e-8 2.156531084997742e-8 1.583510467982042e-8 1.2355713398551036e-8 1.7456768353799687e-8
          1.46688243150949e-8 1.2412074089183253e-8 1.1211457028670037e-8 9.142590443185068e-9 1.6181031146988702e-8 1.3733865993223273e-8
          1.2358060501831141e-8 3.301765596456385e-8 3.2451919307482855e-8 3.0783391141498046e-8 2.637011747438429e-8 3.453399634234846e-8
          3.453060218842426e-8 3.2381701036186345e-8 3.086110064018168e-8 2.7943984954907196e-8 2.3362332249002736e-8 2.0575437571426724e-8
          3.31405433974655e-8 3.022892114492891e-8 2.5125932494878147e-8 1.9103111349513198e-8 1.4816675771732384e-8 2.0660720032557666e-8
          1.767094610561282e-8 1.4986796246450034e-8 1.3459167772217226e-8 1.1030503758050068e-8 1.9077998072646985e-8 1.614612750384259e-8
          1.4457698266847743e-8 1.9469659861286208e-8 1.6195267599898644e-8 1.4191205884619173e-8 1.1678374945540919e-8 2.184934422950904e-8
          1.8121115514993148e-8 1.581523618940869e-8 1.3049175657902254e-8 1.009471280018118e-8 9.26244294304351e-9 7.039644540999179e-9
          1.457653069949678e-8 1.1303725349889756e-8 1.0356137533262235e-8 1.0291848600053803e-8 8.29327002439755e-9 7.386997130485511e-9
          5.815799694914641e-9 1.143993649362344e-8 9.252381567347454e-9 8.211614616282751e-9 6.4482070527700326e-9 4.818456776371297e-9
          4.434871126052295e-9 7.217964448888398e-9 5.410457862406862e-9 4.9665352407683226e-9 2.412452280830339e-8 1.9985241286073623e-8
          1.738360826363321e-8 1.4292844504846808e-8 2.6178716444706106e-8 2.1685865960721547e-8 1.882857045276071e-8 1.602355785169258e-8
          1.2433136893427968e-8 1.1381161834656667e-8 8.701454177234379e-9 1.7336541117953127e-8 1.3438870441069124e-8 1.2295423219843455e-8
          1.2521532553762438e-8 1.0152709185602179e-8 8.98463209793546e-9 7.125704013797339e-9 1.3496266226616617e-8 1.0958016628289756e-8
          9.67718337424725e-9 7.940621454805361e-9 5.967004961577937e-9 5.466411500543166e-9 8.585995719099933e-9 6.464231563929628e-9
          5.913423182041526e-9 1.950197646434279e-8 2.6626738953807062e-8 3.693511945246121e-8 2.6493540471526114e-8 2.314691429605724e-8
          2.936986167421394e-8 2.6667167206197247e-8 3.128415641388989e-8 3.787857785544615e-8 3.776257733261061e-8 2.2778565057441684e-8
          2.964843771870588e-8 3.203271349975051e-8 3.915799187009657e-8 3.9202597484045777e-8 3.8669865776378046e-8 4.0401728185784375e-8
          4.024466265906988e-8 4.064402917661582e-8 3.971772780541562e-8 3.911564679095259e-8 4.124490441576279e-8 4.148851267393371e-8
          4.043793418084981e-8 1.754233881171066e-8 2.619068196001853e-8 3.860221674128345e-8 2.599835385317966e-8 2.24327397873984e-8
          2.975000041938783e-8 2.6838673206464332e-8 3.241273560512242e-8 3.9988991225405515e-8 3.985916950487133e-8 2.228291898511043e-8
          2.9765185802866153e-8 3.2515423693258665e-8 4.027796284540613e-8 4.11807002376482e-8 3.964350368287871e-8 4.144632657407633e-8
          4.187356917038161e-8 4.197236399799882e-8 4.07947683811133e-8 4.062974899272075e-8 4.2081243280351136e-8 4.212874060052056e-8
          4.089207975723205e-8 2.8015027814472983e-8 3.1250610352731e-8 2.702125910583264e-8 3.019830988084403e-8 3.703296638341355e-8
          3.592775086092305e-8 2.8968703267733484e-8 3.235259915918442e-8 3.097031941086089e-8 3.804155354088422e-8 2.7276896959143144e-8
          3.0035010342156604e-8 2.7521268870020546e-8 2.8671909633686382e-8 3.3756700267364566e-8 2.908089092648399e-8 2.7573118275843773e-8
          3.0463240767086685e-8 2.9535720426852722e-8 3.466852247818952e-8 3.978824939891922e-8 3.6961261380828994e-8 3.6165520465762996e-8
          3.124349381907995e-8 4.0750202972424405e-8 3.814634127920092e-8 3.747211405669176e-8 3.200035606301657e-8 2.55444503639742e-8
          2.54206861719035e-8 1.973061045219318e-8 3.327008575937258e-8 2.6715058365417236e-8 2.6563902528810187e-8 2.9479129324664056e-8
          3.302857132734769e-8 2.844365740032731e-8 3.1511486555073217e-8 3.8760290374903225e-8 3.736005461571636e-8 2.961734483223227e-8
          3.325061038099193e-8 3.172752743984627e-8 3.9029028781950735e-8 2.777440462226405e-8 3.080476720814821e-8 2.864943970461137e-8
          3.009484870734284e-8 3.5264095395574516e-8 3.0938362876420754e-8 2.783367923292411e-8 3.093559343477201e-8 3.0276165467164474e-8
          3.547016158190092e-8 4.133233440711791e-8 3.8862258454208994e-8 3.82216895580059e-8 3.336348869614659e-8 4.152307571456202e-8
          3.90953541481592e-8 3.845905685874013e-8 3.4005833892278407e-8 2.743217964026981e-8 2.7262099393614905e-8 2.1216169154063405e-8
          3.4240704772898156e-8 2.766753172712814e-8 2.7501363701937016e-8 3.534517026139945e-8 3.583543267614044e-8 3.407957269685476e-8
          2.9735018867882488e-8 3.588705835072702e-8 3.6603978205712136e-8 3.530989376809243e-8 3.4910641899564384e-8 3.2114210048554046e-8
          2.6736460413824957e-8 2.377047142410922e-8 3.6100954186066476e-8 3.351248995726642e-8 2.796462108650457e-8 2.205264756162772e-8
          1.6858295577180032e-8 2.3146894108839143e-8 2.03303021100924e-8 1.7155241240806356e-8 1.5302758411287016e-8 1.2549033639959282e-8
          2.1314392169335386e-8 1.7941343441113363e-8 1.5954324617584708e-8 3.615073820184428e-8 3.7004670024640294e-8 3.600714798088021e-8
          3.1779049341003694e-8 3.622437343549174e-8 3.713102642790221e-8 3.622924364904676e-8 3.6790501603689194e-8 3.439453565714553e-8
          2.8719775936251923e-8 2.55942826353912e-8 3.7017229663117626e-8 3.4702046210705815e-8 2.8980347743163405e-8 2.379253143821403e-8
          1.8033860891570786e-8 2.4024232461870786e-8 2.191708616585781e-8 1.8442773511734067e-8 1.6361534368917992e-8 1.3412934454327308e-8
          2.2128145943268617e-8 1.8614236200889146e-8 1.650757071230961e-8 2.790456855308634e-8 2.3116957665124774e-8 2.0068714258207423e-8
          1.641517267231582e-8 2.9218390901042106e-8 2.4211749573045272e-8 2.102808472950296e-8 1.8447242384532723e-8 1.4277757731695585e-8
          1.3058310872151173e-8 1.0014564256922688e-8 1.9289340453381973e-8 1.490842551941603e-8 1.3634527650596356e-8 1.4321531779770375e-8
          1.163263960578939e-8 1.0258870880706133e-8 8.167665978725457e-9 1.4953685256705787e-8 1.2143791727812199e-8 1.0700078269398632e-8
          9.124898997905436e-9 6.879244750649902e-9 6.2870818204816826e-9 9.531434498704601e-9 7.1918809517601205e-9 6.569056203387631e-9
          3.005433754731266e-8 2.4903981303666225e-8 2.1635537772378422e-8 1.7640101883871122e-8 3.034278727329533e-8 2.513920712779539e-8
          2.1842976663359446e-8 1.981692293755105e-8 1.5299799187076127e-8 1.3994118337248114e-8 1.0740456357634322e-8 1.9997711134478844e-8
          1.5432673653455603e-8 1.4116346256687237e-8 1.5352369164600157e-8 1.2463266811737555e-8 1.0975776979559361e-8 8.750243041181042e-9
          1.5488849653665164e-8 1.2571928166212271e-8 1.1069563474729681e-8 9.784702990891823e-9 7.3861937860403044e-9 6.744620133467535e-9
          9.870765614025328e-9 7.452091347661525e-9 6.804230616207207e-9 1.636625550943083e-8 1.6446691166647465e-8 1.2559099468633613e-8
          1.2463240227623489e-8 1.5802205155570522e-8 1.1680139930868914e-8 1.825519021612392e-8 1.835682681465585e-8 1.3853817810078952e-8