<?xml version="1.0"?>
<VTKFile type="UnstructuredGrid" version="0.1" byte_order="LittleEndian" header_type="UInt32" compressor="vtkZLibDataCompressor">
  <UnstructuredGrid>
    <Piece NumberOfPoints="1182" NumberOfCells="824">
      <PointData>
        <DataArray type="Int32" Name="libmesh_node_id" format="ascii" RangeMin="282" RangeMax="12232">
          282 372 617 618 623 659
          660 661 662 663 665 666
          667 668 1531 1559 1560 1562
          1565 1661 1662 1663 1664 1665
          1666 1667 1668 1670 1672 1676
          1677 1678 1679 1680 1681 1682
          1683 1684 1685 1686 1687 1688
          1689 1690 1691 1692 1693 1694
          1695 1719 1720 1727 1728 1803
          1804 1805 1806 1807 1808 1809
          1810 1811 1812 1813 1814 1815
          1816 2959 2960 2961 2962 2963
          2964 2965 2966 2967 2968 2976
          2977 2979 2981 3078 3080 3082
          3178 3179 3181 3184 3194 3196
          3198 3212 3213 3215 3218 3228
          3230 3232 3298 3302 3326 3330
          3472 3473 3474 3475 3476 3477
          3478 3479 3480 3481 3482 3483
          3484 3485 3486 3487 3488 3499
          3500 3501 3502 3503 3504 3505
          3506 3507 3508 3509 3510 3511
          3512 3513 3514 3515 3516 3517
          3518 3519 3520 3521 3522 3523
          3524 3525 3526 3527 3528 3529
          3530 3531 3532 3533 3534 3535
          3536 3537 3538 3539 3540 3541
          3542 3543 3544 3545 3546 3547
          3548 3549 3550 3551 3552 3553
          3554 3555 3556 3557 3558 3559
          3560 3561 3562 3563 3564 3565
          3566 3567 3568 3569 3570 3571
          3572 3573 3574 3575 3576 3577
          3578 3579 3580 3581 3582 3583
          3584 3585 3586 3587 3704 3705
          3708 3710 3711 3717 3917 3918
          3919 3920 3928 3929 3930 3931
          3932 3933 3934 3935 3936 3937
          3938 3939 3940 3941 3942 3943
          3951 3952 3954 3955 3956 3957
          3958 3959 3960 3961 3962 3963
          3964 3965 3966 3967 3968 3969
          3972 3973 3975 3976 3977 3978
          3979 3980 3981 3982 3983 3986
          3987 8497 8505 8506 8507 8508
          8514 8520 8521 8522 8525 8526
          8528 8531 8533 8534 8535 8536
          8537 8538 8539 8540 8541 8542
          8544 8546 8548 8550 8551 8552
          8553 8554 8555 8556 8618 8624
          8625 8626 8638 8639 8640 8642
          8644 8646 8648 8649 8650 8651
          8652 8653 8654 8662 8663 8664
          8665 8666 8667 8668 9304 9305
          9306 9318 9319 9320 9328 9329
          9330 9331 9332 9333 9334 9342
          9343 9344 9345 9347 10002 10003
          10004 10005 10006 10007 10008 10009
          10010 10011 10019 10020 10021 10022
          10023 10024 10025 10036 10037 10038
          10039 10040 10041 10042 10043 10044
          10045 10053 10054 10055 10056 10057
          10058 10059 10123 10124 10125 10126
          10127 10128 10129 10137 10138 10139
          10140 10141 10142 10143 10151 10152
          10153 10154 10155 10156 10157 10165
          10166 10167 10168 10169 10170 10171
          10250 10251 10252 10253 10254 10255
          10256 10257 10258 10259 10267 10268
          10269 10270 10271 10272 10273 10284
          10285 10286 10287 10288 10289 10290
          10291 10292 10293 10301 10302 10303
          10304 10305 10306 10307 10371 10372
          10373 10374 10375 10376 10377 10385
          10386 10387 10388 10389 10390 10391
          10399 10400 10401 10402 10403 10404
          10405 10413 10414 10415 10416 10417
          10418 10419 10867 10868 10869 10870
          10871 10872 10873 10882 10886 10895
          10896 10897 10898 10899 10900 10901
          10910 10914 11077 11078 11079 11080
          11081 11082 11083 11092 11096 11105
          11106 11107 11108 11109 11110 11111
          11120 11124 11640 11641 11642 11643
          11650 11651 11652 11653 11658 11659
          11660 11665 11666 11667 11668 11669
          11670 11671 11672 11673 11674 11675
          11676 11677 11678 11679 11680 11681
          11682 11683 11684 11685 11686 11687
          11688 11689 11690 11691 11692 11693
          11694 11695 11696 11697 11698 11699
          11700 11701 11706 11707 11708 11713
          11714 11715 11720 11721 11722 11727
          11728 11729 11730 11731 11732 11733
          11734 11735 11736 11737 11738 11739
          11740 11741 11742 11743 11744 11745
          11746 11747 11748 11749 11750 11751
          11752 11753 11754 11755 11756 11757
          11779 11780 11781 11789 11790 11791
          11792 11793 11794 11795 11796 11797
          11798 11799 11800 11801 11802 11803
          11804 11805 11806 11807 11808 11809
          11810 11811 11812 11813 11814 11815
          11816 11817 11818 11819 11820 11821
          11822 11823 11824 11825 11826 11827
          11828 11829 11830 11831 11832 11833
          11834 11835 11836 11837 11838 11839
          11840 11841 11842 11843 11844 11845
          11846 11847 11848 11849 11850 11851
          11852 11853 11854 11855 11856 11857
          11858 11859 11860 11861 11862 11863
          11864 11865 11866 11867 11868 11869
          11870 11871 11872 11873 11874 11875
          11876 11877 11878 11879 11880 11881
          11882 11883 11884 11885 11886 11887
          11888 11889 11890 11891 11892 11893
          11894 11895 11896 11897 11898 11899
          11900 11901 11902 11903 11904 11905
          11906 11907 11908 11909 11910 11911
          11912 11913 11914 11915 11916 11917
          11918 11919 11920 11921 11922 11923
          11924 11925 11926 11927 11928 11929
          11930 11931 11932 11933 11934 11935
          11936 11937 11938 11939 11940 11941
          11942 11943 11944 11945 11946 11947
          11948 11949 11950 11951 11952 11953
          11954 11955 11956 11957 11958 11959
          11960 11961 11962 11963 11964 11965
          11966 11967 11968 11969 11970 11971
          11972 11973 11974 11975 11976 11977
          11978 11979 11980 11981 11982 11983
          11984 11985 11986 11987 11988 11989
          11990 11991 11992 11993 11994 11995
          11996 11997 11998 11999 12000 12001
          12002 12003 12004 12005 12006 12007
          12008 12009 12010 12011 12012 12013
          12014 12015 12016 12017 12018 12019
          12020 12021 12022 12023 12024 12025
          12026 12027 12028 12029 12030 12031
          12032 12033 12034 12035 12036 12037
          12038 12039 12040 12041 12042 12043
          12044 12045 12046 12047 12048 12049
          12050 12051 12052 12053 12054 12055
          12056 12057 12058 12059 12060 12061
          12062 12063 12064 12065 12066 12067
          12068 12069 12070 12071 12072 12073
          12074 12075 12076 12077 12078 12079
          12080 12081 12082 12083 12084 12085
          12086 12087 12088 12089 12090 12091
          12092 12093 12094 12095 12096 12097
          12098 12099 12100 12101 12102 12103
          12104 12105 12106 12107 12108 12109
          12110 12111 12112 12113 12114 12115
          12116 12117 12118 12119 12120 12121
          12122 12123 12124 12125 12126 12127
          12128 12129 12130 12131 12132 12133
          12134 12135 12136 12137 12138 12139
          12140 12141 12142 12143 12144 12145
          12146 12147 12148 12149 12150 12151
          12152 12153 12154 12155 12156 12157
          12158 12159 12160 12161 12162 12163
          12164 12165 12166 12167 12168 12169
          12170 12171 12172 12173 12174 12175
          12176 12177 12178 12179 12180 12181
          12182 12183 12184 12185 12186 12187
          12188 12189 12190 12191 12192 12193
          12194 12195 12196 12197 12198 12199
          12200 12201 12202 12203 12204 12205
          12206 12207 12208 12209 12210 12211
          12212 12213 12214 12215 12216 12217
          12218 12219 12220 12221 12222 12223
          12224 12225 12226 12227 12228 12229
          12230 12231 12232 1545 3096 3300
          3312 1575 3316 3328 3340 1579
          3344 2980 8632 8656 2978 8658
          8660 2982 9298 9322 3077 9324
          9326 3081 9312 9336 3079 9338
          9346 9340 9348 3083 9994 9995
          9997 3176 10000 3177 10013 10015
          10017 3180 10028 10029 10031 3182
          10034 3183 10047 10049 10051 3185
          10117 10119 10121 3193 10131 10133
          10135 3195 10145 10147 10149 3197
          10159 10161 10163 3199 10242 10243
          10245 3210 10248 3211 10261 10263
          10265 3214 10276 10277 10279 3216
          10282 3217 10295 10297 10299 3219
          10365 10367 10369 3227 10379 10381
          10383 3229 10393 10395 10397 3231
          10407 10409 10411 3233 10861 10863
          10865 3297 10881 10875 10884 10883
          10885 10879 10887 10889 10891 10893
          3301 10909 10903 10912 10911 10913
          10907 10915 11071 11073 11075 3325
          11091 11085 11094 11093 11095 11089
          11097 11099 11101 11103 3329 11119
          11113 11122 11121 11123 11117 11125
        </DataArray>
        <DataArray type="Float64" Name="bounds" format="ascii" RangeMin="0" RangeMax="0">
          0 0 0 0 0 0
          0 0 0 0 0 0
          0 0 0 0 0 0
          0 0 0 0 0 0
          0 0 0 0 0 0
          0 0 0 0 0 0
          0 0 0 0 0 0
          0 0 0 0 0 0
          0 0 0 0 0 0
          0 0 0 0 0 0
          0 0 0 0 0 0
          0 0 0 0 0 0
          0 0 0 0 0 0
          0 0 0 0 0 0
          0 0 0 0 0 0
          0 0 0 0 0 0
          0 0 0 0 0 0
          0 0 0 0 0 0
          0 0 0 0 0 0
          0 0 0 0 0 0
          0 0 0 0 0 0
          0 0 0 0 0 0
          0 0 0 0 0 0
          0 0 0 0 0 0
          0 0 0 0 0 0
          0 0 0 0 0 0
          0 0 0 0 0 0
          0 0 0 0 0 0
          0 0 0 0 0 0
          0 0 0 0 0 0
          0 0 0 0 0 0
          0 0 0 0 0 0
          0 0 0 0 0 0
          0 0 0 0 0 0
          0 0 0 0 0 0
          0 0 0 0 0 0
          0 0 0 0 0 0
          0 0 0 0 0 0
          0 0 0 0 0 0
          0 0 0 0 0 0
          0 0 0 0 0 0
          0 0 0 0 0 0
          0 0 0 0 0 0
          0 0 0 0 0 0
          0 0 0 0 0 0
          0 0 0 0 0 0
          0 0 0 0 0 0
          0 0 0 0 0 0
          0 0 0 0 0 0
          0 0 0 0 0 0
          0 0 0 0 0 0
          0 0 0 0 0 0
          0 0 0 0 0 0
          0 0 0 0 0 0
          0 0 0 0 0 0
          0 0 0 0 0 0
          0 0 0 0 0 0
          0 0 0 0 0 0
          0 0 0 0 0 0
          0 0 0 0 0 0
          0 0 0 0 0 0
          0 0 0 0 0 0
          0 0 0 0 0 0
          0 0 0 0 0 0
          0 0 0 0 0 0
          0 0 0 0 0 0
          0 0 0 0 0 0
          0 0 0 0 0 0
          0 0 0 0 0 0
          0 0 0 0 0 0
          0 0 0 0 0 0
          0 0 0 0 0 0
          0 0 0 0 0 0
          0 0 0 0 0 0
          0 0 0 0 0 0
          0 0 0 0 0 0
          0 0 0 0 0 0
          0 0 0 0 0 0
          0 0 0 0 0 0
          0 0 0 0 0 0
          0 0 0 0 0 0
          0 0 0 0 0 0
          0 0 0 0 0 0
          0 0 0 0 0 0
          0 0 0 0 0 0
          0 0 0 0 0 0
          0 0 0 0 0 0
          0 0 0 0 0 0
          0 0 0 0 0 0
          0 0 0 0 0 0
          0 0 0 0 0 0
          0 0 0 0 0 0
          0 0 0 0 0 0
          0 0 0 0 0 0
          0 0 0 0 0 0
          0 0 0 0 0 0
          0 0 0 0 0 0
          0 0 0 0 0 0
          0 0 0 0 0 0
          0 0 0 0 0 0
          0 0 0 0 0 0
          0 0 0 0 0 0
          0 0 0 0 0 0
          0 0 0 0 0 0
          0 0 0 0 0 0
          0 0 0 0 0 0
          0 0 0 0 0 0
          0 0 0 0 0 0
          0 0 0 0 0 0
          0 0 0 0 0 0
          0 0 0 0 0 0
          0 0 0 0 0 0
          0 0 0 0 0 0
          0 0 0 0 0 0
          0 0 0 0 0 0
          0 0 0 0 0 0
          0 0 0 0 0 0
          0 0 0 0 0 0
          0 0 0 0 0 0
          0 0 0 0 0 0
          0 0 0 0 0 0
          0 0 0 0 0 0
          0 0 0 0 0 0
          0 0 0 0 0 0
          0 0 0 0 0 0
          0 0 0 0 0 0
          0 0 0 0 0 0
          0 0 0 0 0 0
          0 0 0 0 0 0
          0 0 0 0 0 0
          0 0 0 0 0 0
          0 0 0 0 0 0
          0 0 0 0 0 0
          0 0 0 0 0 0
          0 0 0 0 0 0
          0 0 0 0 0 0
          0 0 0 0 0 0
          0 0 0 0 0 0
          0 0 0 0 0 0
          0 0 0 0 0 0
          0 0 0 0 0 0
          0 0 0 0 0 0
          0 0 0 0 0 0
          0 0 0 0 0 0
          0 0 0 0 0 0
          0 0 0 0 0 0
          0 0 0 0 0 0
          0 0 0 0 0 0
          0 0 0 0 0 0
          0 0 0 0 0 0
          0 0 0 0 0 0
          0 0 0 0 0 0
          0 0 0 0 0 0
          0 0 0 0 0 0
          0 0 0 0 0 0
          0 0 0 0 0 0
          0 0 0 0 0 0
          0 0 0 0 0 0
          0 0 0 0 0 0
          0 0 0 0 0 0
          0 0 0 0 0 0
          0 0 0 0 0 0
          0 0 0 0 0 0
          0 0 0 0 0 0
          0 0 0 0 0 0
          0 0 0 0 0 0
          0 0 0 0 0 0
          0 0 0 0 0 0
          0 0 0 0 0 0
          0 0 0 0 0 0
          0 0 0 0 0 0
          0 0 0 0 0 0
          0 0 0 0 0 0
          0 0 0 0 0 0
          0 0 0 0 0 0
          0 0 0 0 0 0
          0 0 0 0 0 0
          0 0 0 0 0 0
          0 0 0 0 0 0
          0 0 0 0 0 0
          0 0 0 0 0 0
          0 0 0 0 0 0
          0 0 0 0 0 0
          0 0 0 0 0 0
          0 0 0 0 0 0
          0 0 0 0 0 0
          0 0 0 0 0 0
          0 0 0 0 0 0
          0 0 0 0 0 0
          0 0 0 0 0 0
          0 0 0 0 0 0
          0 0 0 0 0 0
          0 0 0 0 0 0
          0 0 0 0 0 0
          0 0 0 0 0 0
          0 0 0 0 0 0
          0 0 0 0 0 0
        </DataArray>
        <DataArray type="Float64" Name="gradient_error" format="ascii" RangeMin="5.465720107414932e-12" RangeMax="3.408645372462221e-9">
          9.431388252206479e-10 1.3150049818140264e-11 4.935167340699179e-10 7.004626275637414e-11 1.2418540234698452e-10 2.3835211108578787e-11
          2.6753248418128225e-11 1.2790370856826474e-11 1.88692562114346e-11 5.455015551801197e-11 3.1130812926387864e-11 1.797475316762649e-11
          1.13878238652456e-11 5.791578809032225e-11 2.6195108375700173e-10 8.019445988879189e-10 4.1956498761746284e-10 1.0747164208487821e-10
          4.912148784574312e-10 1.7561666668207757e-11 1.4370402041247935e-11 2.468389764453342e-11 2.3967309298912128e-11 3.698504759273821e-11
          2.955550085419074e-11 2.0323857242501575e-11 2.6170383742368427e-11 3.579078973776309e-11 3.834346779983288e-11 3.0386382726155464e-11
          2.8223414104725095e-11 4.670009345230284e-11 3.9221027752742215e-11 3.0368583290309257e-11 2.8566887764319853e-11 2.422929486375623e-11
          2.1509140822069786e-11 1.661862559097051e-11 4.567946719505196e-11 2.8441086131341697e-11 2.6050052600365948e-11 2.476820724716172e-11
          3.2881121958073454e-11 2.1198409052413913e-11 5.702744831725731e-11 3.376819196253585e-11 3.6624291735571284e-11 2.353599039537344e-11
          6.111167300926292e-11 1.4190719910673764e-11 1.4994833002389165e-11 1.3324756691509348e-11 1.4256529034122661e-11 1.9090683763206508e-11
          1.699876611109843e-11 2.2476441478696232e-11 2.0021176617027067e-11 8.68174388257931e-12 1.0444704483210095e-11 9.589548773978383e-12
          1.3558774827905351e-11 1.458072208853361e-11 7.736709743749204e-12 2.3856323403430893e-11 2.1228966739843583e-11 9.943795607301558e-12
          1.546502367696978e-11 1.2499118346066552e-9 1.0556548404281121e-9 3.4329804623275194e-10 2.9135330870050344e-10 6.363964563559204e-10
          1.844243699891597e-10 1.7976661295737919e-9 1.5197280132408495e-9 4.179734878086499e-10 9.100740221024857e-10 3.2013016648148846e-10
          9.982542697637753e-11 5.0946106650933385e-11 1.3958259466181432e-10 2.4929277557910383e-11 1.8560524348087903e-11 3.388434546200392e-11
          6.549129625836103e-10 5.539446876553437e-10 3.446563193513165e-10 6.777595135368516e-10 1.8144794195497017e-10 8.978784385981559e-11
          2.1907119081675434e-10 9.05669828047323e-10 7.650828148013863e-10 4.722133556907871e-10 7.966324366901963e-10 2.4537091390458275e-10
          1.1977414636675347e-10 2.5483633151826226e-10 4.299726050777489e-11 5.103806297091053e-11 5.659500466859934e-11 5.857934241137941e-11
          8.154193368624326e-11 7.059289970955652e-11 3.906051934857834e-11 3.53984749565708e-11 4.778897364819612e-11 2.6879342502924963e-11
          1.1595759573960555e-10 1.0008854233700836e-10 3.312800583368902e-11 6.716610987077883e-11 2.8016097892979327e-11 1.7520055775649985e-11
          2.4252255307313915e-11 2.358229497100071e-11 3.8866572105538e-11 2.3905311707321753e-11 2.5843436163277062e-11 2.1980778573286472e-11
          3.370629169369511e-11 1.915634455535625e-11 1.8211706639882543e-11 2.2268240779654055e-11 2.441909754060865e-11 2.5635043931399414e-11
          1.5245804346741712e-10 1.3132980163701542e-10 3.2342555673132987e-11 2.8491429838061867e-11 8.764433396603078e-11 3.134492617252775e-11
          1.858846142431208e-10 1.5983858076800194e-10 3.454147739437646e-11 1.0597680526646185e-10 2.756876923261463e-11 2.5452133287917444e-11
          1.4581326055309373e-11 1.3594776039536801e-11 1.7489875357438696e-11 1.9946630171976846e-11 1.889344310164762e-11 2.6036555875714032e-11
          2.4378267006155053e-11 1.6725997880629792e-11 1.6856894984151292e-11 1.5591167757090623e-11 2.1202178431190582e-11 2.0200062477853314e-11
          5.0239793646424183e-11 3.0959267287317695e-11 2.653034316520019e-11 1.7803875832459124e-11 6.035915093018808e-11 2.9485655099084494e-11
          3.166395408783774e-11 2.0941182217989434e-10 1.7986108450648204e-10 4.397479515288586e-11 3.8746306065373424e-11 1.1868013329929792e-10
          2.7397200732868096e-11 2.1790094687235619e-10 1.870929229323725e-10 4.024623753043129e-11 1.233180593262126e-10 1.8576259107167973e-11
          1.712582903640649e-11 2.479767042270268e-11 2.3121145042997222e-11 1.3687812445806072e-11 1.910569875028128e-11 1.917174615750795e-11
          1.766377858286393e-11 2.3802623819093636e-11 1.4090663768611656e-11 6.737351800122399e-11 2.5671561756377335e-11 3.523022681352804e-11
          2.3901299539195475e-11 6.991162900009891e-11 2.6662442265320824e-11 3.6502046285976147e-11 2.6312691371338386e-11 2.0644667478870643e-11
          1.5045212463789718e-11 1.528799685859527e-11 2.1735338570493616e-11 2.371193998932774e-11 1.2287048698437833e-11 2.126441782397464e-11
          1.549846794332466e-11 2.4456549365955676e-11 2.1095887471201443e-11 1.8953238467804268e-11 3.2003957385372897e-11 2.376785604255643e-11
          2.4866065961118958e-11 2.230971547682946e-11 3.732495782084561e-11 2.740165502324538e-11 2.4331678822918058e-11 4.0885428217872224e-11
          3.0176115357719044e-11 2.8310363276567085e-11 2.509453478627928e-11 4.215368915023817e-11 1.4378647932850833e-11 1.2802614516509534e-11
          1.1226581100168238e-11 1.015690895605308e-11 1.1111365521585292e-11 1.2065822087117504e-11 2.457260368454389e-11 2.2766055773829447e-11
          1.2475562720536076e-11 1.8251981773131796e-11 1.2918869075777453e-11 7.963108197671897e-12 1.029328246840633e-11 3.536277586691971e-11
          3.259803798475174e-11 1.713127776080126e-11 1.604727361100415e-11 2.5829701592558126e-11 1.3381236424835191e-11 1.8024547420991515e-11
          1.06447594846589e-11 1.4222991759450555e-11 9.490315580854464e-12 2.375464963843978e-11 1.3010056101433432e-11 1.6744340006540462e-11
          2.4719072059056764e-11 1.464692314765786e-11 2.962839069125128e-11 1.4540502829659734e-11 1.8725095802484316e-11 1.1305689849582166e-11
          1.066227601006864e-11 1.1636929335275763e-11 7.804521009769815e-12 7.84614995097289e-12 8.479833466780398e-12 9.090366665169398e-12
          6.550186132159727e-12 1.332337594237485e-11 8.426282563263532e-12 1.0253093148301388e-11 3.023890140861434e-11 1.7743263119480932e-11
          3.4948933827961785e-11 2.027223567323536e-11 1.4471639795690017e-11 9.242685558584627e-12 1.1132423810360616e-11 7.720489600213327e-12
          1.4908110367113223e-11 9.520584882818155e-12 1.1459561187676853e-11 3.8117201683246623e-11 2.198414975286035e-11 3.9234254922512535e-11
          2.2589831896359203e-11 1.1998598307755595e-9 6.700136109032235e-10 6.426591531863403e-10 3.295009203188283e-10 5.65850190395226e-10
          8.495905237689089e-10 4.586346543315615e-10 2.387454824266957e-10 3.483031151428479e-10 1.5144888768074848e-9 1.454221474718276e-9
          1.279600207793558e-9 1.7266462686153155e-9 8.122965680818169e-10 7.791131182817635e-10 4.157359367072415e-10 3.989417572301566e-10
          6.856334806184694e-10 3.5242214541432815e-10 9.650556807911343e-10 9.256518959188629e-10 4.735053796110137e-10 8.142942797740887e-10
          1.0286976923373947e-9 7.685312975773775e-10 1.2207990616706682e-9 5.547574814258411e-10 2.881791557735308e-10 4.200109438671279e-10
          2.2188893179649555e-10 6.579197769731758e-10 3.411710038027693e-10 4.968067724163879e-10 4.5628026597006773e-10 2.540370262061857e-10
          1.3717389582665766e-10 1.8132960453950254e-10 1.2788653134678126e-10 7.168538164510285e-11 8.945268385681035e-11 5.489506749364516e-10
          3.8349969004718407e-10 6.479612783993956e-10 3.0512222383619587e-10 1.6438702448311406e-10 2.1684400120806433e-10 1.1911708081881993e-10
          3.59658736261138e-10 1.933888093232774e-10 2.546086063368261e-10 1.5225613211544558e-10 8.516480277147959e-11 1.0603855060010877e-10
          6.027598166020633e-11 1.7805409787614299e-10 9.937379861202982e-11 1.2351828112013631e-10 6.212863881885643e-11 3.582859472983135e-11
          4.287979451344807e-11 2.9572232983263045e-11 1.7183104904944587e-11 2.0147004373003102e-11 7.336043392460046e-11 4.225068281396724e-11
          5.046000051047137e-11 2.9321142583007826e-11 8.514381545229313e-11 4.8940962828940634e-11 5.838094634433454e-11 3.467917534954912e-11
          2.0148016455883716e-11 2.3534692484535238e-11 1.5505063534079725e-11 2.3272032052063783e-11 1.1234909459585416e-9 1.0776801656437072e-9
          5.742409647820467e-10 5.50892753913133e-10 9.478189116902547e-10 4.859889564690249e-10 1.2816231179226701e-9 1.2294606474990817e-9
          6.282319165647715e-10 1.081175531460009e-9 7.6492272341732e-10 3.960930272978487e-10 5.763220604149324e-10 3.0338371336589746e-10
          8.717534136583525e-10 4.509093154054073e-10 6.555975236941463e-10 1.432594350639971e-9 1.3744093022908558e-9 7.320574258203996e-10
          7.021906671777562e-10 1.2085814894162241e-9 6.189141672309671e-10 1.5691419584547555e-9 1.5055452782059415e-9 7.691924929308466e-10
          1.3238961754464432e-9 9.737962763614997e-10 5.032652966860989e-10 7.312359814616105e-10 3.840070664917326e-10 1.0661478043564104e-9
          5.506461218122977e-10 7.996320090159925e-10 4.15976037006264e-10 2.2329536919394883e-10 2.934789119219419e-10 1.6060714049852147e-10
          4.72000401243161e-10 2.530111563654332e-10 3.3204948391784664e-10 2.0450914437552407e-10 1.1389897084513833e-10 1.4137284354259165e-10
          7.997927500473836e-11 2.3069076226104522e-10 1.2827177991032182e-10 1.5899347397331168e-10 5.253591457913257e-10 2.8128234711601847e-10
          3.6871324023895156e-10 2.0124329295862585e-10 5.735398819079525e-10 3.067832691751052e-10 4.017662304644182e-10 2.555317177257909e-10
          1.4191938173887883e-10 1.7567959036623633e-10 9.910029240639982e-11 2.778918068023847e-10 1.5419830155011085e-10 1.9067560095725262e-10
          1.6841889404938775e-9 1.6160575389078289e-9 8.60908716228508e-10 8.257224934611857e-10 1.4211116654828565e-9 7.27399873255012e-10
          1.7714342158117361e-9 1.6998783994885927e-9 8.686374090662699e-10 1.4948677590419803e-9 1.1440040122984275e-9 5.905903299904981e-10
          8.572572571204183e-10 4.4950762213786466e-10 1.2030734777898518e-9 6.209020018931118e-10 9.009603124136206e-10 1.825902651870078e-9
          1.7522135025472e-9 9.336310475028705e-10 8.95447322095877e-10 1.5409266107937555e-9 7.886258852229441e-10 1.8444197600054258e-9
          1.7700055990109896e-9 9.045641145991126e-10 1.5565860882640143e-9 1.2399625152868175e-9 6.398376971604896e-10 9.282466852323184e-10
          4.863930513781231e-10 1.2525049952540387e-9 6.46277410532056e-10 9.375231731539079e-10 6.140888491505902e-10 3.2822702623282347e-10
          4.295474517651617e-10 2.340421492583442e-10 6.448174283186776e-10 3.4447206858665136e-10 4.5057969507086177e-10 2.9666034784599144e-10
          1.6449575269259603e-10 2.0324526513585495e-10 1.1448212556083527e-10 3.108542109380053e-10 1.722787722179963e-10 2.1274021038524917e-10
          6.639935203306932e-10 3.546112129152809e-10 4.6369620196504115e-10 2.5243568748341754e-10 6.705110976378662e-10 3.5805815557040685e-10
          4.681527994917736e-10 3.1969949916099633e-10 1.7712750923611722e-10 2.1865230805662794e-10 1.2306758834182866e-10 3.227037142094749e-10
          1.7877418134829292e-10 2.2065939468062273e-10 9.713385766372939e-11 5.571410113088743e-11 6.641222363380731e-11 3.8492352679002956e-11
          1.0892889104034911e-10 6.237553644852829e-11 7.428068911283972e-11 2.6396641574464402e-11 2.942233695458592e-11 1.2007106861647698e-10
          6.868391100665409e-11 8.168925481750383e-11 4.72401803930664e-11 1.3006601769670434e-10 7.43455905112095e-11 8.831956653771817e-11
          3.2259959303948126e-11 3.478905404986758e-11 1.3843105963241797e-10 7.907985924357064e-11 9.385927377397351e-11 5.4208527987828105e-11
          1.447421945902731e-10 8.264848697390679e-11 9.803348299222247e-11 3.689699369307708e-11 3.848169503864763e-11 1.4866846110011276e-10
          8.486705853553923e-11 1.006279247823182e-10 5.8076997248413485e-11 1.5000077056303394e-10 8.561961340630468e-11 1.0150787272203821e-10
          3.946456112826228e-11 3.9796952265650765e-11 1.6962034022255922e-10 1.6309993693121243e-10 7.861109296784881e-11 1.4521621443991457e-10
          3.8477719005871445e-11 3.720563552359331e-11 2.3766192564901455e-11 3.370566254600839e-11 1.2063086305730817e-10 5.952932088926651e-11
          9.496922598491996e-11 2.8853974471019468e-11 1.8715461281947353e-11 2.359488032780677e-11 2.0492943451334132e-10 1.9698582350934461e-10
          9.82256494670489e-11 9.465680924596752e-11 1.7518059784805972e-10 8.489373457069202e-11 2.427435785089747e-10 2.3327149471559246e-10
          1.1170788467840742e-10 2.072493633730917e-10 4.626387413429614e-11 4.471161000084045e-11 2.9498305054420845e-11 2.8564893172589532e-11
          4.044797226150547e-11 2.5975834349546163e-11 5.438686007928581e-11 5.254347035427113e-11 2.695935490967562e-11 4.748272870019068e-11
          1.4519764840677862e-10 7.143379768175025e-11 1.1394766652570705e-10 5.717817367990445e-11 1.7145650157064028e-10 8.408808072009936e-11
          1.341918820320046e-10 3.455058187167217e-11 2.2402837959502092e-11 2.8169195922068212e-11 1.8465116918168777e-11 4.0542858604416503e-11
          2.1112411320989903e-11 3.3046117456270266e-11 7.212050564212382e-11 3.704719145625992e-11 5.352413890401324e-11 1.8635824722325466e-11
          1.236245396208135e-11 1.4361131860493494e-11 3.930704547845689e-11 2.0754316532104366e-11 2.8475439107733656e-11 1.0707685607749296e-11
          7.535187794293646e-12 9.005172174886318e-12 8.620885730189966e-11 4.4173878831528904e-11 6.372116960585343e-11 3.3285374015781553e-11
          1.0119343458909823e-10 5.1748527161573537e-11 7.452190931017995e-11 2.2172476078688358e-11 1.468977101544835e-11 1.7033904558751418e-11
          1.1418181842032501e-11 2.595026597234667e-11 1.719540638686209e-11 1.9864970844406807e-11 4.6588981020726694e-11 2.455918731683737e-11
          3.361765609322622e-11 2.040915730425012e-11 5.417930307530683e-11 2.858856584230151e-11 3.8896049772718275e-11 1.2674525367192739e-11
          8.927193101169997e-12 1.0652367017841117e-11 7.952819223504238e-12 1.4781092130129517e-11 1.0294712258407976e-11 1.1506790691786153e-11
          2.026509932983116e-11 1.4539395071805055e-11 1.4223079827626804e-11 9.646795611653772e-12 7.012765448934308e-12 7.70395535019682e-12
          2.3857082046228224e-11 1.709827840504986e-11 1.67140656539011e-11 1.205987997618648e-11 2.7584220187972244e-11 1.653005203975112e-11
          1.930217906110935e-11 1.134475135914114e-11 8.294893672614126e-12 9.074541321401526e-12 6.8533765949309105e-12 1.306849345977074e-11
          9.513372414475014e-12 1.0440549589579113e-11 2.8191721446233823e-10 2.7085750047537647e-10 1.3420169209733228e-10 1.292484457965917e-10
          2.404494417045215e-10 1.1571540229126967e-10 3.210675389613089e-10 3.0841501441220616e-10 1.467965343293149e-10 2.736002834896787e-10
          6.246471947806125e-11 6.033300604241848e-11 2.8068081470696475e-11 2.7191481955473337e-11 5.4480939128700904e-11 2.4765484111265304e-11
          7.06883659167159e-11 6.8259444366849e-11 3.132694780600341e-11 6.159369056865291e-11 1.9860780742958576e-10 9.710276530894287e-11
          1.5508301376453936e-10 7.744214313931682e-11 2.2567462431261103e-10 1.100717598776051e-10 1.7585845411370267e-10 4.656690177420241e-11
          2.119893469951991e-11 3.805103690579481e-11 2.0213682650534322e-11 5.262476397673749e-11 2.429108636601798e-11 4.3003094925398736e-11
          3.585426342132505e-10 3.443582864664152e-10 1.699974858141951e-10 1.636506728898541e-10 3.052985956829719e-10 1.4630182515332334e-10
          3.925078321950409e-10 3.7692942760165475e-10 1.789141017698564e-10 3.3399916734351883e-10 7.877180195650445e-11 7.604962558689647e-11
          3.5987957787062017e-11 3.4851681246418587e-11 6.857568092183975e-11 3.1688077480932053e-11 8.600321389058791e-11 8.301943475465522e-11
          3.7980746842492196e-11 7.482858377812931e-11 2.515054334786056e-10 1.2245293327149697e-10 1.9563049211054144e-10 9.732418046918766e-11
          2.748492865199341e-10 1.3359267923504704e-10 2.134524337517331e-10 5.849395886371848e-11 2.699315769720465e-11 4.7695668961265356e-11
          2.5519977617738762e-11 6.367139925120088e-11 2.9507871830203675e-11 5.1727803282814696e-11 1.163223905118276e-11 1.1296959774801138e-11