<?xml version="1.0"?>
<VTKFile type="UnstructuredGrid" version="0.1" byte_order="LittleEndian" header_type="UInt32" compressor="vtkZLibDataCompressor">
  <UnstructuredGrid>
    <Piece NumberOfPoints="1412" NumberOfCells="843">
      <PointData>
        <DataArray type="Int32" Name="libmesh_node_id" format="ascii" RangeMin="192" RangeMax="11791">
          283 284 354 357 362 364
          365 367 373 603 637 638
          641 643 649 650 651 654
          657 658 664 756 757 758
          759 760 761 762 763 764
          765 766 1425 1426 1430 1438
          1439 1440 1441 1442 1443 1444
          1527 1528 1540 1541 1542 1543
          1637 1638 1641 1643 1669 1671
          1673 1674 1675 1712 1713 1714
          1715 1716 1717 1718 1721 1722
          1723 1724 1725 1726 1729 1730
          1731 1732 1735 1736 1737 1738
          1740 1779 1780 1781 1782 1783
          1784 1785 1797 1799 1801 1802
          1885 1886 1887 1888 1889 1890
          1891 2409 2413 2415 2416 2419
          2443 2449 2450 2453 2516 2517
          2518 2519 2520 2521 2522 2524
          2526 2528 2529 2530 2531 2532
          2533 2534 2535 2536 2537 2538
          2539 2540 2541 2542 2543 2544
          2545 2546 2548 2549 2550 2551
          2552 2553 2554 2555 2556 2557
          2558 2559 2560 2561 2562 2563
          2938 2944 2945 2948 3039 3040
          3041 3042 3044 3046 3047 3048
          3049 3050 3051 3052 3053 3054
          3055 3056 3058 3060 3061 3062
          3063 3064 3065 3066 3067 3068
          3069 3092 3094 3449 3450 3451
          3489 3490 3491 3492 3493 3494
          3495 3496 3497 3498 3622 3623
          3624 3625 3626 3627 3628 3629
          3630 3631 3690 3691 3694 3695
          3696 3697 3699 3702 3706 3707
          3709 3712 3713 3714 3715 3716
          3718 3719 3747 3748 3749 3750
          3751 3752 3753 3754 3755 3756
          3757 3758 3759 3760 3761 3762
          3763 3849 3850 3851 3852 3853
          3854 3855 3875 3876 3877 3878
          3879 3881 3882 3884 3885 3886
          3888 3889 3894 3895 3896 3944
          3945 3946 3947 3948 3949 3950
          3953 3970 3971 3974 3984 3985
          3988 3989 3990 3991 3992 3993
          3994 3995 3997 3998 4001 4002
          4003 4005 4006 4007 4008 4009
          4020 4021 4022 4023 4024 4025
          4026 5884 5912 5919 5933 5934
          5935 5936 5937 5938 5939 5943
          5954 5955 5956 5957 5958 5959
          5960 5961 5962 5963 5964 5965
          5966 5967 5968 5969 5970 6131
          6159 6177 6178 6179 6180 6181
          6182 6183 6184 6185 6186 6187
          6188 6189 6190 6205 6206 6207
          6208 6211 6212 6213 6214 6215
          6218 6549 6552 6554 6555 6556
          6557 6560 6561 6564 6566 6568
          6569 6570 6571 6572 6573 6574
          6575 6576 6577 6579 6581 6583
          6585 6586 6587 6588 6589 6590
          6591 6593 6595 6597 6599 6600
          6601 6602 6603 6604 6605 6606
          6607 6608 6609 6610 6611 6612
          6613 6614 6615 6616 6617 6618
          6619 6620 6621 6622 6623 6624
          6625 6626 6627 6628 6629 6630
          6631 6632 6634 6636 6638 6640
          6641 6642 6643 6644 6645 6646
          6648 6650 6652 6654 6655 6656
          6657 6658 6659 6660 6668 6669
          6670 6671 6672 6673 6674 6676
          6678 6680 6682 6683 6684 6685
          6686 6687 6688 6689 6690 6691
          6692 6693 6694 6695 6696 6697
          6698 6699 6700 6701 6702 6703
          6704 6705 6706 6707 6708 6709
          6710 6711 6712 6713 6714 6715
          6716 6717 6718 6719 6720 6721
          6722 6723 6724 6725 6726 6727
          6728 6729 6730 6731 6732 6733
          6734 6735 6736 6737 6738 6739
          6740 6741 6742 6743 6744 6745
          6746 6747 6748 6749 6750 6751
          6752 6753 6754 6755 6756 6757
          6758 6759 6760 6761 6762 6763
          6764 6765 6766 6767 6768 6769
          6770 6771 6772 6773 6774 6775
          6776 6777 8332 8333 8336 8360
          8361 8381 8382 8385 8388 8389
          8392 8409 8410 8413 8416 8417
          8420 8581 8629 8630 8636 8637
          9054 9056 9058 9060 9061 9062
          9063 9064 9065 9066 9068 9070
          9072 9074 9075 9076 9077 9078
          9079 9080 9082 9084 9088 9089
          9090 9091 9093 9096 9098 9102
          9103 9104 9105 9107 9109 9110
          9111 9112 9113 9114 9115 9116
          9117 9118 9119 9120 9121 9122
          9123 9124 9125 9126 9127 9128
          9129 9130 9131 9132 9133 9134
          9135 9136 9137 9138 9139 9140
          9141 9142 9143 9144 9145 9146
          9147 9148 9149 9150 9151 9152
          9153 9154 9155 9156 9157 9158
          9159 9160 9161 9162 9163 9164
          9165 9166 9167 9168 9169 9170
          9171 9172 9173 9174 9175 9176
          9177 9178 9179 9180 9181 9182
          9183 9184 9185 9186 9187 9188
          9189 9190 9191 9192 9196 9197
          9198 9199 9201 9203 9204 9205
          9206 9210 9211 9212 9213 9214
          9215 9216 9218 9220 9221 9222
          9223 9224 9225 9226 9227 9228
          9229 9230 9231 9232 9233 9234
          9235 9236 9245 9247 9259 9261
          9293 9294 9295 9296 9300 9301
          9302 9303 9307 9308 9309 9310
          9314 9315 9316 9317 9357 9359
          9371 9373 9405 9406 9407 9408
          9412 9413 9414 9415 9416 9417
          9418 9419 9420 9421 9429 9430
          9431 9432 11484 11485 11486 11487
          11488 11489 11490 11491 11492 11493
          11501 11502 11503 11504 11507 11598
          11599 11602 11619 11623 11718 11758
          11759 11760 11761 11762 11763 11764
          11765 11766 11767 11768 11769 11770
          11771 11772 11773 11774 11775 11776
          11777 11778 11782 11783 11784 11785
          11786 11787 11788 363 366 240
          369 368 371 370 374 285
          375 192 410 411 404 405
          412 413 406 415 416 239
          355 238 450 448 356 451
          449 361 456 455 635 639
          636 640 642 644 645 646
          647 648 652 653 656 660
          662 663 679 680 686 750
          752 754 751 753 755 668
          1408 1409 600 1410 1635 1639
          1636 1640 1642 1644 1658 1663
          1664 1672 1670 1676 1677 1678
          1696 1697 1698 1699 1706 1707
          1710 1711 661 1719 1720 1727
          1728 667 815 816 1733 1734
          817 1739 820 1620 1621 1624
          1626 597 1652 1796 1653 1798
          1654 1800 599 1880 1434 1881
          1884 604 2285 2286 2287 2414
          2525 2523 2316 2527 1399 2317
          2480 2464 2481 2484 2486 2510
          2512 2514 3085 3091 3093 3087
          3095 3096 620 3097 3445 3447
          3446 3448 3452 3453 3454 3467
          3468 3471 3484 3485 3500 3499
          3502 3501 1649 1650 3692 3693
          1651 3698 3700 3701 3703 3704
          3705 3708 1803 1807 1804 1810
          3710 1811 1812 3711 1690 1692
          1816 3717 1694 1577 1691 360
          1695 3873 3313 3314 3874 3406
          3407 3410 3317 3880 3412 3341
          3342 3883 3415 3417 3345 3887
          3419 3890 3891 3892 3893 2418
          3080 1545 3505 3951 3952 3312
          3968 3969 3316 3972 3973 3340
          3982 3983 3344 3986 3987 3868
          3007 3869 3872 1536 3059 3996
          3368 3086 4000 3999 3369 3372
          3374 3404 3408 4004 5158 5159
          1390 5160 5881 5882 5883 5885
          5886 5887 5909 5910 5911 5913
          5914 5915 5168 5169 5170 5916
          5917 5918 5920 5921 5922 5923
          5927 5924 5928 5930 5932 2276
          5178 5870 5179 5180 2407 5940
          5941 5942 5944 5945 2417 5946
          5947 5949 5951 5953 5898 2411
          5950 6128 6129 6130 6132 6133
          6134 6156 6157 6158 6160 6161
          6162 6117 6165 6166 2441 6169
          2447 6172 6173 6176 2448 6145
          6193 6194 2445 6197 6209 2451
          6210 6200 6201 6204 6216 2452
          6217 5876 5877 6545 6544 5880
          2408 6548 6547 6546 6550 5298
          5297 6551 5299 6553 5289 2315
          6558 6559 6562 6563 6565 6567
          5904 5905 6578 6580 5908 2412
          6582 6584 6592 6594 6596 6598
          6358 6311 6359 6362 1432 6364
          6123 6124 6633 6635 6127 2442
          6637 6639 6647 6649 6651 6653
          6151 6152 6662 6661 6664 6663
          6155 2446 6666 6665 2547 6675
          6677 6667 6679 6681 6430 6504
          6506 2498 6508 6458 6518 6520
          1436 6522 6154 8324 8330 8326
          8331 8328 8334 2937 8335 8352
          8358 8354 8359 8356 8362 8364
          2941 8363 8379 8380 8383 8384
          8386 8387 8390 8391 8407 8408
          8411 8412 8414 8415 8418 8419
          8578 8579 8580 8582 8583 2972
          8584 8627 8628 8631 8633 8632
          2978 8634 8635 8638 8640 8639
          2979 8325 9053 9055 8329 9057
          9059 9067 9069 9071 9073 8353
          9081 9083 8357 9086 9085 3043
          9087 9092 9094 9095 9097 9100
          9099 3045 9101 9106 9108 8733
          8813 8815 2993 8817 3005 6542
          8827 8829 8831 8761 8841 8843
          1534 9193 8845 9194 9195 3009
          3057 9200 9202 8855 8857 9207
          8859 9208 9209 9217 9219 9244
          9246 9249 9248 3071 9250 9258
          9260 9263 9262 3073 9264 9297
          9298 9299 3077 9304 9305 9306
          3078 9311 9312 9313 3079 9318
          9319 9320 9356 9358 9361 9360
          9362 9370 9372 9375 9374 9376
          9409 9410 9411 9338 9344 9423
          9345 9425 3083 9348 9433 9427
          9434 9435 11478 11479 11480 11483
          11496 11497 11500 11505 11506 11596
          11597 11600 11601 11617 11618 11620
          11621 11622 11716 11717 11719 11720
          11722 11721 11779 11780 11781 11789
          11790 11791
        </DataArray>
        <DataArray type="Float64" Name="bounds" format="ascii" RangeMin="0" RangeMax="0">
          0 0 0 0 0 0
          0 0 0 0 0 0
          0 0 0 0 0 0
          0 0 0 0 0 0
          0 0 0 0 0 0
          0 0 0 0 0 0
          0 0 0 0 0 0
          0 0 0 0 0 0
          0 0 0 0 0 0
          0 0 0 0 0 0
          0 0 0 0 0 0
          0 0 0 0 0 0
          0 0 0 0 0 0
          0 0 0 0 0 0
          0 0 0 0 0 0
          0 0 0 0 0 0
          0 0 0 0 0 0
          0 0 0 0 0 0
          0 0 0 0 0 0
          0 0 0 0 0 0
          0 0 0 0 0 0
          0 0 0 0 0 0
          0 0 0 0 0 0
          0 0 0 0 0 0
          0 0 0 0 0 0
          0 0 0 0 0 0
          0 0 0 0 0 0
          0 0 0 0 0 0
          0 0 0 0 0 0
          0 0 0 0 0 0
          0 0 0 0 0 0
          0 0 0 0 0 0
          0 0 0 0 0 0
          0 0 0 0 0 0
          0 0 0 0 0 0
          0 0 0 0 0 0
          0 0 0 0 0 0
          0 0 0 0 0 0
          0 0 0 0 0 0
          0 0 0 0 0 0
          0 0 0 0 0 0
          0 0 0 0 0 0
          0 0 0 0 0 0
          0 0 0 0 0 0
          0 0 0 0 0 0
          0 0 0 0 0 0
          0 0 0 0 0 0
          0 0 0 0 0 0
          0 0 0 0 0 0
          0 0 0 0 0 0
          0 0 0 0 0 0
          0 0 0 0 0 0
          0 0 0 0 0 0
          0 0 0 0 0 0
          0 0 0 0 0 0
          0 0 0 0 0 0
          0 0 0 0 0 0
          0 0 0 0 0 0
          0 0 0 0 0 0
          0 0 0 0 0 0
          0 0 0 0 0 0
          0 0 0 0 0 0
          0 0 0 0 0 0
          0 0 0 0 0 0
          0 0 0 0 0 0
          0 0 0 0 0 0
          0 0 0 0 0 0
          0 0 0 0 0 0
          0 0 0 0 0 0
          0 0 0 0 0 0
          0 0 0 0 0 0
          0 0 0 0 0 0
          0 0 0 0 0 0
          0 0 0 0 0 0
          0 0 0 0 0 0
          0 0 0 0 0 0
          0 0 0 0 0 0
          0 0 0 0 0 0
          0 0 0 0 0 0
          0 0 0 0 0 0
          0 0 0 0 0 0
          0 0 0 0 0 0
          0 0 0 0 0 0
          0 0 0 0 0 0
          0 0 0 0 0 0
          0 0 0 0 0 0
          0 0 0 0 0 0
          0 0 0 0 0 0
          0 0 0 0 0 0
          0 0 0 0 0 0
          0 0 0 0 0 0
          0 0 0 0 0 0
          0 0 0 0 0 0
          0 0 0 0 0 0
          0 0 0 0 0 0
          0 0 0 0 0 0
          0 0 0 0 0 0
          0 0 0 0 0 0
          0 0 0 0 0 0
          0 0 0 0 0 0
          0 0 0 0 0 0
          0 0 0 0 0 0
          0 0 0 0 0 0
          0 0 0 0 0 0
          0 0 0 0 0 0
          0 0 0 0 0 0
          0 0 0 0 0 0
          0 0 0 0 0 0
          0 0 0 0 0 0
          0 0 0 0 0 0
          0 0 0 0 0 0
          0 0 0 0 0 0
          0 0 0 0 0 0
          0 0 0 0 0 0
          0 0 0 0 0 0
          0 0 0 0 0 0
          0 0 0 0 0 0
          0 0 0 0 0 0
          0 0 0 0 0 0
          0 0 0 0 0 0
          0 0 0 0 0 0
          0 0 0 0 0 0
          0 0 0 0 0 0
          0 0 0 0 0 0
          0 0 0 0 0 0
          0 0 0 0 0 0
          0 0 0 0 0 0
          0 0 0 0 0 0
          0 0 0 0 0 0
          0 0 0 0 0 0
          0 0 0 0 0 0
          0 0 0 0 0 0
          0 0 0 0 0 0
          0 0 0 0 0 0
          0 0 0 0 0 0
          0 0 0 0 0 0
          0 0 0 0 0 0
          0 0 0 0 0 0
          0 0 0 0 0 0
          0 0 0 0 0 0
          0 0 0 0 0 0
          0 0 0 0 0 0
          0 0 0 0 0 0
          0 0 0 0 0 0
          0 0 0 0 0 0
          0 0 0 0 0 0
          0 0 0 0 0 0
          0 0 0 0 0 0
          0 0 0 0 0 0
          0 0 0 0 0 0
          0 0 0 0 0 0
          0 0 0 0 0 0
          0 0 0 0 0 0
          0 0 0 0 0 0
          0 0 0 0 0 0
          0 0 0 0 0 0
          0 0 0 0 0 0
          0 0 0 0 0 0
          0 0 0 0 0 0
          0 0 0 0 0 0
          0 0 0 0 0 0
          0 0 0 0 0 0
          0 0 0 0 0 0
          0 0 0 0 0 0
          0 0 0 0 0 0
          0 0 0 0 0 0
          0 0 0 0 0 0
          0 0 0 0 0 0
          0 0 0 0 0 0
          0 0 0 0 0 0
          0 0 0 0 0 0
          0 0 0 0 0 0
          0 0 0 0 0 0
          0 0 0 0 0 0
          0 0 0 0 0 0
          0 0 0 0 0 0
          0 0 0 0 0 0
          0 0 0 0 0 0
          0 0 0 0 0 0
          0 0 0 0 0 0
          0 0 0 0 0 0
          0 0 0 0 0 0
          0 0 0 0 0 0
          0 0 0 0 0 0
          0 0 0 0 0 0
          0 0 0 0 0 0
          0 0 0 0 0 0
          0 0 0 0 0 0
          0 0 0 0 0 0
          0 0 0 0 0 0
          0 0 0 0 0 0
          0 0 0 0 0 0
          0 0 0 0 0 0
          0 0 0 0 0 0
          0 0 0 0 0 0
          0 0 0 0 0 0
          0 0 0 0 0 0
          0 0 0 0 0 0
          0 0 0 0 0 0
          0 0 0 0 0 0
          0 0 0 0 0 0
          0 0 0 0 0 0
          0 0 0 0 0 0
          0 0 0 0 0 0
          0 0 0 0 0 0
          0 0 0 0 0 0
          0 0 0 0 0 0
          0 0 0 0 0 0
          0 0 0 0 0 0
          0 0 0 0 0 0
          0 0 0 0 0 0
          0 0 0 0 0 0
          0 0 0 0 0 0
          0 0 0 0 0 0
          0 0 0 0 0 0
          0 0 0 0 0 0
          0 0 0 0 0 0
          0 0 0 0 0 0
          0 0 0 0 0 0
          0 0 0 0 0 0
          0 0 0 0 0 0
          0 0 0 0 0 0
          0 0 0 0 0 0
          0 0 0 0 0 0
          0 0 0 0 0 0
          0 0 0 0 0 0
          0 0 0 0 0 0
          0 0 0 0 0 0
          0 0 0 0 0 0
          0 0 0 0 0 0
          0 0 0 0 0 0
          0 0 0 0 0 0
          0 0 0 0 0 0
          0 0 0 0 0 0
          0 0 0 0 0 0
          0 0
        </DataArray>
        <DataArray type="Float64" Name="gradient_error" format="ascii" RangeMin="2.258296356459181e-12" RangeMax="4.6332238217001725e-8">
          7.461767863000749e-9 4.941037745725298e-11 1.0888015148142904e-10 5.083634281093988e-9 8.181815086210102e-11 1.2899988114641732e-11
          1.5034575231258512e-10 7.435273714474309e-11 1.6849244412229477e-10 1.6005358543036586e-11 8.130225253583789e-10 1.275683754155641e-9
          2.2418022887208855e-9 1.5140875703339785e-9 3.2646326496759915e-11 2.0145242596842044e-11 2.7966833764155507e-11 4.7317841828185914e-11
          2.575641125293085e-11 8.41800248680194e-11 5.379406362390255e-11 7.429663489858416e-10 2.987109766369588e-10 3.9009584512790086e-10
          2.1023979814456373e-10 3.02308123081973e-10 4.6067058486440855e-10 6.804359663053489e-10 4.94033455397906e-10 4.5322831585362546e-10
          3.5161053861388044e-10 7.913223013863676e-10 2.9257212744701914e-11 1.4688910200794757e-11 1.0206463669632487e-10 3.289997426345467e-11
          3.545353687318065e-11 1.4371357846626718e-10 6.951152294948808e-11 3.013124049517166e-11 3.043419761489684e-11 1.4427590543673391e-10
          2.7794799953374247e-10 3.4542316964921536e-11 5.947102598627891e-11 3.2160631114457645e-11 8.759579087956371e-11 6.993056192647499e-11
          1.8832655712484371e-10 2.222999747050278e-10 3.6373639810531263e-10 2.367121759030799e-10 3.1124135554062597e-11 2.5304678565149522e-11
          4.491238124262064e-11 4.5854998388426294e-11 2.8963091176830998e-11 9.719601618423428e-11 1.3233495246164812e-10 1.984753794751431e-10
          2.7513345898981495e-10 1.9403216133535378e-10 1.8846407455021714e-11 2.0105012072740652e-11 1.8545465513369565e-11 1.1774670283416912e-11
          1.3464692233885638e-11 2.1363616690459588e-11 1.579894609410457e-11 1.5154714184354365e-11 1.3212475195829604e-11 1.5188301376735975e-11
          3.23517766572128e-11 3.838598997779581e-11 3.378287710137137e-11 3.024266472145752e-11 3.5568088830040565e-11 4.442020329837882e-11
          4.089351293862361e-11 2.752122539727052e-10 3.1220406716229544e-10 1.5769528074565198e-10 1.638252258394367e-10 3.352389353102265e-10
          5.189230030026139e-10 2.333987240371037e-10 2.3162943849059184e-11 1.7153033815580364e-11 2.6697710910758223e-11 1.8606275855348884e-11
          1.643394310579585e-10 2.1886337762003392e-10 1.0919404457821522e-10 1.3170898783566838e-10 1.6014094597129197e-10 2.0407242504099902e-10
          1.4905612616742934e-10 1.4357590090316446e-11 1.1931211997347378e-11 1.1974703678465381e-11 1.4646179402412844e-11 1.3658224756123218e-11
          5.625887217582608e-11 2.1344286201002368e-11 1.2002371307793466e-11 3.8481505666297824e-11 1.820224250145268e-11 1.3330582789589767e-11
          2.457324073456997e-11 2.4131326420771434e-11 3.5897132426106814e-11 1.8659599136754786e-11 2.3097020503569118e-11 1.593205367230329e-11
          1.591711457454988e-11 1.9929740590721264e-11 1.2264801932825373e-11 1.693467495870698e-11 1.62139865336694e-11 2.235473562685461e-11
          3.879545430929831e-11 3.955740426953625e-11 2.602467038415529e-11 3.347150330834612e-11 3.1611020199319956e-11 4.153141340204454e-11
          2.8124557203798332e-11 4.4079633034733604e-11 3.3222664823948555e-11 6.659373195483096e-11 6.668062092800754e-11 2.8323189246447443e-11
          3.291089767398145e-11 2.3927258164620263e-11 4.984705291823285e-11 5.629991243258792e-11 1.3560030690149036e-11 1.4304904272652902e-11
          2.3540012895595164e-11 1.6165314730738494e-11 1.9265902258700844e-11 1.4024536903089515e-11 2.2838198755666915e-11 6.069482809023268e-11
          3.877045845604851e-11 1.0265630295277293e-10 4.8142178625880994e-11 6.550187116637177e-11 4.926075677222515e-11 1.0070009484049199e-10
          1.7403915793248244e-10 6.509632897270267e-11 2.1923689764061265e-11 1.0330255243214541e-10 1.947821374166352e-10 8.273867957582414e-11
          9.12050469484735e-11 3.890089033666339e-11 1.2895802240540103e-10 3.1923061795916275e-11 1.767328495945672e-11 2.5257052044856308e-11
          3.033356101097959e-11 4.955645305957413e-11 2.099524572026147e-11 2.900897858142797e-11 5.441979761767397e-11 4.326160398720397e-11
          9.28171323318995e-11 7.14187225786842e-11 4.494567175160854e-11 3.2576759279434635e-11 3.719761259147554e-11 2.6547272844330687e-11
          3.9060366795286916e-11 3.1109096668241947e-11 4.4293941694432965e-11 2.8648035079185372e-11 4.449736858471589e-11 3.1139297636281664e-11
          5.569931208461209e-11 2.7723400730029345e-11 3.2617238543787896e-11 9.207428297560174e-12 1.2045043526358293e-11 1.0626580428588473e-11
          1.4937826334323663e-11 1.7930118895204285e-11 1.102459452050276e-11 1.6576005020380884e-11 1.473589187509792e-11 2.3081090070584732e-11
          1.2965847329408879e-11 1.999530242560587e-11 2.390347439793871e-11 1.9869475439529872e-11 2.2799026278482523e-11 2.405010879516863e-11
          2.2717579029343888e-11 2.426349798499713e-11 2.3048505181066886e-11 2.202169113456387e-11 2.3211263467932174e-11 2.5301191311854738e-11
          2.5809416940650375e-11 2.440083580130048e-11 4.8427475539292436e-12 4.9612995120664556e-12 3.693748554581401e-12 3.916909765209219e-12
          4.214503453346705e-12 5.079851470203668e-12 4.5120971414841914e-12 5.4006578939787234e-12 6.982751142341519e-12 7.0971216301744236e-12
          7.211492118007328e-12 7.739209663085362e-12 7.683686592557098e-12 9.451190346370807e-12 1.0627198621461269e-11 8.62834676236246e-12
          7.628163522028834e-12 1.180320689655173e-11 6.008666569875263e-11 7.165207785661648e-11 4.442254338803638e-11 5.016777664348447e-11
          7.267217851869647e-11 8.91428739794883e-11 6.949920858262358e-11 9.186797893782795e-11 6.178280625557422e-11 1.1517593390637094e-10
          1.0652242645364396e-10 7.119876116761856e-11 1.3176887803868112e-10 1.023493984067074e-10 1.1252638504611233e-10 7.474491972302122e-11
          1.387994577049005e-10 2.1200982695129742e-11 2.814928940647268e-11 1.5684639246281092e-11 1.8701958880814787e-11 1.725318428014187e-11
          2.1366182087788904e-11 1.6286811569113048e-11 3.2632520546010034e-11 3.762917490837028e-11 4.169472848048863e-11 4.7292214337071024e-11
          3.604675470239546e-11 4.160066038432327e-11 5.197705269566754e-11 4.4267710466945035e-11 5.5162740031243896e-11 4.1290375397499624e-11
          4.522591032464325e-11 5.637360577603524e-11 5.949997375791516e-12 8.196493081388638e-12 5.5127614895286294e-12 1.64200475044982e-11
          1.9139054008662947e-11 1.1709686834006569e-11 1.2341505313734823e-11 1.2561633743069433e-11 1.4010062556794199e-11 1.0583906254094499e-11
          1.735913780429856e-11 2.0964516126639465e-11 1.4916634984108256e-11 2.398156179600909e-11 2.59996436292567e-11 1.826313239024304e-11
          2.6705411681696007e-11 9.476366424910124e-11 1.1561794665169589e-10 6.955223813745694e-11 8.019073791297468e-11 8.17427301668854e-11
          9.587185641027553e-11 7.448521659186409e-11 8.548358191355571e-11 1.2188278550768936e-10 1.442639947948641e-10 7.777481705619815e-11
          3.5351009888367214e-11 2.6717967584863673e-11 2.8308234509771454e-11 3.068490408283425e-11 3.4746081737275996e-11 2.702496155706582e-11
          9.454650596631452e-12 1.2678397213678786e-11 6.641735746906916e-12 7.693561331293847e-12 7.423826379122821e-12 9.320907829384075e-12
          6.8417378242928695e-12 9.847985066601837e-12 2.0647362691547384e-11 7.289266073300359e-12 8.28012387794697e-12 6.339245076824608e-12
          6.148978639632701e-12 4.728989453118141e-12 1.2193056757319029e-11 8.276021153985094e-12 9.054665500135976e-12 1.4105112880370342e-11
          1.762388260173709e-11 1.0560993630787997e-11 1.2997773333773314e-11 8.780366409051337e-12 2.5058426077520832e-11 1.5118690286699975e-11
          1.8376625189503294e-11 4.997902367091782e-12 6.150359928633691e-12 3.8569787556093824e-12 4.657460672401473e-12 4.323390064758692e-12
          5.2501254333709815e-12 4.100390783094243e-12 8.929302438358725e-12 5.761843812155089e-12 7.209183875923459e-12 4.0864518493014204e-11
          7.63430017332132e-11 3.520779319110643e-11 2.1271229644136917e-11 2.5581308518643817e-11 1.5533490140287662e-11 4.877041679265504e-11
          2.939303055345558e-11 3.508639309049665e-11 1.2567156605769423e-11 7.0708778832312765e-12 9.249878733138091e-12 5.978105318045908e-12
          1.728748366604349e-11 9.76987066863877e-12 1.2716765081719288e-11 6.663902002872169e-11 4.006419321574963e-11 4.7555632598949604e-11
          2.8883067053007163e-11 6.34759260609383e-11 2.3506246631348048e-11 1.3277269442082003e-11 1.7152222717572516e-11 1.1002663654686783e-11
          2.281289291377793e-11 2.4931099081838063e-11 7.221993252354234e-12 5.9397940862073595e-12 1.6472969801303718e-11 1.0535779291997829e-11
          1.2054978064546276e-11 7.44156873622409e-12 9.159632530391582e-12 7.7196984138277e-12 1.3219033246986894e-11 5.198250087962655e-12
          6.172523839248705e-12 4.550905738802812e-12 5.1406092940979426e-12 4.678223850318356e-12 5.3190896472596834e-12 4.646190643809661e-12
          8.682027734697346e-12 6.9508760967871596e-12 7.263414704523992e-12 3.551900190701213e-11 2.5756530316293032e-11 4.989896218578851e-11
          2.34607423350996e-11 1.5012348939222472e-11 1.702290462851717e-11 1.2111211634801008e-11 3.2943127741513995e-11 2.113151265504092e-11
          2.3752775024347607e-11 1.860424848497359e-11 1.4901311420153373e-11 2.5799354494555277e-11 1.2208573891837879e-11 9.752423483413972e-12
          1.0200306824737166e-11 8.367767499446088e-12 1.7084604044950428e-11 1.2234442809712553e-11 1.3320899001572349e-11 3.602532551880932e-12
          4.441317963894497e-12 2.8883954538952843e-12 3.459965618095023e-12 3.067413237782035e-12 3.709234479381424e-12 2.9586129947306573e-12
          6.54958284849255e-12 5.057028420585826e-12 5.4619206010254505e-12 9.374198399928251e-12 7.263614542584936e-12 7.817219770836337e-12
          6.2084413800891945e-12 1.3253664066441076e-11 9.075445736790102e-12 1.0335243435828639e-11 1.2518600773838608e-11 1.4673228434891647e-11
          1.0792651948228816e-11 1.228140085039456e-11 1.1105335736869899e-11 1.2678804657147524e-11 1.1029778848090072e-11 1.9710484959806652e-11
          1.4624773674760936e-11 1.6534956826291485e-11 6.912398489011308e-11 4.9270022295827615e-11 9.443737933688161e-11 4.558353902018806e-11
          2.933103291576263e-11 3.255794267020574e-11 2.089737689247114e-11 6.220738386567914e-11 4.001043743512293e-11 4.395905856420153e-11
          3.510029677508615e-11 2.476782634077555e-11 4.698155697085598e-11 2.3333254594882515e-11 1.4907072281476692e-11 1.6442167867107862e-11
          1.186697164791077e-11 3.114445546371416e-11 2.0005908554351367e-11 2.1818544049778387e-11 8.37983773850451e-11 5.384807180905585e-11
          5.873379747124332e-11 3.784465455910067e-11 1.1125399751542614e-10 7.142615586694332e-11 7.738003822137685e-11 6.225492561471175e-11
          4.3299125847525424e-11 8.140736564877463e-11 4.1250002403207724e-11 2.6513122449586153e-11 2.861577954655736e-11 2.05337120829922e-11
          5.390742165157317e-11 3.4743426569245006e-11 3.720503280351607e-11 1.84755169930658e-11 1.1196669129430497e-11 1.3088485317838542e-11
          8.959408251046379e-12 2.5171204004952087e-11 1.5357189577885668e-11 1.7876137144220588e-11 5.528332240057758e-12 6.606075098940757e-12
          4.335860825240533e-12 5.042199218190866e-12 4.64644068348075e-12 5.481119456689993e-12 4.275270168328015e-12 9.109565866534033e-12
          6.798249374230339e-12 7.044600772111095e-12 7.57720947116202e-12 9.04561589850391e-12 5.825314727800314e-12 6.89192370580749e-12
          6.260926657215201e-12 7.402861869239327e-12 5.6409908714939145e-12 1.2424818828529432e-11 8.453053089721664e-12 1.0136873179587652e-11
          3.3785394708611966e-11 2.0660699003548972e-11 2.384190621641734e-11 1.457672842558552e-11 4.472007478808168e-11 2.7339648360296575e-11
          3.1344199245084425e-11 1.2314926262115468e-11 9.134706421270905e-12 8.730679271930514e-12 6.576080683987118e-12 1.6359279948110036e-11
          1.04796344090499e-11 1.1625927159284638e-11 1.6582436573594683e-11 1.0179180922251431e-11 1.3514438632683616e-11 8.39442123715228e-12
          2.1796872448957437e-11 1.3437836549472088e-11 1.627744200033845e-11 5.214479854910089e-12 6.1173431510656325e-12 4.173466437363666e-12
          4.73998371400491e-12 4.396541064872217e-12 5.065265752924596e-12 4.04924165780565e-12 8.093744509999539e-12 6.144765238986987e-12
          6.610446493809312e-12 2.6045828843290038e-11 1.7426482953605162e-11 2.145452953508726e-11 1.4519623365868753e-11 3.423012042861696e-11
          2.2886505150667834e-11 2.7991338159411193e-11 9.736311547998023e-12 1.1356455025940816e-11 8.05102870556214e-12 9.178675587444213e-12
          8.1777179804511e-12 9.3924451304993e-12 7.758687281303856e-12 1.4980700128457753e-11 1.1935014077443674e-11 1.222910862173105e-11
          4.482388721711969e-11 2.992793984505179e-11 3.6567353506266103e-11 2.4431065538410256e-11 5.8192057875510656e-11 3.8851461712471235e-11
          4.338466847031512e-11 1.943463353182263e-11 1.5368115683965972e-11 1.5756657864788503e-11 1.2794098601999973e-11 2.5183682633442043e-11
          1.7703047439787464e-11 2.0311409578107597e-11 2.1048803085628124e-10 1.343492906787403e-10 2.7291463593238114e-10 3.480564350322295e-10
          2.2178872880036906e-10 8.341501953618991e-11 5.044772337474703e-11 1.0788775279864232e-10 2.976198206366751e-11 1.6990226802156517e-11
          3.823955631779506e-11 1.3729345749128686e-10 8.26790976652189e-11 1.7184026346261697e-10 4.848516897521984e-11 2.774743563374875e-11
          6.046539083789051e-11 3.4244272599706536e-10 2.1147774436907154e-10 1.2692426773598429e-10 7.416941529968352e-11 4.230732658462314e-11
          2.209837970922223e-10 1.5231681336644198e-10 2.845531365376728e-10 1.4549292632179567e-10 9.33384846091246e-11 1.0046247043611213e-10
          6.471333659434569e-11 1.8732906586554056e-10 1.200920843472725e-10 1.2847375905851414e-10 1.0493569755378154e-10 7.219092208590687e-11
          1.3330718168418336e-10 6.933918433267647e-11 4.479553914767884e-11 4.7636674446675614e-11 3.061704571871091e-11 8.800007732308012e-11
          5.6873235563506976e-11 6.01444759642916e-11 3.6058774751885924e-10 2.452828203271829e-10 2.3737093305801123e-10 1.5206450578967273e-10
          1.617749341557838e-10 1.0412655052035805e-10 1.8943824148534632e-10 1.6685651785173064e-10 1.1353205438085483e-10 1.10183050251995e-10
          7.11997433709206e-11 7.496790254018472e-11 4.8504439009072934e-11 8.768121049505111e-11 5.837680089649474e-11 3.563476652091855e-11
          4.069617133786157e-11 2.5004441197734574e-11 7.501609912042526e-11 4.570712803270258e-11 5.2005872431745866e-11 2.1291091409536147e-11