<?xml version="1.0"?>
<VTKFile type="UnstructuredGrid" version="0.1" byte_order="LittleEndian" header_type="UInt32" compressor="vtkZLibDataCompressor">
  <UnstructuredGrid>
    <Piece NumberOfPoints="1201" NumberOfCells="832">
      <PointData>
        <DataArray type="Int32" Name="libmesh_node_id" format="ascii" RangeMin="351" RangeMax="11370">
          359 610 619 624 636 640
          642 644 1475 1509 1535 1536
          1537 1538 1539 1567 1569 1570
          1571 1573 1619 1621 1623 1624
          1625 1626 1627 1628 1629 1630
          1631 1632 1633 1634 2670 2671
          2672 2673 2674 2675 2676 2677
          2678 2822 2823 2827 2828 2829
          2844 2845 2846 2997 2998 2999
          3000 3001 3002 3003 3004 3005
          3006 3007 3008 3009 3010 3011
          3012 3013 3014 3015 3016 3017
          3018 3020 3021 3022 3024 3025
          3026 3027 3028 3029 3030 3031
          3032 3033 3034 3035 3036 3037
          3038 3234 3235 3236 3237 3238
          3239 3240 3241 3243 3244 3245
          3247 3248 3249 3250 3251 3252
          3253 3254 3255 3256 3257 3258
          3259 3260 3261 3262 3263 3264
          3265 3266 3267 3268 3269 3271
          3273 3275 3276 3277 3278 3279
          3280 3281 3282 3283 3284 3285
          3286 3287 3288 3289 3346 3347
          3348 3349 3350 3351 3352 3353
          3354 3355 3356 3357 3358 3359
          3360 3361 3362 3363 3364 3365
          3366 3367 3368 3369 3370 3371
          3372 3373 3374 3375 3376 3377
          3378 3379 3380 3381 3382 3383
          3384 3385 3386 3387 3388 3389
          3390 3391 3392 3393 3394 3395
          3396 3397 3398 3399 3400 3401
          3402 3403 3857 3858 3860 3862
          3864 3865 3867 3869 3871 3872
          8766 8767 8772 8773 8774 8775
          8776 8777 8780 8781 8782 8783
          8784 8785 8786 8787 8788 8789
          8790 8791 8792 8793 8794 8795
          8796 8797 8798 8799 8800 8801
          8802 8803 8804 8809 8810 8811
          8816 8817 8818 8821 8822 8823
          8824 8825 8828 8829 8830 8831
          8832 8833 8834 8835 8836 8837
          8838 8839 8840 8841 8842 8843
          8844 8845 8846 8847 8848 8849
          8850 8851 8852 8853 8854 8855
          8856 8857 8858 8859 8860 8861
          8862 8863 8864 8865 8866 8867
          8868 8869 8870 8871 8872 8873
          8874 8875 8876 8877 8878 8879
          8880 8881 8882 8883 8884 8885
          8886 8887 8888 8889 8890 8891
          8892 8893 8894 8895 8896 8897
          8898 8899 8900 8901 8902 8903
          8904 8905 8906 8907 8908 8910
          8912 8914 8915 8916 8917 8918
          8919 8920 8921 8922 8924 8925
          8926 8928 8929 8930 8931 8932
          8933 8934 8935 8936 8938 8940
          8942 8943 8944 8945 8946 8947
          8948 8949 8950 8952 8953 8954
          8956 8957 8958 8959 8960 8961
          8962 8963 8964 8965 8966 8967
          8968 8969 8970 8971 8972 8973
          8974 8975 8976 8977 8978 8979
          8980 8981 8982 8983 8984 8985
          8986 8987 8988 8989 8990 8991
          8992 8993 8994 8995 8996 8997
          8998 8999 9000 9001 9002 9003
          9004 9005 9006 9007 9008 9009
          9010 9011 9012 9013 9014 9015
          9016 9017 9018 9019 9020 9021
          9022 9023 9024 9025 9026 9027
          9028 9029 9030 9031 9032 9033
          9034 9035 9036 9037 9038 9039
          9040 9041 9042 9043 9044 9045
          9046 9047 9048 9049 9050 9051
          9052 10420 10421 10422 10423 10424
          10425 10426 10427 10428 10429 10430
          10431 10432 10433 10434 10435 10436
          10437 10438 10439 10440 10441 10442
          10443 10444 10445 10446 10447 10448
          10449 10450 10451 10452 10453 10454
          10455 10456 10457 10458 10459 10460
          10461 10462 10463 10464 10465 10466
          10467 10469 10471 10473 10474 10475
          10476 10477 10478 10479 10480 10481
          10483 10484 10485 10487 10488 10489
          10490 10491 10492 10493 10494 10495
          10497 10499 10501 10502 10503 10504
          10505 10506 10507 10508 10509 10511
          10513 10515 10516 10517 10518 10519
          10520 10521 10522 10523 10524 10525
          10526 10527 10528 10529 10530 10531
          10532 10533 10534 10535 10536 10537
          10538 10539 10540 10541 10542 10543
          10544 10545 10546 10547 10548 10549
          10550 10551 10552 10553 10554 10555
          10556 10557 10558 10559 10560 10561
          10562 10563 10564 10565 10566 10567
          10568 10569 10570 10571 10572 10573
          10574 10575 10576 10577 10578 10579
          10580 10581 10582 10583 10584 10585
          10586 10587 10588 10589 10590 10591
          10592 10593 10594 10595 10596 10597
          10598 10599 10600 10601 10602 10603
          10604 10605 10606 10607 10608 10609
          10610 10611 10612 10613 10614 10615
          10616 10617 10618 10619 10620 10621
          10622 10623 10624 10625 10626 10627
          10628 10629 10630 10631 10632 10633
          10634 10635 10636 10637 10638 10639
          10640 10641 10642 10643 10644 10645
          10646 10647 10648 10649 10650 10651
          10652 10653 10654 10655 10656 10657
          10658 10659 10661 10663 10665 10666
          10667 10668 10669 10670 10671 10672
          10673 10675 10677 10679 10680 10681
          10682 10683 10684 10685 10686 10687
          10689 10691 10693 10694 10695 10696
          10697 10698 10699 10700 10701 10703
          10705 10707 10708 10709 10710 10711
          10712 10713 10714 10715 10716 10717
          10718 10719 10720 10721 10722 10723
          10724 10725 10726 10727 10728 10729
          10730 10731 10732 10733 10734 10735
          10736 10737 10738 10739 10740 10741
          10742 10743 10744 10745 10746 10747
          10748 10749 10750 10751 10752 10753
          10754 10755 10756 10757 10758 10759
          10760 10761 10762 10763 10764 10765
          10766 10767 10768 10769 10770 10771
          10772 10773 10774 10775 10776 10777
          10778 10779 10780 10781 10782 10783
          10784 10785 10786 10787 10788 10789
          10790 10791 10792 10793 10794 10795
          10796 10797 10798 10799 10800 10801
          10802 10803 11224 11225 11226 11227
          11228 11229 11230 11231 11232 11233
          11234 11235 11236 11237 11238 11239
          11240 11241 11242 11243 11244 11245
          11246 11247 11248 11249 11250 11251
          11252 11253 11254 11255 11256 11257
          11258 11259 11260 11261 11262 11263
          11264 11265 11266 11267 11268 11269
          11270 11271 11272 11273 11274 11275
          11276 11277 11278 11279 11280 11281
          11282 11283 11284 11285 11286 11287
          11288 11289 11290 11291 11292 11293
          11294 11295 11296 11297 11298 11299
          11300 11301 11302 11303 11304 11305
          11306 11307 11308 11309 11310 11311
          11312 11313 11314 11315 11316 11317
          11318 11319 11320 11321 11322 11323
          11324 11325 11326 11327 11328 11329
          11330 11331 11332 11333 11334 11335
          11336 11337 11338 11339 11340 11341
          11342 11343 11344 11345 11346 11347
          11348 11349 11350 11351 11352 11353
          11354 11355 11356 11357 11358 11359
          11360 11361 11362 11363 11364 11365
          11366 11367 11368 11369 11370 627
          635 639 356 628 631 633
          361 1360 1361 351 1362 1472
          1473 1474 1476 1477 1478 1506
          1507 1508 1510 1511 1512 1596
          1594 1597 1595 1602 1601 1612
          1611 1616 1615 1618 1622 1600
          1620 1614 2494 2506 2140 2668
          2985 2508 2989 1460 2873 2987
          2669 2663 2903 608 2907 2777
          3120 1494 3124 2825 2811 3154
          2838 2840 613 3158 2842 3859
          3856 1437 3861 3863 2515 3866
          604 3868 3870 8752 8758 8760
          8754 8756 8762 8764 2996 6474
          6479 6481 8765 8768 8770 8680
          8684 8688 8685 8769 2986 8771
          6493 6485 8778 6495 6494 8779
          8700 8704 8705 8708 1533 8725
          8805 8729 8726 8806 2992 8807
          8808 8732 8812 8736 8733 8813
          2993 8814 8815 6531 6533 8819
          6532 8820 6541 6543 8826 6542
          8827 8753 8757 8761 1534 7889
          8696 8691 8088 8092 1517 8697
          8093 8698 2988 8096 2904 8706
          8701 8707 8108 8112 8113 8116
          1522 7938 8741 8133 2880 8742
          8134 8743 2994 8137 2910 7945
          8748 8140 8750 8144 8755 8161
          8162 8165 2914 8168 8172 9595
          9599 9600 9603 3121 9619 9623
          9624 9627 1551 9644 9645 9648
          3127 9651 9655 9672 9673 9676
          3131 9679 9683 9835 9839 9840
          9843 3155 9859 9863 9864 9867
          1556 9884 9885 9888 3161 9891
          9895 9912 9913 9916 3165 9919
          9923
        </DataArray>
        <DataArray type="Float64" Name="bounds" format="ascii" RangeMin="0" RangeMax="0">
          0 0 0 0 0 0
          0 0 0 0 0 0
          0 0 0 0 0 0
          0 0 0 0 0 0
          0 0 0 0 0 0
          0 0 0 0 0 0
          0 0 0 0 0 0
          0 0 0 0 0 0
          0 0 0 0 0 0
          0 0 0 0 0 0
          0 0 0 0 0 0
          0 0 0 0 0 0
          0 0 0 0 0 0
          0 0 0 0 0 0
          0 0 0 0 0 0
          0 0 0 0 0 0
          0 0 0 0 0 0
          0 0 0 0 0 0
          0 0 0 0 0 0
          0 0 0 0 0 0
          0 0 0 0 0 0
          0 0 0 0 0 0
          0 0 0 0 0 0
          0 0 0 0 0 0
          0 0 0 0 0 0
          0 0 0 0 0 0
          0 0 0 0 0 0
          0 0 0 0 0 0
          0 0 0 0 0 0
          0 0 0 0 0 0
          0 0 0 0 0 0
          0 0 0 0 0 0
          0 0 0 0 0 0
          0 0 0 0 0 0
          0 0 0 0 0 0
          0 0 0 0 0 0
          0 0 0 0 0 0
          0 0 0 0 0 0
          0 0 0 0 0 0
          0 0 0 0 0 0
          0 0 0 0 0 0
          0 0 0 0 0 0
          0 0 0 0 0 0
          0 0 0 0 0 0
          0 0 0 0 0 0
          0 0 0 0 0 0
          0 0 0 0 0 0
          0 0 0 0 0 0
          0 0 0 0 0 0
          0 0 0 0 0 0
          0 0 0 0 0 0
          0 0 0 0 0 0
          0 0 0 0 0 0
          0 0 0 0 0 0
          0 0 0 0 0 0
          0 0 0 0 0 0
          0 0 0 0 0 0
          0 0 0 0 0 0
          0 0 0 0 0 0
          0 0 0 0 0 0
          0 0 0 0 0 0
          0 0 0 0 0 0
          0 0 0 0 0 0
          0 0 0 0 0 0
          0 0 0 0 0 0
          0 0 0 0 0 0
          0 0 0 0 0 0
          0 0 0 0 0 0
          0 0 0 0 0 0
          0 0 0 0 0 0
          0 0 0 0 0 0
          0 0 0 0 0 0
          0 0 0 0 0 0
          0 0 0 0 0 0
          0 0 0 0 0 0
          0 0 0 0 0 0
          0 0 0 0 0 0
          0 0 0 0 0 0
          0 0 0 0 0 0
          0 0 0 0 0 0
          0 0 0 0 0 0
          0 0 0 0 0 0
          0 0 0 0 0 0
          0 0 0 0 0 0
          0 0 0 0 0 0
          0 0 0 0 0 0
          0 0 0 0 0 0
          0 0 0 0 0 0
          0 0 0 0 0 0
          0 0 0 0 0 0
          0 0 0 0 0 0
          0 0 0 0 0 0
          0 0 0 0 0 0
          0 0 0 0 0 0
          0 0 0 0 0 0
          0 0 0 0 0 0
          0 0 0 0 0 0
          0 0 0 0 0 0
          0 0 0 0 0 0
          0 0 0 0 0 0
          0 0 0 0 0 0
          0 0 0 0 0 0
          0 0 0 0 0 0
          0 0 0 0 0 0
          0 0 0 0 0 0
          0 0 0 0 0 0
          0 0 0 0 0 0
          0 0 0 0 0 0
          0 0 0 0 0 0
          0 0 0 0 0 0
          0 0 0 0 0 0
          0 0 0 0 0 0
          0 0 0 0 0 0
          0 0 0 0 0 0
          0 0 0 0 0 0
          0 0 0 0 0 0
          0 0 0 0 0 0
          0 0 0 0 0 0
          0 0 0 0 0 0
          0 0 0 0 0 0
          0 0 0 0 0 0
          0 0 0 0 0 0
          0 0 0 0 0 0
          0 0 0 0 0 0
          0 0 0 0 0 0
          0 0 0 0 0 0
          0 0 0 0 0 0
          0 0 0 0 0 0
          0 0 0 0 0 0
          0 0 0 0 0 0
          0 0 0 0 0 0
          0 0 0 0 0 0
          0 0 0 0 0 0
          0 0 0 0 0 0
          0 0 0 0 0 0
          0 0 0 0 0 0
          0 0 0 0 0 0
          0 0 0 0 0 0
          0 0 0 0 0 0
          0 0 0 0 0 0
          0 0 0 0 0 0
          0 0 0 0 0 0
          0 0 0 0 0 0
          0 0 0 0 0 0
          0 0 0 0 0 0
          0 0 0 0 0 0
          0 0 0 0 0 0
          0 0 0 0 0 0
          0 0 0 0 0 0
          0 0 0 0 0 0
          0 0 0 0 0 0
          0 0 0 0 0 0
          0 0 0 0 0 0
          0 0 0 0 0 0
          0 0 0 0 0 0
          0 0 0 0 0 0
          0 0 0 0 0 0
          0 0 0 0 0 0
          0 0 0 0 0 0
          0 0 0 0 0 0
          0 0 0 0 0 0
          0 0 0 0 0 0
          0 0 0 0 0 0
          0 0 0 0 0 0
          0 0 0 0 0 0
          0 0 0 0 0 0
          0 0 0 0 0 0
          0 0 0 0 0 0
          0 0 0 0 0 0
          0 0 0 0 0 0
          0 0 0 0 0 0
          0 0 0 0 0 0
          0 0 0 0 0 0
          0 0 0 0 0 0
          0 0 0 0 0 0
          0 0 0 0 0 0
          0 0 0 0 0 0
          0 0 0 0 0 0
          0 0 0 0 0 0
          0 0 0 0 0 0
          0 0 0 0 0 0
          0 0 0 0 0 0
          0 0 0 0 0 0
          0 0 0 0 0 0
          0 0 0 0 0 0
          0 0 0 0 0 0
          0 0 0 0 0 0
          0 0 0 0 0 0
          0 0 0 0 0 0
          0 0 0 0 0 0
          0 0 0 0 0 0
          0 0 0 0 0 0
          0 0 0 0 0 0
          0 0 0 0 0 0
          0 0 0 0 0 0
          0 0 0 0 0 0
          0 0 0 0 0 0
          0 0 0 0 0 0
          0 0 0 0 0 0
          0 0 0 0 0 0
          0
        </DataArray>
        <DataArray type="Float64" Name="gradient_error" format="ascii" RangeMin="4.477579966506398e-11" RangeMax="4.342586959354286e-7">
          1.0883809579967206e-7 7.527507786397998e-8 1.5193713138177133e-10 1.8808290351587854e-10 5.914185814080334e-9 9.619870692114608e-9
          7.320020478628161e-9 1.1642373706880387e-8 4.8714823381829194e-8 9.850928335916927e-8 7.209869113037825e-10 2.3431017072201667e-10
          2.2298083203594734e-9 5.790349798652764e-10 5.676690862669257e-10 3.173339673636948e-9 7.778555915010665e-10 1.668935264903551e-10
          3.5485848660955116e-9 8.675350486744909e-10 2.8576057882292653e-9 8.974151945569262e-10 4.648638465277112e-9 1.5556294924847564e-9
          4.26850941146058e-9 1.2866257918534592e-9 6.832467697740328e-9 5.456405989142038e-9 1.6296795739237739e-9 8.646808701999932e-9
          2.7699208658555805e-9 5.916930439730162e-9 1.7674527466184455e-9 9.341875329904981e-9 8.939819488230854e-9 5.455420098366376e-9
          1.2385117150236572e-8 4.77889362030977e-8 2.9887590576180336e-8 6.033783616308774e-8 1.650141450110247e-8 9.792594547818453e-9
          2.0386551914569387e-8 7.235268652626366e-8 4.464456872077666e-8 2.3623778167039585e-8 1.422200918694264e-8 2.6328044568436145e-8
          2.8645200116080774e-8 1.7319621970124368e-8 2.976139038385863e-8 4.886950975792237e-9 4.436260510782806e-10 3.399994616207004e-9
          9.079039062513717e-10 6.783464400107941e-9 6.410151954530763e-10 4.30118133261145e-9 2.0129188452726763e-10 9.394552840612845e-11
          3.877766360700004e-10 1.739414774443986e-10 2.95921537518915e-10 1.3909611740343642e-10 3.67937967783903e-10 2.6398385574647804e-8
          3.258062762038383e-9 1.63994254544844e-8 1.70260203459918e-9 3.340306934592321e-8 4.303739310881817e-9 2.068030758042368e-8
          1.8175729884486226e-9 8.660611343446301e-10 4.3025759860424674e-10 2.4534471053043064e-9 1.155382860715352e-9 9.046645202967482e-9
          8.794643150507852e-10 5.333558412045532e-9 4.467786557114621e-10 1.1203280658099493e-8 1.1350127772321256e-9 6.607080764708875e-9
          4.1314442369320347e-10 1.9585226372038572e-10 2.561515430736649e-10 2.206367541898894e-10 5.42880642903405e-10 2.602651997467256e-10
          2.5378192832706086e-10 4.011913076622946e-8 5.345817229531893e-9 2.4578389544041753e-8 2.7449795812557627e-9 4.551524289067831e-8
          6.242185281055127e-9 2.6871033704414152e-8 3.102037142924023e-9 1.4480738690935685e-9 7.312287719131032e-10 3.6717334992091582e-9
          1.7028198929382204e-9 1.3017278687458568e-8 1.379960330012395e-9 7.760450409077888e-9 6.819738681211663e-10 1.452285308496663e-8
          1.5807701477697647e-9 8.721437879503712e-9 6.714176733748075e-10 3.248416599712551e-10 3.093677863345257e-10 1.4367394130152998e-10
          7.817989636253142e-10 3.808654115009254e-10 3.567207655871974e-10 4.8549273159354947e-8 6.852529177339777e-9 2.7145514579542332e-8
          3.453873900905852e-9 4.950066994401116e-8 7.06786758751799e-9 2.7013771994323522e-8 4.065446322110791e-9 1.8771415519189586e-9
          4.206377707579865e-9 1.939116623998786e-9 1.5775554058027953e-8 1.7092773093074246e-9 9.457483197878566e-9 8.437377039591625e-10
          1.6368020039799006e-8 1.7537474292346435e-9 9.780537143355656e-9 8.564142998961079e-10 4.19146073990123e-10 3.885812105225794e-10
          1.8253878307429922e-10 8.827557044765411e-10 4.327662990728595e-10 3.998381865365609e-10 3.876153629093184e-9 4.975898929990032e-9
          4.013319120572726e-9 6.1220660204854824e-9 7.298647180809374e-9 5.9286808156004846e-9 8.26439718155241e-9 8.838641166303025e-9
          7.215917688998738e-9 9.043670809390441e-9 2.6819441558779364e-9 3.1034248233265453e-9 1.041769957259598e-9 8.186575950137316e-10
          2.292243921206857e-9 2.975035818586801e-9 1.3805612536119024e-9 3.8243143640420396e-9 1.0132445393480484e-9 3.6780153825062714e-9
          5.253658344347826e-10 4.316161268571338e-10 3.162990267787991e-10 3.1209749934629836e-10 4.9161587913447e-10 6.189193453501239e-10
          2.9445712873606846e-10 4.538744969027643e-10 2.531117074829683e-10 7.653866409555229e-10 4.5516490861150064e-9 1.1979649565171412e-9
          4.3779519302838126e-9 2.0117731182963117e-9 5.149962751145422e-9 1.351198656193693e-9 4.959019869651649e-9 5.370539241537384e-10
          2.5510187569256364e-10 9.034051169546127e-10 4.346869823348026e-10 6.054956207975957e-10 2.8804619108312626e-10 1.016004682877697e-9
          5.51370165914439e-9 1.4526862079663793e-9 5.317108388254406e-9 2.4337592169359343e-9 5.643201136734882e-9 1.4880787239751645e-9
          5.440523628593409e-9 6.515325249072642e-10 3.0935950113147017e-10 1.0918169955428255e-9 5.246084909536457e-10 6.680808579146185e-10
          3.1699307776789823e-10 1.1190245643819866e-9 2.8982623425198523e-9 2.305897180266679e-9 2.2649358496405273e-9 1.1730146090498428e-9
          1.6932639149583219e-9 7.978607582102072e-10 5.255362865095246e-10 2.438489335354913e-10 3.9199590666838783e-10 1.930797213975066e-10
          6.896669586486186e-10 1.1184924074018297e-9 9.243299893435619e-10 6.111618345139542e-10 6.83571719314389e-10 4.908344096165699e-10
          4.198783443382205e-10 5.910410041698289e-10 3.4760087587242826e-10 2.2198892893155447e-10 4.913204174746284e-10 3.2059079846831067e-10
          4.1918637165150465e-10 1.343701215993707e-9 9.991629923034784e-10 1.5951824386508866e-9 1.113695679184832e-9 7.416224159077263e-10
          8.209323387056535e-10 5.361616768138756e-10 1.3262030490847747e-9 8.893090650923104e-10 9.743578251334073e-10 7.065928224291545e-10
          6.075210874638508e-10 8.398432785910097e-10 5.892882695611134e-10 3.8717396702302006e-10 5.040037724090736e-10 3.2367689555832627e-10
          6.999437818399826e-10 4.621222607714395e-10 5.537459050345075e-10 4.1542523909369013e-10 2.86593201876885e-10 2.965940260610314e-10
          1.9824129077643198e-10 1.3651925312506403e-10 1.3762530665210265e-10 1.4356270381501732e-10 9.698207829976068e-11 2.0981082617689097e-10
          1.4120156298343402e-10 1.7306579243300744e-10 6.556657288923844e-11 4.477579966506398e-11 9.51841302351365e-11 6.490200531143471e-11
          7.763968594159914e-11 5.071344786209814e-10 3.514481858619334e-10 3.6036764985346045e-10 2.4539253009763644e-10 6.113610737729168e-10
          4.254611589286167e-10 4.3292471789885203e-10 2.4391724340302045e-10 1.683462001622251e-10 1.6818631578723072e-10 1.1504014389169205e-10
          2.961605410384041e-10 2.0474616678708734e-10 2.0320031698297117e-10 2.541435824793057e-10 1.7103624551330187e-10 2.0947297307047685e-10
          1.40511482453874e-10 3.058601253874132e-10 2.0576118506659316e-10 2.3060900390344772e-10 1.1498868421683688e-10 7.824277087021522e-11
          9.286702398346073e-11 6.324479119359874e-11 1.3826437858082775e-10 9.377777754876285e-11 1.1134122005646374e-10 5.627449245163374e-9
          4.321086793896983e-9 6.496651109773963e-9 4.972979329787976e-9 3.817351112878894e-9 3.746674203763257e-9 2.771766449539819e-9
          5.78032580860084e-9 4.493558483037075e-9 4.361766303614844e-9 3.2383649712786574e-9 2.509448367627492e-9 3.762017304783191e-9
          2.7850508986256314e-9 2.0107542053935195e-9 2.1071979322125543e-9 1.454398678716687e-9 3.2453713526509434e-9 2.35966241012924e-9
          2.4513032966886035e-9 7.435155128645465e-9 5.735439467967658e-9 8.388529322955798e-9 6.642918593969123e-9 5.209193886721808e-9
          5.012227107339622e-9 3.772858649222969e-9 7.524300988762037e-9 5.946750403871293e-9 5.6736267923293385e-9 4.306552819740597e-9
          3.327436226314287e-9 4.8479625474889455e-9 3.7261951305640415e-9 2.727917087920088e-9 2.808972752418917e-9 1.9632674140219207e-9
          4.210566240906816e-9 3.106495348731444e-9 3.1673157169588834e-9 2.9190724508248268e-9 2.2006697805291498e-9 2.066803798585253e-9
          1.5270030424294411e-9 3.4632871424580102e-9 2.6263693194961496e-9 2.4471465385432076e-9 1.6224328231631127e-9 1.1097171070871827e-9
          1.944635057893888e-9 1.3257729918453493e-9 1.4594964485388964e-9 1.0579872205684484e-9 1.0304104011194383e-9 7.32928788248253e-10
          1.7232188793517248e-9 1.2550218581691748e-9 1.2125283040343681e-9 7.584586717037821e-10 5.185354574840682e-10 3.623664388746246e-10
          9.026193175112342e-10 6.145288056459506e-10 4.042886062450291e-9 3.0824443153785557e-9 2.852550319379397e-9 2.1289365214945513e-9
          4.64316089117474e-9 3.5575436016626554e-9 3.272851470287467e-9 2.2915669868227854e-9 1.5582541146819845e-9 2.6546933876795347e-9
          1.8015238088612188e-9 2.0039285160635394e-9 1.465830524520465e-9 1.4057105465600843e-9 1.0080419697522001e-9 2.294573348541406e-9
          1.6852608146212719e-9 1.6050254448299446e-9 1.0574102093778161e-9 7.172518252437528e-10 5.030596243496255e-10 1.2191090602681373e-9
          8.242264034419814e-10 1.8758951067062545e-9 1.3825536641633044e-9 2.1695776222775666e-9 1.5621290005066595e-9 1.0524201572912445e-9
          1.1430014459796364e-9 7.564541899873227e-10 1.8114784148667564e-9 1.2278680954321335e-9 1.3201278250859056e-9 9.924273815899495e-10
          7.450868518368741e-10 1.1440527963858106e-9 8.232104770916164e-10 5.42976701800031e-10 6.08330103916855e-10 3.867117066988606e-10
          9.498092186119317e-10 6.288724414228516e-10 7.068532944031807e-10 2.4725265372523366e-9 1.808005865656288e-9 2.770566138805764e-9
          2.069506903480914e-9 1.4111376000688756e-9 1.502719320519862e-9 1.0066352174302027e-9 2.326351909741321e-9 1.5974387092919721e-9
          1.6835871687923527e-9 1.2922376374460607e-9 9.862961275792401e-10 1.4367392612302431e-9 1.0762742433929657e-9 7.171193514553911e-10
          7.994594113275334e-10 5.075764603615996e-10 1.2004338256310418e-9 8.051870236979738e-10 8.895700452472034e-10 7.271422152717686e-10
          5.080419393339915e-10 5.131932828855657e-10 3.5222953782982223e-10 8.525048332401266e-10 5.979590167828967e-10 5.994391620213953e-10
          3.546590608682829e-10 2.4561557064437917e-10 2.424716011259212e-10 1.6614561202875752e-10 4.1861552515126483e-10 2.9041849452441264e-10
          2.853079810246327e-10 3.6302473411968353e-10 2.44692027380297e-10 2.5337941630998256e-10 1.886863128133044e-10 4.223830821394129e-10
          2.863044378746425e-10 2.957074461002427e-10 1.647712226563178e-10 1.1176410971794487e-10 1.3272944775260642e-10 8.96574707692072e-11
          1.94260065667772e-10 1.3187022861097383e-10 1.407403300753342e-10 9.847342931850464e-10 6.933670832919861e-10 6.895786634558125e-10
          4.772418224694511e-10 1.1204318789644697e-9 7.918883851960155e-10 7.814131646106469e-10 4.867597825952816e-10 3.3828736217304814e-10
          3.306541692817585e-10 2.2753567809412255e-10 5.573973550481616e-10 3.88050092188026e-10 3.772889632540055e-10 4.823292847184282e-10
          3.2865254007513007e-10 3.358454115170312e-10 2.2390942566649636e-10 5.434460174902314e-10 3.718009777674049e-10 3.7671043939775144e-10
          2.25482194742867e-10 1.5342116055794335e-10 1.5091767711211526e-10 1.1429605044876363e-10 2.5635830748509e-10 1.7517416023756356e-10
          1.7271987499809326e-10 9.350541654212757e-9 7.20112058252128e-9 1.0269264373979337e-8 8.408668710099931e-9 6.683828556879259e-9
          6.333537681063947e-9 4.8339431738413765e-9 9.25877046517127e-9 7.398504776291601e-9 6.958009809897322e-9 5.382752894292663e-9
          4.142981130189338e-9 5.87044461753927e-9 4.689478528207777e-9 3.483149329923354e-9 3.518826618939689e-9 2.49357969464785e-9
          5.135004751123984e-9 3.844526280606949e-9 3.845161343791709e-9 1.1128859612012022e-8 8.499694134377752e-9 1.1881133201889676e-8
          1.0053510864099933e-8 8.06657363150835e-9 7.526089758812566e-9 5.821132989053095e-9 1.0754797559482182e-8 8.662479446989678e-9
          8.027506299279983e-9 6.288841975917129e-9 4.8317232591000134e-9 6.652930929463489e-9 5.528771814154748e-9 4.177464621990124e-9
          4.1328993299390725e-9 2.974289459863009e-9 5.872209722294587e-9 4.470093798004021e-9 4.372919483723447e-9 5.246502322643722e-9
          4.0375931060639085e-9 3.6956082640489415e-9 2.781510683741915e-9 5.833322437806133e-9 4.506472806841066e-9 4.106712563764292e-9
          3.0231939534334784e-9 2.048391283943674e-9 3.3844059690462677e-9 2.290387278633098e-9 2.5864407395398233e-9 1.906833755770115e-9
          1.8044534496642103e-9 1.303735936040967e-9 2.869578263893298e-9 2.1230308844729838e-9 1.997122902966738e-9 1.3829663491988089e-9
          9.323268095118237e-10 6.559656221552734e-10 1.5433831151248662e-9 1.037889113119646e-9 6.382996501671804e-9 4.946744097794898e-9
          4.491147570417926e-9 3.4029429966794538e-9 6.874074747782281e-9 5.340369578983227e-9 4.8335306764291855e-9 3.724406034944724e-9
          2.518160887762176e-9 4.028718482800891e-9 2.721995153888091e-9 3.133462425188908e-9 2.325664954914334e-9 2.1758459726997526e-9
          1.582949090646119e-9 3.36753414925699e-9 2.506312491995173e-9 2.3335544322694446e-9 1.6941842229080624e-9 1.136888958586451e-9
          1.8289693589219655e-9 1.2251787164536044e-9 3.058908646576788e-9 2.2232840340933886e-9 3.3232189336117328e-9 2.5760682611447728e-9
          1.7808574550455701e-9 1.8581542920977192e-9 1.2608485330632065e-9 2.8077309973617634e-9 1.9549380110245156e-9 2.020519207008735e-9
          1.5742724860698088e-9 1.2004933320839006e-9 1.701608852617841e-9 1.3196555957592162e-9 8.91339131702822e-10 9.768549799976986e-10
          6.26344341551728e-10 1.4308379001701076e-9 9.728740448457086e-10 1.0587687598587537e-9 3.5537791308694117e-9 2.5772485222768155e-9
          3.732198278555176e-9 3.012395209580961e-9 2.1128079621087058e-9 2.1655677949536876e-9 1.4879996764174029e-9 3.1773388976544415e-9
          2.2483315151296916e-9 2.2883182020590313e-9 1.8168880128186588e-9 1.3885207683383645e-9 1.922040858943493e-9 1.5316542304622904e-9
          1.0471957120629733e-9 1.133519044833077e-9 7.329217099675846e-10 1.6218209148091644e-9 1.1119491410428216e-9 1.2002409000130935e-9
          1.2555570650618063e-9 8.90650834779589e-10 8.724535713760981e-10 6.082691836663148e-10 1.3854978561206679e-9 9.863641029429342e-10
          9.596978473060339e-10 6.284732497545441e-10 4.3824219067422506e-10 4.238762288017503e-10 2.930472639890313e-10 6.976269166483321e-10
          4.871730536511924e-10 4.69003219383389e-10 6.045744588642892e-10 4.1507446839451006e-10 4.176257304426626e-10 2.8221060832796144e-10
          6.629060231750311e-10 4.565629113842107e-10 4.565235169745078e-10 2.860406051172698e-10 1.9607713068031267e-10 1.920879905265019e-10
          1.2954459525359108e-10 3.149852241053702e-10 2.164515829726715e-10 2.108793487628493e-10 1.50541617267759e-9 1.0754759649112576e-9
          1.0399355689628404e-9 7.300430903709735e-10 1.6106455181649851e-9 1.1543908710149967e-9 1.110114383576976e-9 7.622759099401716e-10
          5.329948920147947e-10 5.110973006327849e-10 3.5451677461988956e-10 8.197647063121715e-10 5.738058731134689e-10 5.484307463621792e-10
          7.165094986492674e-10 4.950549406588913e-10 4.923117920579857e-10 3.34545489903719e-10 7.634179291025359e-10 5.289789758883807e-10
          5.237194820727064e-10 3.4240642671221605e-10 2.357613843481535e-10 2.2865063010558422e-10 1.560505009379657e-10 3.665974202017423e-10
          2.527264954944346e-10 2.442443904922005e-10 1.2479560095738745e-8 9.499468230102868e-9 1.2928937012266426e-8 1.1325390004603444e-8
          9.160386660458047e-9 8.44721981644073e-9 6.591455564528775e-9 1.175406514159302e-8 9.535497726455723e-9 8.759930765793615e-9
          6.9695842016131796e-9 5.2801360457767114e-9 7.2029933106779666e-9 6.162869655646678e-9 4.711007474190118e-9 4.555976217412594e-9
          3.3353868167351995e-9 6.3768069397025504e-9 4.889343690148289e-9 4.684345618156661e-9 1.3214363642290342e-8 1.0022732492618428e-8
          1.3324306205200796e-8 1.2023320312017532e-8 9.768584508958787e-9 8.938217901648598e-9 7.013661703949318e-9 1.2120826229096946e-8
          9.84730100630325e-9 8.995575029436013e-9 7.30562602686314e-9 5.476048389190426e-9 7.327080654809217e-9 6.486889147995036e-9
          4.9981231577263515e-9 4.756010423866726e-9 3.525081234351914e-9 6.517015640157266e-9 5.034410284019209e-9 4.7782248395531625e-9
          7.284847593618341e-9 5.669531330106401e-9 5.118794212471981e-9 3.896225418049779e-9 7.595077883962352e-9 5.9179930083054995e-9
          5.333344635404284e-9 4.283233420778496e-9 2.892442693794942e-9 4.475310041031204e-9 3.02103818437289e-9 3.561706823616206e-9