<?xml version="1.0"?>
<VTKFile type="UnstructuredGrid" version="0.1" byte_order="LittleEndian" header_type="UInt32" compressor="vtkZLibDataCompressor">
  <UnstructuredGrid>
    <Piece NumberOfPoints="538" NumberOfCells="318">
      <PointData>
        <DataArray type="Int32" Name="libmesh_node_id" format="ascii" RangeMin="477" RangeMax="3383">
          477 596 600 608 609 1101
          1102 1104 1107 1139 1140 1141
          1142 1157 1158 1159 1160 1161
          1162 1163 1164 1165 1166 1786
          1787 1789 1792 1806 1820 1821
          1823 1826 1836 1838 1840 1844
          1846 1847 1848 1849 1851 1853
          1854 1855 1856 1857 1859 1864
          1866 1870 1871 1872 1873 1874
          1875 1876 1877 1878 1879 1880
          1881 1882 1883 1884 1885 1886
          1887 1888 1889 1891 1893 1894
          1895 1896 1897 1898 1899 1900
          1901 1902 1903 1904 1905 1906
          1907 1908 1909 1910 1911 1912
          1913 1914 1915 1916 1917 1918
          1919 1920 1921 1922 1923 1924
          1925 1926 1927 1928 1929 1930
          1931 1932 1933 1934 1935 1936
          1937 1938 1939 1942 1944 1945
          1947 1958 1960 1962 1964 1972
          1973 1976 1978 1979 1981 1992
          1994 1996 1998 2778 2784 2866
          2867 2869 2872 2882 2884 2886
          2900 2901 2903 2906 2916 2918
          2920 2922 2923 2924 2925 2926
          2927 2928 2929 2930 2931 2932
          2933 2934 2935 2936 2937 2938
          2939 2940 2941 2942 2943 2944
          2945 2946 2947 2948 2949 2950
          2951 2952 2953 2954 2955 2956
          2957 2958 2959 2960 2961 2962
          2963 2964 2965 2966 2967 2968
          2969 2970 2971 2972 2973 2974
          2975 2976 2977 2978 2979 2980
          2981 2982 2983 2984 2985 2986
          2987 2988 2989 2990 2991 2992
          2993 2994 2995 2996 2997 2998
          2999 3000 3001 3002 3003 3004
          3005 3006 3007 3008 3009 3010
          3011 3012 3013 3014 3015 3016
          3017 3018 3019 3020 3021 3022
          3023 3024 3025 3026 3027 3028
          3029 3030 3031 3032 3033 3034
          3035 3036 3037 3038 3039 3040
          3041 3042 3043 3044 3045 3046
          3047 3048 3049 3050 3051 3052
          3053 3054 3055 3056 3057 3058
          3059 3060 3061 3062 3063 3064
          3065 3066 3067 3068 3069 3070
          3071 3072 3073 3074 3075 3076
          3077 3078 3079 3080 3081 3082
          3083 3084 3085 3086 3087 3088
          3089 3090 3091 3092 3093 3094
          3095 3096 3097 3098 3099 3100
          3101 3102 3103 3104 3105 3106
          3107 3108 3109 3110 3111 3112
          3113 3114 3115 3116 3117 3118
          3119 3120 3121 3122 3123 3124
          3125 3126 3127 3128 3129 3130
          3131 3132 3133 3134 3135 3136
          3137 3138 3139 3140 3141 3142
          3143 3144 3145 3146 3147 3148
          3149 3151 3152 3153 3154 3155
          3156 3157 3158 3159 3160 3161
          3172 3173 3174 3175 3177 3212
          3213 3215 3222 3223 3224 3225
          3226 3227 3228 3229 3230 3231
          3242 3243 3244 3245 3246 3247
          3248 3251 3255 3256 3257 3258
          3259 3260 3261 3262 3263 3264
          3265 3276 3277 3278 3279 3280
          3281 3282 3285 3289 3358 3359
          3360 3361 3362 3363 3365 3367
          3369 3370 3371 3372 3373 3374
          3375 3376 3377 3379 3381 3383
          1131 1134 1135 1132 1138 1137
          601 1145 1146 1153 1154 1151
          1156 1179 1177 1180 1178 1122
          1184 1127 1185 1187 1171 1188
          1176 1194 1858 1940 1941 1943
          1946 1168 1865 1959 1961 1963
          1993 1995 1997 3162 3163 3150
          3164 3165 3166 3167 3168 3169
          3171 3232 3233 3236 3238 3239
          3241 3249 3176 3237 3250 3252
          3253 3254 1977 3266 3267 3270
          3272 3273 3275 3283 3284 3286
          3287 3288 1174 3214 3364 3366
          3368 3378 3380 3382
        </DataArray>
        <DataArray type="Float64" Name="bounds" format="ascii" RangeMin="0" RangeMax="0">
          0 0 0 0 0 0
          0 0 0 0 0 0
          0 0 0 0 0 0
          0 0 0 0 0 0
          0 0 0 0 0 0
          0 0 0 0 0 0
          0 0 0 0 0 0
          0 0 0 0 0 0
          0 0 0 0 0 0
          0 0 0 0 0 0
          0 0 0 0 0 0
          0 0 0 0 0 0
          0 0 0 0 0 0
          0 0 0 0 0 0
          0 0 0 0 0 0
          0 0 0 0 0 0
          0 0 0 0 0 0
          0 0 0 0 0 0
          0 0 0 0 0 0
          0 0 0 0 0 0
          0 0 0 0 0 0
          0 0 0 0 0 0
          0 0 0 0 0 0
          0 0 0 0 0 0
          0 0 0 0 0 0
          0 0 0 0 0 0
          0 0 0 0 0 0
          0 0 0 0 0 0
          0 0 0 0 0 0
          0 0 0 0 0 0
          0 0 0 0 0 0
          0 0 0 0 0 0
          0 0 0 0 0 0
          0 0 0 0 0 0
          0 0 0 0 0 0
          0 0 0 0 0 0
          0 0 0 0 0 0
          0 0 0 0 0 0
          0 0 0 0 0 0
          0 0 0 0 0 0
          0 0 0 0 0 0
          0 0 0 0 0 0
          0 0 0 0 0 0
          0 0 0 0 0 0
          0 0 0 0 0 0
          0 0 0 0 0 0
          0 0 0 0 0 0
          0 0 0 0 0 0
          0 0 0 0 0 0
          0 0 0 0 0 0
          0 0 0 0 0 0
          0 0 0 0 0 0
          0 0 0 0 0 0
          0 0 0 0 0 0
          0 0 0 0 0 0
          0 0 0 0 0 0
          0 0 0 0 0 0
          0 0 0 0 0 0
          0 0 0 0 0 0
          0 0 0 0 0 0
          0 0 0 0 0 0
          0 0 0 0 0 0
          0 0 0 0 0 0
          0 0 0 0 0 0
          0 0 0 0 0 0
          0 0 0 0 0 0
          0 0 0 0 0 0
          0 0 0 0 0 0
          0 0 0 0 0 0
          0 0 0 0 0 0
          0 0 0 0 0 0
          0 0 0 0 0 0
          0 0 0 0 0 0
          0 0 0 0 0 0
          0 0 0 0 0 0
          0 0 0 0 0 0
          0 0 0 0 0 0
          0 0 0 0 0 0
          0 0 0 0 0 0
          0 0 0 0 0 0
          0 0 0 0 0 0
          0 0 0 0 0 0
          0 0 0 0 0 0
          0 0 0 0 0 0
          0 0 0 0 0 0
          0 0 0 0 0 0
          0 0 0 0 0 0
          0 0 0 0 0 0
          0 0 0 0 0 0
          0 0 0 0
        </DataArray>
        <DataArray type="Float64" Name="gradient_error" format="ascii" RangeMin="3.6667141108302093e-9" RangeMax="4.327040254210882e-7">
          3.6667141108302093e-9 4.327040254210882e-7 2.239205955084605e-7 7.554790569738828e-9 3.949250041467336e-7 9.864546514775996e-8
          1.3884748996104448e-7 3.3120990417812333e-7 5.762889564826532e-8 2.481867018370941e-7 1.949789592296824e-7 1.695559832494241e-7
          1.9674974948091545e-7 1.1260646385143561e-7 1.5688281076393892e-7 2.4474346118992693e-8 1.7850384430008835e-7 3.134803631913419e-7
          2.821877404589859e-7 5.1902004509343425e-9 1.9604006109412255e-8 2.445050114461574e-8 4.2248401433535253e-7 1.6562459970233016e-7
          1.6167326076853032e-7 1.460783692003675e-7 1.0050239512546761e-7 1.580219958947646e-7 7.221693597921169e-9 1.0195857691718408e-8
          8.203124692492744e-8 7.273672057630999e-9 1.600724479293011e-7 1.7430895806799034e-7 1.4394021852920803e-7 1.5068693835244405e-7
          1.6579197821531808e-7 1.5433664513666537e-7 1.5673693473703e-7 1.231465509567516e-7 8.878408590135616e-8 8.555607231290464e-8
          8.106888299031805e-8 6.770035477031877e-8 1.7233281925917598e-7 1.572293738344781e-7 1.184326625483023e-7 7.521408149528967e-8
          5.568876630375499e-8 1.747626634202209e-7 1.7014739885848614e-7 1.8467296578631263e-7 1.7921853387329977e-7 1.518645688101161e-7
          1.5766987253812895e-7 1.0512632161821257e-7 1.0698546213424559e-7 1.1437176835064879e-7 1.4736042883567197e-7 1.4424776299333533e-7
          1.6311903010360803e-7 1.005622825298705e-7 1.4543177046344464e-7 1.632688823377261e-7 1.6843025683631206e-7 6.997521508571673e-8
          9.716948679910333e-8 7.920977537213715e-8 1.6727995789355878e-7 1.1834729714909584e-7 9.511895118222066e-8 1.6506047253011492e-7
          1.7238499473380642e-7 1.4429828696612776e-7 1.1845515625161976e-7 1.1752629044411026e-7 9.24790418494731e-8 8.859120549482707e-8
          1.798358986497322e-7 1.8701614750544927e-7 1.5023684298642194e-7 8.434415484841187e-9 1.1332322594468458e-8 9.876708275179052e-9
          1.2911286184240369e-8 6.614407693222752e-8 7.080525309756505e-8 4.360848458005337e-9 8.641410925854966e-9 1.0283702445323672e-8
          1.8378005248193573e-8 1.1745878879226321e-8 1.4998711879876724e-8 1.4047095535330756e-8 1.7786112853451843e-8 7.636821928122388e-8
          8.288118439238692e-8 6.218971190521688e-9 1.2232279489452611e-8 1.4677586842308439e-8 2.155364950800155e-8 1.4859318469981978e-7
          1.5731830182144788e-7 1.831260607598008e-7 1.9199176123917743e-7 1.1118088043381856e-7 1.1800375414062862e-7 1.956399764876862e-7
          1.66448849289207e-7 1.755318111049814e-7 2.0037025176892025e-7 2.0756568030086507e-7 1.248362858373528e-7 1.3125989121909582e-7
          2.17524546493624e-7 1.0334722039478891e-7 1.5087624575352715e-7 1.7269295780093874e-7 2.708195933151446e-8 8.576514376679994e-8
          1.592519964136233e-7 1.1491408401290765e-7 8.309776721672664e-8 1.6152518365972015e-7 1.5023614183100068e-7 1.6924920827255974e-8
          2.1355047705628688e-8 5.982623358428247e-8 9.345844921429366e-9 1.794014809304319e-8 2.8336881433944163e-8 1.5298464597415525e-7
          2.1249890059405418e-7 1.3679577583814731e-7 2.350322856558053e-7 1.6311888332198465e-8 2.2019993248303813e-8 1.1859532946816322e-8
          1.2692679607946165e-8 1.5641889685463083e-8 7.893258815715134e-9 1.9817887074577247e-8 2.187782104730434e-8 1.510726447177825e-8
          4.848335552392764e-9 5.787068056040575e-9 7.860721417817716e-9 4.861089364344743e-9 1.167846469468638e-8 1.7409389678846312e-8
          1.0758181346666942e-8 2.397208123615531e-8 2.3982277611170063e-8 2.4458960412652602e-8 2.3992473986184813e-8 1.541576368547626e-8
          1.6436395504196626e-8 1.6695145787189403e-8 1.965911929294852e-8 1.6060787705246503e-8 1.7042106739636457e-8 1.745765254177017e-8
          2.0467241333314533e-8 2.26962639817555e-8 2.341951671931307e-8 2.3531316700530945e-8 2.421799177213746e-8 2.5090950407088286e-8
          2.5524926651672264e-8 2.882924051294177e-8 2.974066237850626e-8 2.958992639949825e-8 3.104653532556146e-8 2.943919042049024e-8
          2.891409746477842e-8 2.876502468312735e-8 2.8615951901476278e-8 1.6912136821415312e-8 1.7968962732727765e-8 2.1906023260265116e-8
          2.165429566285818e-8 2.9430087997627822e-8 2.9411811553693366e-8 3.05457704643433e-8 3.0676515778372124e-8 2.9393535109758912e-8
          3.080726109240096e-8 2.3548865712272015e-8 2.4184118931071918e-8 2.5226913812454e-8 2.5329127313155845e-8 2.6039233189933322e-8
          2.7075708575165385e-8 2.77956636981905e-8 2.820975524303556e-8 2.9479981903551393e-8 3.007087284634725e-8 1.2249432070070385e-8
          1.3050654252639871e-8 1.2733276191663746e-8 1.3518353031733198e-8 1.5976720528062443e-8 1.6408278956979574e-8 7.815287063929141e-9
          8.492748063003356e-9 9.147844629740335e-9 1.070693844438641e-8 1.3286445945108537e-8 1.408316161145249e-8 1.3917763612722936e-8
          1.474686048512243e-8 1.6932425158794228e-8 1.756863590401536e-8 9.108892813291239e-9 9.882498391235509e-9 1.0716379675558888e-8
          1.2064841997339496e-8 2.0347684067853616e-8 2.0941276324488903e-8 2.25938035147917e-8 2.3369424606821304e-8 1.5451633374151917e-8
          1.592768539025365e-8 2.0451397577221385e-8 2.1588631762297118e-8 2.232748139698935e-8 2.419229048480222e-8 2.5093648343469905e-8
          1.6507122217487637e-8 1.72058930786291e-8 2.1585135076995395e-8 5.273785540288865e-9 6.306599928270237e-9 5.731472642876512e-9
          6.859405783391852e-9 8.518920262854365e-9 9.260015495301185e-9 4.0000974073839575e-9 5.292616731616878e-9 5.764682583580027e-9
          7.918285400112273e-9 6.230446959182283e-9 7.461127605100977e-9 6.780319896058246e-9 8.122458390101942e-9 1.0081326274064507e-8
          1.0981205156457903e-8 4.75521247675266e-9 6.2814749109994575e-9 6.8482258575607984e-9 9.43057753772394e-9 1.2033146419909261e-8
          1.2568980275332665e-8 1.9007868429896708e-8 1.9357571322283178e-8 1.1162130245466417e-8 1.1745625699822758e-8 1.8166785658487563e-8
          1.3305824033850387e-8 1.4207937553441475e-8 1.9933280249587106e-8 2.0616246606159465e-8 1.255667538518227e-8 1.3568101336515167e-8
          1.8918685042647203e-8 1.4657993341423874e-8 1.5517309399389543e-8 1.548346206910968e-8 1.636218915006094e-8 1.8353055698771116e-8
          1.9281913527443286e-8 1.0755213432754484e-8 1.1646175420772459e-8 1.2680608665597177e-8 1.388114771170988e-8 1.642207073528633e-8
          1.732775965268873e-8 1.7625292081013256e-8 1.856433219579422e-8 2.0369827138307812e-8 2.1669855193294177e-8 1.2843753339107339e-8
          1.3846593285863972e-8 1.5156465706600946e-8 1.6298175156587597e-8 2.3201864280080693e-8 2.4210783871423378e-8 2.6074242619974377e-8
          2.709865691897238e-8 1.8086207003851238e-8 1.914664490400881e-8 2.307275170234636e-8 2.5339972971230392e-8 2.662865008867541e-8
          2.817374023593629e-8 2.9420962101337642e-8 2.037346090432082e-8 2.179447096743146e-8 2.5110881550855715e-8 7.3902485854472164e-9
          8.851179022609695e-9 8.069111937304577e-9 9.66204842353521e-9 1.1960828657015581e-8 1.3046941109951622e-8 5.673920166817901e-9
          7.475663269725789e-9 8.178627352256743e-9 1.1211177625295445e-8 8.831220274490377e-9 1.0574600288229237e-8 9.699981997722955e-9
          1.1612836380722892e-8 1.4275986645583191e-8 1.5672220533993734e-8 6.840857533544094e-9 8.976992155852635e-9 9.894074346107125e-9
          1.3375526184386855e-8 1.5271321645121327e-8 1.6485169307077686e-8 2.1449042073480574e-8 2.2470488022925697e-8 1.4734724652768251e-8
          1.6022907973819113e-8 2.0465367364320735e-8 1.785749002619106e-8 1.941591469173573e-8 2.3705646595247146e-8 2.5171723654058794e-8
          1.743824894316571e-8 1.9020205722407977e-8 2.2883274676973383e-8 2.457774097413381e-8 2.566483822348915e-8 2.512048705982064e-8
          2.664752034256979e-8 2.7675500969462423e-8 2.7620964273105523e-8 2.444779049749636e-8 2.535763126655652e-8 2.5247710765560705e-8
          2.6605388372516842e-8 2.4317840020858906e-8 2.505042430962389e-8 2.537493447130077e-8 2.6258098128980973e-8 2.7198082572741596e-8
          2.779043952937918e-8 2.9081733611277042e-8 2.5868675915392166e-8 2.6720664176020766e-8 2.795991478565284e-8 2.8757456232862404e-8
          2.993352369766675e-8 3.019116934483202e-8 3.124768180243982e-8 3.269645528141887e-8 3.3162728408486625e-8 2.820938306265737e-8
          2.9350707777423368e-8 3.045377741433726e-8 3.189188081301332e-8 2.7661309892452344e-8 2.8767891857179983e-8 3.071638548384249e-8
          3.06665090269837e-8 3.214490743130649e-8 3.340271192665696e-8 3.495944663370221e-8 3.008533625152759e-8 3.159335958119412e-8
          3.364269544482729e-8 3.2672448291978114e-8 3.2503645574320506e-8 3.411137784987843e-8 3.2334842856662905e-8 3.611104855042867e-8
          3.581658769538323e-8 3.55221268403378e-8 3.17595064775687e-8 3.193682736125234e-8 3.3044822835941996e-8 3.3280683622131916e-8
          3.2114148244935974e-8 3.3516544408321836e-8 2.5689202244502225e-8 2.646828780482576e-8 2.7869747235862623e-8 2.7810023163640654e-8
          3.094931660963435e-8 3.26624761233041e-8 3.296331045864533e-8 3.4659851725142004e-8 3.6220006573474576e-8 3.3066607372064766e-8
          3.38825739406861e-8 3.2119470107715296e-8 1.915010178069441e-8 2.0091480918594706e-8 2.0965622364388785e-8 2.187926283483752e-8
          2.3175592572567717e-8 2.4926850594544966e-8 1.5391424686122927e-8 1.6634182857567616e-8 1.8318676408219915e-8 1.945895617973201e-8
          2.8139754508218948e-8 2.983385228693556e-8 3.0961183927797457e-8 3.378635122155699e-8 2.3451971811519964e-8 2.5334307611041917e-8
          2.7985996709891476e-8 3.576823992175645e-8 3.3540457762875835e-8 1.0698009346428866e-8 1.2804563944466776e-8 1.1850168184355244e-8
          1.41839953463786e-8 1.7258889097465008e-8 1.9074150968633756e-8 8.38153305615553e-9 1.0957157549520376e-8 1.2199658468652583e-8
          1.618274305174498e-8 2.1199288439681574e-8 2.327984463756967e-8 2.688185873782309e-8 2.8885938375628286e-8 2.0824825663126755e-8
          2.289630250362252e-8 2.6264251109283757e-8 3.122640179686972e-8 3.068836133802609e-8 3.496051242920661e-8 3.377578457387713e-8
          3.425126441025295e-8 3.6242147953481654e-8 3.627048327600792e-8 3.5773634270503726e-8 3.4343027097803345e-8 3.7742635825612035e-8
          3.8098366546234355e-8 3.375734659531634e-8 3.553481860635992e-8 3.654289294192431e-8 3.8226970307737055e-8 3.326342878037972e-8
          3.51336240256716e-8 3.68153026078407e-8 3.7528834820671626e-8 4.006058914674231e-8 3.723709259044053e-8 4.049102928890732e-8
          1.722976544800581e-7 1.4481748766342557e-7 1.1587458953985355e-7 1.4163807214866295e-7 8.693169141628155e-8 1.1097848981726784e-7
          1.559042208345019e-7 1.1076110780219779e-7 8.659570025346454e-8 1.9036176784774945e-7 1.3707042633632172e-7 6.243029270473132e-8
          1.1947513252568348e-7 1.4586511160420173e-7 1.8335630083402829e-7 2.225760648053272e-7 2.678895310946206e-7 3.037313597716106e-7
          3.5242276135521305e-7 3.9144702158470226e-7 2.992870180064527e-7 1.059547104146757e-7 2.3450840553691548e-7 1.6935440769728267e-7
          3.4455422469774415e-7 2.327541049798896e-7 1.5483168501519618e-7 1.0475150028363316e-7 1.553052150424835e-7 1.7532701360878787e-7
          9.335222021435178e-8 1.380170763086869e-7 6.820493686055128e-8 1.1020963869906724e-7 7.590592100486624e-8 1.312701112924084e-7
          1.264462084982335e-7 2.1319460040600653e-7 1.406317190422329e-7 3.4470517232382324e-8 3.474853308890395e-8 3.7523541905972625e-8
          3.608407499529505e-8 3.636126761843688e-8 3.5026548945425566e-8 3.663846024157871e-8 2.8744026858183425e-8 2.9507679801947933e-8
          3.102267785613887e-8 2.306371526378693e-8 2.3961286835895507e-8 2.700652731724736e-8 1.8685856408921017e-8 2.0257287833654614e-8
          2.354851705082583e-8 3.174321731339972e-8 3.693335690530251e-8 2.9446404248992112e-8 3.403263421691325e-8 3.7853485102262685e-8
          2.7481162632012706e-8 3.001908286625795e-8 3.586986010724631e-8 1.3185689441082858e-8 1.5792530075551336e-8 2.1177003812673614e-8
          1.0469028789866672e-8 1.3658177034113265e-8 2.0001496899238643e-8 2.5705180007232955e-8 2.846617661747708e-8 3.386669031946118e-8
          2.5274617652097936e-8 2.802609903096226e-8 3.3366677293822855e-8 3.528267552829585e-8 3.7336605677892943e-8 3.5437514918417833e-8
          3.966469721436901e-8 3.974649105127723e-8 4.20233023555025e-8 3.955412350130648e-8
        </DataArray>
        <DataArray type="Float64" Name="gradient_matprop_error" format="ascii" RangeMin="0" RangeMax="0">
          0 0 0 0 0 0
          0 0 0 0 0 0
          0 0 0 0 0 0
          0 0 0 0 0 0
          0 0 0 0 0 0
          0 0 0 0 0 0
          0 0 0 0 0 0
          0 0 0 0 0 0
          0 0 0 0 0 0
          0 0 0 0 0 0
          0 0 0 0 0 0
          0 0 0 0 0 0
          0 0 0 0 0 0
          0 0 0 0 0 0
          0 0 0 0 0 0
          0 0 0 0 0 0
          0 0 0 0 0 0
          0 0 0 0 0 0
          0 0 0 0 0 0
          0 0 0 0 0 0
          0 0 0 0 0 0
          0 0 0 0 0 0
          0 0 0 0 0 0
          0 0 0 0 0 0
          0 0 0 0 0 0
          0 0 0 0 0 0
          0 0 0 0 0 0
          0 0 0 0 0 0
          0 0 0 0 0 0
          0 0 0 0 0 0
          0 0 0 0 0 0
          0 0 0 0 0 0
          0 0 0 0 0 0
          0 0 0 0 0 0
          0 0 0 0 0 0
          0 0 0 0 0 0
          0 0 0 0 0 0
          0 0 0 0 0 0
          0 0 0 0 0 0
          0 0 0 0 0 0
          0 0 0 0 0 0
          0 0 0 0 0 0
          0 0 0 0 0 0
          0 0 0 0 0 0
          0 0 0 0 0 0
          0 0 0 0 0 0
          0 0 0 0 0 0
          0 0 0 0 0 0
          0 0 0 0 0 0
          0 0 0 0 0 0
          0 0 0 0 0 0
          0 0 0 0 0 0
          0 0 0 0 0 0
          0 0 0 0 0 0
          0 0 0 0 0 0
          0 0 0 0 0 0
          0 0 0 0 0 0
          0 0 0 0 0 0
          0 0 0 0 0 0
          0 0 0 0 0 0
          0 0 0 0 0 0
          0 0 0 0 0 0
          0 0 0 0 0 0
          0 0 0 0 0 0
          0 0 0 0 0 0
          0 0 0 0 0 0
          0 0 0 0 0 0
          0 0 0 0 0 0
          0 0 0 0 0 0
          0 0 0 0 0 0
          0 0 0 0 0 0
          0 0 0 0 0 0
          0 0 0 0 0 0
          0 0 0 0 0 0
          0 0 0 0 0 0
          0 0 0 0 0 0
          0 0 0 0 0 0
          0 0 0 0 0 0
          0 0 0 0 0 0
          0 0 0 0 0 0
          0 0 0 0 0 0
          0 0 0 0 0 0
          0 0 0 0 0 0
          0 0 0 0 0 0
          0 0 0 0 0 0
          0 0 0 0 0 0
          0 0 0 0 0 0
          0 0 0 0 0 0
          0 0 0 0 0 0
          0 0 0 0
        </DataArray>
        <DataArray type="Float64" Name="initial_marker" format="ascii" RangeMin="0" RangeMax="2">
          2 2 2 2 2 2
          2 1.5 2 2 2 2
          1.3333333333333333 2 2 2 2 1.5
          1.5 2 2 2 2 2
          2 2 2 2 2 2
          2 2 2 2 2 2
          2 2 2 2 2 2
          2 2 2 2 2 2
          2 2 2 2 2 2
          2 2 2 2 2 2
          2 2 2 2 2 2
          2 2 2 2 2 2
          2 2 2 2 2 2
          2 2 2 2 2 2
          2 2 2 2 2 2
          2 2 2 2 2 2
          2 2 2 2 2 2
          2 2 2 2 2 2
          2 2 2 2 2 2
          2 2 2 2 2 2
          2 2 2 2 2 2
          2 2 2 2 2 2
          2 2 2 2 2 2
          2 2 2 2 2 2
          2 2 2 2 2 2
          2 2 2 2 2 2
          2 2 2 2 2 2
          2 2 2 2 2 2
          2 2 2 2 2 2
          2 2 2 2 2 2
          2 2 2 2 2 2
          2 2 2 2 2 2
          2 2 2 2 2 2
          2 2 2 2 2 2
          2 2 2 2 2 2
          2 2 2 2 2 2
          2 2 2 2 2 2
          2 2 2 2 2 2
          2 2 2 2 2 2
          2 2 2 2 2 2
          2 2 2 2 2 2
          2 2 2 2 2 2
          2 2 2 2 2 2
          2 2 2 2 2 2
          2 2 2 2 2 2
          2 2 2 2 2 2
          2 2 2 2 2 2
          2 2 2 2 2 2
          2 2 2 2 2 2
          2 2 2 2 2 2
          2 2 2 2 2 2
          2 2 2 2 2 2
          2 2 2 2 2 2
          2 2 2 2 2 2
          2 2 2 2 2 2
          2 2 2 2 2 2
          2 2 2 2 2 2
          2 2 2 2 2 2
          2 2 2 2 2 2
          2 2 2 2 2 2
          2 2 2 2 2 2
          2 2 2 2 2 2
          2 2 2 2 2 2
          2 2 2 2 2 2
          2 2 2 2 2 2
          2 2 2 2 2 2
          2 2 2 2 2 2
          2 2 2 2 2 2
          2 2 2 2 2 2
          2 2 2 2 2 2
          2 2 2 2 2 2
          2 2 2 2 2 2
          2 2 2 2 2 2
          2 2 2 2 2 2
          2 2 2 2 2 2
          2 2 2 2 2 2
          1 1 1 1 1 1
          1 1 1 2 2 1
          1.3333333333333333 0 0 0.5 0.5 0.5
          1 1 1 0 1.5 0.5
          2 1 2 2 2 2
          2 2 2 2 2 2
          2 2 2 2 2 2
          2 2 2 2 2 2
          2 2 2 2 2 2
          2 2 2 2 2 2
          2 2 2 2 2 2
          2 2 2 2 2 2
          2 2 2 2 2 2
          2 2 2 2
        </DataArray>
        <DataArray type="Float64" Name="markers_norefine" format="ascii" RangeMin="0" RangeMax="2">
          2 0 0 2 0 1
          0 0 1.5 0 0 0
          0 1 0 2 0 0
          0 2 2 2 0 0
          0 0 0.75 0 2 2
          1 2 0 0 0 0
          0 0 0 0 0 0
          0 0 0 0 0 0
          0 0 0 0 0 0
          0 1 1 1 0 0
          0 0 0 0 0 1.5
          1 1.25 0 0 0 0
          0 0 0 0 0 0
          0 0 0 2 2 2
          2 1.25 1.5 2 2 2
          2 2 2 2 2 1.5
          1.5 2 2 2 2 0
          0 0 0 0 0 0
          0 0 0 0 0 0
          0 0 0 0 2 1.5
          0.5 0 0 0 0 2
          2 1.75 2 2 2 0
          0 0 0 2 0.5 2
          2 1.75 2 1.25 1 2
          2 2 2 2 2 1.6666666666666667
          2 0 0.5 0 1 2
          2 2 2 2 2 2
          2 1 1 0 1 1
          0 0 0 0 0 0
          1 0.5 0 2 2 1.6666666666666667
          2 1 0.5 1 0.75 0
          0.5 2 1.5 1.75 1.3333333333333333 1
          1 0 1 1 0 2
          2 2 2 2 2 2
          2 2 2 2 2 2
          2 2 2 2 2 2
          2 1.5 1.5 1 1 2
          2 1.3333333333333333 1.5 1.5 1 1
          2 2 2 2 2 2
          2 2 2 2 2 2
          2 2 2 2 2 2
          2 2 2 2 2 2
          2 1.5 1.75 2 2 2
          2 2 2 2 2 2
          2 2 2 2 2 2
          2 2 2 2 2 2
          2 2 2 2 2 2
          2 2 2 1.5 1.5 1
          1 2 2 2 1.5 1.5
          1 1 2 2 2 2
          2 2 2 2 2 2
          2 2 2 2 2 2
          2 2 2 2 2 2
          2 2 2 2 2 2
          2 2 2 2 2 2
          2 2 2 0 0.5 0
          1 1 0 0.5 0.75 0
          0 1 1 0 1 1
          0 0 1 1 0 1
          1 0 1 1 0 1
          1 0 0 1 1 0
          1 1 0 0 1 1
          0 0 0 0 0 0
          0 0 1 1 1 1
          1 1 2 2 2 2
          1.5 2 1 2 1 0
          0 0 2 2 2 2
          2 2 2 2 2 2
          1.75 2 1.5 1.6666666666666667 2 2
          2 1.5 2 2 2 2
          2 2 2 2 2 2
          2 2 2 2 2 2
          2 2 2 2 0.5 0
          1 1 0 0.5 0 1
          0 1 1 0 0 1
          1 0 1 0 1 0
          0 0 0 0 0 0
          0 0 0 0 0 0
          0 0 0 0 0 0
          0 0 0 0 0 0
          0 0 0 0 0 0
          1.5 0.5 0 0 0 0
          0 0 0 1 1 0
          1 1 1 1 2 2
          2 2 2 2 2 2
          2 2 2 2 2 1.5
          2 2 2 2 2 2
          2 2 2 2 2 2
          2 2 2 0 0.5 0
          1 1 0 1
        </DataArray>
        <DataArray type="Float64" Name="markers_mustrefine" format="ascii" RangeMin="0" RangeMax="2">
          2 2 2 2 2 2
          2 1.5 2 2 2 2
          1.3333333333333333 2 2 2 2 1.5
          1.5 2 2 2 2 2
          2 2 2 2 2 2
          2 2 2 2 2 2
          2 2 2 2 2 2
          2 2 2 2 2 2
          2 2 2 2 2 2
          2 2 2 2 2 2
          2 2 2 2 2 2
          2 2 2 2 2 2
          2 2 2 2 2 2
          2 2 2 2 2 2
          2 2 2 2 2 2
          2 2 2 2 2 2
          2 2 2 2 2 2
          2 2 2 2 2 2
          2 2 2 2 2 2
          2 2 2 2 2 2
          2 2 2 2 2 2
          2 2 2 2 2 2
          2 2 2 2 2 2
          2 2 2 2 2 2
          2 2 2 2 2 2
          2 2 2 2 2 2
          2 2 2 2 2 2
          2 2 2 2 2 2
          2 2 2 2 2 2
          2 2 2 2 2 2
          2 2 2 2 2 2
          2 2 2 2 2 2
          2 2 2 2 2 2
          2 2 2 2 2 2
          2 2 2 2 2 2
          2 2 2 2 2 2
          2 2 2 2 2 2
          2 2 2 2 2 2
          2 2 2 2 2 2
          2 2 2 2 2 2
          2 2 2 2 2 2
          2 2 2 2 2 2
          2 2 2 2 2 2
          2 2 2 2 2 2
          2 2 2 2 2 2
          2 2 2 2 2 2
          2 2 2 2 2 2
          2 2 2 2 2 2
          2 2 2 2 2 2
          2 2 2 2 2 2
          2 2 2 2 2 2
          2 2 2 2 2 2
          2 2 2 2 2 2
          2 2 2 2 2 2
          2 2 2 2 2 2
          2 2 2 2 2 2
          2 2 2 2 2 2
          2 2 2 2 2 2
          2 2 2 2 2 2
          2 2 2 2 2 2
          2 2 2 2 2 2
          2 2 2 2 2 2
          2 2 2 2 2 2
          2 2 2 2 2 2
          2 2 2 2 2 2
          2 2 2 2 2 2
          2 2 2 2 2 2
          2 2 2 2 2 2
          2 2 2 2 2 2
          2 2 2 2 2 2
          2 2 2 2 2 2
          2 2 2 2 2 2
          2 2 2 2 2 2
          2 2 2 2 2 2
          2 2 2 2 2 2
          2 2 2 2 2 2
          1 1 1 1 1 1
          1 1 1 2 2 1
          1.3333333333333333 0 0 0.5 0.5 0.5
          1 1 1 0 1.5 0.5
          2 1 2 2 2 2
          2 2 2 2 2 2
          2 2 2 2 2 2
          2 2 2 2 2 2
          2 2 2 2 2 2
          2 2 2 2 2 2
          2 2 2 2 2 2
          2 2 2 2 2 2
          2 2 2 2 2 2
          2 2 2 2
        </DataArray>
        <DataArray type="Float64" Name="gradient_marker" format="ascii" RangeMin="0" RangeMax="1">
          0 1 1 0 1 0.5
          0.75 0.75 0.25 1 0.75 0.75
          0.6666666666666666 0.5 0.75 0 0.75 0.75
          0.75 0 0 0 1 1
          1 0.75 0.5 0.75 0 0
          0.375 0 0.875 1 0.75 1
          1 1 1 0.5 0 0
          0 0 1 1 0.5 0
          0 1 1 1 1 0.75
          0.75 0.5 0.5 0.5 0.75 0.75
          0.875 0.5 0.75 0.75 0.75 0.25
          0.375 0.25 0.75 0.25 0 0.75
          0.75 0.5 0.25 0.25 0 0
          0.75 0.75 0.5 0 0 0
          0 0.25 0.25 0 0 0
          0 0 0 0 0 0.25
          0.25 0 0 0 0 0.75
          0.75 1 1 0.5 0.5 1
          0.75 0.75 1 1 0.5 0.5
          1 0.5 0.75 0.75 0 0.25
          0.625 0.25 0 0.625 0.5 0
          0 0.125 0 0 0 0.625
          1 0.5 1 0 0 0
          0 0 0 0 0 0
          0 0 0 0 0 0
          0 0 0 0 0 0
          0 0 0 0 0 0
          0 0 0 0 0 0
          0 0 0 0 0 0
          0 0 0 0 0 0
          0 0 0 0 0 0
          0 0 0 0 0 0
          0 0 0 0 0 0
          0 0 0 0 0 0
          0 0 0 0 0 0
          0 0 0 0 0 0
          0 0 0 0 0 0
          0 0 0 0 0 0
          0 0 0 0 0 0
          0 0 0 0 0 0
          0 0 0 0 0 0
          0 0 0 0 0 0
          0 0 0 0 0 0
          0 0 0 0 0 0
          0 0 0 0 0 0
          0 0 0 0 0 0
          0 0 0 0 0 0
          0 0 0 0 0 0
          0 0 0 0 0 0
          0 0 0 0 0 0
          0 0 0 0 0 0
          0 0 0 0 0 0
          0 0 0 0 0 0
          0 0 0 0 0 0
          0 0 0 0 0 0
          0 0 0 0 0 0
          0 0 0 0 0 0
          0 0 0 0 0 0
          0 0 0 0 0 0
          0 0 0 0 0 0
          0 0 0 0 0 0
          0 0 0 0 0 0
          0 0 0 0 0 0
          0 0 0 0 0 0
          0 0 0 0 0 0
          0 0 0 0 0 0
          0 0 0 0 0 0
          0 0 0 0 0 0
          0 0 0 0 0 0
          0 0 0 0 0 0
          0 0 0 0 0 0
          0 0 0 0 0 0
          0 0 0 0 0 0
          0 0 0 0 0 0
          0 0 0 0 0 0
          0 0 0 0 0 0
          0.5 0.5 0.5 0.5 0.5 0.5
          0.75 0.5 0.375 1 0.625 0.25
          0.5 0.5 0.5 0.5 0.5 0.5
          0.5 0.5 0.5 0.5 0.75 0.5
          1 0.5 1 0.5 0.75 0.75
          0.25 0.5 0 0.25 0 0.5
          0.5 1 0.5 0 0 0
          0 0 0 0 0 0
          0 0 0 0 0 0
          0 0 0 0 0 0
          0 0 0 0 0 0
          0 0 0 0 0 0
          0 0 0 0 0 0
          0 0 0 0
        </DataArray>
        <DataArray type="Float64" Name="gradient_matprop_marker" format="ascii" RangeMin="0" RangeMax="0">
          0 0 0 0 0 0
          0 0 0 0 0 0
          0 0 0 0 0 0
          0 0 0 0 0 0
          0 0 0 0 0 0
          0 0 0 0 0 0
          0 0 0 0 0 0
          0 0 0 0 0 0