<?xml version="1.0"?>
<VTKFile type="UnstructuredGrid" version="0.1" byte_order="LittleEndian" header_type="UInt32" compressor="vtkZLibDataCompressor">
  <UnstructuredGrid>
    <Piece NumberOfPoints="502" NumberOfCells="301">
      <PointData>
        <DataArray type="Int32" Name="libmesh_node_id" format="ascii" RangeMin="386" RangeMax="3767">
          386 603 604 610 1145 1146
          1148 1149 1151 1152 1153 1154
          1155 1156 1167 1168 1169 1170
          1171 1172 1173 1174 1175 1176
          1187 1188 1189 1190 1194 1195
          1199 1200 1205 1207 1208 1210
          1225 1226 1229 1231 1232 1234
          1245 1246 1252 1858 1860 1861
          1862 1863 1865 1867 1868 1869
          1940 1941 1943 1946 1948 1949
          1950 1951 1952 1953 1954 1955
          1956 1957 1959 1961 1963 1965
          1966 1967 1968 1969 1970 1971
          1974 1975 1977 1980 1982 1983
          1984 1985 1986 1987 1988 1989
          1990 1991 1993 1995 1997 1999
          2000 2001 2002 2003 2004 2005
          2006 2007 2008 2009 2018 2019
          2020 2075 2076 2077 2078 2079
          2080 2081 2082 2083 2084 2094
          2095 2096 2097 2098 2099 2100
          2101 2106 2108 2109 2110 2111
          2112 2113 2114 2115 2116 2117
          2118 2123 2128 2129 2130 2131
          2132 2133 2134 2135 2136 2138
          2140 2142 3150 3162 3163 3164
          3165 3166 3167 3168 3169 3170
          3171 3176 3178 3179 3180 3181
          3182 3183 3184 3185 3186 3187
          3188 3189 3190 3191 3192 3193
          3194 3195 3196 3197 3198 3199
          3200 3201 3202 3203 3204 3205
          3206 3207 3208 3209 3210 3211
          3214 3216 3217 3218 3219 3220
          3221 3232 3233 3234 3235 3236
          3237 3238 3239 3240 3241 3249
          3250 3252 3253 3254 3266 3267
          3268 3269 3270 3271 3272 3273
          3274 3275 3283 3284 3286 3287
          3288 3290 3291 3292 3293 3294
          3295 3296 3297 3298 3299 3300
          3301 3302 3303 3304 3305 3306
          3307 3308 3309 3310 3311 3312
          3313 3314 3315 3316 3317 3318
          3319 3320 3321 3322 3323 3324
          3325 3326 3327 3328 3329 3330
          3331 3332 3333 3334 3335 3336
          3337 3338 3339 3340 3341 3342
          3343 3344 3345 3346 3347 3348
          3349 3350 3351 3352 3353 3354
          3355 3356 3357 3364 3366 3368
          3378 3380 3382 3384 3385 3386
          3387 3388 3389 3390 3391 3392
          3393 3394 3395 3396 3397 3398
          3399 3400 3401 3402 3403 3404
          3405 3406 3407 3408 3409 3410
          3411 3527 3528 3529 3530 3531
          3532 3533 3534 3535 3536 3537
          3538 3539 3540 3541 3542 3543
          3544 3545 3546 3547 3548 3549
          3550 3551 3552 3553 3554 3555
          3556 3557 3558 3559 3560 3575
          3576 3578 3589 3591 3595 3596
          3597 3598 3599 3600 3601 3602
          3603 3604 3605 3606 3607 3608
          3609 3610 3611 3612 3613 3614
          3615 3616 3617 3618 3619 3620
          3621 3622 3623 3624 3625 3626
          3627 3628 3629 3630 3631 3632
          3633 3634 3635 3636 3637 3638
          3639 3640 3641 3642 3643 3644
          3645 3646 3647 3648 3649 3650
          3651 3652 3653 3654 3655 3656
          3657 3658 3659 3660 3661 3662
          3663 3664 3665 3666 3667 3670
          3672 3673 3675 3686 3688 3690
          3692 3700 3701 3704 3706 3707
          3709 3720 3722 3723 3724 3726
          3734 3735 3736 3737 3738 3739
          3740 3741 3742 3743 3744 3745
          3746 3747 3748 3749 3750 3751
          3752 3753 3754 3755 3756 3757
          3758 3759 3760 3761 3762 3763
          3764 3765 3766 3767
        </DataArray>
        <DataArray type="Float64" Name="bounds" format="ascii" RangeMin="0" RangeMax="0">
          0 0 0 0 0 0
          0 0 0 0 0 0
          0 0 0 0 0 0
          0 0 0 0 0 0
          0 0 0 0 0 0
          0 0 0 0 0 0
          0 0 0 0 0 0
          0 0 0 0 0 0
          0 0 0 0 0 0
          0 0 0 0 0 0
          0 0 0 0 0 0
          0 0 0 0 0 0
          0 0 0 0 0 0
          0 0 0 0 0 0
          0 0 0 0 0 0
          0 0 0 0 0 0
          0 0 0 0 0 0
          0 0 0 0 0 0
          0 0 0 0 0 0
          0 0 0 0 0 0
          0 0 0 0 0 0
          0 0 0 0 0 0
          0 0 0 0 0 0
          0 0 0 0 0 0
          0 0 0 0 0 0
          0 0 0 0 0 0
          0 0 0 0 0 0
          0 0 0 0 0 0
          0 0 0 0 0 0
          0 0 0 0 0 0
          0 0 0 0 0 0
          0 0 0 0 0 0
          0 0 0 0 0 0
          0 0 0 0 0 0
          0 0 0 0 0 0
          0 0 0 0 0 0
          0 0 0 0 0 0
          0 0 0 0 0 0
          0 0 0 0 0 0
          0 0 0 0 0 0
          0 0 0 0 0 0
          0 0 0 0 0 0
          0 0 0 0 0 0
          0 0 0 0 0 0
          0 0 0 0 0 0
          0 0 0 0 0 0
          0 0 0 0 0 0
          0 0 0 0 0 0
          0 0 0 0 0 0
          0 0 0 0 0 0
          0 0 0 0 0 0
          0 0 0 0 0 0
          0 0 0 0 0 0
          0 0 0 0 0 0
          0 0 0 0 0 0
          0 0 0 0 0 0
          0 0 0 0 0 0
          0 0 0 0 0 0
          0 0 0 0 0 0
          0 0 0 0 0 0
          0 0 0 0 0 0
          0 0 0 0 0 0
          0 0 0 0 0 0
          0 0 0 0 0 0
          0 0 0 0 0 0
          0 0 0 0 0 0
          0 0 0 0 0 0
          0 0 0 0 0 0
          0 0 0 0 0 0
          0 0 0 0 0 0
          0 0 0 0 0 0
          0 0 0 0 0 0
          0 0 0 0 0 0
          0 0 0 0 0 0
          0 0 0 0 0 0
          0 0 0 0 0 0
          0 0 0 0 0 0
          0 0 0 0 0 0
          0 0 0 0 0 0
          0 0 0 0 0 0
          0 0 0 0 0 0
          0 0 0 0 0 0
          0 0 0 0 0 0
          0 0 0 0
        </DataArray>
        <DataArray type="Float64" Name="gradient_error" format="ascii" RangeMin="1.0469028789866672e-8" RangeMax="3.4455422469774415e-7">
          1.598216188131895e-8 1.4794444312181447e-7 7.192893692753009e-8 2.692403375662779e-7 1.1076110780219779e-7 8.659570025346454e-8
          7.402138312406759e-8 5.6980749611080004e-8 6.243029270473132e-8 3.994011609809242e-8 1.9036176784774945e-7 1.3707042633632172e-7
          9.956392590826171e-8 1.1947513252568348e-7 3.076121154681416e-8 1.380170763086869e-7 4.271307958107722e-8 1.486547569203961e-7
          2.3450840553691548e-7 1.7200027376591714e-7 1.1759559744736612e-8 3.3366677293822855e-8 4.780774899787527e-8 3.4455422469774415e-7
          1.059547104146757e-7 1.6935440769728267e-7 6.833142350688032e-8 1.1400277037539442e-7 2.327541049798896e-7 1.596741172439085e-7
          4.226525723418319e-8 3.2150413117046635e-8 2.203556899991008e-8 1.0046784880251409e-7 6.216274023600001e-8 4.399126540934528e-8
          5.86177080744154e-8 2.1561134047183039e-7 1.0594590230274342e-7 1.693016384716398e-8 6.564211578708433e-8 1.7494716065690265e-7
          3.80477752486652e-8 6.569567265365915e-8 9.33435700586531e-8 1.5483168501519618e-7 1.6713381326446868e-7 1.4867922883421425e-7
          1.3802211992275714e-7 1.0474901454077777e-7 6.820493686055128e-8 6.018421315381799e-8 5.127119665330741e-8 4.109504163004025e-8
          1.0475150028363316e-7 1.553052150424835e-7 1.7532701360878787e-7 9.335222021435178e-8 1.0406891694759192e-7 1.5778011354478418e-7
          1.0074820985252042e-7 1.5716605589459332e-7 1.7561601933232736e-7 1.7232493319097393e-7 3.59569500395022e-8 1.0185196158421594e-7
          1.1071200617713338e-7 1.443877754584128e-7 1.1020963869906724e-7 7.590592100486624e-8 1.312701112924084e-7 1.0341097304890425e-7
          9.411829142109582e-8 6.730220992180795e-8 5.73589808890381e-8 1.267361637260901e-7 1.1799102528710669e-7 1.3655431153811218e-7
          2.072219648147641e-8 2.6111992366919717e-8 3.586986010724631e-8 2.2420658664482798e-8 2.580138826342462e-8 3.259538370158305e-8
          3.2618363404610177e-8 4.1361457160689044e-8 4.15629043557287e-8 4.82746930730403e-8 1.4539108493847388e-8 2.8509629817972e-8
          3.607430310136563e-8 3.983038822787252e-8 1.264462084982335e-7 2.1319460040600653e-7 1.406317190422329e-7 1.25413057196825e-7
          1.2002800374430027e-7 2.0792702877843043e-7 1.939754549332459e-7 1.4154237892521333e-7 1.3770773434194576e-7 2.3625481269421214e-7
          1.4270494650367466e-7 1.2263691453845852e-7 1.032237780426346e-7 7.999941985036267e-8 4.176488238659108e-8 3.2263541760457524e-8
          2.6099807645699155e-8 9.414382201711159e-8 1.5184358811249474e-7 8.355842766821304e-8 1.3982656354961191e-7 1.639219465091971e-7
          1.4897767540645232e-7 5.0724516270811703e-8 1.18241473549025e-7 1.2168743655036446e-7 1.8663443344191113e-7 1.9277593055403672e-7
          8.238574455532734e-8 6.893391648911249e-8 4.663552189300585e-8 3.6270012126547004e-8 1.4418080107403736e-7 1.6504984414228145e-7
          1.0350620641147644e-7 1.3945530580988922e-7 6.333122733532861e-8 4.156091595937761e-8 5.2758160865181316e-8 4.8973969565603345e-8
          6.58309731034885e-8 9.184662297479925e-8 1.3172413646968478e-7 1.8312485391618554e-8 4.5076580302523884e-8 5.622230462210392e-8
          5.697075091954847e-8 1.71747725571905e-7 1.5914160074433623e-7 1.4764354141174348e-7 1.669676674406138e-7 1.7052559509771741e-7
          1.393225566292161e-7 1.2758351635790218e-7 1.1033709533665932e-7 2.0121001351279452e-7 1.861086452118569e-7 1.0448532561758124e-7
          1.7962641251540563e-7 1.2280132351635657e-7 3.7523541905972625e-8 3.4470517232382324e-8 3.474853308890395e-8 3.608407499529505e-8
          3.636126761843688e-8 3.5026548945425566e-8 3.663846024157871e-8 2.8744026858183425e-8 2.9507679801947933e-8 3.145566691302487e-8
          3.102267785613887e-8 3.693335690530251e-8 3.94327860905467e-8 3.918540555026477e-8 4.0783028284037356e-8 3.893802500998285e-8
          4.2486057861682576e-8 4.2283328848482076e-8 4.364008183185097e-8 4.2080599835281575e-8 3.789230269602604e-8 3.812222024716134e-8
          3.98707353111721e-8 4.001515508135567e-8 3.835213779829665e-8 4.015957485153925e-8 3.3163272115168844e-8 3.376244180929893e-8
          3.6448854642087473e-8 3.5362318969761256e-8 4.1967592220069216e-8 4.199200534172467e-8 4.411294971440884e-8 4.398432782400588e-8
          4.201641846338014e-8 4.38557059336029e-8 3.9145965622967405e-8 3.9508024528203836e-8 4.2920124770434073e-8 4.114449154489893e-8
          3.940957943148351e-8 4.216034602073693e-8 4.0296607150894496e-8 4.5257232621283646e-8 4.866646962501514e-8 4.434286987942062e-8
          3.528267552829585e-8 3.6374622296882763e-8 3.7330336486161884e-8 3.361145525251784e-8 3.809914479000361e-8 3.8599132489151266e-8
          3.433370729591702e-8 2.306371526378693e-8 2.3961286835895507e-8 2.5458763050007687e-8 2.6378788440661363e-8 2.700652731724736e-8
          2.9446404248992112e-8 1.8685856408921017e-8 2.0257287833654614e-8 2.2508078929507497e-8 2.354851705082583e-8 3.174321731339972e-8
          3.403263421691325e-8 3.7853485102262685e-8 2.7481162632012706e-8 3.001908286625795e-8 1.3185689441082858e-8 1.5792530075551336e-8
          1.4722991319829254e-8 1.7667604938718264e-8 2.1177003812673614e-8 2.3640435450345516e-8 1.0469028789866672e-8 1.3658177034113265e-8
          1.5364288404595647e-8 2.0001496899238643e-8 2.5705180007232955e-8 2.846617661747708e-8 3.386669031946118e-8 2.5274617652097936e-8
          2.802609903096226e-8 2.8207629731333892e-8 2.9182698877110363e-8 3.1392006147948065e-8 3.2442189322008374e-8 3.228614421419574e-8
          3.5589240071258406e-8 2.3079072749774084e-8 2.5119684862356813e-8 2.8148912405782593e-8 2.910672419353787e-8 3.509903063139485e-8
          3.6236847749354606e-8 3.939767924927047e-8 4.063422963037058e-8 3.939619868638255e-8 4.3735245849724483e-8 2.8957621421920212e-8
          3.1680535368153505e-8 3.580133700953662e-8 3.665400375385876e-8 3.670146939081216e-8 3.973263612539035e-8 4.0098468845112654e-8
          4.249667659693427e-8 3.300347828551307e-8 3.6446153480612046e-8 3.8564185359757276e-8 4.3173051301547116e-8 4.703706886148345e-8
          4.503303643451424e-8 4.7582874477749256e-8 4.039064367308212e-8 4.4892058609525585e-8 4.4830467261403796e-8 1.644863860379017e-8
          1.98281754144143e-8 1.8267161406087933e-8 2.2236162625084663e-8 2.652543976381572e-8 2.987365153875972e-8 1.3179666241867655e-8
          1.7316530183795755e-8 1.940845167711993e-8 2.5249366407610532e-8 2.0007973783531073e-8 2.4786167807700282e-8 2.1726117124657068e-8
          2.74936808461489e-8 3.370031050998708e-8 3.8018379808626e-8 1.5455961318532458e-8 2.1369593156362356e-8 2.314147120925834e-8
          3.214439211341269e-8 3.16131528824094e-8 3.5236907283852156e-8 3.681873449774366e-8 4.0127685269205026e-8 3.1212708543933486e-8
          3.488643383652403e-8 3.640942881530356e-8 3.9393640350608245e-8 4.411168201040292e-8 4.3786606405358066e-8 4.774859166767774e-8
          3.9094863336862846e-8 4.3846914899706414e-8 4.3635481277516426e-8 3.7336605677892943e-8 3.5437514918417833e-8 3.966469721436901e-8
          3.974649105127723e-8 4.20233023555025e-8 3.955412350130648e-8 3.8808571699391246e-8 4.022960392600021e-8 3.640862408467685e-8
          3.724501926246447e-8 4.174415566602355e-8 4.391345911023924e-8 4.131374577142248e-8 4.1541459509835204e-8 4.2668930838628416e-8
          3.794521624828544e-8 3.864653875674696e-8 4.611475981672563e-8 4.8292212594649536e-8 4.4445314263477195e-8 4.2150493584364045e-8
          4.4713853105935746e-8 4.404665663546657e-8 4.610401100772772e-8 4.20551969385807e-8 4.472965935723151e-8 4.4671614644924024e-8
          4.7390482601115835e-8 5.01161459783988e-8 4.8158773904627335e-8 5.018295759263666e-8 4.7535219798447206e-8 5.038659595560407e-8
          4.898364448295414e-8 4.4931173943259e-8 4.475735374162028e-8 4.541812593768112e-8 4.4583533539981556e-8 4.55765475186361e-8
          4.53906581597132e-8 4.45271390406854e-8 4.52047688007903e-8 4.62157424147665e-8 4.5895731812155757e-8 4.813993486447332e-8
          4.7584025228134695e-8 4.557572120954502e-8 4.702811559179607e-8 4.660955018043087e-8 4.6622146316624707e-8 5.052703076099939e-8
          4.822117613395625e-8 4.973991104016497e-8 4.889624890410754e-8 5.083893070765601e-8 4.9661071063557187e-8 4.8052586768050103e-8
          4.848321141945835e-8 5.484124307906718e-8 5.4450903646620294e-8 5.807879338955796e-8 5.585404107963247e-8 5.233581785976019e-8
          5.600542794482325e-8 4.7897375834976815e-8 5.918191512252389e-8 6.171142415644351e-8 5.8922835434497185e-8 6.157873377618776e-8
          6.091098445235841e-8 6.216105243176477e-8 6.345203204401366e-8 6.090737704979112e-8 3.870264970735884e-8 3.862708509057986e-8
          3.4888139968052795e-8 4.4299999482303395e-8 4.564023882052776e-8 4.970389728489102e-8 5.116955560538394e-8 4.855552317135207e-8
          5.3766064514770126e-8 3.6819900676989187e-8 4.0563974601829115e-8 4.595560915569878e-8 4.6748268936896984e-8 5.536306187454789e-8
          5.696754323637531e-8 6.091115281942992e-8 6.265522462963787e-8 5.9183402173217064e-8 6.443759061594116e-8 4.600625024769902e-8
          5.1475934750581116e-8 5.634516902001904e-8 5.924611821285033e-8 5.13752184237798e-8 5.5956778373720364e-8 4.987532867219727e-8
          5.365604384238471e-8 5.0055122776906434e-8 5.576412372776953e-8 5.16797044040162e-8 6.015177178741652e-8 6.379026345649794e-8
          6.050876382660164e-8 6.310464212095936e-8 6.145795557815014e-8 6.690084816601592e-8 6.011410860673681e-8 2.375106543543013e-8
          3.058043949987079e-8 2.638919154190851e-8 3.429160233691056e-8 4.2885492317630024e-8 4.835944858394145e-8 1.6743539006900966e-8
          2.5103224686580715e-8 2.770696056978092e-8 4.033768334279006e-8 2.8135362059747077e-8 3.791232964497688e-8 2.6701660821965425e-8
          4.0147905852359464e-8 5.4425974557072154e-8 6.086784536617472e-8 1.9205135776751393e-8 3.030790861680344e-8 3.155333923126965e-8
          5.039565778308401e-8 4.938701263719564e-8 5.5157262949854296e-8 5.190335129210541e-8 5.61672885901267e-8 4.9078398708377815e-8
          5.4694407246787e-8 5.230057528559613e-8 6.120929376876643e-8 6.733705687863083e-8 6.034135521610788e-8 6.409496493187601e-8
          6.062430483354174e-8 6.674152018178221e-8 6.15588936314636e-8 6.59233723068568e-8 6.777936134066414e-8 6.90231372874237e-8
          5.088380228606994e-8 6.024474732734158e-8 7.16324086481329e-8 6.67657930857543e-8 6.512066197113269e-8 7.210769612533142e-8
          6.646807684798836e-8 2.3179917381525576e-8 4.081198653804652e-8 6.669798588948184e-8 1.2391547724091479e-8 3.122229335934185e-8
          6.173189133529757e-8 7.366087541827291e-8 6.678266401520631e-8 7.219006213959775e-8 7.318591271337793e-8 6.853018620466724e-8
          4.344821360864843e-8 4.371296486250744e-8 3.97656385365099e-8 4.04910814854154e-8 5.0277299507720264e-8 5.254850530470961e-8
          4.811694641409604e-8 5.57595931388158e-8 5.626604998486731e-8 5.391544842554684e-8 5.2773563345224255e-8 5.510202567133278e-8
          5.215327830968038e-8 5.3659116026150436e-8 5.318630518494598e-8 5.5780715702818646e-8 5.2715800896135675e-8 5.6853376549460374e-8
          5.792059368765605e-8 5.427997832030024e-8 5.41838314192258e-8 5.794715996010495e-8 5.9575137390444783e-8 5.464450821505365e-8
          5.524776699899411e-8 5.419519806289403e-8 5.220383810004378e-8 5.7740050382212476e-8 5.719906527981969e-8 5.428460748616196e-8
          5.454659607004263e-8 6.023233376543085e-8 6.020293249674535e-8 5.636537687228015e-8
        </DataArray>
        <DataArray type="Float64" Name="gradient_matprop_error" format="ascii" RangeMin="0" RangeMax="0">
          0 0 0 0 0 0
          0 0 0 0 0 0
          0 0 0 0 0 0
          0 0 0 0 0 0
          0 0 0 0 0 0
          0 0 0 0 0 0
          0 0 0 0 0 0
          0 0 0 0 0 0
          0 0 0 0 0 0
          0 0 0 0 0 0
          0 0 0 0 0 0
          0 0 0 0 0 0
          0 0 0 0 0 0
          0 0 0 0 0 0
          0 0 0 0 0 0
          0 0 0 0 0 0
          0 0 0 0 0 0
          0 0 0 0 0 0
          0 0 0 0 0 0
          0 0 0 0 0 0
          0 0 0 0 0 0
          0 0 0 0 0 0
          0 0 0 0 0 0
          0 0 0 0 0 0
          0 0 0 0 0 0
          0 0 0 0 0 0
          0 0 0 0 0 0
          0 0 0 0 0 0
          0 0 0 0 0 0
          0 0 0 0 0 0
          0 0 0 0 0 0
          0 0 0 0 0 0
          0 0 0 0 0 0
          0 0 0 0 0 0
          0 0 0 0 0 0
          0 0 0 0 0 0
          0 0 0 0 0 0
          0 0 0 0 0 0
          0 0 0 0 0 0
          0 0 0 0 0 0
          0 0 0 0 0 0
          0 0 0 0 0 0
          0 0 0 0 0 0
          0 0 0 0 0 0
          0 0 0 0 0 0
          0 0 0 0 0 0
          0 0 0 0 0 0
          0 0 0 0 0 0
          0 0 0 0 0 0
          0 0 0 0 0 0
          0 0 0 0 0 0
          0 0 0 0 0 0
          0 0 0 0 0 0
          0 0 0 0 0 0
          0 0 0 0 0 0
          0 0 0 0 0 0
          0 0 0 0 0 0
          0 0 0 0 0 0
          0 0 0 0 0 0
          0 0 0 0 0 0
          0 0 0 0 0 0
          0 0 0 0 0 0
          0 0 0 0 0 0
          0 0 0 0 0 0
          0 0 0 0 0 0
          0 0 0 0 0 0
          0 0 0 0 0 0
          0 0 0 0 0 0
          0 0 0 0 0 0
          0 0 0 0 0 0
          0 0 0 0 0 0
          0 0 0 0 0 0
          0 0 0 0 0 0
          0 0 0 0 0 0
          0 0 0 0 0 0
          0 0 0 0 0 0
          0 0 0 0 0 0
          0 0 0 0 0 0
          0 0 0 0 0 0
          0 0 0 0 0 0
          0 0 0 0 0 0
          0 0 0 0 0 0
          0 0 0 0 0 0
          0 0 0 0
        </DataArray>
        <DataArray type="Float64" Name="initial_marker" format="ascii" RangeMin="0" RangeMax="2">
          2 2 1 2 1 1
          1 1 1 1 2 2
          2 1.3333333333333333 2 2 2 2
          1.5 1.5 2 2 2 2
          0 0.5 0 0.5 1 1
          1 1 1 2 2 1.3333333333333333
          2 2 1.5 2 2 2
          0 0.5 1 2 2 2
          2 2 2 2 2 2
          2 2 2 2 2 2
          2 2 2 2 2 2
          2 2 2 2 2 2
          2 2 2 2 2 2
          2 2 2 2 2 2
          2 2 2 2 2 2
          2 2 2 2 2 2
          2 2 2 2 2 2
          2 2 2 2 2 2
          2 2 2 2 2 2
          2 2 2 2 2 2
          2 2 2 2 2 2
          2 2 2 2 2 2
          2 2 2 2 2 2
          2 2 2 2 2 2
          2 2 2 2 2 2
          2 2 2 2 2 2
          2 2 2 2 2 2
          2 2 2 2 2 2
          2 2 2 2 2 2
          2 2 2 2 2 2
          2 2 2 2 2 2
          2 2 2 2 2 2
          2 2 2 2 2 2
          2 2 2 2 2 2
          2 2 2 2 2 2
          2 2 2 2 2 2
          2 2 2 2 2 2
          2 2 2 2 2 2
          2 2 2 2 2 2
          2 2 2 2 2 2
          2 2 2 2 2 2
          2 2 2 2 2 2
          2 2 2 2 2 2
          2 2 2 2 2 2
          2 2 2 2 2 2
          2 2 2 2 2 2
          2 2 2 2 2 2
          2 2 2 2 2 2
          2 2 2 2 2 2
          2 2 2 2 2 2
          2 2 2 2 2 2
          2 2 2 2 2 2
          2 2 2 2 2 2
          2 2 2 2 2 2
          2 2 2 2 2 2
          2 2 2 2 2 2
          2 2 2 2 2 2
          2 2 2 2 2 2
          2 2 2 2 2 2
          2 2 2 2 2 2
          2 2 2 2 2 2
          2 2 2 2 2 2
          2 2 2 2 2 2
          2 2 2 2 2 2
          2 2 2 2 2 2
          2 2 2 2 2 2
          2 2 2 2 2 2
          2 2 2 2 2 2
          2 2 2 2 2 2
          2 2 2 2 2 2
          2 2 2 2 2 2
          2 2 2 2 2 2
          2 2 2 2 2 2
          2 2 2 2 2 2
          2 2 2 2 2 2
          2 2 2 2 2 2
          2 2 2 2 2 2
          2 2 2 2 2 2
          2 2 2 2 2 2
          2 2 2 2 2 2
          2 2 2 2 2 2
          2 2 2 2 2 2
          2 2 2 2 2 2
          2 2 2 2
        </DataArray>
        <DataArray type="Float64" Name="markers_norefine" format="ascii" RangeMin="0" RangeMax="2">
          2 0 0 0 0 0
          0 0 0 0 0 0
          0 0 2 0.5 2 0.5
          0 0 2 2 2 0
          0 0 0 0 0 0
          0 0 0 0 0 0
          2 0.25 0 2 2 0
          0 0 0 0 0 0
          0 0 0 0 0 0
          0 0 0 1.5 0 0
          0 0 0 0 2 1.5
          1.5 0.5 0 0 0 0
          0 0 0 0 0 0
          2 2 2 2 2 2
          2 2 2 2 2 2
          2 2 0 0 0 0
          0 0 0 0 0 0
          0 0 0 0 0 0
          0 0 0 0 0 0
          0 2 1.5 1.5 0.5 0
          0 0 0 0 0 0
          0 0 0 2 2 2
          2 1.5 1.5 2 2 2
          2 1 1.5 0 0 0
          0 0 0 0 0 0
          0 0 0 1 1 1
          1 1 1 2 2 2
          2 2 0 0 0 0
          0 0 0 0 1 1
          1 1 1 1 2 2
          2 2 1 1 1 1
          1 1 2 2 2 2
          2 2 1 2 2 1
          0 0 0 0 0 0
          0 2 2 2 2 2
          2 2 2 2 2 2
          2 1.5 2 2 2 2
          2 2 2 2 2 2
          2 2 2 2 2 2
          2 2 2 2 2 2
          2 2 2 2 2 2
          2 2 2 2 2 2
          2 2 2 2 2 1.5
          1.5 2 2 2 2 2
          1.5 1.5 2 2 2 2
          2 2 2 2 2 2
          2 2 2 2 2 2
          2 2 2 2 2 2
          2 2 2 2 2 2
          2 2 2 2 2 2
          2 2 2 0.5 0 1
          1 0 1 0.5 0.5 0
          0 1 1 0 0.5 0.5
          0 0 1 1 0 1
          1 0 0 1 1 0
          1 1 0 0 1 1
          0 0 0 0 0 0
          0 0 0 1 1 1
          1 1 1 2 2 2
          2 1 1 1 1 1
          1 2 2 2 2 2
          2 1 2 1.5 2 2
          1.75 1.6666666666666667 1 0 0 0
          0 2 2 2 2 2
          2 2 2 2 2 2
          2 2 2 2 2 2
          2 2 2 2 2 1.25
          1.3333333333333333 2 2 1.75 2 1.75
          2 1.5 2 2 2 2
          2 2 2 2 2 2
          2 2 2 2 2 2
          2 2 2 2 2 2
          2 2 2 2 2 2
          2 2 2 2 2 2
          2 2 2 2 2 2
          2 2 2 1.5 1 2
          1.6666666666666667 2 2 2 2 2
          2 2 1.75 1.6666666666666667 2 2
          0.25 0 0 0 0.75 0.6666666666666666
          0 1 1 0 1 1
          0 0 1 1 0 1
          1 0 0 1 1 0
          0.5 0 0 0.75 0.5 0
          0 1 1 0
        </DataArray>
        <DataArray type="Float64" Name="markers_mustrefine" format="ascii" RangeMin="0" RangeMax="2">
          2 2 1 2 1 1
          1 1 1 1 2 2
          2 1.3333333333333333 2 2 2 2
          1.5 1.5 2 2 2 2
          0 0.5 0 0.5 1 1
          1 1 1 2 2 1.3333333333333333
          2 2 1.5 2 2 2
          0 0.5 1 2 2 2
          2 2 2 2 2 2
          2 2 2 2 2 2
          2 2 2 2 2 2
          2 2 2 2 2 2
          2 2 2 2 2 2
          2 2 2 2 2 2
          2 2 2 2 2 2
          2 2 2 2 2 2
          2 2 2 2 2 2
          2 2 2 2 2 2
          2 2 2 2 2 2
          2 2 2 2 2 2
          2 2 2 2 2 2
          2 2 2 2 2 2
          2 2 2 2 2 2
          2 2 2 2 2 2
          2 2 2 2 2 2
          2 2 2 2 2 2
          2 2 2 2 2 2
          2 2 2 2 2 2
          2 2 2 2 2 2
          2 2 2 2 2 2
          2 2 2 2 2 2
          2 2 2 2 2 2
          2 2 2 2 2 2
          2 2 2 2 2 2
          2 2 2 2 2 2
          2 2 2 2 2 2
          2 2 2 2 2 2
          2 2 2 2 2 2
          2 2 2 2 2 2
          2 2 2 2 2 2
          2 2 2 2 2 2
          2 2 2 2 2 2
          2 2 2 2 2 2
          2 2 2 2 2 2
          2 2 2 2 2 2
          2 2 2 2 2 2
          2 2 2 2 2 2
          2 2 2 2 2 2
          2 2 2 2 2 2
          2 2 2 2 2 2
          2 2 2 2 2 2
          2 2 2 2 2 2
          2 2 2 2 2 2
          2 2 2 2 2 2
          2 2 2 2 2 2
          2 2 2 2 2 2
          2 2 2 2 2 2
          2 2 2 2 2 2
          2 2 2 2 2 2
          2 2 2 2 2 2
          2 2 2 2 2 2
          2 2 2 2 2 2
          2 2 2 2 2 2
          2 2 2 2 2 2
          2 2 2 2 2 2
          2 2 2 2 2 2
          2 2 2 2 2 2
          2 2 2 2 2 2
          2 2 2 2 2 2
          2 2 2 2 2 2
          2 2 2 2 2 2
          2 2 2 2 2 2
          2 2 2 2 2 2
          2 2 2 2 2 2
          2 2 2 2 2 2
          2 2 2 2 2 2
          2 2 2 2 2 2
          2 2 2 2 2 2
          2 2 2 2 2 2
          2 2 2 2 2 2
          2 2 2 2 2 2
          2 2 2 2 2 2
          2 2 2 2 2 2
          2 2 2 2
        </DataArray>
        <DataArray type="Float64" Name="gradient_marker" format="ascii" RangeMin="0" RangeMax="1">
          0 0.75 0.375 1 0.5 0.375
          0.25 0.125 0.25 0 1 0.625
          0.25 0.5 0 0.5 0 0.5
          0.75 0.625 0 0 0 1
          0.5 0.5 0.25 0.375 0.5 0.5
          0 0 0 0.25 0 0
          0 0.75 0.375 0 0 1
          0 0.25 0.5 1 1 1
          0.75 0.5 0 0 0 0
          0.5 0.75 0.75 0.25 0.5 0.75
          0.5 0.625 0.75 0.625 0 0.25
          0.25 0.5 0.25 0 0.5 0.25
          0.25 0 0 0.5 0.5 0.5
          0 0 0 0 0 0
          0 0 0 0 0 0
          0 0 0.5 1 0.5 0.5
          0.5 1 1 0.5 0.5 1
          1 0.5 0.25 0 0 0
          0 0.5 0.5 0.25 0.375 0.5
          0.5 0 0.25 0.25 0.625 0.625
          0.25 0.25 0 0 0.625 0.625
          0.5 0.375 0 0 0 0
          0 0.125 0.25 0 0 0
          0 0.375 0.25 0.625 0.625 1
          0.75 0.5 0.5 1 0.5 0.25
          0.5 0.5 0 0 0 0
          0 0 0 0 0 0
          0 0 0 0 0 0
          0 0 0 0 0 0
          0 0 0 0 0 0
          0 0 0 0 0 0
          0 0 0 0 0 0
          0 0 0 0 0 0
          0 0 0 0 0 0
          0 0 0 0 0 0
          0 0 0 0 0 0
          0 0 0 0 0 0
          0 0 0 0 0 0
          0 0 0 0 0 0
          0 0 0 0 0 0
          0 0 0 0 0 0
          0 0 0 0 0 0
          0 0 0 0 0 0
          0 0 0 0 0 0
          0 0 0 0 0 0
          0 0 0 0 0 0
          0 0 0 0 0 0
          0 0 0 0 0 0
          0 0 0 0 0 0
          0 0 0 0 0 0
          0 0 0 0 0 0
          0 0 0 0 0 0
          0 0 0 0 0 0
          0 0 0 0 0 0
          0 0 0 0 0 0
          0 0 0 0 0 0
          0 0 0 0 0 0
          0 0 0 0 0 0
          0 0 0 0 0 0
          0 0 0 0 0 0
          0 0 0 0 0 0
          0 0 0 0 0 0
          0 0 0 0 0 0
          0 0 0 0 0 0
          0 0 0 0 0 0
          0 0 0 0 0 0
          0 0 0 0 0 0
          0 0 0 0 0 0
          0 0 0 0 0 0
          0 0 0 0 0 0
          0 0 0 0 0 0
          0 0 0 0 0 0
          0 0 0 0 0 0
          0 0 0 0 0 0
          0 0 0 0 0 0
          0 0 0 0 0 0
          0 0 0 0 0 0
          0 0 0 0 0 0
          0 0 0 0 0 0
          0 0 0 0 0 0
          0 0 0 0 0 0
          0 0 0 0 0 0
          0 0 0 0 0 0
          0 0 0 0
        </DataArray>
        <DataArray type="Float64" Name="gradient_matprop_marker" format="ascii" RangeMin="0" RangeMax="0">
          0 0 0 0 0 0
          0 0 0 0 0 0
          0 0 0 0 0 0
          0 0 0 0 0 0
          0 0 0 0 0 0
          0 0 0 0 0 0
          0 0 0 0 0 0
          0 0 0 0 0 0
          0 0 0 0 0 0
          0 0 0 0 0 0
          0 0 0 0 0 0
          0 0 0 0 0 0
          0 0 0 0 0 0
          0 0 0 0 0 0
          0 0 0 0 0 0
          0 0 0 0 0 0
          0 0 0 0 0 0
          0 0 0 0 0 0
          0 0 0 0 0 0
          0 0 0 0 0 0
          0 0 0 0 0 0
          0 0 0 0 0 0
          0 0 0 0 0 0
          0 0 0 0 0 0
          0 0 0 0 0 0
          0 0 0 0 0 0
          0 0 0 0 0 0
          0 0 0 0 0 0
          0 0 0 0 0 0
          0 0 0 0 0 0
          0 0 0 0 0 0
          0 0 0 0 0 0
          0 0 0 0 0 0
          0 0 0 0 0 0
          0 0 0 0 0 0
          0 0 0 0 0 0
          0 0 0 0 0 0
          0 0 0 0 0 0
          0 0 0 0 0 0
          0 0 0 0 0 0
          0 0 0 0 0 0
          0 0 0 0 0 0
          0 0 0 0 0 0
          0 0 0 0 0 0
          0 0 0 0 0 0
          0 0 0 0 0 0
          0 0 0 0 0 0
          0 0 0 0 0 0
          0 0 0 0 0 0
          0 0 0 0 0 0
          0 0 0 0 0 0
          0 0 0 0 0 0
          0 0 0 0 0 0
          0 0 0 0 0 0
          0 0 0 0 0 0
          0 0 0 0 0 0
          0 0 0 0 0 0
          0 0 0 0 0 0
          0 0 0 0 0 0
          0 0 0 0 0 0
          0 0 0 0 0 0
          0 0 0 0 0 0
          0 0 0 0 0 0
          0 0 0 0 0 0
          0 0 0 0 0 0
          0 0 0 0 0 0
          0 0 0 0 0 0
          0 0 0 0 0 0
          0 0 0 0 0 0
          0 0 0 0 0 0
          0 0 0 0 0 0
          0 0 0 0 0 0
          0 0 0 0 0 0
          0 0 0 0 0 0
          0 0 0 0 0 0
          0 0 0 0 0 0
          0 0 0 0 0 0
          0 0 0 0 0 0
          0 0 0 0 0 0
          0 0 0 0 0 0
          0 0 0 0 0 0
          0 0 0 0 0 0
          0 0 0 0 0 0
          0 0 0 0
        </DataArray>
        <DataArray type="Float64" Name="combo" format="ascii" RangeMin="0" RangeMax="2">
          2 0.75 0.375 1 0.5 0.375
          0.25 0.125 0.25 0 1 0.625
          0.25 0.5 2 1 2 1
          0.75 0.625 2 2 2 1
          0.5 0.5 0.25 0.375 0.5 0.5
          0 0 0 0.25 0 0
          2 1 0.375 2 2 1
          0 0.25 0.5 1 1 1