<?xml version="1.0"?>
<VTKFile type="UnstructuredGrid" version="0.1" byte_order="LittleEndian" header_type="UInt32" compressor="vtkZLibDataCompressor">
  <UnstructuredGrid>
    <Piece NumberOfPoints="490" NumberOfCells="302">
      <PointData>
        <DataArray type="Int32" Name="libmesh_node_id" format="ascii" RangeMin="502" RangeMax="4949">
          502 656 662 1125 1126 1128
          1131 1146 1151 1889 1890 1891
          1892 1893 1906 1907 1910 1911
          1912 1924 1925 1926 1927 1928
          1929 1930 1931 1932 1933 1941
          1942 1944 1945 1946 2001 2002
          2005 2007 2011 2012 2016 2017
          2019 2020 2022 2037 2038 2041
          2042 2044 2046 2057 2058 2061
          2063 2064 2066 2077 2079 2081
          2083 2139 2140 2143 2144 2146
          2148 2225 2251 2252 2273 2274
          2298 2311 3721 3722 3723 3726
          3735 3737 3738 3739 3740 3741
          3742 3743 3744 3745 3746 3752
          3754 3755 3756 3757 3758 3759
          3760 3839 3840 3841 3842 3843
          3844 3845 3846 3847 3848 3854
          3856 3857 3858 3859 3860 3861
          3862 3871 3873 3874 3875 3876
          3877 3878 3879 3880 3881 3882
          3953 3954 3956 3959 3961 3962
          3963 3964 3965 3966 3967 3968
          3969 3970 3972 3974 3976 3978
          3979 3980 3981 3982 3983 3984
          3987 3988 3990 3993 3995 3996
          3997 3998 3999 4000 4001 4002
          4003 4004 4006 4008 4010 4012
          4013 4014 4015 4016 4017 4018
          4076 4078 4080 4082 4083 4084
          4085 4086 4087 4088 4090 4094
          4096 4097 4098 4099 4100 4101
          4102 4103 4104 4106 4107 4108
          4110 4111 4112 4113 4114 4115
          4116 4118 4122 4124 4125 4126
          4127 4128 4129 4130 4315 4316
          4317 4318 4319 4320 4321 4322
          4323 4324 4332 4333 4334 4335
          4336 4337 4338 4349 4350 4351
          4352 4368 4370 4371 4372 4373
          4374 4375 4376 4387 4388 4389
          4390 4391 4392 4393 4394 4395
          4396 4407 4408 4409 4410 4411
          4412 4413 4479 4480 4481 4482
          4483 4484 4485 4486 4487 4488
          4489 4490 4491 4492 4493 4494
          4495 4506 4507 4508 4509 4510
          4511 4512 4513 4514 4515 4546
          4547 4548 4549 4550 4551 4552
          4553 4554 4555 4566 4567 4568
          4569 4570 4571 4572 4580 4581
          4582 4583 4584 4585 4586 4587
          4588 4589 4600 4601 4602 4603
          4604 4605 4606 4682 4683 4684
          4685 4686 4687 4688 4696 4697
          4698 4699 4700 4701 4702 4710
          4711 4712 4713 4714 4715 4716
          4724 4725 4726 4727 4728 4729
          4730 4933 4934 4935 4936 4937
          4938 4939 4940 4941 4942 4943
          4944 4945 4946 4947 4948 4949
          1904 1908 1905 1909 1999 2003
          2000 2004 2006 2008 2213 2214
          2223 1887 1111 2249 2250 1913
          3709 3717 3710 3718 3713 3719
          3720 3715 3724 1888 3725 3727
          3729 3730 3728 3733 3734 3732
          3731 3736 1882 3703 3704 3691
          1885 3705 3706 1883 1886 3748
          3747 3751 3750 3749 3753 3831
          3832 3835 3837 3850 3849 3853
          3852 3851 3855 3866 3864 3870
          3869 3868 3872 3865 3951 3952
          3955 3957 3958 3960 3971 3973
          3975 3977 3985 3986 3989 3991
          3992 3994 4005 4007 4009 4011
          4075 4077 4079 4081 4089 4092
          4091 4093 1943 4095 1919 4031
          3947 4055 1935 4105 4057 1130
          4059 4109 1939 4117 4120 4119
          4121 1947 4123 4307 4308 4311
          4313 4326 4328 4330
        </DataArray>
        <DataArray type="Float64" Name="bounds" format="ascii" RangeMin="0" RangeMax="0">
          0 0 0 0 0 0
          0 0 0 0 0 0
          0 0 0 0 0 0
          0 0 0 0 0 0
          0 0 0 0 0 0
          0 0 0 0 0 0
          0 0 0 0 0 0
          0 0 0 0 0 0
          0 0 0 0 0 0
          0 0 0 0 0 0
          0 0 0 0 0 0
          0 0 0 0 0 0
          0 0 0 0 0 0
          0 0 0 0 0 0
          0 0 0 0 0 0
          0 0 0 0 0 0
          0 0 0 0 0 0
          0 0 0 0 0 0
          0 0 0 0 0 0
          0 0 0 0 0 0
          0 0 0 0 0 0
          0 0 0 0 0 0
          0 0 0 0 0 0
          0 0 0 0 0 0
          0 0 0 0 0 0
          0 0 0 0 0 0
          0 0 0 0 0 0
          0 0 0 0 0 0
          0 0 0 0 0 0
          0 0 0 0 0 0
          0 0 0 0 0 0
          0 0 0 0 0 0
          0 0 0 0 0 0
          0 0 0 0 0 0
          0 0 0 0 0 0
          0 0 0 0 0 0
          0 0 0 0 0 0
          0 0 0 0 0 0
          0 0 0 0 0 0
          0 0 0 0 0 0
          0 0 0 0 0 0
          0 0 0 0 0 0
          0 0 0 0 0 0
          0 0 0 0 0 0
          0 0 0 0 0 0
          0 0 0 0 0 0
          0 0 0 0 0 0
          0 0 0 0 0 0
          0 0 0 0 0 0
          0 0 0 0 0 0
          0 0 0 0 0 0
          0 0 0 0 0 0
          0 0 0 0 0 0
          0 0 0 0 0 0
          0 0 0 0 0 0
          0 0 0 0 0 0
          0 0 0 0 0 0
          0 0 0 0 0 0
          0 0 0 0 0 0
          0 0 0 0 0 0
          0 0 0 0 0 0
          0 0 0 0 0 0
          0 0 0 0 0 0
          0 0 0 0 0 0
          0 0 0 0 0 0
          0 0 0 0 0 0
          0 0 0 0 0 0
          0 0 0 0 0 0
          0 0 0 0 0 0
          0 0 0 0 0 0
          0 0 0 0 0 0
          0 0 0 0 0 0
          0 0 0 0 0 0
          0 0 0 0 0 0
          0 0 0 0 0 0
          0 0 0 0 0 0
          0 0 0 0 0 0
          0 0 0 0 0 0
          0 0 0 0 0 0
          0 0 0 0 0 0
          0 0 0 0 0 0
          0 0 0 0
        </DataArray>
        <DataArray type="Float64" Name="gradient_error" format="ascii" RangeMin="3.4546592300673635e-12" RangeMax="3.1012339010334084e-9">
          1.0532706111472435e-9 3.6865188624057345e-11 3.5161906475406534e-11 3.076729663689927e-10 1.3096141947739104e-10 2.2798511988069977e-11
          5.025076990914787e-10 4.036621690161074e-11 5.273811338183069e-11 3.315986989929512e-11 7.182539495299749e-10 5.795790655721926e-10
          2.4757539878759085e-10 3.0818535127115943e-10 2.5157793309272626e-11 2.4543728835493778e-11 3.007219618768105e-11 1.1405125005890616e-10
          4.828451483100517e-11 2.008029960519854e-9 1.6385735212716591e-9 9.018474520097835e-10 7.259263299058071e-10 8.443183113651799e-10
          3.6474108760350677e-10 2.1898823772053415e-9 1.983640523774497e-9 9.182328894227756e-10 1.144043226738942e-9 2.7300879974527066e-10
          1.1616308253260659e-10 2.735441713746822e-11 3.7215082358598345e-10 1.590491428205622e-10 2.1495551749607444e-11 1.6501382281272923e-11
          2.5262471825874646e-11 1.894317061486208e-11 2.55110144666311e-11 2.1491854830458282e-11 1.2532653557988315e-11 1.5088292279802627e-11
          1.1948014959940096e-10 9.611472272866026e-11 5.087170033859969e-11 1.2998177974140197e-11 1.2262687762597796e-11 1.177670095901421e-11
          1.2394345646703028e-11 1.8834296231055946e-11 1.1068108753419554e-11 3.5857717210528015e-10 2.8621754482596233e-10 1.4198008704038168e-10
          4.409957885548797e-10 3.7399164997087433e-10 1.9764708501693882e-10 4.50985591389113e-11 1.5184290855384093e-11 6.178879427672122e-11
          1.8982389828905353e-11 1.1090686659179874e-11 1.1961011322894418e-11 7.700473263701399e-12 1.0154433893825446e-11 1.3823951413382671e-11
          1.1232610765561522e-11 1.604232022449794e-11 1.4383273726803643e-11 2.1702762706065956e-11 6.6631599855808506e-12 9.384361400587122e-12
          1.0761555822559568e-11 6.9900310255335865e-12 1.5951972540905463e-11 2.4836690086290122e-11 1.6027125090801813e-11 5.146693056778377e-11
          6.806638890570366e-10 2.234093576640499e-10 2.1276071857429016e-10 1.439708994931963e-10 1.3710098279381373e-10 1.8392816211593602e-10
          1.1850926913001878e-10 4.760874599911607e-10 4.509550233779309e-10 2.913481208270932e-10 3.8348663674627044e-10 4.443256324253978e-10
          1.4473443399369385e-10 9.326472792651285e-11 1.0415088565277589e-10 6.712971343495157e-11 2.934814189373483e-10 1.892971282871117e-10
          2.0319431832306756e-10 1.2068485728536854e-11 1.772639241248248e-11 7.8594547102293e-12 1.1467398620508174e-11 1.0437879525518181e-11
          1.4365306673866393e-11 9.340920491407172e-12 3.5334911179504966e-11 2.2794133783613657e-11 2.589372022591251e-11 1.950622473036213e-10
          6.901943784427098e-11 4.4490326221720923e-11 4.2285969607541835e-11 2.726443592739585e-11 1.2840427992195851e-10 8.271901349776526e-11
          7.497097701425163e-11 6.233159791680953e-11 1.7507679910515447e-11 2.4155904078282006e-11 1.1336068691990166e-11 1.5601099779461604e-11
          1.3036509656338348e-11 1.7201596564516563e-11 1.1136536965089499e-11 4.088591820927981e-11 2.636484317140847e-11 2.408393885596608e-11
          1.3496716777437747e-9 1.276882619901242e-9 1.080135565731325e-9 1.9111529515182826e-9 9.041895511872332e-10 8.545220610919659e-10
          5.885789110587832e-10 5.558174073027378e-10 7.207822581133146e-10 4.678664764559463e-10 1.3672958422311122e-9 1.2986522608515948e-9
          8.551181057875137e-10 1.1073448723980204e-9 8.157422696859298e-10 5.508821861239709e-10 1.251063754924278e-9 5.422399217894152e-10
          3.5104239700448763e-10 3.647483327732436e-10 2.3555550623817455e-10 8.393768055418362e-10 5.471769633350155e-10 5.624430920681431e-10
          2.2387605533836406e-9 2.170165838649213e-9 1.939441126804199e-9 2.15313738436059e-9 1.5589013092119356e-9 1.5046383380732324e-9
          1.0485811794621878e-9 1.0083428530285205e-9 1.330716325609888e-9 8.838751020153154e-10 1.5465651916625402e-9 1.5110773097281146e-9
          1.0235778776135682e-9 1.372341975034214e-9 1.5422748807936909e-9 1.0679654765924124e-9 1.622384775992671e-9 1.045382949995098e-9
          6.873215222730727e-10 7.159171137057029e-10 4.665922853006613e-10 1.1052339829379727e-9 7.29875923706945e-10 7.6914538997713e-10
          3.353155998783899e-10 1.8677552534185648e-10 5.055555278215825e-10 2.2130481154762677e-10 1.4267728923920895e-10 1.2299368136773214e-10
          7.924409450792377e-11 3.348498172174985e-10 2.1632826368240338e-10 1.8014233042231106e-10 9.711819293855186e-11 1.363253673474891e-10
          6.383908140517797e-11 4.1158585826541855e-11 3.1267532158174895e-11 2.0165796056889023e-11 8.976416016637511e-11 5.789088184880503e-11
          4.2486357340326846e-11 9.434522582095608e-10 6.440645471559754e-10 3.4457300516215235e-10 1.0169149801002574e-9 6.955638433344277e-10
          4.2810612056853407e-10 2.7729176111278784e-10 2.2779294389915217e-10 1.4705925948489495e-10 4.630670223793678e-10 3.003112737506579e-10
          2.4622436144796554e-10 1.685622981884165e-10 1.8106397145308073e-10 1.1110795494653771e-10 7.169403871305548e-11 5.123789776707125e-11
          3.2999044543280814e-11 1.1939804419817015e-10 7.70599299057007e-11 5.459557862223686e-11 1.2613158983467975e-11 1.4960488056814713e-11
          8.184233302582189e-12 9.649662412552307e-12 9.098414868428207e-12 9.959567769837899e-12 6.448025994406537e-12 1.9405717583089036e-11
          1.2464574898878378e-11 1.1968376032072033e-11 2.2785435712493566e-11 1.4637014620379054e-11 1.3811727416227268e-11 8.941817345138717e-12
          2.4067253388970495e-11 1.5459970965523778e-11 1.450742343955806e-11 4.1213684498494916e-11 3.9477247461269665e-11 2.4439154599934157e-11
          3.4706963465036604e-11 1.3168083822592813e-11 8.150769753047544e-12 6.7060299727205255e-12 1.009793773808435e-11 6.9356937947308196e-12
          2.8097423946932245e-11 1.733253980962158e-11 2.0961379187452587e-11 9.077300176420843e-11 8.644803383664081e-11 5.6016568364100155e-11
          5.3363368988884034e-11 7.473461305409883e-11 4.615736046705242e-11 1.94029613053015e-10 1.8371140562004338e-10 1.131281978682863e-10
          1.5606612372471382e-10 5.888220656490139e-11 3.640571411775594e-11 4.2472898951035085e-11 2.6277901697392545e-11 1.1929635790397697e-10
          7.348806021172975e-11 8.252990197484622e-11 5.1070230814244456e-12 7.216944908578539e-12 4.175646824772929e-12 5.604231791933286e-12
          4.408015603627642e-12 5.901163865980338e-12 4.7160356669956035e-12 1.438376903010195e-11 1.0369407500246378e-11 1.0578293203075201e-11
          2.8164330111652075e-11 1.7418211776656386e-11 1.7245825041981826e-11 1.0679456421424923e-11 5.2152202006636115e-11 3.2191990869230707e-11
          3.047363305095044e-11 7.1600817881422485e-12 9.859055869341113e-12 4.504379804755263e-12 6.149424878488981e-12 5.318306113327722e-12
          7.027576906630822e-12 4.427433987730769e-12 1.6675581430031144e-11 1.034172084413803e-11 9.825723202300956e-12 3.727397015460355e-10
          3.518066602232364e-10 2.2987888687427224e-10 2.168988020348711e-10 2.957365775053981e-10 1.8218799351438158e-10 5.770060424913727e-10
          5.463728883275832e-10 3.391900506187964e-10 4.6223390212620864e-10 2.2153446868698813e-10 1.363735540091699e-10 1.484728117551378e-10
          9.138476371469769e-11 3.4696551586820884e-10 2.1421180153973385e-10 2.304619571829544e-10 6.823398755013307e-10 6.541060874201337e-10
          4.3021441343406276e-10 4.113397424312223e-10 5.691005577917611e-10 3.5569080029328737e-10 6.928689960087441e-10 6.702647773928829e-10
          4.249712398840663e-10 5.950373484940627e-10 4.388990274759015e-10 2.7251080340572434e-10 2.9595376665149946e-10 1.8284356209171509e-10
          4.678457372577198e-10 2.9143361644180587e-10 3.1938232352828646e-10 8.989961831145382e-11 5.538368051912939e-11 4.995687573030216e-11
          3.082703668467725e-11 1.3640004701514097e-10 8.397673635887472e-11 7.320529491141165e-11 2.6048174394654923e-11 1.611096187147264e-11
          1.270257317925316e-11 9.214588697464527e-12 3.665315955191816e-11 2.2642155740822868e-11 1.7229226518256342e-11 1.751373748853203e-10
          1.0792133854458817e-10 9.271671033541536e-11 5.7103555549130343e-11 1.8985747724882695e-10 1.170713043537143e-10 1.0031068255022823e-10
          4.539979186127454e-11 2.8045862766700244e-11 2.0780261535778535e-11 1.5103520775129498e-11 4.8796480498500266e-11 3.014036605864667e-11
          2.2137055440066232e-11 5.130652205542339e-12 6.05096782192414e-12 4.083979384268539e-12 4.6936904937296146e-12 3.788461538860225e-12
          4.202400990296978e-12 3.4546592300673635e-12 7.802028388024578e-12 5.938051113400019e-12 5.120474332716696e-12 9.152015271105328e-12
          6.969438379139321e-12 5.94612569723133e-12 4.918804421173277e-12 9.67125720446744e-12 7.366176134669292e-12 6.267643170763e-12
          5.51022816227617e-11 5.824228652207981e-11 5.610401022701061e-11 6.528355143761553e-11 4.6978390527222967e-11 3.7915916691335214e-11
          3.772803232759819e-11 5.708401636534239e-11 4.372255013314903e-11 6.518106713915019e-11 5.4309788174691994e-11 2.5120527091004695e-11
          3.3890181730338985e-11 5.461528417269504e-11 2.429640031964282e-11 2.7083354268860695e-11 4.480452291249371e-11 5.2117857415538866e-11
          3.103441497709408e-11 2.0322319322289892e-11 4.9221219459530675e-11 3.2276774183785266e-11 3.785215445665686e-11 1.3184763806264239e-11
          2.0828483541012533e-11 1.0503448315777951e-10 6.899770435267667e-11 7.835552703997753e-11 4.445269536635392e-11 5.027260974737078e-10
          3.3901451963822033e-10 3.2291126946809717e-10 4.789973615223725e-10 1.055291016565548e-9 1.0007825191831478e-9 2.792782773028342e-10
          4.146339935480888e-10 8.538434271357701e-10 1.543566479005028e-10 1.0137895870830248e-10 9.708691065676464e-11 1.478190283931563e-10
          6.527292478642083e-11 6.251354940594033e-11 8.533753863875003e-11 1.2992022455614188e-10 5.4958518214527386e-11 2.198950960531861e-10
          3.268768011352838e-10 6.563993651775418e-10 1.5834304357310172e-10 2.3573465900357394e-10 4.566571849609527e-10 1.8417667992027156e-11
          2.7020576983815925e-11 2.1890909627108867e-11 5.385773892934542e-11 1.0506554569959551e-10 1.5684903303975527e-10 2.898646941189022e-10
          6.448859264915175e-11 9.66855768854348e-11 1.6995717159347286e-10 3.6909770552177246e-11 5.5649110589631136e-11 9.34283191294828e-11
          2.6329016857716536e-11 3.9910056226182756e-11 5.536716168716601e-11 2.680262137661328e-11 1.9547012280749573e-9 1.8518376399942245e-9
          1.5724732120093792e-9 2.8525433266979656e-9 2.7215548219262865e-9 2.3487923046827493e-9 1.1939041850094176e-9 8.108383279021858e-10
          1.8094422649580472e-9 1.2325838392098052e-9 3.1012339010334084e-9 3.0211479818420425e-9 2.7325448837098335e-9 2.9852707684179177e-9
          2.956704310598092e-9 2.769143024558521e-9 2.204202092878832e-9 1.547136223693138e-9 2.3055696240769618e-9 1.6517480793447978e-9
          4.960295626858874e-10 2.7739667338638183e-10 7.439864157599456e-10 4.041643033932085e-10 1.448389260063151e-10 4.7619337414333617e-11
          7.127909897353042e-11 2.026410576211942e-10 6.462974284134611e-11 9.638519036619096e-11 1.7479666965816005e-9 1.0662956671829577e-9
          2.1741542000027095e-9 1.3443727430720245e-9 5.841369824350719e-10 5.087450218292595e-10 7.327009845001883e-10 2.312206326678066e-9
          1.445674980656125e-9 5.488716327635115e-10 7.894121609259211e-10 2.5014623830579846e-10 7.789302171573854e-11 1.160115308291012e-10
          2.6853358821177683e-10 8.29779241124676e-11 1.235386732916624e-10 1.9188613801832016e-11 2.2812509491171825e-11 1.5245476823823715e-11
          2.9633778016677856e-11 3.478343954510468e-11 2.1196194732156112e-11 3.6735728237365277e-11
        </DataArray>
        <DataArray type="Float64" Name="gradient_matprop_error" format="ascii" RangeMin="0" RangeMax="0">
          0 0 0 0 0 0
          0 0 0 0 0 0
          0 0 0 0 0 0
          0 0 0 0 0 0
          0 0 0 0 0 0
          0 0 0 0 0 0
          0 0 0 0 0 0
          0 0 0 0 0 0
          0 0 0 0 0 0
          0 0 0 0 0 0
          0 0 0 0 0 0
          0 0 0 0 0 0
          0 0 0 0 0 0
          0 0 0 0 0 0
          0 0 0 0 0 0
          0 0 0 0 0 0
          0 0 0 0 0 0
          0 0 0 0 0 0
          0 0 0 0 0 0
          0 0 0 0 0 0
          0 0 0 0 0 0
          0 0 0 0 0 0
          0 0 0 0 0 0
          0 0 0 0 0 0
          0 0 0 0 0 0
          0 0 0 0 0 0
          0 0 0 0 0 0
          0 0 0 0 0 0
          0 0 0 0 0 0
          0 0 0 0 0 0
          0 0 0 0 0 0
          0 0 0 0 0 0
          0 0 0 0 0 0
          0 0 0 0 0 0
          0 0 0 0 0 0
          0 0 0 0 0 0
          0 0 0 0 0 0
          0 0 0 0 0 0
          0 0 0 0 0 0
          0 0 0 0 0 0
          0 0 0 0 0 0
          0 0 0 0 0 0
          0 0 0 0 0 0
          0 0 0 0 0 0
          0 0 0 0 0 0
          0 0 0 0 0 0
          0 0 0 0 0 0
          0 0 0 0 0 0
          0 0 0 0 0 0
          0 0 0 0 0 0
          0 0 0 0 0 0
          0 0 0 0 0 0
          0 0 0 0 0 0
          0 0 0 0 0 0
          0 0 0 0 0 0
          0 0 0 0 0 0
          0 0 0 0 0 0
          0 0 0 0 0 0
          0 0 0 0 0 0
          0 0 0 0 0 0
          0 0 0 0 0 0
          0 0 0 0 0 0
          0 0 0 0 0 0
          0 0 0 0 0 0
          0 0 0 0 0 0
          0 0 0 0 0 0
          0 0 0 0 0 0
          0 0 0 0 0 0
          0 0 0 0 0 0
          0 0 0 0 0 0
          0 0 0 0 0 0
          0 0 0 0 0 0
          0 0 0 0 0 0
          0 0 0 0 0 0
          0 0 0 0 0 0
          0 0 0 0 0 0
          0 0 0 0 0 0
          0 0 0 0 0 0
          0 0 0 0 0 0
          0 0 0 0 0 0
          0 0 0 0 0 0
          0 0 0 0
        </DataArray>
        <DataArray type="Float64" Name="initial_marker" format="ascii" RangeMin="0" RangeMax="2">
          2 0 2 2 2 0.75
          2 0 0 2 2 2
          2 2 0 0.75 0 2
          2 2 2 2 2 2
          2 2 2 2 2 2
          2 2 2 2 0 0
          0 0 2 2 0 1.5
          2 2 2 0 0.5 0
          0 2 0.5 2 2 2
          2 2 2 2 1.25 2
          1.5 0 0 0 0 0
          0 0 0 0 0 0
          0 0 0.5 1.25 1 2
          2 2 2 2 2 2
          2 2 2 2 2 2
          2 2 2 2 2 2
          2 0 0.75 0 0.5 0
          0.5 0 1.75 1.5 1.6666666666666667 2
          2 2 2 1.75 2 2
          2 2 1 1.5 0.5 1
          0 1 0.5 2 1.75 1.6666666666666667
          2 2 2 2 2 2
          2 2 2 2 2 2
          2 2 2 2 2 2
          2 2 2 2 2 2
          2 2 2 2 2 2
          2 2 2 2 2 2
          2 2 2 2 2 2
          2 2 2 2 2 2
          2 2 2 2 2 2
          2 2 2 2 2 2
          2 2 1.75 1.5 2 2
          2 2 2 2 2 2
          2 2 2 2 2 2
          2 2 2 2 2 2
          2 2 2 2 0.5 0.75
          0 0.5 0 0 0 1
          1 0 1 1 0 0
          1 1 0 2 2 2
          2 1 1 0 0.75 0.6666666666666666
          2 2 1.75 2 2 2
          2 2 2 2 2 2
          2 2 2 2 2 2
          2 2 0 0.25 0 0
          0 0 0 1.25 1.3333333333333333 0.6666666666666666
          2 2 1.5 1.5 2 2
          2 0 0.5 0 0.5 0
          0 0 1.5 1.5 0.6666666666666666 2
          2 2 2 2 2 2
          2 2 2 2 2 2
          2 2 2 2 2 2
          2 2 2 2 2 2
          2 2 2 2 2 2
          2 2 2 2 2 2
          2 2 2 2 2 2
          1.25 1.3333333333333333 2 2 1.75 2
          2 2 2 2 2 2
          2 2 2 2 2 2
          2 0 0.25 0 0 0
          0 0 0.75 0.5 0 1
          1 0 0 1 1 0
          0 0 1.5 0 0 0
          0 0 0.5 0 0 0
          0 0.5 0 0 0 1.5
          2 1.5 2 1.75 1.5 0.5
          1.25 2 2 2 2 2
          2 2 2 2 2 2
          2 2 2 2 2 2
          2 2 2 2 2 2
          2 2 2 2 2 0
          1 1 2 2 2 2
          2 2 2 1.5 1.75 2
          1 1.5 2 1 2 2
          2 2 2 2 2 2
          2 2 2 2 2 2
          2 2 2 2 2 2
          2 2 2 2 2 2
          2 2 2 2 2 2
          2 2 2 2 2 2
          2 2 2 2 2 2
          2 2 2 1 1 0
          1 1.25 0.5 1.5
        </DataArray>
        <DataArray type="Float64" Name="markers_norefine" format="ascii" RangeMin="0" RangeMax="0">
          0 0 0 0 0 0
          0 0 0 0 0 0
          0 0 0 0 0 0
          0 0 0 0 0 0
          0 0 0 0 0 0
          0 0 0 0 0 0
          0 0 0 0 0 0
          0 0 0 0 0 0
          0 0 0 0 0 0
          0 0 0 0 0 0
          0 0 0 0 0 0
          0 0 0 0 0 0
          0 0 0 0 0 0
          0 0 0 0 0 0
          0 0 0 0 0 0
          0 0 0 0 0 0
          0 0 0 0 0 0
          0 0 0 0 0 0
          0 0 0 0 0 0
          0 0 0 0 0 0
          0 0 0 0 0 0
          0 0 0 0 0 0
          0 0 0 0 0 0
          0 0 0 0 0 0
          0 0 0 0 0 0
          0 0 0 0 0 0
          0 0 0 0 0 0
          0 0 0 0 0 0
          0 0 0 0 0 0
          0 0 0 0 0 0
          0 0 0 0 0 0
          0 0 0 0 0 0
          0 0 0 0 0 0
          0 0 0 0 0 0
          0 0 0 0 0 0
          0 0 0 0 0 0
          0 0 0 0 0 0
          0 0 0 0 0 0
          0 0 0 0 0 0
          0 0 0 0 0 0
          0 0 0 0 0 0
          0 0 0 0 0 0
          0 0 0 0 0 0
          0 0 0 0 0 0
          0 0 0 0 0 0
          0 0 0 0 0 0
          0 0 0 0 0 0
          0 0 0 0 0 0
          0 0 0 0 0 0
          0 0 0 0 0 0
          0 0 0 0 0 0
          0 0 0 0 0 0
          0 0 0 0 0 0
          0 0 0 0 0 0
          0 0 0 0 0 0
          0 0 0 0 0 0
          0 0 0 0 0 0
          0 0 0 0 0 0
          0 0 0 0 0 0
          0 0 0 0 0 0
          0 0 0 0 0 0
          0 0 0 0 0 0
          0 0 0 0 0 0
          0 0 0 0 0 0
          0 0 0 0 0 0
          0 0 0 0 0 0
          0 0 0 0 0 0
          0 0 0 0 0 0
          0 0 0 0 0 0
          0 0 0 0 0 0
          0 0 0 0 0 0
          0 0 0 0 0 0
          0 0 0 0 0 0
          0 0 0 0 0 0
          0 0 0 0 0 0
          0 0 0 0 0 0
          0 0 0 0 0 0
          0 0 0 0 0 0
          0 0 0 0 0 0
          0 0 0 0 0 0
          0 0 0 0 0 0
          0 0 0 0
        </DataArray>
        <DataArray type="Float64" Name="markers_mustrefine" format="ascii" RangeMin="0" RangeMax="2">
          2 0 2 2 2 0.75
          2 0 0 2 2 2
          2 2 0 0.75 0 2
          2 2 2 2 2 2
          2 2 2 2 2 2
          2 2 2 2 0 0
          0 0 2 2 0 1.5
          2 2 2 0 0.5 0
          0 2 0.5 2 2 2
          2 2 2 2 1.25 2
          1.5 0 0 0 0 0
          0 0 0 0 0 0
          0 0 0.5 1.25 1 2
          2 2 2 2 2 2
          2 2 2 2 2 2
          2 2 2 2 2 2
          2 0 0.75 0 0.5 0
          0.5 0 1.75 1.5 1.6666666666666667 2
          2 2 2 1.75 2 2
          2 2 1 1.5 0.5 1
          0 1 0.5 2 1.75 1.6666666666666667
          2 2 2 2 2 2
          2 2 2 2 2 2
          2 2 2 2 2 2
          2 2 2 2 2 2
          2 2 2 2 2 2
          2 2 2 2 2 2
          2 2 2 2 2 2
          2 2 2 2 2 2
          2 2 2 2 2 2
          2 2 2 2 2 2
          2 2 1.75 1.5 2 2
          2 2 2 2 2 2
          2 2 2 2 2 2
          2 2 2 2 2 2
          2 2 2 2 0.5 0.75
          0 0.5 0 0 0 1
          1 0 1 1 0 0
          1 1 0 2 2 2
          2 1 1 0 0.75 0.6666666666666666
          2 2 1.75 2 2 2
          2 2 2 2 2 2
          2 2 2 2 2 2
          2 2 0 0.25 0 0
          0 0 0 1.25 1.3333333333333333 0.6666666666666666
          2 2 1.5 1.5 2 2
          2 0 0.5 0 0.5 0
          0 0 1.5 1.5 0.6666666666666666 2
          2 2 2 2 2 2
          2 2 2 2 2 2
          2 2 2 2 2 2
          2 2 2 2 2 2
          2 2 2 2 2 2
          2 2 2 2 2 2
          2 2 2 2 2 2
          1.25 1.3333333333333333 2 2 1.75 2
          2 2 2 2 2 2
          2 2 2 2 2 2
          2 0 0.25 0 0 0
          0 0 0.75 0.5 0 1
          1 0 0 1 1 0
          0 0 1.5 0 0 0
          0 0 0.5 0 0 0
          0 0.5 0 0 0 1.5
          2 1.5 2 1.75 1.5 0.5
          1.25 2 2 2 2 2
          2 2 2 2 2 2
          2 2 2 2 2 2
          2 2 2 2 2 2
          2 2 2 2 2 0
          1 1 2 2 2 2
          2 2 2 1.5 1.75 2
          1 1.5 2 1 2 2
          2 2 2 2 2 2
          2 2 2 2 2 2
          2 2 2 2 2 2
          2 2 2 2 2 2
          2 2 2 2 2 2
          2 2 2 2 2 2
          2 2 2 2 2 2
          2 2 2 1 1 0
          1 1.25 0.5 1.5
        </DataArray>
        <DataArray type="Float64" Name="gradient_marker" format="ascii" RangeMin="1" RangeMax="1">
          1 1 1 1 1 1
          1 1 1 1 1 1
          1 1 1 1 1 1
          1 1 1 1 1 1
          1 1 1 1 1 1
          1 1 1 1 1 1
          1 1 1 1 1 1
          1 1 1 1 1 1
          1 1 1 1 1 1
          1 1 1 1 1 1
          1 1 1 1 1 1
          1 1 1 1 1 1
          1 1 1 1 1 1
          1 1 1 1 1 1
          1 1 1 1 1 1
          1 1 1 1 1 1
          1 1 1 1 1 1
          1 1 1 1 1 1
          1 1 1 1 1 1
          1 1 1 1 1 1
          1 1 1 1 1 1
          1 1 1 1 1 1
          1 1 1 1 1 1
          1 1 1 1 1 1
          1 1 1 1 1 1
          1 1 1 1 1 1
          1 1 1 1 1 1
          1 1 1 1 1 1
          1 1 1 1 1 1
          1 1 1 1 1 1
          1 1 1 1 1 1
          1 1 1 1 1 1
          1 1 1 1 1 1
          1 1 1 1 1 1
          1 1 1 1 1 1
          1 1 1 1 1 1
          1 1 1 1 1 1
          1 1 1 1 1 1
          1 1 1 1 1 1
          1 1 1 1 1 1
          1 1 1 1 1 1
          1 1 1 1 1 1
          1 1 1 1 1 1
          1 1 1 1 1 1
          1 1 1 1 1 1
          1 1 1 1 1 1
          1 1 1 1 1 1
          1 1 1 1 1 1
          1 1 1 1 1 1
          1 1 1 1 1 1
          1 1 1 1 1 1
          1 1 1 1 1 1
          1 1 1 1 1 1
          1 1 1 1 1 1
          1 1 1 1 1 1
          1 1 1 1 1 1
          1 1 1 1 1 1
          1 1 1 1 1 1
          1 1 1 1 1 1
          1 1 1 1 1 1
          1 1 1 1 1 1
          1 1 1 1 1 1
          1 1 1 1 1 1
          1 1 1 1 1 1
          1 1 1 1 1 1
          1 1 1 1 1 1
          1 1 1 1 1 1
          1 1 1 1 1 1
          1 1 1 1 1 1
          1 1 1 1 1 1
          1 1 1 1 1 1
          1 1 1 1 1 1
          1 1 1 1 1 1
          1 1 1 1 1 1
          1 1 1 1 1 1
          1 1 1 1 1 1
          1 1 1 1 1 1
          1 1 1 1 1 1
          1 1 1 1 1 1
          1 1 1 1 1 1
          1 1 1 1 1 1
          1 1 1 1
        </DataArray>
        <DataArray type="Float64" Name="gradient_matprop_marker" format="ascii" RangeMin="0" RangeMax="0">
          0 0 0 0 0 0
          0 0 0 0 0 0
          0 0 0 0 0 0
          0 0 0 0 0 0
          0 0 0 0 0 0
          0 0 0 0 0 0
          0 0 0 0 0 0
          0 0 0 0 0 0
          0 0 0 0 0 0
          0 0 0 0 0 0
          0 0 0 0 0 0
          0 0 0 0 0 0
          0 0 0 0 0 0
          0 0 0 0 0 0
          0 0 0 0 0 0
          0 0 0 0 0 0
          0 0 0 0 0 0
          0 0 0 0 0 0
          0 0 0 0 0 0
          0 0 0 0 0 0
          0 0 0 0 0 0
          0 0 0 0 0 0
          0 0 0 0 0 0
          0 0 0 0 0 0
          0 0 0 0 0 0
          0 0 0 0 0 0
          0 0 0 0 0 0
          0 0 0 0 0 0
          0 0 0 0 0 0
          0 0 0 0 0 0
          0 0 0 0 0 0
          0 0 0 0 0 0
          0 0 0 0 0 0
          0 0 0 0 0 0
          0 0 0 0 0 0
          0 0 0 0 0 0
          0 0 0 0 0 0
          0 0 0 0 0 0
          0 0 0 0 0 0
          0 0 0 0 0 0
          0 0 0 0 0 0
          0 0 0 0 0 0
          0 0 0 0 0 0
          0 0 0 0 0 0
          0 0 0 0 0 0
          0 0 0 0 0 0
          0 0 0 0 0 0
          0 0 0 0 0 0
          0 0 0 0 0 0
          0 0 0 0 0 0
          0 0 0 0 0 0
          0 0 0 0 0 0
          0 0 0 0 0 0
          0 0 0 0 0 0
          0 0 0 0 0 0
          0 0 0 0 0 0
          0 0 0 0 0 0
          0 0 0 0 0 0
          0 0 0 0 0 0
          0 0 0 0 0 0
          0 0 0 0 0 0
          0 0 0 0 0 0
          0 0 0 0 0 0
          0 0 0 0 0 0
          0 0 0 0 0 0
          0 0 0 0 0 0
          0 0 0 0 0 0
          0 0 0 0 0 0
          0 0 0 0 0 0
          0 0 0 0 0 0
          0 0 0 0 0 0
          0 0 0 0 0 0
          0 0 0 0 0 0
          0 0 0 0 0 0
          0 0 0 0 0 0
          0 0 0 0 0 0
          0 0 0 0 0 0
          0 0 0 0 0 0
          0 0 0 0 0 0
          0 0 0 0 0 0
          0 0 0 0 0 0
          0 0 0 0
        </DataArray>
        <DataArray type="Float64" Name="combo" format="ascii" RangeMin="1" RangeMax="1">
          1 1 1 1 1 1
          1 1 1 1 1 1
          1 1 1 1 1 1
          1 1 1 1 1 1
          1 1 1 1 1 1
          1 1 1 1 1 1
          1 1 1 1 1 1
          1 1 1 1 1 1
          1 1 1 1 1 1
          1 1 1 1 1 1
          1 1 1 1 1 1
          1 1 1 1 1 1
          1 1 1 1 1 1
          1 1 1 1 1 1
          1 1 1 1 1 1
          1 1 1 1 1 1
          1 1 1 1 1 1
          1 1 1 1 1 1