<?xml version="1.0"?>
<VTKFile type="UnstructuredGrid" version="0.1" byte_order="LittleEndian" header_type="UInt32" compressor="vtkZLibDataCompressor">
  <UnstructuredGrid>
    <Piece NumberOfPoints="848" NumberOfCells="511">
      <PointData>
        <DataArray type="Int32" Name="libmesh_node_id" format="ascii" RangeMin="754" RangeMax="4779">
          754 820 910 911 917 919
          922 1050 1051 1054 1055 1056
          1057 1058 1059 1062 1063 1064
          1065 1067 1068 1071 1072 1075
          1077 1270 1271 1274 1275 1277
          1278 1279 1280 1281 1283 1304
          1305 1306 1307 1308 1309 1310
          1311 1312 1313 1631 1632 1638
          1641 1649 1650 1651 1652 1653
          1654 1655 1656 1657 1658 1659
          1660 1661 1662 1673 1674 1675
          1676 1677 1678 1679 1680 1681
          1682 1687 1688 1689 1692 1693
          1694 1695 1696 1697 1698 1699
          1700 1701 1702 1703 1704 1705
          1706 1707 1708 1709 1710 1711
          1712 1713 1714 1715 1716 1731
          1732 1734 1735 1736 1737 1738
          1740 1751 1752 1753 1754 1755
          1756 1757 1758 1759 1760 2210
          2212 2214 2215 2216 2515 2516
          2517 2518 2519 2520 2521 2522
          2600 2601 2602 2603 2604 2605
          2606 2607 2608 2609 2610 2611
          2612 2613 2614 2615 2616 2617
          2618 2619 2620 2621 2622 2623
          2624 2625 2626 2627 2628 2629
          2630 2631 2632 2633 2634 2635
          2636 2637 2638 2639 2640 2641
          2642 2643 2644 2645 2646 2647
          2648 2649 2650 2651 2652 2653
          2654 2655 2656 2657 2658 2659
          2660 2661 2662 2663 2664 2665
          2666 2667 2668 2669 2670 2671
          2672 2673 2674 2675 2676 2677
          2681 2690 2691 2692 2693 2694
          2695 2696 2697 2698 2699 2704
          2705 2709 2710 2711 2712 2713
          2714 2715 2716 2717 2718 2719
          2720 2721 2722 2723 2724 2725
          2726 2727 2728 2729 2730 2731
          2732 2733 2734 2735 2736 2737
          2738 2739 2744 2749 2750 2751
          2752 2753 2754 2755 2756 2757
          2758 2759 2760 2761 2762 2763
          4063 4223 4224 4242 4243 4244
          4245 4246 4247 4248 4249 4250
          4251 4252 4253 4254 4255 4256
          4257 4258 4259 4260 4261 4262
          4263 4264 4265 4266 4267 4268
          4269 4270 4271 4272 4273 4274
          4275 4276 4277 4278 4279 4280
          4281 4282 4283 4284 4285 4286
          4287 4288 4289 4290 4291 4292
          4293 4294 4295 4296 4297 4298
          4299 4300 4301 4302 4303 4304
          4305 4306 4307 4308 4309 4310
          4311 4312 4313 4314 4315 4316
          4317 4318 4319 4320 4321 4322
          4323 4324 4325 4326 4327 4328
          4329 4330 4331 4332 4333 4334
          4335 4336 4337 4338 4339 4340
          4341 4342 4343 4344 4345 4346
          4347 4348 4349 4350 4351 4352
          4353 4354 4355 4356 4357 4358
          4359 4360 4361 4362 4363 4364
          4365 4366 4367 4368 4369 4370
          4371 4372 4373 4374 4375 4376
          4377 4378 4379 4380 4381 4382
          4383 4384 4385 4386 4387 4388
          4389 4390 4391 4392 4393 4394
          4395 4396 4397 4398 4399 4400
          4401 4402 4403 4404 4405 4406
          4407 4408 4409 4410 4411 4412
          4413 4414 4415 4416 4417 4418
          4419 4420 4421 4422 4423 4424
          4425 4426 4427 4428 4429 4430
          4431 4432 4433 4434 4435 4436
          4437 4438 4439 4440 4441 4442
          4443 4444 4445 4446 4447 4448
          4449 4450 4451 4452 4453 4454
          4455 4456 4457 4458 4459 4460
          4461 4462 4463 4464 4465 4466
          4467 4468 4469 4470 4471 4472
          4473 4474 4475 4476 4477 4478
          4479 4480 4481 4482 4483 4484
          4485 4486 4487 4488 4489 4490
          4491 4492 4493 4494 4495 4496
          4497 4498 4499 4500 4501 4502
          4503 4504 4505 4506 4507 4508
          4509 4510 4511 4512 4513 4514
          4515 4516 4517 4518 4519 4520
          4521 4522 4523 4524 4525 4526
          4527 4528 4529 4530 4531 4532
          4533 4534 4535 4536 4537 4538
          4539 4540 4541 4556 4557 4559
          4570 4572 4575 4576 4577 4578
          4579 4580 4581 4582 4583 4584
          4585 4586 4587 4588 4589 4590
          4591 4592 4593 4594 4595 4596
          4597 4598 4599 4600 4601 4602
          4603 4604 4605 4606 4607 4608
          4609 4610 4611 4612 4613 4614
          4615 4616 4617 4618 4619 4620
          4621 4622 4623 4624 4625 4626
          4627 4628 4629 4630 4631 4632
          4633 4634 4635 4636 4637 4638
          4639 4640 4641 4642 4643 4644
          4645 4646 4647 4648 4649 4650
          4651 4652 4653 4654 4655 4656
          4657 4660 4662 4663 4665 4676
          4678 4679 4680 4682 4685 4689
          4690 4691 4694 4696 4697 4699
          4710 4712 4713 4714 4716 4719
          4723 4724 4725 4726 4727 4728
          4729 4730 4731 4732 4733 4734
          4735 4736 4737 4738 4739 4740
          4741 4742 4743 4744 4745 4746
          4747 4748 4749 4750 4751 4752
          4753 4754 4755 4756 4757 4758
          4759 4760 4761 4762 4763 4764
          4765 4766 4767 4768 4769 4770
          4771 4772 4773 4774 4775 4776
          4777 4778 4779 906 909 755
          912 908 914 913 920 926
          927 1053 1124 1128 1129 1125
          905 1136 1137 1272 1273 1276
          1282 907 1040 1294 1286 1045
          1295 1287 1296 1297 916 1301
          1292 1302 1324 1325 1331 1633
          1634 1635 1636 1637 1639 1640
          1642 1643 1644 1052 1647 1623
          1683 1624 1684 1627 1685 1686
          1629 1690 1691 1668 1061 2205
          2211 2206 2213 2209 2513 2538
          2539 2541 1665 2544 1666 2558
          2559 2562 2564 2594 2596 2598
          4055 4144 4145 4147 2578 4150
          2579 4061 4160 4162 4164 2581
          4178 4179 4181 1060 4184 2584
          4194 4196 4198 1671 4226 4236
          4238 4240
        </DataArray>
        <DataArray type="Float64" Name="bounds" format="ascii" RangeMin="0" RangeMax="0">
          0 0 0 0 0 0
          0 0 0 0 0 0
          0 0 0 0 0 0
          0 0 0 0 0 0
          0 0 0 0 0 0
          0 0 0 0 0 0
          0 0 0 0 0 0
          0 0 0 0 0 0
          0 0 0 0 0 0
          0 0 0 0 0 0
          0 0 0 0 0 0
          0 0 0 0 0 0
          0 0 0 0 0 0
          0 0 0 0 0 0
          0 0 0 0 0 0
          0 0 0 0 0 0
          0 0 0 0 0 0
          0 0 0 0 0 0
          0 0 0 0 0 0
          0 0 0 0 0 0
          0 0 0 0 0 0
          0 0 0 0 0 0
          0 0 0 0 0 0
          0 0 0 0 0 0
          0 0 0 0 0 0
          0 0 0 0 0 0
          0 0 0 0 0 0
          0 0 0 0 0 0
          0 0 0 0 0 0
          0 0 0 0 0 0
          0 0 0 0 0 0
          0 0 0 0 0 0
          0 0 0 0 0 0
          0 0 0 0 0 0
          0 0 0 0 0 0
          0 0 0 0 0 0
          0 0 0 0 0 0
          0 0 0 0 0 0
          0 0 0 0 0 0
          0 0 0 0 0 0
          0 0 0 0 0 0
          0 0 0 0 0 0
          0 0 0 0 0 0
          0 0 0 0 0 0
          0 0 0 0 0 0
          0 0 0 0 0 0
          0 0 0 0 0 0
          0 0 0 0 0 0
          0 0 0 0 0 0
          0 0 0 0 0 0
          0 0 0 0 0 0
          0 0 0 0 0 0
          0 0 0 0 0 0
          0 0 0 0 0 0
          0 0 0 0 0 0
          0 0 0 0 0 0
          0 0 0 0 0 0
          0 0 0 0 0 0
          0 0 0 0 0 0
          0 0 0 0 0 0
          0 0 0 0 0 0
          0 0 0 0 0 0
          0 0 0 0 0 0
          0 0 0 0 0 0
          0 0 0 0 0 0
          0 0 0 0 0 0
          0 0 0 0 0 0
          0 0 0 0 0 0
          0 0 0 0 0 0
          0 0 0 0 0 0
          0 0 0 0 0 0
          0 0 0 0 0 0
          0 0 0 0 0 0
          0 0 0 0 0 0
          0 0 0 0 0 0
          0 0 0 0 0 0
          0 0 0 0 0 0
          0 0 0 0 0 0
          0 0 0 0 0 0
          0 0 0 0 0 0
          0 0 0 0 0 0
          0 0 0 0 0 0
          0 0 0 0 0 0
          0 0 0 0 0 0
          0 0 0 0 0 0
          0 0 0 0 0 0
          0 0 0 0 0 0
          0 0 0 0 0 0
          0 0 0 0 0 0
          0 0 0 0 0 0
          0 0 0 0 0 0
          0 0 0 0 0 0
          0 0 0 0 0 0
          0 0 0 0 0 0
          0 0 0 0 0 0
          0 0 0 0 0 0
          0 0 0 0 0 0
          0 0 0 0 0 0
          0 0 0 0 0 0
          0 0 0 0 0 0
          0 0 0 0 0 0
          0 0 0 0 0 0
          0 0 0 0 0 0
          0 0 0 0 0 0
          0 0 0 0 0 0
          0 0 0 0 0 0
          0 0 0 0 0 0
          0 0 0 0 0 0
          0 0 0 0 0 0
          0 0 0 0 0 0
          0 0 0 0 0 0
          0 0 0 0 0 0
          0 0 0 0 0 0
          0 0 0 0 0 0
          0 0 0 0 0 0
          0 0 0 0 0 0
          0 0 0 0 0 0
          0 0 0 0 0 0
          0 0 0 0 0 0
          0 0 0 0 0 0
          0 0 0 0 0 0
          0 0 0 0 0 0
          0 0 0 0 0 0
          0 0 0 0 0 0
          0 0 0 0 0 0
          0 0 0 0 0 0
          0 0 0 0 0 0
          0 0 0 0 0 0
          0 0 0 0 0 0
          0 0 0 0 0 0
          0 0 0 0 0 0
          0 0 0 0 0 0
          0 0 0 0 0 0
          0 0 0 0 0 0
          0 0 0 0 0 0
          0 0 0 0 0 0
          0 0 0 0 0 0
          0 0 0 0 0 0
          0 0 0 0 0 0
          0 0 0 0 0 0
          0 0 0 0 0 0
          0 0
        </DataArray>
        <DataArray type="Float64" Name="gradient_error" format="ascii" RangeMin="1.9331841887552204e-10" RangeMax="1.3980678773825417e-7">
          1.2212087080894916e-9 2.2940617134196228e-9 8.596319446115742e-9 2.8087848814484973e-8 1.895049244377081e-8 3.213983369932335e-10
          4.592858990411451e-9 1.558259381244516e-8 2.8641981398072682e-8 3.24937915324673e-8 9.106229481676676e-8 7.984176439104951e-8
          2.6808182204296773e-8 3.197737731187653e-8 3.251916770666884e-8 1.3980678773825417e-7 3.351478037851217e-8 3.397698390457323e-9
          1.6737056553200604e-8 5.0774985382453615e-8 5.245925592352463e-9 1.9151723121050166e-8 1.6229098699234083e-8 1.317074321131096e-7
          7.683534629641586e-9 1.9622187833102356e-9 1.8046333480097609e-9 6.863682000123509e-9 6.380955307206432e-9 1.6913108610762895e-9
          5.910060875762549e-9 5.762207453014629e-9 1.6470479127092862e-9 5.898228614289354e-9 5.6143540302667076e-9 9.525695232512802e-10
          9.314426073694164e-10 3.2429503257488313e-9 3.1779635710801916e-9 3.160601965078792e-10 1.1562247488809266e-9 1.1243947460127383e-9
          9.103156914875527e-10 3.1129768164115532e-9 1.09256474314455e-9 2.6876121337064265e-8 2.563133482561862e-8 2.026407705362824e-8
          2.1523590466232815e-8 1.2638447622824829e-8 1.4856520508306862e-8 7.959359511338124e-8 6.647748598549061e-8 9.906916973470128e-9
          6.805754055868018e-8 5.6311745498964315e-8 1.7074593393788894e-8 5.336137685760001e-8 4.456595043924845e-8 9.852216976270917e-8
          7.929152647234278e-8 7.169332055175214e-8 8.248262099868691e-8 5.9594376761383005e-9 3.1301079959590066e-8 7.1398107008689e-9
          3.510579925258492e-8 1.0998059811593238e-7 1.0768000803415243e-7 1.5992795024655319e-9 3.962978994738003e-9 5.132932493306298e-9
          1.381453657802122e-7 3.032496180858496e-8 4.986330944057361e-8 4.260908147556021e-8 5.89010437703512e-8 7.935174737753381e-8
          1.0507061831171184e-7 7.070296000554106e-8 9.729267433387715e-8 2.8588074423378025e-8 3.452003002158093e-8 2.616499949691528e-8
          1.3078948924588985e-7 1.2388238866221327e-7 4.045198561978384e-8 3.2623500140204827e-9 6.04947758586156e-9 5.4819211919416056e-8
          4.498177153835978e-8 3.4776897198856222e-9 4.1021144690171346e-8 3.336909773038119e-8 8.836605157702637e-9 3.5144331157303504e-8
          2.5717050770591047e-8 7.990225870227134e-8 6.147393776923119e-8 4.907427823970581e-8 6.32456569756928e-8 8.901313992671596e-9
          3.892033282541408e-8 4.1848232991304456e-8 1.0223907883072562e-7 9.284252462396304e-8 3.269248765649114e-9 6.970626485051507e-9
          1.3824470352762917e-7 6.053391116124359e-8 8.707147826758373e-8 4.9123186305747516e-8 7.445857243068878e-8 1.5573126732906127e-8
          1.827132065331343e-8 1.15379511590424e-8 1.136090453739239e-7 9.979395855563004e-8 2.0969514573720733e-8 1.3475595920808562e-8
          1.379126750853919e-8 8.290559223324475e-9 1.4057453864849192e-8 1.3971093255071518e-8 4.881188509387946e-8 4.6342456917783424e-8
          4.7711658854779236e-8 3.991689891116585e-8 5.200354509381203e-8 4.8844135148241166e-8 4.959092092101275e-8 4.076039380603037e-8
          3.9739950226634e-8 4.46643059372522e-8 2.9090790762987186e-8 4.0500696489623764e-8 4.621886334700461e-8 4.7980595787816065e-8
          1.7418354423986846e-8 2.4064042216608513e-8 1.933641099634317e-8 2.9593462735393125e-8 3.0128410424851313e-8 4.2202109943174503e-8
          3.1043986609845424e-8 4.379554357691562e-8 4.971292657634658e-8 5.129650291787396e-8 6.499874007520115e-9 2.0700259040635066e-8
          2.2221071117727098e-8 3.316414727222127e-8 3.214829596226459e-8 3.7963297490453027e-8 3.186288225945229e-8 3.854480997516603e-8
          2.833582284388485e-8 3.309510994913334e-8 3.304790214862814e-8 3.5502840234514563e-8 3.694178491217592e-8 4.285707438154034e-8
          3.133028288263793e-8 3.896821257871788e-8 3.0511574452118095e-8 3.91526556928541e-8 2.6824503355885403e-8 3.279424746116322e-8
          3.2288194268374706e-8 3.835142708360952e-8 3.9655801871273343e-8 4.5720659413240975e-8 2.7399333132012106e-9 3.1165528965971246e-9
          3.2657862029984943e-9 3.643449730405711e-9 4.889595589423741e-9 5.199954723678219e-9 1.3433366378356765e-9 2.224027129231424e-9
          2.6151213227044125e-9 3.6311550478368046e-9 3.895092630826822e-9 4.300309972502735e-9 4.673347134501776e-9 5.1086265803766005e-9
          5.625079104071237e-9 6.207045184878387e-9 1.9124180237485234e-9 3.0874873180243987e-9 3.6568180403989336e-9 4.453851099787976e-9
          2.8300804984192026e-8 2.99397782957386e-8 4.994463439281499e-8 5.271609799708817e-8 2.92715481650988e-8 3.106688026342655e-8
          5.202951707693111e-8 3.167114516613895e-8 3.3504206543915497e-8 5.5625754466776814e-8 5.868430336528888e-8 3.2985546023702585e-8
          3.5057920071453763e-8 5.8574181673512716e-8 5.3694936888738915e-8 4.9787502454519966e-8 4.922656534338125e-8 4.01329609678263e-8
          3.729926361582493e-8 3.1670599623390885e-8 4.514253497305511e-8 3.186658948708459e-8 4.609283859635277e-8 5.2607839666352034e-8
          5.35150565108421e-8 7.933252394636331e-9 2.387543964177593e-8 2.5624963907479413e-8 3.705151124708982e-8 5.3867717766377466e-8
          5.347030428528368e-8 4.058419243239568e-8 2.938076472761757e-8 3.903134595662625e-8 2.791657558438511e-8 3.853304304368134e-8
          2.437567553988356e-8 3.149172880557796e-8 3.036862412415762e-8 4.0785516192753236e-8 4.165337163142283e-8 4.7939420185555026e-8
          2.6121017709476856e-8 3.759422068510868e-8 2.3943723332438088e-8 3.610663498630822e-8 2.1000783289264045e-8 2.8896259128610243e-8
          2.70000937063235e-8 4.2121932464602055e-8 4.201687587370492e-8 4.878793926383962e-8 5.638283023418088e-9 6.066875927232641e-9
          6.8133360850459435e-9 7.211129808891521e-9 6.966122585629703e-9 7.889341057776908e-9 2.7490079975205294e-9 4.341317912690643e-9
          5.149292512352304e-9 5.9883992858729e-9 8.958445836015857e-9 8.07523951435804e-9 3.5385350663886466e-8 3.720268237349537e-8
          6.180559843463808e-8 6.475342218630167e-8 3.7247555451249236e-8 3.951035475348183e-8 6.634013856943847e-8 3.88340771288328e-8
          4.015193079556702e-8 6.727889204669805e-8 6.911060545985075e-8 4.1674758010222116e-8 4.359260977463463e-8 7.377364053367327e-8
          6.234987763529745e-9 6.2848850945407844e-9 6.236178915764858e-9 7.1942635930104275e-9 7.3896313730918745e-9 7.367312833602416e-9
          7.677113046825809e-9 7.344994294112959e-9 7.165246836293106e-9 7.144037378325806e-9 7.1228279203585064e-9 4.133727614834454e-9
          4.328167228904115e-9 5.3144560958733674e-9 5.0347596884725884e-9 7.282639661534741e-9 7.281805027458643e-9 7.526403354587505e-9
          7.549436706791021e-9 7.280970393382544e-9 7.57247005899454e-9 5.765698222607757e-9 5.864529374125663e-9 6.066728743577001e-9
          5.9375119302674236e-9 5.905964405976496e-9 6.092797455731365e-9 6.398834653424879e-9 6.285011999835267e-9 6.488534584838774e-9
          6.895334656018626e-9 7.957861861541417e-9 7.951565017602818e-9 8.245409760967673e-9 7.945268173664219e-9 8.589623533079646e-9
          8.571839792018868e-9 8.919135428062554e-9 8.554056050958089e-9 7.778364170968087e-9 7.810424902678156e-9 8.035932211634826e-9
          8.080067779539994e-9 7.842485634388223e-9 8.124203347445162e-9 6.216135337551978e-9 6.31793282481901e-9 6.594750967217134e-9
          6.3798212216069634e-9 8.305619770980758e-9 8.363253332656275e-9 8.589032430580843e-9 8.65927267340252e-9 8.420886894331793e-9
          8.729512916224196e-9 6.805274274326889e-9 6.896771691446379e-9 7.227617352119117e-9 6.931207670915367e-9 6.709192366275747e-9
          6.951399347950473e-9 7.381134806108831e-9 7.22494139823516e-9 7.545225751696365e-9 7.964654169717776e-9 6.417367903241302e-9
          6.722529701733559e-9 6.302082777614442e-9 6.961943667421037e-9 7.2028275230999124e-9 6.817427282960225e-9 7.461085504230101e-9
          7.739061411500514e-9 7.278283088145233e-9 8.028599609249987e-9 8.319150317234932e-9 7.760688879920383e-9 3.5278560298799225e-9
          3.661532165710659e-9 3.707839359954653e-9 3.8364114123880165e-9 4.131006467561544e-9 4.304668383495685e-9 2.5150770118636107e-9
          2.619860822677865e-9 2.844808879475178e-9 2.8939210198966585e-9 3.9157378422311066e-9 4.0346900799196785e-9 4.1715801495561384e-9
          4.281961568924196e-9 4.502466649183657e-9 4.7397850977732355e-9 2.9912937113269736e-9 3.0979896249588348e-9 3.3767589572254474e-9
          3.3664465301128193e-9 4.983910020578426e-9 5.12810318041629e-9 5.954284165590468e-9 6.09798263261639e-9 3.5104680458922756e-9
          3.670524560959344e-9 4.822513725294266e-9 5.311181467643587e-9 5.523825977514279e-9 6.279909230200527e-9 6.480421969656523e-9
          3.874647831210112e-9 4.1165835525309396e-9 5.027425989819637e-9 1.6706869002206955e-9 1.8687204961309486e-9 1.8201974091817461e-9
          2.0317138547478027e-9 2.306847474490463e-9 2.5039317269451084e-9 1.2332042216395613e-9 1.4926164494233702e-9 1.6218542133318236e-9
          2.0531061558381102e-9 1.98590656553057e-9 2.2115404054141537e-9 2.1698724284727545e-9 2.410570022247286e-9 2.718060959378906e-9
          2.950654943175413e-9 1.4649528976315008e-9 1.7637201938135363e-9 1.9198481474943036e-9 2.4103675078244162e-9 2.774712361309052e-9
          2.983926975537075e-9 3.817290551206286e-9 3.940239324697201e-9 2.5903442660139086e-9 2.790213734256677e-9 3.499287329580099e-9
          3.214175848374779e-9 3.4731783783269234e-9 4.086600276450094e-9 4.263807164170288e-9 3.0164069697812395e-9 3.2723070217817514e-9
          3.782832377643342e-9 4.48084494476767e-9 4.5799793071118015e-9 4.83881165866209e-9 4.921164890438076e-9 5.015800107099154e-9
          5.329810915136584e-9 3.5648677937338046e-9 3.6820775209363435e-9 4.019557726596166e-9 3.95277802341136e-9 5.2462077863961954e-9
          5.309533503702894e-9 5.702191607484273e-9 5.745811119433698e-9 5.687162376531909e-9 6.0878124880296264e-9 4.26286288022101e-9
          4.394147989274634e-9 4.810167778296957e-9 4.686323329313424e-9 5.761645552881094e-9 6.026776043555385e-9 6.7017086197346285e-9
          6.9456801524264686e-9 4.393735943213519e-9 4.7072252842347956e-9 5.397848519348107e-9 6.328595111014623e-9 6.677271669979583e-9
          7.219862314897018e-9 7.532262693799264e-9 5.05813334763304e-9 5.4476129210054585e-9 5.893025136216103e-9 2.374657917481206e-9
          2.6314591106859146e-9 2.6030696578695747e-9 2.877101871088619e-9 3.207049080980564e-9 3.491129597259286e-9 1.747865942320945e-9
          2.0921409318382166e-9 2.2826419335391055e-9 2.840262044482388e-9 2.8582167596499034e-9 3.150578064030481e-9 3.1429264552609354e-9
          3.4546566143410717e-9 3.80505406178828e-9 4.1506282825691745e-9 2.0941907918782697e-9 2.4930506473184074e-9 2.7247751254598747e-9
          3.3588335804932245e-9 3.764119150345637e-9 4.086579882633493e-9 4.47921290499749e-9 4.737742100428631e-9 3.5548651537506808e-9
          3.860861935957694e-9 4.185011204659194e-9 4.437066168694117e-9 4.8156594862605786e-9 5.040315063605016e-9 5.385578611966121e-9
          4.190114465916238e-9 4.54541071877304e-9 4.769650314854088e-9 6.402818549758624e-9 6.631721250932094e-9 6.39808417591147e-9
          6.679330295294002e-9 6.0489125960930816e-9 6.189269489971482e-9 6.4105364270809864e-9 6.8536416518888235e-9 7.08184965279781e-9
          6.918536797904703e-9 7.163280114056918e-9 6.3692275153074805e-9 6.564684343021309e-9 6.90469119176097e-9 5.477507758266311e-9
          5.604599177421572e-9 6.322918279798428e-9 6.531940502946534e-9 5.245459520622402e-9 5.37157217503081e-9 6.318849279643383e-9
          5.7536556381940035e-9 5.919546361079148e-9 6.763514746777303e-9 7.007792880142557e-9 5.514195882129658e-9 5.670595818611389e-9
          6.737293422881849e-9 7.325198993679653e-9 7.589100521589712e-9 7.417785308909859e-9 7.68428911737815e-9 6.773948878004365e-9
          7.0044203139069684e-9 7.433403805055716e-9 7.87331870344773e-9 8.172873753834998e-9 7.96263746707645e-9 8.249571115354499e-9
          7.265675050920133e-9 7.556619494474517e-9 8.01435296437555e-9 6.102908130876631e-9 6.311099871635546e-9 7.249790894379051e-9
          7.48875019746991e-9 5.847230988873735e-9 6.052498747136065e-9 7.190061708321154e-9 6.551160307519014e-9 6.820365082718639e-9
          7.72865407005073e-9 7.966022122309053e-9 6.28900831084324e-9 6.55408836692331e-9 7.593188265582877e-9 9.302556305064585e-9
          9.269167707269022e-9 9.616016455732654e-9 9.23577910947346e-9 9.981202763049723e-9 9.95858554557716e-9 1.0291172041579932e-8
          9.935968328104595e-9 8.88968148314904e-9 8.968603523291075e-9 9.214892252199476e-9 9.296501015229995e-9 9.047525563433108e-9
          9.378109778260514e-9 7.513918022089755e-9 7.593750915641974e-9 7.999751267076292e-9 7.624311923109315e-9 9.567191187749297e-9
          9.645193567646311e-9 9.940219955308956e-9 1.0009664266282774e-8 9.723195947543324e-9 1.0079108577256592e-8 8.39718471180416e-9
          8.445554260638649e-9 8.928198630039915e-9 8.474531284556162e-9 7.921177738992949e-9 8.345191338826378e-9 8.640748307071332e-9
          8.80585045545687e-9 9.29935059143224e-9 9.422454490775235e-9 9.44149223417618e-9 9.44389978247345e-9 9.462655130329346e-9
          9.82157022201903e-9 1.0282144260870974e-8 1.11876480970471e-8 8.609503869504393e-9 8.908635769584794e-9 8.254098451912458e-9
          9.221455947873837e-9 9.543775142035339e-9 8.773957590388733e-9 9.866666524583253e-9 1.0183417877945087e-8 9.316834242016027e-9
          1.0484359208371331e-8 1.0757896313079043e-8 9.791139740602119e-9 6.202730325021718e-9 6.2275571627880235e-9 6.744030239733224e-9
          6.752270569739185e-9 6.531906158508075e-9 7.020060915759196e-9 5.130640492886136e-9 5.270534308849223e-9 5.778500145828457e-9
          5.567070910817599e-9 7.325024760778077e-9 7.318962013031775e-9 7.946643001832295e-9 7.927819760067598e-9 7.551675596658407e-9
          8.126096252176889e-9 6.198875244589455e-9 6.3375304600708655e-9 6.9493417390040355e-9 6.614105585536262e-9 7.076157359280652e-9
          7.520412107343812e-9 7.883807601344188e-9 8.26940384798653e-9 5.877230877912274e-9 6.348568877007735e-9 6.5653045608701e-9
          8.004621845301563e-9 8.526992274577618e-9 8.683608164267448e-9 9.123205471818958e-9 6.863217823456466e-9 7.4224541800837385e-9
          7.408429973455561e-9 3.45964197015426e-9 3.792126679997992e-9 3.810248103903407e-9 4.165322735237774e-9 4.5304497570130954e-9
          4.947960251380545e-9 2.5124342216336713e-9 2.9788365759027652e-9 3.255669358871757e-9 3.983738133439548e-9 4.19562419394308e-9
          4.575529678768143e-9 4.614779200619917e-9 5.022210918925542e-9 5.40582161455055e-9 5.904337851440623e-9 3.0023576091039527e-9
          3.554615531896264e-9 3.8731371108839946e-9 4.730198108002175e-9 5.227622578170396e-9 5.677370873086639e-9 5.7728495464973614e-9
          6.201070445230562e-9 4.931920380084597e-9 5.353236868019052e-9 5.5419568668715674e-9 6.166404295228466e-9 6.695444549706336e-9
          6.668338551483752e-9 7.1736301668578696e-9 5.809766178690256e-9 6.300614696968189e-9 6.464578993816039e-9 8.609124119983763e-9
          8.578052817476288e-9 8.741139320418748e-9 7.479943388719094e-9 7.612815810095532e-9 7.857249658370045e-9 9.084728522890655e-9
          9.586138261364554e-9 1.0071942064896856e-8 8.025732522672107e-9 8.406517825539111e-9 1.0578979021316797e-8 9.54343081421158e-9
          5.063292287970022e-9 5.501603479675927e-9 6.4410169932157045e-9 3.5430949317443864e-9 4.205442340559227e-9 5.594824865613874e-9
          7.2638765102152406e-9 7.715603671880922e-9 8.2902300022287e-9 6.824174798848543e-9 7.508303954541753e-9 8.891602947675513e-9
          8.666654212514357e-9 8.484464674687121e-9 8.80993446193159e-9 8.542200548785343e-9 8.842274510804498e-9 7.87008266081303e-9
          8.207622448302621e-9 8.640304258887518e-9 9.149419187791416e-9 9.499388487012097e-9 9.15041380961972e-9 9.463154593490638e-9
          8.572416975543094e-9 8.961314270448165e-9 9.302384155567758e-9 7.112622656566731e-9 7.43840643964493e-9 8.198503252295063e-9
          8.453890598813064e-9 6.844505471377247e-9 7.172801136962998e-9 7.946700632473316e-9 7.809005698456938e-9 8.21917879709993e-9
          8.75793481889541e-9 9.102953294246716e-9 7.550559873536677e-9 7.970730885292382e-9 8.437971355506013e-9 9.855588043980644e-9
          1.0217630354624523e-8 9.773059485144806e-9 1.0076419140666224e-8 9.371066075611095e-9 9.805947624606944e-9 1.0011750460220054e-8
          1.0583279870771541e-8 1.0945053614080457e-8 1.0366378835947552e-8 1.0628104709289028e-8 1.0269171212042639e-8 1.0754088230368755e-8
          1.0787929629214608e-8 8.6608346131288e-9 9.135315739733264e-9 9.476095587876658e-9 9.885150302289054e-9 8.424046638413447e-9
          8.910579061556595e-9 9.157974983586795e-9 9.642430451122647e-9 1.0171997598685768e-8 1.0335777061738679e-8 1.0811360844009614e-8
          9.428719011331767e-9 9.968029651715898e-9 1.0037312796341132e-8 1.3319707737716107e-9 1.1915113429598714e-9 7.966145243844333e-10
          1.111060991815611e-9 6.410203788320884e-9 9.793612805652867e-10 1.401093266718292e-9 5.080167673691072e-10 5.487536639854659e-10
          4.297476548384052e-10 8.647740134691829e-8 7.662511863804099e-10 4.1235015173446614e-10 3.7012674463656767e-10 5.411882939331674e-10
          1.5904928359813285e-9 1.9331841887552204e-10 1.9590625808109764e-10 1.5257388835197523e-9 6.980294037070815e-9 5.325731899460622e-9
          3.671169761850429e-9 2.323799333714915e-8 1.6156192390061327e-8 2.5248727027186625e-9 4.984175025903425e-9 2.706540406620945e-8
          6.097454839719292e-9 1.1666475453864214e-8 1.985708446809213e-9 3.124908061216743e-9 4.952532922839758e-8 9.670036976719922e-9
          1.8348775881825003e-8 4.264107675624272e-9 1.0775016022371258e-9 1.261599298283647e-9 1.4456969943301686e-9 3.1231967409656444e-8
          1.0127964854017672e-7 9.60536822946195e-8 8.172205303776233e-8 8.702087540222244e-8 8.893747435114006e-8 7.498359255615566e-8
          4.851052890945074e-8 5.387415346882354e-8 4.96085084604472e-8 1.0275190735017732e-7 8.44113536139112e-8 6.567270791339636e-8
          6.076628573324513e-8 1.1602812293077259e-7 1.1403030117581371e-7 5.624604100797229e-8 6.646086300075388e-8 1.1054719467026657e-7
          1.3698284099008956e-7 1.367405228671741e-7 1.3487605964216805e-7 1.0990913778527408e-7 1.3438131442348327e-7 1.3301869585205903e-8
          2.1844043951422748e-8 2.4786940270271507e-8 2.036859855703531e-8 1.458767586716413e-8 4.484263948176444e-8 4.97085100185372e-8
          4.8537359114146754e-8 4.446948709963064e-8 2.821273769173737e-8 2.8576689729601717e-8 3.318142571616686e-8 3.2078420543262844e-8
          3.719940675734926e-8 3.282604752519356e-8 3.9288741122575927e-8 3.1964900943405984e-8 4.735292531534955e-8 2.763067119641875e-8
          4.229948302957552e-9 3.3678340756904237e-9 3.501755883580563e-9 3.9798704322094435e-9 2.318535961300821e-9 2.4202424996370297e-9
          2.6983417433344133e-9 5.732896816103797e-9 4.871601553348566e-9 5.7239570469382e-9 3.3869662635444646e-9 9.977220416784073e-9
          1.5359633027534865e-9 1.720726851427662e-9 2.12665739698568e-9 1.1331590818577967e-9 1.3745321677848398e-9 1.895071459047054e-9
          2.585219578349931e-9 3.7182371025409178e-9 2.406812920204268e-9 3.3907749704439047e-9 5.843891263935028e-9 5.37059963994109e-9
          6.127339837630686e-9 5.1427535967555505e-9
        </DataArray>
        <DataArray type="Float64" Name="gradient_matprop_error" format="ascii" RangeMin="0" RangeMax="0">
          0 0 0 0 0 0
          0 0 0 0 0 0
          0 0 0 0 0 0
          0 0 0 0 0 0
          0 0 0 0 0 0
          0 0 0 0 0 0
          0 0 0 0 0 0
          0 0 0 0 0 0
          0 0 0 0 0 0
          0 0 0 0 0 0
          0 0 0 0 0 0
          0 0 0 0 0 0
          0 0 0 0 0 0
          0 0 0 0 0 0
          0 0 0 0 0 0
          0 0 0 0 0 0
          0 0 0 0 0 0
          0 0 0 0 0 0
          0 0 0 0 0 0
          0 0 0 0 0 0
          0 0 0 0 0 0
          0 0 0 0 0 0
          0 0 0 0 0 0
          0 0 0 0 0 0
          0 0 0 0 0 0
          0 0 0 0 0 0
          0 0 0 0 0 0
          0 0 0 0 0 0
          0 0 0 0 0 0
          0 0 0 0 0 0
          0 0 0 0 0 0
          0 0 0 0 0 0
          0 0 0 0 0 0
          0 0 0 0 0 0
          0 0 0 0 0 0
          0 0 0 0 0 0
          0 0 0 0 0 0
          0 0 0 0 0 0
          0 0 0 0 0 0
          0 0 0 0 0 0
          0 0 0 0 0 0
          0 0 0 0 0 0
          0 0 0 0 0 0
          0 0 0 0 0 0
          0 0 0 0 0 0
          0 0 0 0 0 0
          0 0 0 0 0 0
          0 0 0 0 0 0
          0 0 0 0 0 0