<?xml version="1.0"?>
<VTKFile type="UnstructuredGrid" version="0.1" byte_order="LittleEndian" header_type="UInt32" compressor="vtkZLibDataCompressor">
  <UnstructuredGrid>
    <Piece NumberOfPoints="3827" NumberOfCells="2955">
      <PointData>
        <DataArray type="Int32" Name="libmesh_node_id" format="ascii" RangeMin="1392" RangeMax="38346">
          1392 1393 1394 1404 2523 2529
          2535 2536 2537 2562 2567 2572
          2574 3064 3070 3072 3073 3074
          3080 3082 3086 3087 3088 3131
          3137 3139 3140 4699 4700 4701
          4702 4704 4705 4706 4707 4708
          4709 4710 4711 4712 4718 4733
          4734 4735 4736 4737 4738 4739
          4740 4741 4742 4743 4744 4745
          4746 4868 4889 4891 4892 4893
          4895 4908 4910 4911 4912 4913
          4914 4915 4916 6701 6735 6758
          6760 6761 6762 6764 6765 6766
          6767 6768 6769 6770 6771 6772
          6794 6795 6796 6800 6801 6802
          6803 6810 6811 6812 6820 6821
          6823 6824 6825 6826 6827 6828
          6829 6830 6831 6832 6833 6834
          6835 6836 6837 6838 6839 6840
          6844 6845 6846 6847 7061 7063
          7064 7065 7067 7095 7096 7097
          7098 7104 7105 7109 7110 7111
          7112 7113 7114 7115 7116 7117
          7118 7119 7577 7579 7581 7583
          7587 7588 7597 7600 7601 7602
          7603 7604 7605 7606 7648 7650
          7651 7652 7655 7656 7658 7661
          7662 7688 7689 7690 7691 7692
          7693 7694 7695 7696 7697 7698
          7702 7703 7705 7706 7707 7708
          7712 7713 9457 9460 9461 9462
          9463 9464 9465 9466 9467 9468
          9469 9470 9471 9472 9473 9474
          9475 9476 9477 9478 9479 9480
          9481 9482 9483 9484 9485 9486
          9487 9488 9489 9490 9491 9492
          9493 9494 9495 9496 9497 9498
          9499 9500 9501 9502 9503 9504
          9505 9506 9507 9508 9509 9510
          9511 9512 9513 9514 9515 9516
          9517 9518 9519 9520 9521 9522
          9559 9560 9561 9562 9563 9564
          9565 9566 9567 9568 9569 9570
          9571 9572 9573 9574 9575 9576
          9577 9578 9579 9580 9581 9582
          9583 9584 9585 9586 9587 9588
          9589 9590 9591 9592 9593 9594
          9595 9596 9597 9598 9599 9600
          9601 9602 9603 9604 9605 9606
          9607 9608 9609 9610 9611 9612
          9613 9614 10304 10305 10306 10307
          10310 10318 10319 10320 10321 10322
          10323 10324 10325 10326 10327 10328
          10329 10330 10331 10332 10334 10335
          10336 10338 10346 10347 10348 10349
          10350 10351 10352 10353 10354 10355
          10356 10357 10358 10359 10367 10368
          10369 10370 10371 10372 10373 10381
          10382 10383 10384 10385 10386 10387
          10419 10420 10421 10422 10423 10424
          10425 10426 10427 10428 10429 10430
          10431 10432 10433 10434 10435 10436
          10437 10438 10439 10440 10441 10442
          10443 10444 10445 10446 11293 11300
          11301 11302 11303 11304 11305 11306
          11307 11308 11309 11310 11311 11312
          11313 11314 11315 11316 11317 11318
          11319 11320 11321 11322 11323 11324
          11325 11326 11327 11328 11329 11330
          11331 11332 11333 11334 11335 11336
          11337 11338 11339 11340 11341 11342
          11343 11344 11345 11346 11347 11348
          11349 11350 11351 11352 11353 11354
          11355 11356 11357 11358 11359 11360
          11361 11362 11363 11364 11365 11366
          11367 11368 11399 11459 11460 11505
          11506 11507 11508 11509 11510 11517
          11518 11519 11520 11521 11522 11523
          11524 11525 11526 11527 11528 11529
          11530 11531 11532 11533 11534 11535
          11536 11537 11538 11539 11540 11541
          11542 11543 11544 11553 11555 11561
          11562 11567 11568 11569 11573 11574
          11575 11576 11577 11578 11579 11580
          11581 11582 11583 11584 11585 11586
          11587 11588 11589 11590 11591 11592
          11593 11594 11595 11596 11597 11598
          11599 11600 11601 11602 11603 11604
          11605 11606 11607 11608 11609 11610
          11611 11612 11613 11614 11615 11616
          11617 11618 11619 11620 11621 11622
          11623 11624 11625 11626 11627 11628
          11629 11630 11631 11632 11633 11634
          11635 11636 11637 11638 11639 11640
          11641 11642 11643 11644 11645 11646
          11653 11654 11655 11656 11657 11658
          11659 11660 11661 11662 11663 11664
          11665 11666 11667 11668 11669 11670
          11671 11672 11673 11674 11675 11676
          11677 11678 11679 11680 11681 11682
          11683 11684 11688 11689 11690 11691
          11695 11696 11698 11702 11703 11704
          11705 12649 12725 12727 12728 12729
          12731 12739 12740 12741 12742 12743
          12744 12745 12746 12747 12748 12749
          12750 12751 12752 12753 12755 12756
          12757 12759 12767 12768 12769 12770
          12771 12772 12773 12774 12775 12776
          12777 12778 12779 12780 12788 12789
          12790 12791 12792 12793 12794 12802
          12803 12804 12805 12806 12807 12808
          12945 12947 12948 12949 12950 12951
          12954 12955 12958 12959 12960 12961
          12962 12963 12964 12965 12966 12967
          12968 12969 12970 12971 12972 12973
          12974 12975 12976 12987 12988 12989
          12990 12996 12997 13003 13004 13008
          13009 13010 13011 13012 13013 13014
          13024 13029 13030 13031 13032 13033
          13034 13035 13036 13037 13038 13039
          13040 13041 13042 13043 13044 13045
          13046 13047 13048 13049 13050 13051
          13052 13053 13054 13055 13056 13057
          13058 13059 13060 13061 13062 13063
          13064 13065 13066 13067 13068 13069
          13070 13071 13072 13073 13074 13075
          13076 13077 13078 13079 13080 13081
          13082 13083 13084 13085 13086 13087
          13088 13089 13090 13091 13095 13096
          13097 13098 13102 13103 13104 13907
          13908 14205 14207 14208 14400 14401
          14404 14405 14406 14407 14408 14409
          14410 14411 14412 14413 14452 14453
          14454 14455 14456 14457 14458 14459
          14460 14461 14462 14463 14464 14465
          14466 14467 14468 14469 14470 14471
          14472 14473 14474 14475 14476 14477
          14478 14479 14480 14612 14613 14614
          14615 14616 14617 14618 14619 14620
          14621 14622 14623 14624 14625 14626
          14627 14628 14629 14630 14631 14632
          14633 14634 14635 14636 14637 14638
          14639 14640 14641 14642 14643 14645
          20717 20719 20721 20722 20723 20727
          20730 20733 20734 20737 20739 20741
          20742 20743 20744 20745 20746 20747
          20748 20749 20750 20751 20754 20755
          20758 20761 20762 20765 20766 20767
          20768 20769 20770 20771 20772 20773
          20774 20775 20776 20777 20778 20779
          20782 20785 20786 20787 20788 20789
          20790 20791 20793 20796 20797 20798
          20799 20800 20801 20802 20803 20804
          20805 20810 20811 20812 20813 20814
          20817 20818 20819 20820 20821 20822
          20823 20824 20825 20826 20827 20828
          20829 20830 20831 20832 20833 20834
          20835 20836 20837 20838 20839 20840
          20841 20842 20843 20844 20845 20846
          20847 20849 20851 20852 20853 20854
          20855 20856 20857 20858 20859 20862
          20863 20866 20869 20870 20873 20874
          20875 20876 20877 20878 20879 20880
          20881 20882 20883 20884 20885 20886
          20887 20890 20891 20894 20897 20898
          20901 20902 20903 20904 20905 20906
          20907 20908 20909 20910 20911 20912
          20913 20914 20915 20916 20917 20918
          20919 20920 20921 20922 20923 20924
          20925 20926 20927 20928 20929 20930
          20931 20932 20933 20934 20935 20936
          20937 20938 20939 20940 20941 20942
          20943 20944 20945 20946 20947 20948
          20949 20950 20951 20952 20953 20954
          20955 20956 20957 20958 20959 20960
          20961 20962 20963 20964 20965 20966
          20967 20968 20969 20970 20971 20972
          20973 20974 20975 20976 20977 20978
          20979 20980 20981 20982 20983 21122
          21125 21126 21127 21128 21129 21130
          21131 21136 21137 21138 21143 21144
          21145 21150 21151 21152 21157 21158
          21159 21160 21161 21162 21163 21164
          21165 21166 21167 21168 21169 21170
          21171 21172 21173 21174 21175 21176
          21177 21178 21179 21180 21181 21182
          21183 21184 21185 21186 21187 21188
          21189 21190 21191 21192 21193 21194
          21195 21196 21197 21198 21199 21200
          21201 21202 21203 21204 21205 21206
          21207 21208 21209 21210 21211 21212
          21213 21214 21215 21216 21217 21218
          21219 21220 21221 21222 21223 21224
          21225 21226 21227 21228 21229 21230
          21231 21232 21233 21234 21235 21236
          21237 21238 21239 21240 21241 21242
          21243 21244 21245 21246 21247 21248
          21249 21250 21251 21252 21253 21254
          21255 21256 21257 21258 21259 21260
          21261 21262 21263 21264 21265 21266
          21267 21268 21269 21270 21271 21272
          21273 21274 21275 21276 21277 21278
          21279 25708 25709 25712 25715 25719
          25720 25721 25722 25723 25724 25725
          25726 25727 25728 25729 25730 25731
          25732 25733 25736 25740 25748 25749
          25750 25751 25752 25753 25754 25755
          25756 25757 25758 25759 25760 25761
          25778 25779 25782 25785 25806 25810
          25818 25819 25820 25821 25822 25823
          25824 25825 25826 25827 25828 25829
          25830 25831 25832 25833 25835 25836
          25837 25838 25839 25840 25841 25842
          25843 25844 25845 25846 25847 25848
          25849 25850 25851 25852 25853 25854
          25855 25856 25857 25858 25859 25860
          25861 25862 25863 25864 25865 25866
          25867 25868 25869 25870 25871 25872
          25873 25874 25875 25876 25877 25878
          25879 25880 25881 25882 25883 25884
          25885 25886 25887 25888 25889 25890
          25891 25892 25893 25894 25895 25896
          25897 25898 25899 25900 25901 25902
          25903 25904 25905 25906 25907 25908
          25909 25910 25911 25912 25913 25914
          25915 25916 25917 25918 25919 25920
          25921 25922 25923 25924 25925 25926
          25927 25928 25929 25932 25936 25943
          25944 25945 25946 25947 25948 25949
          25950 25951 25952 25953 25954 25955
          25956 25957 25960 25961 25964 25967
          25971 25972 25973 25974 25975 25976
          25977 25978 25979 25980 25981 25982
          25983 25984 25985 26002 26006 26030
          26034 26042 26043 26044 26045 26046
          26047 26048 26049 26050 26051 26052
          26053 26054 26055 26056 26057 26058
          26059 26060 26061 26062 26063 26064
          26065 26066 26067 26068 26069 26070
          26071 26072 26073 26074 26075 26076
          26077 26078 26079 26080 26081 26082
          26083 26084 26085 26086 26087 26088
          26089 26090 26091 26092 26093 26094
          26095 26096 26097 26098 26099 26100
          26101 26102 26103 26104 26105 26106
          26107 26108 26109 26110 26111 26112
          26113 26114 26115 26116 26117 26118
          26119 26120 26121 26122 26123 26124
          26125 26126 26127 26128 26129 26130
          26131 26132 26133 26134 26135 26136
          26137 26138 26139 26140 26141 26142
          26143 26144 26145 26146 26147 26148
          26149 26150 26151 26152 26153 26200
          26201 26202 26203 26204 26205 26206
          26207 26208 26209 26269 26270 26271
          26272 26273 26274 26275 26276 26277
          26278 26279 26280 26281 26282 26415
          26416 26417 26422 26423 26424 26429
          26430 26431 26436 26437 26438 26439
          26440 26441 26442 26443 26444 26445
          26446 26447 26448 26449 26450 26451
          26452 26453 26454 26455 26456 26457
          26458 26459 26460 26461 26462 26463
          26464 26465 26466 26471 26472 26473
          26474 26475 26476 26477 26478 26479
          26480 26481 26482 26483 26484 26485
          26486 26487 26488 26489 26490 26491
          26492 26493 26494 26495 26496 26497
          26498 26499 26500 26501 26502 26503
          26504 26505 26506 26507 26508 26509
          26510 26511 26512 26513 26514 26515
          26516 26517 26518 26519 26520 26521
          26522 26523 26524 26525 26526 26527
          26528 26529 26530 26531 26532 26533
          26534 26535 26536 26537 26538 26539
          26540 26541 26542 26543 26544 26545
          26546 26547 26548 26549 26550 26551
          26552 26553 26554 26555 26556 26557
          26558 26559 26560 29190 29197 29198
          29199 29200 29201 29202 29203 29204
          29205 29206 29207 29208 29209 29212
          29213 29216 29219 29220 29223 29224
          29225 29226 29227 29228 29229 29230
          29231 29232 29233 29234 29235 29236
          29237 29240 29241 29244 29247 29248
          29251 29252 29253 29254 29255 29256
          29257 29258 29259 29260 29261 29262
          29263 29264 29265 29266 29267 29268
          29269 29270 29271 29272 29273 29274
          29275 29276 29277 29278 29279 29280
          29281 29282 29283 29284 29285 29286
          29287 29288 29289 29290 29291 29292
          29293 29294 29295 29296 29297 29298
          29299 29300 29301 29302 29303 29304
          29305 29306 29307 29308 29309 29310
          29311 29312 29313 29314 29315 29316
          29317 29318 29319 29320 29321 29322
          29323 29324 29325 29326 29327 29328
          29329 29330 29331 29332 29333 29334
          29335 29336 29337 29338 29339 29340
          29341 29342 29343 29344 29345 29348
          29349 29352 29355 29356 29359 29360
          29361 29362 29363 29364 29365 29366
          29367 29368 29369 29370 29371 29372
          29373 29374 29376 29377 29378 29379
          29380 29383 29384 29385 29386 29387
          29388 29389 29390 29391 29392 29393
          29394 29395 29396 29397 29398 29399
          29400 29401 29402 29403 29404 29405
          29406 29407 29408 29409 29410 29411
          29412 29413 29414 29415 29416 29417
          29418 29419 29420 29421 29422 29423
          29424 29425 29426 29427 29428 29429
          29430 29431 29432 29433 29434 29435
          29436 29437 29438 29439 29440 29441
          29442 29443 29444 29445 29446 29447
          29448 29449 29450 29451 29452 29453
          29454 29455 29456 29457 29458 29459
          29460 29461 29462 29463 29464 29465
          29466 29467 29468 29469 29894 29918
          29919 29925 29926 30162 30163 30164
          30165 30166 30167 30169 30171 30172
          30173 30174 30175 30176 30177 30178
          30179 30180 30181 30182 30183 30184
          30185 30186 30187 30188 30189 30190
          30191 30192 30193 30194 30195 30196
          30197 30198 30199 30200 30201 30203
          30204 30205 30208 30209 30210 30211
          30212 30213 30214 30215 30216 30217
          30218 30219 30220 30221 30222 30223
          30224 30225 30226 30227 30228 30229
          30230 30231 30232 30233 30234 30235
          30236 30237 30238 30239 30240 30241
          30242 30243 30244 30245 30246 30247
          30248 30249 30250 30251 30252 30253
          30254 30255 30256 30257 30258 30259
          30260 30261 30262 30263 30264 30265
          30266 30267 30268 30269 30270 30271
          30272 30273 30274 30275 30276 30277
          30278 30279 30280 30281 30282 30283
          30284 30285 30286 30287 30288 30289
          30290 30291 30292 30293 30294 30295
          30296 30297 30313 30317 30318 30319
          30320 30322 30323 30325 30327 30331
          30332 30333 30334 30335 30336 30337
          30369 30370 30379 30381 30385 30386
          30387 30388 30389 30390 30391 30392
          30393 30394 30395 30398 30399 30400
          30401 30402 30403 30404 30405 30434
          30435 30436 30437 30438 30439 30440
          30441 30442 30443 30444 30445 30446
          30447 30448 30449 30450 30451 30452
          30453 30454 30455 30456 30457 30458
          30459 30460 30461 30462 30463 30464
          30465 30466 30467 30468 30469 30470
          30471 30472 30473 30474 30475 30476
          30477 30478 30479 30480 30481 30482
          30483 30484 30485 30486 30487 30488
          30489 30490 30491 30492 30493 30494
          30495 30496 30497 30498 30499 30500
          30501 30502 30503 30504 30505 30506
          30507 30508 30509 30510 30511 30512
          30513 30514 30515 30516 30517 30518
          30519 30520 30521 30522 30523 30524
          30525 30526 30527 30528 30529 30530
          30531 30532 30533 30534 30535 30536
          30537 30538 30539 30540 30541 30542
          30543 30544 30545 30546 30547 30548
          30549 30550 30551 30552 30553 30554
          30555 30556 30557 30558 30559 30560
          30561 30562 30563 30564 30565 30566
          30567 30568 30569 30570 30571 30572
          30573 30574 30575 30576 30577 30578
          30579 30580 30581 30582 30583 30584
          30585 30586 30587 30588 30589 30590
          30591 30592 30593 30594 30595 30596
          30597 30598 30599 30600 30601 30602
          30603 30604 30605 30606 30607 30608
          30609 30610 30611 30612 30613 30614
          30615 30616 30617 30618 30619 30620
          30621 30622 30623 30624 30625 30626
          30627 30628 30629 30630 30631 30632
          30633 30634 30635 30636 30637 30638
          30639 30640 30641 30642 30643 30644
          30645 30646 30647 30648 30649 30650
          30651 30652 30653 30654 30655 30656
          30657 30658 30659 30660 30661 30662
          30663 30664 30665 30666 30667 30668
          30669 30670 30671 30672 30673 30674
          30675 30676 30677 30678 30679 30680
          30681 30682 30683 30684 30685 30686
          30687 30688 30689 30690 30691 30692
          30693 30694 30695 30696 30697 30698
          30699 30700 30701 30702 30703 30704
          30705 30706 30707 30708 30709 30710
          30711 30712 30713 30714 30715 30716
          30717 30718 30719 30720 30721 30722
          30723 30724 30725 30726 30727 30728
          30729 30730 30731 30732 30733 30734
          30735 30736 30737 30738 30739 30740
          30741 30742 30743 30744 30745 30752
          30753 30754 30755 30756 30757 30758
          30759 30760 30761 30762 30763 30764
          30765 30766 30767 30768 30769 30770
          30771 30772 30773 30774 30775 30776
          30777 30778 30779 30808 30809 30810
          30814 30815 30816 30817 30818 30819
          30820 30821 30822 30823 30824 30825
          30826 30827 35383 35803 35804 35807
          35810 35814 35815 35816 35817 35818
          35819 35820 35821 35822 35823 35824
          35825 35826 35827 35828 35831 35832
          35835 35838 35842 35843 35844 35845
          35846 35847 35848 35849 35850 35851
          35852 35853 35854 35855 35856 35873
          35877 35901 35905 35913 35914 35915
          35916 35917 35918 35919 35920 35921
          35922 35923 35924 35925 35926 35927
          35928 35929 35930 35931 35932 35933
          35934 35935 35936 35937 35938 35939
          35940 35941 35942 35943 35944 35945
          35946 35947 35948 35949 35950 35951
          35952 35953 35954 35955 35956 35957
          35958 35959 35960 35961 35962 35963
          35964 35965 35966 35967 35968 35969
          35970 35971 35972 35973 35974 35975
          35976 35977 35978 35979 35980 35981
          35982 35983 35984 35985 35986 35987
          35988 35989 35990 35991 35992 35993
          35994 35995 35996 35997 35998 35999
          36000 36001 36002 36003 36004 36005
          36006 36007 36008 36009 36010 36011
          36012 36013 36014 36015 36016 36017
          36018 36019 36020 36021 36022 36023
          36024 36027 36028 36031 36034 36038
          36039 36040 36041 36042 36043 36044
          36045 36046 36047 36048 36049 36050
          36051 36052 36055 36056 36057 36058
          36059 36062 36066 36067 36068 36069
          36070 36071 36072 36073 36074 36075
          36076 36077 36078 36079 36080 36097
          36101 36125 36129 36137 36138 36139
          36140 36141 36142 36143 36144 36145
          36146 36147 36148 36149 36150 36151
          36152 36153 36154 36155 36156 36157
          36158 36159 36160 36161 36162 36163
          36164 36165 36166 36167 36168 36169
          36170 36171 36172 36173 36174 36175
          36176 36177 36178 36179 36180 36181
          36182 36183 36184 36185 36186 36187
          36188 36189 36190 36191 36192 36193
          36194 36195 36196 36197 36198 36199
          36200 36201 36202 36203 36204 36205
          36206 36207 36208 36209 36210 36211
          36212 36213 36214 36215 36216 36217
          36218 36219 36220 36221 36222 36223
          36224 36225 36226 36227 36228 36229
          36230 36231 36232 36233 36234 36235
          36236 36237 36238 36239 36240 36241
          36242 36243 36244 36245 36246 36247
          36248 36305 36306 36307 36308 36309
          36310 36311 36312 36313 36314 36315
          36316 36317 36318 36319 36320 36321
          36322 36323 36324 36325 36326 36327
          36328 36329 36330 36331 36332 36333
          36334 36335 36392 36393 36394 36395
          36396 36397 36398 36399 36400 36401
          36402 36403 36404 36405 36406 36407
          36408 36409 36410 36411 36412 36413
          36414 36415 36416 36417 36418 36419
          36572 36573 37288 37289 37290 37291
          37292 37293 37294 37297 37299 37301
          37302 37303 37304 37305 37306 37307
          37308 37309 37310 37311 37312 37313
          37314 37315 37316 37317 37318 37319
          37320 37321 37322 37323 37324 37325
          37326 37327 37328 37329 37330 37331
          37332 37333 37334 37335 37336 37337
          37338 37339 37340 37341 37342 37343
          37360 37362 37364 37371 37374 37386
          37388 37389 37392 37395 37396 37399
          37400 37401 37402 37403 37404 37405
          37406 37407 37408 37409 37410 37411
          37412 37413 37414 37415 37416 37417
          37418 37419 37420 37421 37422 37423
          37424 37425 37426 37427 37428 37429
          37430 37431 37432 37433 37434 37435
          37436 37437 37438 37439 37440 37441
          37442 37443 37444 37445 37446 37447
          37448 37449 37450 37451 37452 37453
          37454 37455 37456 37457 37458 37459
          37460 37461 37462 37463 37464 37465
          37466 37467 37468 37469 37470 37471
          37472 37473 37474 37475 37476 37477
          37478 37479 37480 37481 37482 37483
          37484 37485 37486 37487 37488 37489
          37490 37491 37492 37493 37494 37495
          37496 37497 37498 37499 37500 37501
          37502 37503 37504 37505 37506 37507
          37508 37509 37510 37511 37512 37513
          37514 37515 37516 37517 37518 37519
          37520 37521 37522 37523 37524 37525
          37526 37527 37528 37529 37530 37531
          37532 37533 37534 37535 37536 37537
          37538 37539 37584 37585 37591 37592
          37624 37625 37626 37627 37628 37629
          37630 37631 37632 37633 37634 37635
          37636 37637 37638 37639 37640 37641
          37642 37643 37644 37645 37646 37647
          37648 37649 37650 37651 37680 37681
          37682 37683 37687 37688 37689 37690
          37694 37695 37696 37697 37698 37699
          37700 37701 37702 37703 37704 37705
          37706 37707 37756 37780 37784 37792
          37793 37794 37795 37796 37797 37798
          37799 37800 37801 37802 37803 37804
          37805 37806 37808 37809 37810 37812
          37813 37814 37815 37816 37817 37818
          37819 37836 37876 37878 37893 37894
          37895 37896 37897 37898 37899 37921
          37922 37923 37924 37925 37926 37927
          37928 37929 37930 37931 37932 37933
          37934 37935 37936 37937 37938 37939
          37940 37941 37942 37943 37944 37945
          37946 37947 37948 37949 37950 37951
          37952 37953 37954 37955 37956 37957
          37958 37959 37960 37961 37962 37963
          37964 37965 37966 37967 37968 37969
          37970 37971 37972 37973 37974 37975
          37976 37977 37978 37979 37980 37981
          37982 37983 37984 37985 37986 37987
          37988 37989 37990 37991 37992 37993
          37994 37995 37996 37997 37998 37999
          38000 38001 38002 38003 38004 38005
          38006 38007 38008 38009 38010 38011
          38012 38013 38014 38015 38016 38017
          38018 38019 38020 38021 38022 38023
          38024 38025 38026 38027 38028 38029
          38030 38031 38032 38033 38034 38035
          38036 38037 38038 38039 38040 38041
          38042 38043 38044 38045 38046 38047
          38048 38049 38050 38051 38052 38053
          38054 38055 38056 38057 38058 38059
          38060 38061 38062 38063 38064 38065
          38066 38067 38068 38069 38070 38071
          38072 38073 38074 38075 38076 38077
          38078 38079 38080 38081 38082 38083
          38084 38085 38086 38087 38088 38089
          38090 38091 38092 38093 38094 38095
          38096 38097 38098 38099 38100 38101
          38102 38103 38104 38105 38106 38107
          38108 38109 38110 38111 38112 38113
          38114 38115 38116 38117 38118 38119
          38120 38121 38122 38123 38124 38125
          38126 38127 38128 38129 38130 38131
          38132 38133 38134 38135 38136 38137
          38138 38139 38140 38141 38142 38143
          38144 38145 38146 38147 38148 38149
          38150 38151 38152 38153 38154 38155
          38156 38157 38158 38159 38160 38161
          38162 38163 38164 38165 38166 38167
          38168 38169 38170 38171 38172 38173
          38174 38175 38176 38177 38178 38179
          38180 38181 38182 38183 38184 38185
          38186 38187 38188 38189 38190 38191
          38192 38193 38194 38195 38196 38197
          38198 38199 38200 38201 38202 38203
          38204 38205 38206 38207 38208 38209
          38210 38211 38212 38213 38214 38215
          38216 38217 38218 38219 38220 38221
          38222 38223 38224 38225 38226 38227
          38228 38229 38230 38231 38232 38233
          38234 38235 38236 38237 38238 38239
          38240 38241 38242 38243 38244 38245
          38246 38247 38248 38249 38250 38251
          38252 38253 38254 38255 38256 38257
          38258 38259 38260 38261 38262 38263
          38264 38265 38266 38267 38268 38269
          38298 38299 38300 38301 38302 38303
          38304 38305 38306 38307 38308 38309
          38310 38311 38312 38313 38314 38315
          38316 38317 38318 38340 38341 38342
          38343 38344 38345 38346 2573 3138
          4683 4684 4688 2521 4703 6743
          6744 6759 4643 6699 6748 6763
          6703 6733 6793 4898 4899 4902
          1402 7070 7071 7074 3132 9413
          9385 9443 4693 9444 9447 4698
          10362 10363 10366 4896 10376 10377
          10380 4900 11195 11255 11256 11259
          6753 11229 11289 11290 12783 12784
          12787 7068 12797 12798 12801 7072
          20718 20752 20720 20756 20753 20757
          20759 20763 20760 20764 20848 20860
          20861 20850 20864 20865 20867 20868
          20871 20872 20676 20654 20700 20888
          20889 20704 20892 20893 20895 20896
          20899 20900 25734 25738 25735 25737
          25739 10308 25743 25744 25747 10309
          25768 25780 25792 25804 25781 10313
          25805 25807 25796 25808 25809 10317
          25789 25813 10314 25814 25817 4890
          25930 25931 25933 25934 25935 25937
          25939 25941 25938 25940 25942 10333
          25958 25959 25962 25963 25965 25966
          25968 25969 25970 10337 25988 26000
          26001 26003 25992 26004 26005 10341
          26016 26028 26029 26031 26020 26032
          26033 10345 26009 26010 26013 10342
          26037 26038 26041 4894 26174 26191
          26192 26195 26226 26227 26230 26257
          26258 26261 28947 28971 29210 29211
          28975 29214 29215 29217 29218 29221
          29222 28953 28999 29238 29239 29003
          29242 29243 29245 29246 29249 29250
          29134 29158 29346 29347 29162 29350
          29351 29353 29354 29357 29358 29140
          29186 11296 29187 29375 29381 29382
          29193 29194 35801 35802 35805 35806
          35808 35809 35811 35812 35813 12726
          35829 35830 35833 35834 35836 35837
          35839 35840 35841 12730 35859 35871
          35872 35874 35863 35875 35876 12734
          35887 35899 35900 35902 35891 35903
          35904 12738 35880 35881 35884 12735
          35908 35909 35912 7062 36025 36026
          36029 36030 36032 36033 36035 36036
          36037 12754 36053 36054 35379 35380
          36060 36061 36063 35386 35390 36064
          36065 12758 36083 36095 36096 36098
          36087 36099 36100 12762 36111 36123
          36124 36126 36115 36127 36128 12766
          36104 36105 36108 12763 36132 36133
          36136 7066 36265 36266 36269 36293
          36294 36297 36352 36353 36356 36380
          36381 36384 36579 37295 37296 37298
          37300 12946 37346 37358 37359 37361
          37350 37367 37368 37752 37753
        </DataArray>
        <DataArray type="Float64" Name="bounds" format="ascii" RangeMin="0" RangeMax="0">
          0 0 0 0 0 0
          0 0 0 0 0 0
          0 0 0 0 0 0
          0 0 0 0 0 0
          0 0 0 0 0 0
          0 0 0 0 0 0
          0 0 0 0 0 0
          0 0 0 0 0 0
          0 0 0 0 0 0
          0 0 0 0 0 0
          0 0 0 0 0 0
          0 0 0 0 0 0
          0 0 0 0 0 0
          0 0 0 0 0 0
          0 0 0 0 0 0
          0 0 0 0 0 0
          0 0 0 0 0 0
          0 0 0 0 0 0
          0 0 0 0 0 0
          0 0 0 0 0 0
          0 0 0 0 0 0
          0 0 0 0 0 0
          0 0 0 0 0 0
          0 0 0 0 0 0