<?xml version="1.0"?>
<VTKFile type="UnstructuredGrid" version="0.1" byte_order="LittleEndian" header_type="UInt32" compressor="vtkZLibDataCompressor">
  <UnstructuredGrid>
    <Piece NumberOfPoints="926" NumberOfCells="499">
      <PointData>
        <DataArray type="Int32" Name="libmesh_node_id" format="ascii" RangeMin="84" RangeMax="6562">
          88 89 90 91 92 93
          94 95 96 97 98 99
          100 101 102 103 104 105
          106 107 108 109 110 111
          112 113 114 115 116 117
          118 119 120 121 122 123
          124 125 126 127 172 173
          174 175 176 177 178 179
          180 181 182 183 184 185
          186 187 188 189 190 191
          236 237 238 239 240 241
          242 243 244 245 246 247
          248 249 250 251 252 253
          254 255 278 279 280 281
          282 283 284 285 286 287
          332 333 334 335 336 337
          338 339 340 341 342 343
          344 345 346 347 348 349
          350 351 374 375 376 377
          378 379 380 381 382 383
          428 429 430 431 432 433
          434 435 436 437 438 439
          440 441 442 443 444 445
          446 447 470 471 472 473
          474 475 476 477 478 479
          524 525 526 527 528 529
          530 531 532 533 534 535
          536 537 538 539 540 541
          542 543 566 567 568 569
          570 571 572 573 574 575
          621 624 625 626 627 628
          629 630 631 632 633 634
          635 636 637 638 639 662
          663 664 665 666 667 668
          669 670 671 761 762 763
          765 768 769 770 774 775
          776 779 782 803 804 805
          806 807 808 809 810 811
          812 986 987 988 989 990
          991 992 993 994 995 1000
          1001 1002 1003 1004 1005 1006
          1007 1008 1009 1010 1011 1013
          1088 1089 1090 1091 1092 1093
          1094 1095 1096 1097 1136 1137
          1138 1139 1140 1141 1142 1143
          1144 1145 1284 1286 1288 1289
          1290 1293 1294 1298 1299 1300
          1303 1304 1305 1306 1307 1308
          1309 1310 1311 1312 1313 1889
          1890 1891 1892 1895 1897 1898
          1899 1900 1901 1902 1903 1904
          1905 1906 1907 1908 1909 1910
          1911 1912 1913 1914 1915 1918
          1919 1921 1922 2079 2080 2083
          2084 2085 2086 2087 2088 2091
          2092 2123 2124 2125 2126 2127
          2128 2129 2130 2131 2132 2231
          2232 2233 2236 2505 2508 2510
          2512 2519 2577 2578 2581 2582
          2583 2584 2586 3092 3093 3094
          3095 3096 3097 3098 3099 3100
          3101 3102 3103 3104 3105 3106
          3107 3108 3109 3110 3111 3112
          3113 3114 3115 3116 3117 3118
          3119 3120 3121 3122 3123 3124
          3329 3330 3331 3336 3337 3338
          3339 3340 3341 3346 3347 3348
          3350 3351 3352 3353 3354 3355
          3356 3392 3393 3394 3396 3398
          3399 3401 3416 3417 3418 3420
          3421 3423 3806 3807 3808 3809
          3810 3811 3812 3813 3814 3815
          3816 3817 3818 3819 3864 3865
          3866 3867 3868 3869 3870 3871
          3872 3873 3874 3875 3876 3877
          3878 3879 3880 3881 3882 3883
          3884 3885 3886 3887 3888 3889
          3890 3891 3892 3895 3898 3899
          3900 3901 3902 3903 3904 3905
          3906 3907 5314 5315 5316 5317
          5318 5319 5320 5321 5322 5323
          5324 5325 5326 5327 5328 5329
          5330 5331 5332 5333 5334 5335
          5336 5337 5338 5339 5340 5341
          5342 5343 5344 5345 5346 6020
          6021 6022 6023 6024 6025 6026
          6027 6028 6029 6030 6031 6032
          6033 6034 6035 6036 6037 6038
          6039 6040 6041 6042 6043 6044
          6045 6046 6047 6048 6049 6050
          6052 6053 6054 6055 6056 6057
          6062 6063 6065 6066 6067 6068
          6072 6073 6074 6075 6076 6077
          6078 6079 6080 6081 6082 6083
          6084 6085 6086 6087 6089 6090
          6091 6092 6196 6197 6198 6199
          6200 6201 6202 6203 6204 6205
          6206 6207 6208 6209 6210 6211
          6212 6213 6214 6215 6216 6217
          6218 6219 6220 6221 6222 6223
          6224 6225 6226 6227 6228 6229
          6230 6231 6232 6233 6234 6235
          6236 6237 6239 6240 6241 6242
          6243 6244 6245 6248 6250 6251
          6254 6256 6257 6259 6260 6261
          6262 6263 6265 6267 6269 6271
          6273 6274 6275 6276 6277 6281
          6282 6302 6303 6304 6305 6306
          6307 6308 6349 6350 6351 6352
          6353 6354 6355 6356 6357 6358
          6359 6360 6361 6362 6364 6366
          6367 6370 6371 6373 6375 6548
          6556 6560 84 85 86 87
          170 171 234 235 277 330
          331 373 426 427 469 523
          565 623 777 780 781 778
          767 783 784 796 797 798
          802 522 751 951 952 953
          957 752 996 997 961 998
          999 753 764 1128 756 1129
          1132 619 1134 661 1276 981
          1018 1285 1277 1019 1287 1280
          1282 1291 1292 1028 1295 1296
          1029 1297 1301 1302 1034 1038
          1035 1012 1041 1916 1917 1920
          1923 1924 1893 1894 1935 1937
          1938 1936 1896 1940 1939 1985
          1986 1989 2081 2082 2089 2090
          787 788 2227 2228 2229 2230
          2234 2235 2509 2506 1990 2511
          2513 2507 2514 2515 1999 2516
          2520 2517 2518 2521 2579 2580
          2585 2045 2049 2046 2052 3342
          3343 3334 3345 3357 3349 3359
          3358 3397 3419 3422 3425 3424
          3409 3426 3410 3427 3430 3431
          3800 3801 3805 3893 3894 3896
          3897 3402 3403 3406 3941 3939
          3458 3459 3942 3940 6058 6059
          6051 1987 6060 6061 3344 6069
          6064 6070 6071 1988 6093 6088
          6094 6095 3395 6238 6246 6247
          6249 6252 6253 6255 1995 6258
          3400 6264 6266 6268 6270 6272
          1996 6278 6279 6280 6283 6284
          6285 3404 6286 6287 3405 6309
          6310 6311 6312 6313 6316 6363
          6365 6368 6369 6372 6374 6396
          6398 6399 6397 6401 6400 6406
          6407 6408 6409 6410 6411 6417
          6416 6419 6418 6423 6424 6425
          6426 6533 6532 6535 6534 6539
          6540 6541 6542 6546 6549 6547
          6550 6552 6551 6557 6558 6559
          6561 6562
        </DataArray>
        <DataArray type="Float64" Name="bounds" format="ascii" RangeMin="0" RangeMax="0">
          0 0 0 0 0 0
          0 0 0 0 0 0
          0 0 0 0 0 0
          0 0 0 0 0 0
          0 0 0 0 0 0
          0 0 0 0 0 0
          0 0 0 0 0 0
          0 0 0 0 0 0
          0 0 0 0 0 0
          0 0 0 0 0 0
          0 0 0 0 0 0
          0 0 0 0 0 0
          0 0 0 0 0 0
          0 0 0 0 0 0
          0 0 0 0 0 0
          0 0 0 0 0 0
          0 0 0 0 0 0
          0 0 0 0 0 0
          0 0 0 0 0 0
          0 0 0 0 0 0
          0 0 0 0 0 0
          0 0 0 0 0 0
          0 0 0 0 0 0
          0 0 0 0 0 0
          0 0 0 0 0 0
          0 0 0 0 0 0
          0 0 0 0 0 0
          0 0 0 0 0 0
          0 0 0 0 0 0
          0 0 0 0 0 0
          0 0 0 0 0 0
          0 0 0 0 0 0
          0 0 0 0 0 0
          0 0 0 0 0 0
          0 0 0 0 0 0
          0 0 0 0 0 0
          0 0 0 0 0 0
          0 0 0 0 0 0
          0 0 0 0 0 0
          0 0 0 0 0 0
          0 0 0 0 0 0
          0 0 0 0 0 0
          0 0 0 0 0 0
          0 0 0 0 0 0
          0 0 0 0 0 0
          0 0 0 0 0 0
          0 0 0 0 0 0
          0 0 0 0 0 0
          0 0 0 0 0 0
          0 0 0 0 0 0
          0 0 0 0 0 0
          0 0 0 0 0 0
          0 0 0 0 0 0
          0 0 0 0 0 0
          0 0 0 0 0 0
          0 0 0 0 0 0
          0 0 0 0 0 0
          0 0 0 0 0 0
          0 0 0 0 0 0
          0 0 0 0 0 0
          0 0 0 0 0 0
          0 0 0 0 0 0
          0 0 0 0 0 0
          0 0 0 0 0 0
          0 0 0 0 0 0
          0 0 0 0 0 0
          0 0 0 0 0 0
          0 0 0 0 0 0
          0 0 0 0 0 0
          0 0 0 0 0 0
          0 0 0 0 0 0
          0 0 0 0 0 0
          0 0 0 0 0 0
          0 0 0 0 0 0
          0 0 0 0 0 0
          0 0 0 0 0 0
          0 0 0 0 0 0
          0 0 0 0 0 0
          0 0 0 0 0 0
          0 0 0 0 0 0
          0 0 0 0 0 0
          0 0 0 0 0 0
          0 0 0 0 0 0
          0 0 0 0 0 0
          0 0 0 0 0 0
          0 0 0 0 0 0
          0 0 0 0 0 0
          0 0 0 0 0 0
          0 0 0 0 0 0
          0 0 0 0 0 0
          0 0 0 0 0 0
          0 0 0 0 0 0
          0 0 0 0 0 0
          0 0 0 0 0 0
          0 0 0 0 0 0
          0 0 0 0 0 0
          0 0 0 0 0 0
          0 0 0 0 0 0
          0 0 0 0 0 0
          0 0 0 0 0 0
          0 0 0 0 0 0
          0 0 0 0 0 0
          0 0 0 0 0 0
          0 0 0 0 0 0
          0 0 0 0 0 0
          0 0 0 0 0 0
          0 0 0 0 0 0
          0 0 0 0 0 0
          0 0 0 0 0 0
          0 0 0 0 0 0
          0 0 0 0 0 0
          0 0 0 0 0 0
          0 0 0 0 0 0
          0 0 0 0 0 0
          0 0 0 0 0 0
          0 0 0 0 0 0
          0 0 0 0 0 0
          0 0 0 0 0 0
          0 0 0 0 0 0
          0 0 0 0 0 0
          0 0 0 0 0 0
          0 0 0 0 0 0
          0 0 0 0 0 0
          0 0 0 0 0 0
          0 0 0 0 0 0
          0 0 0 0 0 0
          0 0 0 0 0 0
          0 0 0 0 0 0
          0 0 0 0 0 0
          0 0 0 0 0 0
          0 0 0 0 0 0
          0 0 0 0 0 0
          0 0 0 0 0 0
          0 0 0 0 0 0
          0 0 0 0 0 0
          0 0 0 0 0 0
          0 0 0 0 0 0
          0 0 0 0 0 0
          0 0 0 0 0 0
          0 0 0 0 0 0
          0 0 0 0 0 0
          0 0 0 0 0 0
          0 0 0 0 0 0
          0 0 0 0 0 0
          0 0 0 0 0 0
          0 0 0 0 0 0
          0 0 0 0 0 0
          0 0 0 0 0 0
          0 0 0 0 0 0
          0 0 0 0 0 0
          0 0 0 0 0 0
          0 0 0 0 0 0
          0 0 0 0 0 0
          0 0 0 0 0 0
          0 0
        </DataArray>
        <DataArray type="Float64" Name="gradient_error" format="ascii" RangeMin="9.080386210482164e-16" RangeMax="1.668914229342947e-7">
          9.82322300413427e-13 8.608097310088361e-13 2.5605393861884473e-12 2.2046814278024886e-12 9.91464116238761e-14 1.0223680392570846e-13
          2.2614310762640267e-13 2.1804657492409727e-13 2.079803831551516e-14 2.0098720378535102e-14 3.618954449083866e-14 3.63758946646276e-14
          5.644636849417196e-15 5.5120565107065895e-15 8.530148658048466e-15 8.291759756554141e-15 2.8993208133396732e-15 2.966737241578152e-15
          3.24578482293923e-15 3.1322197013308497e-15 2.592476352854324e-15 2.631402542265697e-15 2.6007092386395874e-15 2.554291001836965e-15
          2.5804905734288977e-15 2.5934021664672855e-15 2.589934268888194e-15 2.5761964552453186e-15 2.583974241268172e-15 2.588373705548154e-15
          2.5929589582945e-15 2.5885162683528355e-15 2.585567327888884e-15 2.5877018583391018e-15 2.593140554173541e-15 2.5912644281609087e-15
          2.5859299178735026e-15 2.5876358312223573e-15 2.5930612247679378e-15 2.591698268704069e-15 7.392971616042452e-13 1.8488234694165306e-12
          1.0532719622754085e-13 2.099500422217919e-13 1.9399402441555045e-14 3.656224483841654e-14 5.379476171995984e-15 8.053370855059815e-15
          3.0341536698166316e-15 3.0186545797224695e-15 2.670328731677069e-15 2.507872765034342e-15 2.6063137595056726e-15 2.562458641602443e-15
          2.5927731698281356e-15 2.5840735784111714e-15 2.5898363887893195e-15 2.589388302148277e-15 2.589341744571212e-15 2.5903353126402e-15
          1.0930002512443659e-11 9.243380400298111e-12 8.850925139195308e-13 7.085064663967986e-13 1.178401779870222e-13 1.0152717032702499e-13
          2.4477471016461016e-14 2.107646222085306e-14 6.658785637029945e-15 5.8646873054929875e-15 3.2417995294012917e-15 3.0967799548276298e-15
          2.6636072606418295e-15 2.6792830137397887e-15 2.5569404024273325e-15 2.604724501347441e-15 2.5358984357380113e-15 2.5895703913406446e-15
          2.5325187825980446e-15 2.5870397425032177e-15 7.556758288152557e-12 5.319204188740665e-13 8.521416266702779e-14 1.767545342524511e-14
          5.070588973956029e-15 2.9517603802539682e-15 2.694958766837747e-15 2.6525086002675497e-15 2.6432423469432775e-15 2.641560702408391e-15
          4.693913417239045e-11 3.907651605297233e-11 4.0970148891055294e-12 2.4910057422350204e-12 6.763368543533372e-13 4.1898841178535923e-13
          1.530633439471331e-13 9.647851959637446e-14 3.660878254912156e-14 2.3542531367543992e-14 9.41021739749022e-15 6.817780893555969e-15
          3.4418804965031955e-15 3.235980050803061e-15 2.4828217418812823e-15 2.646300592373245e-15 2.4437013468954513e-15 2.6038349719550366e-15
          2.450440113781974e-15 2.6032138375778306e-15 3.121389793355422e-11 8.849965953645108e-13 1.6163996921738127e-13 3.989369524561582e-14
          1.0476280185966437e-14 4.225344389621715e-15 3.0300796051029272e-15 2.809779442865208e-15 2.763968597014622e-15 2.7559875613736874e-15
          5.867052356945538e-11 7.32539505693831e-11 4.589599946710006e-12 6.218916199598051e-12 1.5138548530453234e-12 1.097150436812415e-12
          3.359125944566813e-13 2.38912952644668e-13 8.057971428960519e-14 5.696333142289019e-14 2.0038572483246737e-14 1.4443034284762094e-14
          6.1161807390385866e-15 4.915932855682443e-15 3.33836270634468e-15 3.0884003594428557e-15 2.9153457826500164e-15 2.815018335668136e-15
          2.858787485535668e-15 2.7785316307745134e-15 9.945589141988452e-11 7.725724685404606e-12 6.804460205795071e-13 1.4191331083265467e-13
          3.334694855617515e-14 8.847496086277445e-15 3.7156849723263e-15 2.8384380125410322e-15 2.7146908886862557e-15 2.698275776013359e-15
          9.981736360768515e-11 6.453991358096631e-11 1.3698666622965713e-12 5.662016331829887e-12 1.080318453617861e-12 1.2016537512328166e-12
          3.3322970918002814e-13 2.8250935553300254e-13 7.976773752951667e-14 6.689928568077002e-14 1.9843087128322274e-14 1.638916150802701e-14
          5.8409831203981e-15 4.808316110509132e-15 2.783716046784432e-15 2.400042523995486e-15 2.225714539174334e-15 1.9961504009875413e-15
          2.1497092010652242e-15 1.9459564941414006e-15 7.978700470077492e-11 8.322481482921098e-12 1.28994813752362e-12 2.3178900188597684e-13
          5.4030833832023366e-14 1.2935235887731742e-14 3.775649100620166e-15 2.01636900120654e-15 1.7665862628007482e-15 1.742203787217577e-15
          3.954229483941657e-11 2.7634189729580753e-13 8.837856132435351e-13 2.6322163577471763e-13 2.490683835301135e-13 6.186828913654496e-14
          5.852529880094525e-14 1.4554807150753775e-14 1.381143578539474e-14 3.6055291987892486e-15 3.4571513278032763e-15 1.3444130351082305e-15
          1.2950953423143851e-15 1.0370571158217135e-15 9.856202898503109e-16 1.0178786250893444e-15 9.629586230687804e-16 1.599778882823673e-11
          1.4696846255347172e-12 1.4255809342242105e-12 2.3491513128550943e-13 5.518230846534554e-14 1.3068064420035705e-14 3.3087734568173045e-15
          1.2457776495205397e-15 9.341834638789084e-16 9.080386210482164e-16 1.1098688981227796e-9 3.8582425074044424e-10 3.2387234199826725e-8
          6.120374896513271e-11 1.9661195643423192e-10 4.895033271037894e-10 3.13972636895751e-11 8.717919542113375e-10 2.4534951629910557e-12
          4.460784204823546e-12 1.6669609052870722e-12 6.42975934817865e-12 9.684507811245781e-11 8.372080087573214e-11 2.427715135365368e-10
          2.0229112497670657e-10 2.956551349648007e-11 8.73865597655646e-11 6.321668269105238e-11 7.059652363900648e-11 1.6181073641687633e-10
          3.904680561654013e-11 2.5672959421158785e-9 2.1841540212681563e-9 7.358273472146316e-9 6.143768697299863e-9 1.29800944657519e-9
          3.6470859554086094e-9 2.452954810104997e-9 1.1156600323228832e-9 3.0235854949343254e-9 7.901302009352075e-10 8.427390361923803e-10
          6.308056782742809e-10 5.135795866813e-10 3.741166163683555e-10 5.116948129000201e-11 3.72080595908492e-11 2.9898964350506344e-11
          2.3430608778404104e-10 1.6468883906442774e-10 2.1607415009802498e-11 3.0968366423169495e-11 1.7770857941579062e-10 1.6907696252950446e-10
          2.4022336055199713e-12 3.1063009338990497e-12 3.0675633469942262e-12 4.068928793340985e-12 1.9813254950398153e-12 1.3632012171153176e-12
          2.1861392127062036e-12 3.810368262278128e-12 5.070294239687743e-12 3.009077208297089e-12 1.8515402832189426e-10 3.321566140783998e-10
          2.4829625579039654e-11 3.006237556683476e-11 8.203513285524503e-11 1.5082321494067683e-10 1.3466322229024856e-11 4.791591998349053e-10
          3.529512555462987e-11 2.1961129702610866e-10 5.74819181074441e-9 1.4011440670049446e-9 1.7924017554351563e-9 3.356168284464699e-9
          8.989467747634355e-10 3.597698872026156e-9 1.6513873817111549e-10 1.0092694610705504e-10 1.751990816495746e-10 2.2774235453333476e-11
          1.8486607188993704e-10 6.202799805684432e-12 4.818943206884898e-12 3.702839619414174e-12 4.3091276396541044e-12 1.0690549298659271e-12
          1.3158063856213676e-12 1.1109466663957944e-12 3.4350866080853626e-12 4.928023196545057e-12 9.060869471702213e-13 7.132030863341452e-10
          1.8198757926619203e-9 1.3339068295677778e-9 7.771088078169475e-10 2.3017745873540883e-8 6.194277741399462e-10 4.939768336587057e-10
          1.0640637265094488e-9 7.584078375423235e-10 1.5151432603291406e-10 1.1678495991939921e-10 8.502495061201678e-11 3.725926019855007e-10
          4.668157161787518e-10 8.925160872505935e-11 1.3635728415860995e-8 7.383278501094586e-9 2.6097045993685765e-11 1.2700798777809136e-9
          2.4432638425376936e-11 1.9866282217318555e-11 1.2792872571539062e-11 1.1627959832731544e-11 6.876301698558721e-12 1.8439572969840567e-11
          1.7915020648406292e-11 1.0464861191746957e-11 8.047360611119172e-12 2.7217948021384295e-13 3.4691265103448437e-13 2.428471920921019e-13
          1.516056621957377e-13 2.1747077100341616e-13 4.216458218551258e-13 3.9909358555596013e-13 2.833358798110946e-13 1.9209434991473038e-13
          3.765413492567945e-13 4.68235438127986e-12 4.166717354183412e-12 2.63166351081845e-12 1.8863978420329725e-12 3.23705688960991e-12
          2.0160514591896225e-12 1.213277047875306e-12 3.6510803270869646e-12 1.1411321732474943e-12 7.950460287693349e-13 5.416527500752968e-12
          5.368406297307175e-12 1.8792476546005875e-12 5.320285093861382e-12 9.35125207871397e-10 6.564798283467688e-10 2.16963001540278e-10
          4.143893851435719e-10 2.658634761638945e-11 1.7240334852386775e-12 1.6707878374627017e-12 1.0434656298830496e-12 7.045527664816643e-13
          9.115975180756786e-13 1.617542189686726e-12 1.1186422696696928e-12 1.9645139260789788e-10 4.221448948486839e-10 3.1468026456197595e-10
          1.4760544241114344e-10 1.4952839425710318e-9 1.8590064830107393e-10 1.305548543211034e-10 2.3916047835221677e-10 1.853765582682269e-10
          3.6003776190220697e-11 2.910389270149838e-11 3.3485766866155105e-11 6.143881666629894e-11 9.708711980031197e-11 2.959949417303521e-11
          1.0586451632759283e-9 7.834429696677222e-10 3.286234240825191e-11 3.110526043680587e-10 4.949601001929079e-12 4.337234181299818e-12
          8.049596873274738e-12 9.948409194356576e-12 1.1636736313166243e-12 7.154759753989325e-12 5.6649465809963636e-12 3.5107246373514214e-12
          8.381587920141575e-12 3.5492284606234795e-12 1.5880626978824287e-11 1.4604895703950643e-11 7.788498596296152e-12 1.1776585587683472e-11
          5.057718978392047e-9 3.977938843012352e-9 1.7134639936786908e-9 2.7502742493121302e-9 2.142863899407498e-9 2.24598672443492e-10
          1.5919275963691847e-10 9.17616466140966e-10 5.711324405030819e-11 1.7068178556250682e-10 4.1492357059111157e-10 3.0107786145749864e-10
          1.0333421678777729e-10 2.61847813567899e-10 2.3218528397438114e-11 6.644360342431204e-11 9.374310480797985e-11 2.368078910529071e-10
          1.1435305306142178e-10 1.1094553852141584e-10 7.62474100501498e-11 4.810419022507217e-11 2.6432420547529834e-11 7.741449760566422e-10
          5.316819308298201e-10 1.574210278975178e-10 1.0858989067765203e-11 2.5018390721807298e-11 8.94300959886469e-12 1.1885425838175558e-11
          3.760586510278123e-11 3.969146555998962e-11 2.808189768970055e-10 7.093274845915572e-10 9.256652763019224e-11 2.043291927014332e-10
          1.313299895686789e-10 3.0074790176787473e-10 9.327726727721003e-11 3.600743870361792e-11 6.433706234025493e-11 1.5036889552419245e-11
          1.5473424378520613e-11 2.2275022195335207e-11 2.929841150011657e-11 1.1466778452001163e-11 3.7290299863025854e-10 5.324243082034461e-10
          3.585688672466328e-10 2.528319751804484e-10 3.439714495558859e-10 7.868910178499738e-11 9.378884138228712e-11 1.2900463956736066e-10
          2.415146556466634e-10 7.494503158030289e-11 1.6833776831530636e-11 2.0730612945203822e-11 9.050301823704848e-12 9.402134034159109e-12
          1.2088333732640316e-11 1.6495004839737453e-11 7.560390565563095e-12 5.458530812744019e-11 6.682806296565064e-11 4.566087538428244e-11
          3.8084805358812494e-11 4.686037703250457e-11 1.3672999153231285e-11 1.7535703900960563e-11 2.8501037726159968e-11 3.244113714775292e-11
          1.4053119811562641e-11 8.333621694583437e-13 7.839624886250628e-13 5.658097310840312e-13 7.345628077917819e-13 1.5194946080932899e-12
          6.572732017026582e-13 4.344874121142477e-12 5.883117867855153e-12 2.9280525260071837e-12 3.5875190331476627e-12 5.393166328252668e-12
          6.881230106166789e-12 4.877619500431687e-12 2.0113599301843898e-11 2.4045863206792872e-11 2.0925681964910166e-11 1.780550072302746e-11
          7.421755321998152e-11 1.8256360757406547e-11 1.6402244005189982e-11 2.0144644272604903e-11 1.7734908206795372e-11 8.744943409517969e-12
          1.198033790024425e-11 1.092829023982467e-11 1.4548127252973418e-11 1.5325172140985838e-11 9.876242579405091e-12 6.088605581764423e-11
          5.469893848493528e-11 2.81941057936816e-11 5.116674791821428e-11 4.057786517760795e-12 4.265910750645308e-12 6.280833347679844e-12
          5.945068456002661e-12 3.732823390790745e-12 4.844416233288121e-12 4.577690881036557e-12 4.4740349835298216e-12 5.609303564325477e-12
          4.310965528784993e-12 1.9112011600966018e-11 1.7334799608727613e-11 1.3651195964659742e-11 1.5843206348215957e-11 1.7965912755648038e-10
          1.6146356391488957e-10 1.2390576751384393e-10 3.977047970644083e-10 1.428227316336199e-10 1.2941137578980843e-10 8.694030711384943e-11
          7.977202487613028e-11 9.964653507263487e-11 6.147932583360557e-11 3.5273741808708005e-10 3.1958678386360684e-10 2.062890544168025e-10
          2.476170839283406e-10 5.958260419084066e-11 8.30208709532318e-11 4.083222696134311e-11 2.1647288281657024e-10 4.3100479782111377e-11
          6.602826813269921e-11 2.1241399277875516e-11 3.9773526677538065e-11 2.086101358359117e-11 3.377381490473516e-11 2.17195208795951e-11
          1.6999441500897754e-10 1.0341240233252884e-10 9.550446782015565e-11 8.365195669817533e-10 7.58883240394711e-10 5.984731325925509e-10
          7.551615957932975e-10 6.892523045084985e-10 5.863147520041443e-10 5.386494891681783e-10 5.388000796372948e-10 4.1396696522338704e-10
          4.316629271697433e-10 2.5473543574888727e-10 3.7186349863675793e-10 2.653790287595147e-10 2.141672154173002e-10 1.4476774354774678e-10
          1.2005575702943022e-11 1.6198177724281688e-11 1.2230108677951695e-11 5.929807086154356e-11 9.647848349560722e-12 1.4547900123125208e-11
          6.073212271922227e-12 1.0568815805817728e-11 7.298027645971707e-12 1.0311656502905757e-11 6.890734178721375e-12 4.6935825913942704e-11
          2.817096005324249e-11 3.405352798898159e-11 1.311987102665474e-10 1.0055305199737384e-10 1.0856110510671355e-10 7.005769712879369e-11
          7.825763060145216e-11 4.4388260566561384e-11 5.697625114300341e-11 5.2110550019515985e-11 3.844294393300131e-11 3.505206891607436e-11
          3.969503770652788e-11 2.645830067478953e-11 1.5913866848019475e-10 1.4575057503306465e-10 1.0127233632725696e-10 1.1096244553535329e-10
          1.25578379779346e-11 1.1421086544798449e-11 2.5355917226041267e-11 2.307152854600171e-11 7.11047570927304e-12 1.609279425071886e-11
          1.4619979138251857e-11 8.583689120240859e-12 1.7299311691115464e-11 1.0897737166377263e-11 7.467299738478755e-11 6.797087241614243e-11
          4.3687910189949047e-11 5.0739901071972376e-11 1.31218333754264e-11 2.5275898592906412e-11 8.607543957459077e-12 1.654330719528844e-11
          7.587589398682092e-12 1.3669574905229339e-11 1.0145272671295342e-11 6.998342931460962e-11 4.711521172816133e-11 3.721812419898738e-11
          5.6140969845464344e-12 1.067557879111401e-11 3.597527035417553e-12 6.690119471398099e-12 4.345150840273453e-12 7.539674065959235e-12
          4.731928635826519e-12 3.082537316006322e-11 1.900725560519718e-11 4.289594184520544e-10 3.930090297790525e-10 3.0388923483157406e-10
          2.7752115145009574e-10 2.980380313095842e-10 2.0821042026107863e-10 7.084906006201423e-10 2.0657092586423833e-10 1.8812077380949678e-10
          1.3997063655042585e-10 5.303707341873887e-10 4.838882980891568e-10 3.599698046179852e-10 1.851009535119127e-10 1.2673188118289253e-10
          9.672565562710571e-11 6.416920841034173e-11 3.1942517192657653e-10 8.396796371090477e-11 4.157063699975091e-11 2.1319381341656212e-10
          1.0291175080342785e-10 4.691044331603814e-12 4.369549493868389e-12 9.795362178344525e-12 8.883005174409656e-12 3.474317795081615e-12
          6.5678149892940196e-12 2.3736587154110383e-12 4.034102797028146e-12 1.9445929826455617e-12 2.9929189858145423e-12 1.8467364967918118e-12
          2.9032237859430393e-12 2.217142217056847e-12 4.239718114391902e-12 6.774572089792369e-12 3.623132681117775e-12 5.309135089918015e-12
          3.13348037060295e-12 4.6165650379117e-12 3.844866046240467e-12 1.7790981645095362e-11 1.3425278061412888e-11 1.1550164036663213e-11
          4.4626844107282636e-11 2.8587695720785323e-11 2.698686247106171e-11 1.7032964533132397e-11 6.784925420838095e-11 1.0199854757231704e-11
          1.7918002698635018e-11 6.257325946229934e-12 1.0360007473481242e-11 4.3162184200228796e-11 2.020405991299886e-11 1.460520064091034e-11
          8.357146849450663e-12 4.811606723265868e-12 6.4995063425379976e-12 4.271211227269015e-12 1.6207172083577386e-11 1.0854945326229813e-11
          2.0429161120000333e-12 5.502718568882239e-12 6.419671768680113e-11 4.42037443410131e-11 2.421077099522507e-11 2.546276303698165e-10
          1.8050947780711764e-10 1.0639132524441882e-10 4.366428290988828e-10 2.7516017018440745e-10 2.7250555453324056e-10 4.487072229560877e-10
          2.6872253460389226e-10 1.679476333698138e-12 9.290132483687689e-13 5.419381916359563e-13 1.0364309619042975e-12 2.6206380258590752e-12
          1.7160148871681046e-11 5.339857500099369e-12 1.8918934661792863e-12 3.076809517438096e-10 1.2642920200070539e-9 8.1496832995765e-10
          3.65644639908246e-10 3.8652253006475104e-9 1.944310073436663e-9 4.9818483759620876e-9 1.6198407864730524e-8 1.4068683356560537e-8
          7.109169055275049e-9 9.002021832357703e-8 5.913744698706412e-8 4.8815841813816475e-8 1.0950006588485612e-7 1.2785812700013267e-8
          4.249906331543685e-8 9.43971794281397e-8 1.023819106919673e-8 3.785999706316673e-10 2.4552127095562223e-9 6.874216183836569e-10
          2.996154247651306e-10 4.397698359094498e-9 9.962432661356464e-10 4.334732598648059e-10 1.2359725986539824e-8 1.0809074402394169e-7
          4.8757141725202603e-8 1.0834989515257557e-8 2.2712208887685452e-8 1.183324336177198e-8 2.7165658645215835e-9 7.000261637068081e-9
          2.301876891650047e-8 1.1311431401312406e-8 2.946935452805952e-9 4.3806074439284265e-10 2.5140911922092007e-10 2.4153690377962212e-11
          2.5209715414505707e-11 2.963503207967276e-11 2.652074480765011e-10 3.09945081947132e-11 2.890114309351901e-12 7.848122099494968e-13
          2.5333354019370683e-12 6.782629723597013e-12 4.575512345858372e-12 4.7630168133544366e-12 5.2211053418436355e-12 7.543719497981958e-12
          4.192599225586813e-12 2.4154835068263443e-11 8.097735324587925e-8 4.954871681990237e-8 7.576974949883317e-8 5.871334221438895e-8
          8.314560748800772e-8 1.1845637312938304e-7 1.8120080393925492e-8 7.708902790258596e-8 1.668914229342947e-7 3.6599271171083264e-8
          3.778332971393717e-8 2.366545288259668e-8 2.9738325017800685e-13 3.482384178669835e-13 3.2258702014217076e-13 3.495641846994826e-13
          8.093764441810828e-13 4.215741095203716e-12 5.904080316543861e-12 6.1733437091606175e-12 1.8914716337362813e-12 1.9234742665999184e-12
          6.442607101777373e-12 1.955476899463555e-12 1.1734341960347646e-9 1.7680617502857094e-9 2.2785728883214097e-10 3.103032028465522e-10
          8.173969070058888e-10 1.0758179984473203e-9 3.2156149387270266e-10 3.401264650048345e-11 2.240445870100002e-11 4.0175584378736024e-11
          4.998894775460975e-11 8.783545890423896e-12 7.6597914588257e-12 9.02922258347299e-12 1.3762219428142678e-12 1.6080791642460346e-12
          1.839936385677801e-12 3.0148869986996e-12 2.3186705945582786e-12 2.258074469487044e-12 1.7620134677676989e-12 1.3362276254213002e-8
          1.0721049833813717e-8 2.722974742687828e-8 5.685931342479709e-9 2.3733866605823776e-9 4.477447041746584e-9 1.1023859342638956e-9
          1.168299770008804e-10 1.29477906198847e-11 1.1249937149958863e-11 1.2443153030510546e-11 3.742859856530029e-11 1.3858869398131633e-11
          4.952205900737861e-12 3.963778059581188e-12 5.859778536977461e-12 3.829149823844032e-12 1.980949651883528e-12 4.011660590164413e-12
          5.433351855578395e-10 1.4285691498835267e-9 5.777590376075103e-10 2.967533845342593e-12 2.2435142267179415e-12 1.4948765756777338e-12
          1.076074888690196e-12 3.942844553700968e-12 4.265808841132918e-12 4.389962468232212e-12 9.765112756148178e-12 2.8259153802610405e-11
          5.2200376919953024e-11 1.714679592077549e-11 1.7259694633114016e-11 4.903005748750824e-11 2.060329669437074e-9 1.8758648901620776e-9
          2.2097436322154677e-9 1.4619297314324456e-9 1.3460020512639185e-9 1.4536774881019395e-9 1.0344736932004666e-9 9.83463092318498e-10