<?xml version="1.0"?>
<VTKFile type="UnstructuredGrid" version="0.1" byte_order="LittleEndian" header_type="UInt32" compressor="vtkZLibDataCompressor">
  <UnstructuredGrid>
    <Piece NumberOfPoints="773" NumberOfCells="503">
      <PointData>
        <DataArray type="Int32" Name="libmesh_node_id" format="ascii" RangeMin="773" RangeMax="7585">
          773 1024 1025 1028 1029 1030
          1031 1033 1295 1297 1301 1302
          1993 2001 2002 2004 2007 2008
          2010 2013 2015 2016 2019 2021
          2022 2024 2027 2028 2031 2033
          2035 2036 2037 2038 2039 2040
          2041 2042 2043 2044 3378 3388
          3390 3436 3437 3438 3439 3440
          3441 3442 3443 3444 3445 3456
          3457 3458 3459 3460 3461 3462
          3469 3482 3483 3485 3488 3498
          3500 3502 3516 3517 3519 3522
          3532 3534 3536 3538 3539 3540
          3541 3542 3543 3544 3545 3546
          3547 3558 3559 3560 3561 3562
          3563 3564 3565 3567 3569 3571
          3572 3573 3574 3575 3576 3577
          3578 3579 3580 3581 3592 3593
          3594 3595 3596 3597 3598 3599
          3601 3603 3605 3612 3613 3616
          3618 3624 3626 3628 3630 3631
          3632 3633 3634 3635 3636 3637
          3638 3639 3640 3641 3642 3643
          3644 3645 3646 3647 3648 3649
          3650 3651 3652 3653 3654 3655
          3656 3908 3909 3910 3911 3912
          3913 3914 3935 3940 3942 6134
          6135 6137 6140 6146 6148 6150
          6180 6182 6184 6190 6192 6194
          6396 6397 6398 6399 6400 6401
          6402 6403 6404 6405 6406 6407
          6408 6409 6410 6411 6412 6413
          6414 6415 6416 6417 6418 6419
          6420 6421 6422 6423 6424 6425
          6426 6427 6428 6429 6430 6431
          6432 6433 6434 6435 6436 6437
          6438 6439 6440 6441 6442 6443
          6444 6445 6446 6447 6448 6449
          6450 6451 6452 6453 6454 6455
          6456 6457 6458 6459 6460 6461
          6462 6463 6504 6505 6507 6522
          6524 6532 6533 6534 6535 6536
          6537 6538 6539 6540 6541 6542
          6543 6544 6545 6547 6549 6551
          6552 6553 6554 6555 6557 6559
          6561 6562 6563 6564 6565 6566
          6567 6568 6569 6570 6571 6572
          6573 6574 6575 6576 6577 6578
          6579 6580 6581 6582 6583 6584
          6585 6586 6587 6588 6589 6590
          6591 6592 6593 6622 6624 6636
          6637 6638 6718 6719 6721 6724
          6732 6734 6736 6750 6751 6753
          6756 6766 6768 6770 6776 6778
          6780 6786 6788 6790 6796 6798
          6800 6806 6808 6810 6892 6893
          6895 6896 6897 6898 6899 6908
          6910 6912 6924 6925 6926 6927
          6928 6929 6930 6931 6932 6933
          6942 6944 6946 6962 6964 6966
          6972 6974 6976 6982 6984 6986
          6992 6994 6996 6998 6999 7000
          7001 7002 7003 7004 7005 7006
          7007 7008 7009 7010 7011 7012
          7013 7014 7015 7016 7017 7018
          7019 7020 7021 7022 7023 7024
          7025 7026 7027 7028 7029 7030
          7031 7032 7033 7034 7035 7036
          7037 7038 7039 7040 7041 7042
          7043 7044 7045 7046 7047 7048
          7049 7050 7051 7052 7053 7054
          7055 7056 7057 7058 7059 7060
          7061 7062 7063 7064 7065 7066
          7067 7070 7072 7073 7075 7086
          7088 7090 7092 7100 7101 7104
          7106 7107 7109 7120 7122 7124
          7126 7134 7135 7136 7137 7138
          7139 7140 7141 7142 7143 7144
          7145 7146 7147 7148 7149 7150
          7151 7152 7153 7154 7155 7156
          7157 7158 7159 7160 7161 7162
          7163 7164 7165 7166 7167 7168
          7169 7170 7171 7172 7173 7174
          7175 7176 7177 7178 7179 7180
          7181 7182 7183 7184 7185 7186
          7187 7188 7189 7190 7192 7193
          7194 7196 7204 7205 7206 7207
          7208 7209 7210 7218 7220 7221
          7222 7224 7232 7233 7234 7235
          7236 7237 7238 7246 7247 7248
          7249 7250 7251 7252 7253 7254
          7255 7256 7257 7258 7259 7260
          7261 7262 7263 7264 7265 7266
          7267 7268 7269 7270 7271 7272
          7273 7274 7275 7276 7277 7278
          7279 7280 7281 7282 7283 7284
          7285 7286 7287 7288 7289 7290
          7291 7292 7293 7294 7295 7296
          7297 7298 7299 7300 7301 7302
          7303 7304 7305 7306 7307 7308
          7309 7310 7311 7312 7313 7314
          7315 7318 7320 7321 7323 7334
          7336 7338 7340 7348 7349 7352
          7354 7355 7357 7368 7370 7372
          7374 7382 7383 7384 7385 7386
          7387 7388 7389 7390 7391 7392
          7393 7394 7395 7396 7397 7398
          7399 7400 7401 7402 7403 7404
          7405 7406 7407 7408 7409 7410
          7411 7412 7413 7414 7415 7416
          7417 7418 7419 7420 7421 7422
          7423 7424 7425 7426 7427 7428
          7429 7430 7431 7432 7433 7434
          7435 7436 7437 7438 7440 7441
          7442 7444 7452 7453 7454 7455
          7456 7457 7458 7466 7468 7469
          7470 7472 7480 7481 7482 7483
          7484 7485 7486 7500 7501 7504
          7506 7512 7514 7516 7522 7524
          7526 7528 7529 7530 7531 7532
          7533 7534 7535 7536 7537 7538
          7539 7540 7541 7542 7543 7544
          7545 7546 7547 7548 7549 7550
          7551 7552 7553 7554 7555 7556
          7557 7558 7559 7560 7561 7562
          7563 7564 7565 7566 7567 7568
          7569 7570 7571 7572 7573 7574
          7575 7576 7577 7578 7579 7580
          7581 7582 7583 7584 7585
        </DataArray>
        <DataArray type="Float64" Name="bounds" format="ascii" RangeMin="0" RangeMax="0">
          0 0 0 0 0 0
          0 0 0 0 0 0
          0 0 0 0 0 0
          0 0 0 0 0 0
          0 0 0 0 0 0
          0 0 0 0 0 0
          0 0 0 0 0 0
          0 0 0 0 0 0
          0 0 0 0 0 0
          0 0 0 0 0 0
          0 0 0 0 0 0
          0 0 0 0 0 0
          0 0 0 0 0 0
          0 0 0 0 0 0
          0 0 0 0 0 0
          0 0 0 0 0 0
          0 0 0 0 0 0
          0 0 0 0 0 0
          0 0 0 0 0 0
          0 0 0 0 0 0
          0 0 0 0 0 0
          0 0 0 0 0 0
          0 0 0 0 0 0
          0 0 0 0 0 0
          0 0 0 0 0 0
          0 0 0 0 0 0
          0 0 0 0 0 0
          0 0 0 0 0 0
          0 0 0 0 0 0
          0 0 0 0 0 0
          0 0 0 0 0 0
          0 0 0 0 0 0
          0 0 0 0 0 0
          0 0 0 0 0 0
          0 0 0 0 0 0
          0 0 0 0 0 0
          0 0 0 0 0 0
          0 0 0 0 0 0
          0 0 0 0 0 0
          0 0 0 0 0 0
          0 0 0 0 0 0
          0 0 0 0 0 0
          0 0 0 0 0 0
          0 0 0 0 0 0
          0 0 0 0 0 0
          0 0 0 0 0 0
          0 0 0 0 0 0
          0 0 0 0 0 0
          0 0 0 0 0 0
          0 0 0 0 0 0
          0 0 0 0 0 0
          0 0 0 0 0 0
          0 0 0 0 0 0
          0 0 0 0 0 0
          0 0 0 0 0 0
          0 0 0 0 0 0
          0 0 0 0 0 0
          0 0 0 0 0 0
          0 0 0 0 0 0
          0 0 0 0 0 0
          0 0 0 0 0 0
          0 0 0 0 0 0
          0 0 0 0 0 0
          0 0 0 0 0 0
          0 0 0 0 0 0
          0 0 0 0 0 0
          0 0 0 0 0 0
          0 0 0 0 0 0
          0 0 0 0 0 0
          0 0 0 0 0 0
          0 0 0 0 0 0
          0 0 0 0 0 0
          0 0 0 0 0 0
          0 0 0 0 0 0
          0 0 0 0 0 0
          0 0 0 0 0 0
          0 0 0 0 0 0
          0 0 0 0 0 0
          0 0 0 0 0 0
          0 0 0 0 0 0
          0 0 0 0 0 0
          0 0 0 0 0 0
          0 0 0 0 0 0
          0 0 0 0 0 0
          0 0 0 0 0 0
          0 0 0 0 0 0
          0 0 0 0 0 0
          0 0 0 0 0 0
          0 0 0 0 0 0
          0 0 0 0 0 0
          0 0 0 0 0 0
          0 0 0 0 0 0
          0 0 0 0 0 0
          0 0 0 0 0 0
          0 0 0 0 0 0
          0 0 0 0 0 0
          0 0 0 0 0 0
          0 0 0 0 0 0
          0 0 0 0 0 0
          0 0 0 0 0 0
          0 0 0 0 0 0
          0 0 0 0 0 0
          0 0 0 0 0 0
          0 0 0 0 0 0
          0 0 0 0 0 0
          0 0 0 0 0 0
          0 0 0 0 0 0
          0 0 0 0 0 0
          0 0 0 0 0 0
          0 0 0 0 0 0
          0 0 0 0 0 0
          0 0 0 0 0 0
          0 0 0 0 0 0
          0 0 0 0 0 0
          0 0 0 0 0 0
          0 0 0 0 0 0
          0 0 0 0 0 0
          0 0 0 0 0 0
          0 0 0 0 0 0
          0 0 0 0 0 0
          0 0 0 0 0 0
          0 0 0 0 0 0
          0 0 0 0 0 0
          0 0 0 0 0 0
          0 0 0 0 0 0
          0 0 0 0 0 0
          0 0 0 0 0 0
          0 0 0 0 0 0
          0 0 0 0 0
        </DataArray>
        <DataArray type="Float64" Name="gradient_error" format="ascii" RangeMin="2.709195517208472e-12" RangeMax="1.0127852075831086e-7">
          3.057919659340772e-11 2.0382419895846716e-8 3.291116862380043e-10 4.3806074439284265e-10 2.5209715414505707e-11 6.434440292255119e-8
          8.102382661914373e-10 3.9679771905636243e-10 2.5140911922092007e-10 2.963503207967276e-11 2.652074480765011e-10 3.09945081947132e-11
          5.731818812171306e-9 6.504186692790087e-9 1.2527625899305932e-9 4.157653926595314e-11 5.5228896905571227e-8 2.7210605550965598e-8
          5.000040781698784e-10 4.6517783791581936e-8 2.6770442664303012e-8 7.286912427385775e-9 8.805368260253727e-11 3.722899680042245e-8
          1.2755019405443783e-8 1.163429608154648e-10 3.3466343058218185e-10 4.277402693211841e-10 5.053883130594484e-10 4.942044922035153e-10
          4.82529543971311e-11 6.491967704075763e-11 8.507526813519524e-12 1.1850820748112511e-11 8.54136686969032e-11 1.1039755201161094e-10
          2.055927591704675e-11 7.410616798608521e-11 1.3291704532608802e-11 1.1767464285269068e-10 1.654349998987001e-8 1.6178937341402875e-10
          9.291070318011555e-10 3.8807080439789595e-9 2.7471777712527053e-9 1.802500863923183e-9 1.2355812758466822e-9 7.802478753476994e-10
          3.287207639571431e-10 1.282812876741387e-8 9.869807795280028e-9 4.7068822271795924e-9 2.8994029042174625e-9 1.1736854951606567e-10
          4.5020420560332276e-11 5.2200376919953024e-11 1.714679592077549e-11 3.8925529013168014e-10 1.5365078441309927e-10 1.2289104273316983e-10
          1.4322255765059382e-11 4.1419136010704616e-8 3.82062739910898e-8 1.4274929258873105e-8 6.482809790997423e-8 2.322814085040945e-9
          3.930499135005961e-10 4.637693256615718e-9 6.807319036882335e-8 8.525810596589068e-8 4.076343713955133e-8 9.224061021219771e-8
          7.009415452665039e-9 7.202089309177757e-10 8.04846125082017e-9 2.8132332137607308e-8 2.4157466638777224e-8 1.5618380392574334e-8
          1.2483314295767594e-8 7.859796178163658e-9 3.5288682539312663e-9 4.2637638318865836e-8 4.376650808219895e-8 2.3543428435930968e-8
          1.558126681822736e-8 1.0140087386106402e-9 4.054661608600539e-10 1.5112321250041192e-10 6.096812116989728e-11 2.0377737584627294e-9
          8.190361401678784e-10 1.898197182744155e-10 1.4094043661217383e-10 2.986373747222379e-11 2.8391257433336594e-10 5.173630381838179e-11
          4.727295522850066e-8 5.900970619678231e-8 3.531490044981934e-8 3.390648663770935e-8 2.329607657071883e-8 1.1109660945759358e-8
          5.0473522957400446e-8 6.446731493985939e-8 3.793455511208737e-8 2.6592193989260724e-8 3.112738677239934e-9 1.2533106431093002e-9
          2.7863903697202926e-10 1.1235088272610395e-10 3.586040230246355e-9 1.4444058258720923e-9 3.1743130000542187e-10 4.335333162284649e-10
          5.607683882489824e-11 4.994663535416875e-10 4.8855824849029444e-11 2.948005675716912e-10 2.647463691646058e-10 1.9266776770324417e-10
          2.135600084477781e-10 2.9652626179932183e-10 4.897383858281928e-10 3.278666728677722e-10 1.0280503665946585e-10 8.879102483069972e-11
          3.5697212453410067e-11 3.8503462984054464e-11 2.2873194413087942e-11 4.1821637905951793e-11 1.4309743213216237e-11 5.100975289782906e-11
          3.8139935769504855e-11 7.468117998094903e-11 6.965283689990215e-11 3.539492105569205e-11 1.0167923207398185e-10 2.6573339212278395e-11
          7.611632810799462e-11 2.255288098554016e-11 1.1172166586579462e-10 3.619901037698536e-11 3.1624599935435014e-11 1.3792975707791278e-11
          1.7481073911927744e-11 4.904679370297218e-12 6.97219637516605e-12 3.064268617994352e-12 1.9256739016698884e-11 1.8678786627788542e-11
          8.816692832087401e-12 1.2416718598956728e-11 2.272722955549481e-11 5.3837450204818364e-12 8.660752129640311e-12 4.132723362151723e-12
          4.708331639492372e-12 2.709195517208472e-12 1.6407369582262132e-10 4.903005748750824e-11 1.7259694633114016e-11 1.2537909439410212e-8
          1.1890346925900212e-8 9.624763137617948e-9 1.968636262881423e-8 6.221035530900867e-9 3.186799384630557e-9 1.1048060077738257e-8
          1.3589213397819327e-9 5.497125977788723e-10 2.4025347035943767e-9 2.230651815131015e-10 1.2627827672726008e-10 3.534017548707528e-10
          2.505853808954041e-9 2.3122522165648286e-9 1.8157711851791454e-9 1.669204878703748e-9 1.7650520620577763e-9 1.2595554241081077e-9
          5.267294116090824e-9 4.90298362493129e-9 3.5949387975135584e-9 3.799130886863389e-9 1.2553558595015656e-9 1.14981013146393e-9
          8.240045266787424e-10 7.521463151775165e-10 8.591127259581991e-10 5.57349887130323e-10 2.718714446757821e-9 2.5063261748117093e-9
          1.6542196171485133e-9 1.8918843658423116e-9 1.0767274023975907e-9 7.523107957817684e-10 5.356318462415423e-10 3.6262405926139526e-10
          2.3267945332036623e-9 1.6440551978622259e-9 1.139928890533055e-9 5.054575596738793e-10 3.2443380569400234e-10 2.3864771672132786e-10
          1.5121558191364647e-10 1.112941890145714e-9 7.17681659507968e-10 5.169189532367205e-10 9.903223871052563e-9 9.343855374812474e-9
          7.47036532396789e-9 7.002194530779111e-9 7.426868888847996e-9 5.468736035394011e-9 1.6466107613195375e-8 1.584741474213715e-8
          1.223352936780742e-8 1.3088735246127377e-8 5.338308010709273e-9 4.970762720767223e-9 3.5965592084238014e-9 3.327560480630375e-9
          3.819545715630175e-9 2.5200869303295247e-9 9.436781972984907e-9 8.91044883423213e-9 6.0868545137422395e-9 7.028044407004163e-9
          4.622410703458093e-9 3.3130756741847876e-9 2.2565523895299858e-9 1.5625231649750696e-9 8.388958547610046e-9 6.119665424795421e-9
          4.132009938896585e-9 2.265091808908594e-9 1.4701117500554618e-9 1.0425984947011625e-9 6.657190484004745e-10 4.240633828301963e-9
          2.778546825700722e-9 1.9517122816383308e-9 4.194321444054749e-9 3.89366179871403e-9 2.960040517677071e-9 1.718559705261122e-9
          7.649614482950194e-10 2.3248522462332727e-10 1.5110480128688583e-10 9.592985968106196e-11 5.865518343848537e-11 4.776403311428212e-10
          3.146954812926908e-10 1.8787783451160338e-10 9.683206900460812e-11 6.037353353207967e-11 3.618735315068767e-11 2.2032695370914374e-11
          2.0318522503083505e-10 1.2723206251480118e-10 7.335628074323492e-11 3.9905090421735286e-11 2.2254981817195703e-11 2.3658523100161603e-11
          1.2310396384073786e-11 7.337867552666892e-11 4.2750158487302046e-11 4.042498970196545e-11 1.2999390753090296e-11 7.766988903245788e-12
          6.946850629020317e-12 4.240431105178816e-12 2.561879166176827e-11 1.5336500944754573e-11 1.3110516897697751e-11 9.202980253289628e-10
          6.143379106624617e-10 3.448616199329442e-10 2.201146870694639e-10 1.6608539685766734e-9 1.1215039586615957e-9 6.003417634931245e-10
          3.994476148931145e-10 2.509670517091405e-10 1.3908368373087713e-10 8.588186284983602e-11 7.340410408315518e-10 4.6271942394944185e-10
          2.4790754504526575e-10 1.2644598480604705e-10 7.61690970219925e-11 6.62305091367387e-11 3.844132645172699e-11 2.0977774834506466e-10
          1.2935422535191968e-10 1.0572850310832376e-10 4.6492185647048774e-11 2.8143330349879003e-11 2.2824861598257567e-11 1.3630333906241085e-11
          7.993686231249689e-11 4.869363138714763e-11 3.801069099585573e-11 2.799382124933151e-10 9.219606551297934e-11 2.8971528558137076e-11
          1.6761733777655817e-11 1.3544983028320231e-11 3.0717619378821144e-8 3.013864437991706e-8 2.6032677789148752e-8 4.2116463124778935e-8
          1.7816268851045867e-8 9.437478671386753e-9 2.6657438564615985e-8 4.882864088318496e-8 5.247441542802242e-8 5.187614430169642e-8
          6.113356003555753e-8 3.7738676875026804e-8 2.0258344098297723e-8 4.9989098544635286e-8 3.969241949960815e-9 1.5013670720135162e-9
          6.125096050657103e-9 5.471680377253476e-10 2.819799933789979e-10 8.195004437712836e-10 8.848296994453734e-9 3.3975768640597353e-9
          1.1969947774676382e-8 1.1689011274639784e-9 3.771761020181822e-10 1.5709947124035398e-9 6.305167652046052e-8 6.993855241236287e-8
          7.616582960612065e-8 6.962826362432815e-8 8.398588710669453e-8 7.696824036716729e-8 9.667964169855477e-8 6.140477850259149e-8
          3.4424556939959406e-8 7.036335284175637e-8 5.886699452003102e-8 8.038148218903865e-8 6.672953817790034e-8 7.898260643582029e-8
          1.0094381384603312e-7 9.065705179380247e-8 5.255937262320838e-8 7.676975460808752e-8 7.844037220124423e-8 1.0127852075831086e-7
          7.601535162532259e-8 4.503784292053727e-8 7.795285448426479e-8 1.5155897111315287e-8 5.903889140315217e-9 1.793188241011444e-8
          1.9845265358316324e-9 6.186887129440741e-10 2.345244157032879e-9 1.9834656158130736e-8 7.772033982559541e-9 2.0516311191644526e-8
          2.590929177722197e-9 7.870845118731163e-10 2.6787167448863035e-9 2.5007692469209324e-8 2.4489625376621023e-8 1.9688238316010056e-8
          1.917217648595678e-8 2.0936003033264947e-8 1.6109571453311753e-8 3.520636049712971e-8 3.525327606945239e-8 2.7865670258955816e-8
          3.113737407217182e-8 1.4910817302032062e-8 1.4357946469931146e-8 1.0621653521273892e-8 1.0091823868239713e-8 1.174455065387506e-8
          8.026157159151319e-9 2.1375871513712497e-8 2.1002805176512204e-8 1.5136959888471432e-8 1.7866071509956754e-8 1.3858961030482733e-8
          1.0328655761787618e-8 6.9665429903523364e-9 4.968266550222768e-9 2.1081773811441827e-8 1.5956683953193648e-8 1.0826031369561248e-8
          7.279881153049433e-9 4.8312055159844585e-9 3.381307792214656e-9 2.185561048300031e-9 1.1452274820914498e-8 7.718823430642614e-9
          5.414227094749753e-9 4.3471407919870965e-8 4.557607256004663e-8 3.690097988569835e-8 3.7545091943705965e-8 4.299596767651902e-8
          3.3796901895162186e-8 4.820656029532744e-8 5.3175030882749806e-8 4.549116049719262e-8 5.449821699446361e-8 2.8762620523861306e-8
          2.8731468041992437e-8 2.1034662198515857e-8 2.0786832127902014e-8 2.514922706059571e-8 1.7785164638237175e-8 3.5737052204194684e-8
          3.657843336155123e-8 2.6836279347631516e-8 3.309161028291286e-8 3.005057654969732e-8 2.2845143217505378e-8 1.5618888431687152e-8
          1.1488899337112873e-8 4.005064435359049e-8 3.057403254832776e-8 2.1052286357716033e-8 1.655811187847786e-8 1.1340977073348118e-8
          8.013398844359961e-9 5.270572020500749e-9 2.223154202624623e-8 1.5371079130114393e-8 1.0970908991524066e-8 7.022485524827926e-9
          6.596536629304244e-9 5.124198770221856e-9 1.0682991616246669e-8 1.0185254119136681e-8 8.128440848338688e-9 3.0145812324743198e-9
          1.3396078534386519e-9 4.871792035664527e-9 2.1742552044095336e-9 1.4779178260737391e-8 1.4346980384850064e-8 1.1826505053716002e-8
          1.880324987811098e-8 1.8599135141145603e-8 1.585214129019804e-8 7.256057720510447e-9 3.2676419385204945e-9 9.975169458748266e-9
          4.547711674116247e-9 2.7948834096073823e-9 1.909850303010761e-9 9.89606450822978e-10 6.481170628487964e-10 4.384142049543378e-9
          3.0296326376289374e-9 1.539761037988876e-9 1.2586186786512742e-9 7.961706132118656e-10 4.1503136078688293e-10 2.5790531175218793e-10
          2.010556742929848e-9 1.276465198927773e-9 6.51498019777264e-10 3.3465486222988135e-10 2.0973778719155211e-10 1.6425193979219006e-10
          1.0069222711673198e-10 5.10734907070501e-10 3.2208709997200203e-10 1.938180823047177e-10 1.306226230420279e-10 7.978780970439817e-11
          6.154093356250395e-11 3.7075054599899696e-11 2.013226343723751e-10 1.23120588750495e-10 7.26995118212689e-11 6.4142418621707655e-9
          4.476895197243634e-9 2.2508506517610536e-9 1.4865776089814083e-9 8.746560559030214e-9 6.15573760387484e-9 3.079661507261002e-9
          2.988444537689642e-9 1.9044285203392332e-9 9.574005998902662e-10 5.962092354837639e-10 4.1320960182625666e-9 2.641261243326427e-9
          1.314365814816981e-9 7.373134719076972e-10 4.6538931736896187e-10 2.306577907046022e-10 1.4164746832877114e-10 9.975142748240141e-10
          6.302658540544206e-10 3.089802129923015e-10 2.9109433209875727e-10 1.7817793683791183e-10 8.572805767879556e-11 6.326757587979928e-11
          3.942275325144177e-10 2.413092268772738e-10 1.1503098141351558e-10 4.822762347700109e-10 1.5489068169048648e-10 8.971874533243392e-11
          7.742478700229761e-10 2.43546459940764e-10 4.7477428146805044e-11 2.7418037866436522e-11 2.1862913860843145e-11 1.2572414115580946e-11
          7.315282644954268e-11 4.213247523679791e-11 3.3417060922817137e-11 1.1570118564769732e-9 3.580408724725101e-10 2.0699340618161964e-10
          1.6078752749859185e-9 4.915533779647184e-10 1.056357361138733e-10 6.06548535619943e-11 4.781740574731368e-11 2.6895991370169836e-11
          1.4295304271499222e-10 8.194474894767515e-11 6.420327252056391e-11 5.2926395409628075e-8 5.9601201928738506e-8 4.52214274951402e-8
          5.067782310822145e-8 6.43311834124989e-8 5.2426108662887346e-8 5.8017586917427365e-8 6.543070805323612e-8 5.434790557586422e-8
          7.208671479249818e-8 3.993162604321714e-8 4.2584317404650996e-8 3.19506958184668e-8 3.2562293272812876e-8 4.0589897167328644e-8
          2.9200765021035096e-8 4.1369253469931195e-8 4.6048447581015954e-8 3.677930428059777e-8 4.642258946475793e-8 4.964203673890475e-8
          3.81906367739638e-8 2.6602100084638544e-8 1.9707023538504687e-8 5.750919853768742e-8 4.4615398489098324e-8 3.149731871691087e-8
          2.789423125662212e-8 1.935713732053516e-8 1.393808674026089e-8 9.335441785198176e-9 3.276614775251664e-8 2.2783962245114585e-8
          1.650543632922556e-8 6.084685089199417e-8 6.90297569853391e-8 4.944428108776526e-8 5.690776114324707e-8 7.712943571548428e-8
          6.31033761970197e-8 6.145698874115707e-8 7.007314027313663e-8 5.786995023863716e-8 7.887575100268864e-8 4.1895788629393845e-8
          4.764962943731883e-8 3.684506076383176e-8 3.9079901645102756e-8 4.985661425026251e-8 3.6920044257269783e-8 4.215489390732644e-8
          4.810219133315828e-8 3.9762845660721814e-8 5.092203188233551e-8 6.26475258139311e-8 4.89213776153213e-8 3.4806022435194756e-8
          2.5734864785318707e-8 6.442559589429846e-8 5.042759051602392e-8 3.594489411323917e-8 3.609410760685881e-8 2.5115655637814294e-8
          1.8269511902469775e-8 1.2322009184699712e-8 3.7282316505797556e-8 2.5944042781035135e-8 1.8902869668337353e-8 2.2525180721548258e-8
          2.2566836079458407e-8 1.97187488321682e-8 2.574902334192214e-8 2.5967959170112507e-8 2.2990197856616473e-8 1.269478541413111e-8
          5.8676946998086345e-9 1.5018206624890125e-8 7.028188594112823e-9 2.7921891580540614e-8 2.8347983252301225e-8 2.5271162581706336e-8
          2.8654684134484645e-8 2.9206493583601054e-8 2.6109656992766478e-8 1.6581740200548767e-8 7.825806869421756e-9 1.713303373557216e-8
          8.110172110033449e-9 1.111988178210338e-8 7.869097211788732e-9 3.933900708296788e-9 2.6081688037115827e-9 1.3189828531681311e-8
          9.362040718706208e-9 4.6854967675414905e-9 5.312823687882315e-9 3.405550370824254e-9 1.68318611853562e-9 1.0495892570898573e-9
          6.349587830371558e-9 4.083223851669767e-9 2.0095532817332694e-9 1.2630996623361117e-9 7.987079673541034e-10 3.8503522838343927e-10
          2.372762096742227e-10 1.4959685855159944e-9 9.46190384889434e-10 4.5090076077232984e-10 4.996622877774895e-10 3.0564847500180217e-10
          1.4385343195589733e-10 1.0629016845206915e-10 5.915600589987625e-10 3.6150827529307427e-10 1.6925569924477763e-10 1.461054994113695e-8
          1.0383533630392885e-8 5.202903547483827e-9 3.4613948322685345e-9 1.511893751009669e-8 1.0747253843124226e-8 5.387524752537696e-9
          7.058305528130132e-9 4.552046703136625e-9 2.235883845311271e-9 1.3940683845202378e-9 7.309322299889031e-9 4.719573302183758e-9
          2.3171092932100485e-9 1.6562867414590042e-9 1.0475852729614132e-9 4.956603742188044e-10 3.0719411542339274e-10 1.713681439317043e-9
          1.0837882012793704e-9 5.115103560475036e-10 6.541979729633011e-10 3.9946127040308196e-10 1.872394783284764e-10 1.1187525904823734e-10
          6.764486779943383e-10 4.129587342112872e-10 1.9380494141244432e-10 2.07645385422101e-9 6.297024971506918e-10 3.6333381660906995e-10
          2.4919938123246757e-9 7.520726460694761e-10 1.8111035482637077e-10 1.0386402244531646e-10 8.0898625470488e-11 4.555006906338223e-11
          2.1441265115553978e-10 1.2323300840747923e-10 7.133046406582682e-11 2.780155477058574e-9 8.36769848103187e-10 4.820894447619057e-10
          2.8834819739813005e-9 8.670702593126969e-10 2.372777822599755e-10 1.3673437515263933e-10 6.533710976760126e-11 4.6357064192759204e-11
          2.454701510854444e-10 1.4161639948950506e-10 6.8176274433582e-11 1.0753931966058383e-10 1.276619959635952e-10 6.878122653197468e-11
          1.6576207689463005e-10 2.006740484827667e-10 9.125190202885115e-11 2.3069996625074577e-10 2.512585823373457e-10 1.1203936322117026e-10
          2.5872584761607976e-10 6.523835181570155e-11 7.476217302544775e-11 3.903367580493288e-11 4.453092069832947e-11 4.334289360243508e-11
          4.179621248110432e-11 2.5068688175721024e-11 9.513569698544096e-11 5.6660196054073926e-11 4.492109416660848e-11 2.2405116084020698e-11
          2.5974689671871107e-11 1.6983994708333578e-11 1.9271302290764196e-11 1.561967025985435e-11 1.6057310950359695e-11 1.3294536732754202e-11
          3.347081894568111e-11 2.4520127629113273e-11 1.8655169510704622e-11 1.1625384682836757e-10 6.958749521409789e-11 5.411364055882523e-11
          3.312318838846947e-11 1.3452044851063241e-10 8.09161482681662e-11 6.199932038985713e-11 4.118461905721056e-11 3.025300400087736e-11
          2.276555260101904e-11 1.9577369115809585e-11 4.82604013449779e-11 3.141292146962926e-11 2.5084228641506628e-11 1.4685151344186968e-10
          8.868208340353907e-11 6.704695385854298e-11 3.9938542826447774e-11 1.5118442378352172e-10 9.141463418251967e-11 6.872989108157877e-11
          5.3305397070247797e-11 3.164623079991232e-11 2.4804302544714812e-11 1.636803960562943e-11 5.506185493332023e-11 3.268526070374227e-11
          2.415586562791024e-11 1.8378022072114844e-11 1.8627680618557655e-11 1.3927785206344054e-11 1.3753343363328559e-11 1.3170614838777401e-11
          1.1524387035818376e-11 9.584585514453732e-12 1.8877339165000466e-11 1.3578901520313062e-11 9.878159232859354e-12
        </DataArray>
        <DataArray type="Float64" Name="gradient_matprop_error" format="ascii" RangeMin="0" RangeMax="0">
          0 0 0 0 0 0
          0 0 0 0 0 0
          0 0 0 0 0 0
          0 0 0 0 0 0
          0 0 0 0 0 0
          0 0 0 0 0 0
          0 0 0 0 0 0
          0 0 0 0 0 0
          0 0 0 0 0 0
          0 0 0 0 0 0
          0 0 0 0 0 0
          0 0 0 0 0 0
          0 0 0 0 0 0
          0 0 0 0 0 0
          0 0 0 0 0 0
          0 0 0 0 0 0
          0 0 0 0 0 0
          0 0 0 0 0 0
          0 0 0 0 0 0
          0 0 0 0 0 0
          0 0 0 0 0 0
          0 0 0 0 0 0
          0 0 0 0 0 0
          0 0 0 0 0 0
          0 0 0 0 0 0
          0 0 0 0 0 0
          0 0 0 0 0 0
          0 0 0 0 0 0
          0 0 0 0 0 0
          0 0 0 0 0 0
          0 0 0 0 0 0
          0 0 0 0 0 0
          0 0 0 0 0 0
          0 0 0 0 0 0
          0 0 0 0 0 0
          0 0 0 0 0 0
          0 0 0 0 0 0
          0 0 0 0 0 0
          0 0 0 0 0 0
          0 0 0 0 0 0
          0 0 0 0 0 0
          0 0 0 0 0 0
          0 0 0 0 0 0
          0 0 0 0 0 0
          0 0 0 0 0 0
          0 0 0 0 0 0
          0 0 0 0 0 0
          0 0 0 0 0 0
          0 0 0 0 0 0
          0 0 0 0 0 0
          0 0 0 0 0 0
          0 0 0 0 0 0
          0 0 0 0 0 0
          0 0 0 0 0 0
          0 0 0 0 0 0
          0 0 0 0 0 0
          0 0 0 0 0 0
          0 0 0 0 0 0
          0 0 0 0 0 0
          0 0 0 0 0 0
          0 0 0 0 0 0
          0 0 0 0 0 0
          0 0 0 0 0 0
          0 0 0 0 0 0
          0 0 0 0 0 0
          0 0 0 0 0 0
          0 0 0 0 0 0
          0 0 0 0 0 0
          0 0 0 0 0 0
          0 0 0 0 0 0
          0 0 0 0 0 0
          0 0 0 0 0 0
          0 0 0 0 0 0
          0 0 0 0 0 0
          0 0 0 0 0 0
          0 0 0 0 0 0
          0 0 0 0 0 0
          0 0 0 0 0 0
          0 0 0 0 0 0
          0 0 0 0 0 0
          0 0 0 0 0 0
          0 0 0 0 0 0
          0 0 0 0 0 0
          0 0 0 0 0 0
          0 0 0 0 0 0
          0 0 0 0 0 0
          0 0 0 0 0 0
          0 0 0 0 0 0
          0 0 0 0 0 0
          0 0 0 0 0 0
          0 0 0 0 0 0
          0 0 0 0 0 0
          0 0 0 0 0 0
          0 0 0 0 0 0
          0 0 0 0 0 0
          0 0 0 0 0 0
          0 0 0 0 0 0
          0 0 0 0 0 0
          0 0 0 0 0 0
          0 0 0 0 0 0
          0 0 0 0 0 0
          0 0 0 0 0 0
          0 0 0 0 0 0
          0 0 0 0 0 0
          0 0 0 0 0 0
          0 0 0 0 0 0
          0 0 0 0 0 0
          0 0 0 0 0 0
          0 0 0 0 0 0
          0 0 0 0 0 0
          0 0 0 0 0 0
          0 0 0 0 0 0
          0 0 0 0 0 0
          0 0 0 0 0 0
          0 0 0 0 0 0
          0 0 0 0 0 0
          0 0 0 0 0 0
          0 0 0 0 0 0
          0 0 0 0 0 0
          0 0 0 0 0 0
          0 0 0 0 0 0
          0 0 0 0 0 0
          0 0 0 0 0 0
          0 0 0 0 0 0
          0 0 0 0 0 0
          0 0 0 0 0 0
          0 0 0 0 0 0
          0 0 0 0 0 0
          0 0 0 0 0
        </DataArray>
        <DataArray type="Float64" Name="initial_marker" format="ascii" RangeMin="0" RangeMax="2">
          0 2 1 0 0 2
          2 0 0 0 0 0
          2 2 2 0.75 2 2
          2 2 2 2 1.25 2
          2 2 0 0 0 0