<?xml version="1.0"?>
<VTKFile type="UnstructuredGrid" version="0.1" byte_order="LittleEndian" header_type="UInt32" compressor="vtkZLibDataCompressor">
  <UnstructuredGrid>
    <Piece NumberOfPoints="1125" NumberOfCells="796">
      <PointData>
        <DataArray type="Int32" Name="libmesh_node_id" format="ascii" RangeMin="1521" RangeMax="8959">
          1521 1529 1747 1754 1941 2416
          2417 2418 2421 2424 2458 2459
          2464 2480 2481 2482 2483 2487
          2488 2490 2491 2493 2528 2529
          2532 2534 2535 2537 3366 3367
          3368 3371 3374 3388 3389 3394
          3500 3501 3503 3506 3516 3520
          3534 3535 3537 3540 3550 3552
          3554 3647 3648 3649 3650 3651
          3652 3653 3654 3655 3656 3657
          3658 3659 3660 3661 3662 3663
          3664 3668 3669 3671 3672 3674
          3675 3676 3677 3678 3679 3680
          3681 3682 3683 3684 3685 3686
          3689 3690 3692 3694 3743 3744
          3745 3746 3750 3751 3783 3784
          3785 3786 3787 3788 3789 3790
          3791 3792 3793 3794 3797 3799
          3800 3802 3803 3804 3805 3806
          3807 3808 3809 3810 3812 3814
          3816 3817 3818 3819 3820 3821
          3822 3823 3824 3825 3826 3827
          3828 3831 3833 3834 3836 3837
          3838 3839 3840 3841 3842 3843
          3844 3846 3848 3850 3920 3924
          3954 3958 6017 6018 6019 6022
          6025 6039 6040 6043 6045 6067
          6068 6071 6073 6477 6478 6480
          6483 6493 6495 6497 6511 6512
          6514 6517 6527 6529 6531 6558
          6560 6562 6586 6588 6590 6686
          6687 6689 6692 6702 6704 6706
          6720 6721 6723 6726 6736 6738
          6740 6800 6802 6804 6814 6816
          6818 6828 6830 6832 6842 6844
          6846 7018 7022 7046 7050 7134
          7135 7136 7137 7138 7139 7140
          7141 7142 7143 7144 7145 7146
          7147 7148 7149 7150 7151 7152
          7153 7154 7155 7156 7157 7158
          7159 7160 7161 7162 7163 7164
          7165 7166 7167 7168 7169 7170
          7171 7172 7173 7174 7175 7176
          7177 7178 7179 7180 7181 7182
          7183 7184 7185 7186 7187 7188
          7189 7190 7191 7192 7193 7194
          7195 7196 7197 7198 7199 7203
          7204 7206 7207 7209 7210 7211
          7212 7213 7214 7215 7216 7217
          7218 7219 7220 7221 7224 7225
          7227 7229 7230 7231 7232 7233
          7234 7235 7236 7237 7238 7239
          7240 7241 7242 7243 7244 7245
          7246 7247 7248 7249 7252 7253
          7256 7257 7258 7260 7261 7262
          7263 7264 7265 7266 7267 7268
          7269 7270 7271 7272 7273 7274
          7275 7276 7277 7278 7279 7280
          7281 7284 7285 7287 7289 7290
          7291 7292 7293 7294 7295 7296
          7297 7298 7299 7300 7488 7489
          7492 7494 7496 7497 7498 7499
          7500 7501 7502 7503 7504 7505
          7526 7527 7528 7529 7530 7531
          7533 7534 7535 7616 7617 7618
          7619 7620 7621 7622 7623 7624
          7625 7626 7627 7628 7629 7630
          7631 7632 7633 7634 7635 7636
          7637 7638 7639 7640 7641 7642
          7643 7644 7645 7646 7647 7648
          7649 7650 7651 7652 7653 7654
          7655 7656 7657 7658 7659 7660
          7661 7662 7663 7664 7665 7666
          7667 7668 7669 7670 7671 7672
          7673 7674 7675 7676 7677 7678
          7679 7680 7681 7682 7683 7684
          7685 7686 7687 7688 7689 7690
          7691 7692 7693 7694 7695 7698
          7700 7701 7703 7704 7705 7706
          7707 7708 7709 7710 7711 7713
          7715 7717 7718 7719 7720 7721
          7722 7723 7724 7725 7726 7727
          7728 7729 7732 7734 7735 7737
          7738 7739 7740 7741 7742 7743
          7744 7745 7747 7749 7751 7752
          7753 7754 7755 7756 7757 7758
          7759 7760 7761 7762 7763 7764
          7765 7766 7767 7769 7770 7771
          7772 7773 7774 7775 7776 7777
          7778 7779 7780 7781 7782 7783
          7784 7785 7786 7787 7788 7789
          7790 7791 7792 7793 7794 7795
          7796 7797 7798 7799 7800 7801
          7802 7803 7804 7805 7806 7807
          7808 7809 7810 7811 7812 7813
          7814 7815 7817 7819 7821 7822
          7823 7824 7825 7826 7827 7828
          7836 7837 7838 7839 7840 7841
          7842 7843 7845 7847 7849 7850
          7851 7852 7853 7854 7855 7856
          7864 7865 7866 7867 7868 7869
          7870 7871 7872 7873 7874 7875
          7876 7877 7878 7879 7880 7881
          7882 7883 7884 7885 7886 7887
          7888 7889 7890 7891 7892 7893
          7894 7895 7896 7897 7898 7899
          7900 7901 7902 7903 7904 7905
          7906 7907 7908 7909 7910 7911
          7912 7913 7914 7915 7916 7917
          7918 7919 7920 7921 7922 7923
          7924 7925 7926 7927 7928 7929
          7930 7931 7932 7933 7934 7935
          7936 7937 7938 7939 7940 7941
          7942 7943 7946 7948 7949 7951
          7952 7953 7954 7955 7956 7957
          7958 7959 7961 7963 7965 7966
          7967 7968 7969 7970 7971 7972
          7973 7974 7975 7976 7977 7980
          7982 7983 7985 7986 7987 7988
          7989 7990 7991 7992 7993 7995
          7997 7999 8000 8001 8002 8003
          8004 8005 8006 8007 8008 8009
          8010 8011 8012 8013 8014 8015
          8016 8017 8018 8019 8020 8021
          8022 8023 8024 8025 8026 8027
          8028 8029 8030 8031 8032 8033
          8034 8035 8036 8037 8038 8039
          8040 8041 8042 8043 8044 8045
          8046 8047 8048 8049 8050 8051
          8052 8053 8054 8055 8056 8057
          8058 8059 8060 8061 8062 8063
          8065 8067 8069 8070 8071 8072
          8073 8074 8075 8076 8084 8085
          8086 8087 8088 8089 8090 8091
          8093 8095 8097 8098 8099 8100
          8101 8102 8103 8104 8609 8611
          8612 8613 8615 8616 8617 8618
          8619 8620 8621 8636 8637 8640
          8641 8643 8644 8645 8646 8647
          8648 8649 8664 8665 8666 8668
          8669 8670 8692 8693 8694 8696
          8697 8698 8856 8857 8860 8861
          8863 8864 8865 8866 8867 8868
          8869 8884 8885 8888 8889 8891
          8892 8893 8894 8895 8896 8897
          8912 8913 8914 8916 8917 8918
          8940 8941 8942 8944 8945 8946
          1948 1949 1942 1756 1757 1746
          2484 2485 2486 2489 2508 2438
          2509 2439 2510 2511 3665 3666
          3667 3670 3687 3688 3691 3747
          3749 3748 3753 3754 3755 3756
          3757 3758 7200 7201 7202 7205
          1758 7208 3673 7222 7223 7226
          7228 2492 7282 7283 7286 7288
          3693 7301 7302 7303 7304 7305
          7306 7307 7308 7309 7516 7508
          7517 7509 7518 7519 7523 7514
          7524 7532 3760 7536 7537 7540
          7541 7543 7545 7546 7547 7548
          7549 7553 7554 7696 7697 7699
          3795 7702 3796 7712 7714 7716
          3798 7730 7731 7733 2530 7736
          3801 7746 7748 7750 2531 7816
          7818 7820 3811 7829 7830 7831
          7833 7834 7835 7844 7846 7848
          3815 7857 7858 7859 7861 7862
          7863 7944 7945 7947 3829 7950
          3830 7960 7962 7964 3832 7978
          7979 7981 1766 7984 3835 7994
          7996 7998 2536 8064 8066 8068
          3845 8077 8078 8079 8081 8082
          8083 8092 8094 8096 3849 8105
          8106 8107 8109 8110 8111 3919
          8629 8623 8630 8633 8627 8634
          8614 8639 8638 3923 8642 8657
          8651 8658 8661 8655 8662 8667
          3926 8671 8673 8675 8677 8678
          8679 8682 8683 8695 3930 8699
          8701 8703 8705 8706 8707 8710
          8711 8859 8858 7020 8862 3627
          3953 8877 8871 8878 8881 8875
          8882 8886 7048 8887 8890 3631
          3957 8905 8899 8906 8909 8903
          8910 8915 3960 8919 8921 8923
          8925 8926 8927 8930 8931 8943
          3964 8947 8949 8951 8953 8954
          8955 8958 8959
        </DataArray>
        <DataArray type="Float64" Name="bounds" format="ascii" RangeMin="0" RangeMax="0">
          0 0 0 0 0 0
          0 0 0 0 0 0
          0 0 0 0 0 0
          0 0 0 0 0 0
          0 0 0 0 0 0
          0 0 0 0 0 0
          0 0 0 0 0 0
          0 0 0 0 0 0
          0 0 0 0 0 0
          0 0 0 0 0 0
          0 0 0 0 0 0
          0 0 0 0 0 0
          0 0 0 0 0 0
          0 0 0 0 0 0
          0 0 0 0 0 0
          0 0 0 0 0 0
          0 0 0 0 0 0
          0 0 0 0 0 0
          0 0 0 0 0 0
          0 0 0 0 0 0
          0 0 0 0 0 0
          0 0 0 0 0 0
          0 0 0 0 0 0
          0 0 0 0 0 0
          0 0 0 0 0 0
          0 0 0 0 0 0
          0 0 0 0 0 0
          0 0 0 0 0 0
          0 0 0 0 0 0
          0 0 0 0 0 0
          0 0 0 0 0 0
          0 0 0 0 0 0
          0 0 0 0 0 0
          0 0 0 0 0 0
          0 0 0 0 0 0
          0 0 0 0 0 0
          0 0 0 0 0 0
          0 0 0 0 0 0
          0 0 0 0 0 0
          0 0 0 0 0 0
          0 0 0 0 0 0
          0 0 0 0 0 0
          0 0 0 0 0 0
          0 0 0 0 0 0
          0 0 0 0 0 0
          0 0 0 0 0 0
          0 0 0 0 0 0
          0 0 0 0 0 0
          0 0 0 0 0 0
          0 0 0 0 0 0
          0 0 0 0 0 0
          0 0 0 0 0 0
          0 0 0 0 0 0
          0 0 0 0 0 0
          0 0 0 0 0 0
          0 0 0 0 0 0
          0 0 0 0 0 0
          0 0 0 0 0 0
          0 0 0 0 0 0
          0 0 0 0 0 0
          0 0 0 0 0 0
          0 0 0 0 0 0
          0 0 0 0 0 0
          0 0 0 0 0 0
          0 0 0 0 0 0
          0 0 0 0 0 0
          0 0 0 0 0 0
          0 0 0 0 0 0
          0 0 0 0 0 0
          0 0 0 0 0 0
          0 0 0 0 0 0
          0 0 0 0 0 0
          0 0 0 0 0 0
          0 0 0 0 0 0
          0 0 0 0 0 0
          0 0 0 0 0 0
          0 0 0 0 0 0
          0 0 0 0 0 0
          0 0 0 0 0 0
          0 0 0 0 0 0
          0 0 0 0 0 0
          0 0 0 0 0 0
          0 0 0 0 0 0
          0 0 0 0 0 0
          0 0 0 0 0 0
          0 0 0 0 0 0
          0 0 0 0 0 0
          0 0 0 0 0 0
          0 0 0 0 0 0
          0 0 0 0 0 0
          0 0 0 0 0 0
          0 0 0 0 0 0
          0 0 0 0 0 0
          0 0 0 0 0 0
          0 0 0 0 0 0
          0 0 0 0 0 0
          0 0 0 0 0 0
          0 0 0 0 0 0
          0 0 0 0 0 0
          0 0 0 0 0 0
          0 0 0 0 0 0
          0 0 0 0 0 0
          0 0 0 0 0 0
          0 0 0 0 0 0
          0 0 0 0 0 0
          0 0 0 0 0 0
          0 0 0 0 0 0
          0 0 0 0 0 0
          0 0 0 0 0 0
          0 0 0 0 0 0
          0 0 0 0 0 0
          0 0 0 0 0 0
          0 0 0 0 0 0
          0 0 0 0 0 0
          0 0 0 0 0 0
          0 0 0 0 0 0
          0 0 0 0 0 0
          0 0 0 0 0 0
          0 0 0 0 0 0
          0 0 0 0 0 0
          0 0 0 0 0 0
          0 0 0 0 0 0
          0 0 0 0 0 0
          0 0 0 0 0 0
          0 0 0 0 0 0
          0 0 0 0 0 0
          0 0 0 0 0 0
          0 0 0 0 0 0
          0 0 0 0 0 0
          0 0 0 0 0 0
          0 0 0 0 0 0
          0 0 0 0 0 0
          0 0 0 0 0 0
          0 0 0 0 0 0
          0 0 0 0 0 0
          0 0 0 0 0 0
          0 0 0 0 0 0
          0 0 0 0 0 0
          0 0 0 0 0 0
          0 0 0 0 0 0
          0 0 0 0 0 0
          0 0 0 0 0 0
          0 0 0 0 0 0
          0 0 0 0 0 0
          0 0 0 0 0 0
          0 0 0 0 0 0
          0 0 0 0 0 0
          0 0 0 0 0 0
          0 0 0 0 0 0
          0 0 0 0 0 0
          0 0 0 0 0 0
          0 0 0 0 0 0
          0 0 0 0 0 0
          0 0 0 0 0 0
          0 0 0 0 0 0
          0 0 0 0 0 0
          0 0 0 0 0 0
          0 0 0 0 0 0
          0 0 0 0 0 0
          0 0 0 0 0 0
          0 0 0 0 0 0
          0 0 0 0 0 0
          0 0 0 0 0 0
          0 0 0 0 0 0
          0 0 0 0 0 0
          0 0 0 0 0 0
          0 0 0 0 0 0
          0 0 0 0 0 0
          0 0 0 0 0 0
          0 0 0 0 0 0
          0 0 0 0 0 0
          0 0 0 0 0 0
          0 0 0 0 0 0
          0 0 0 0 0 0
          0 0 0 0 0 0
          0 0 0 0 0 0
          0 0 0 0 0 0
          0 0 0 0 0 0
          0 0 0 0 0 0
          0 0 0 0 0 0
          0 0 0 0 0 0
          0 0 0 0 0 0
          0 0 0 0 0 0
          0 0 0 0 0 0
          0 0 0 0 0 0
          0 0 0 0 0 0
          0 0 0 0 0 0
          0 0 0
        </DataArray>
        <DataArray type="Float64" Name="gradient_error" format="ascii" RangeMin="1.241595432320542e-11" RangeMax="5.947440753253077e-9">
          8.477142367623032e-10 2.9217403176274575e-9 5.47588337385382e-10 3.5218155316016387e-9 3.1230424587623794e-10 9.762410092972942e-10
          8.701043915986325e-10 7.556928925868846e-10 4.966266775736738e-10 4.44983675268208e-10 4.368774110627853e-9 3.469356478699305e-9
          3.7641007666046405e-9 4.504550937147378e-10 3.9625070919917415e-10 3.596353176738365e-10 3.1028541595783784e-10 2.698898552606511e-10
          2.005456653659924e-10 2.7314947032650483e-10 2.1855711183453418e-10 1.1256743421013684e-10 2.915070278000724e-9 2.274319559922123e-9
          1.0862534655245283e-9 2.3056717717490517e-9 3.633291697780477e-9 2.3883307575392637e-9 6.104554191943593e-10 4.184663888251751e-10
          3.9996134302416705e-10 3.4929693741542335e-10 5.199260099706927e-10 4.310969872970366e-10 2.7942236994205606e-10 3.431989524167602e-10
          1.6784859283436617e-9 1.5917746399253928e-9 1.357084538746825e-9 4.123908191329687e-9 1.0380099382957858e-9 2.591718226905422e-9
          5.9369384033781575e-9 5.838170645467838e-9 5.502783920574103e-9 3.2880785464411564e-9 4.583096967056376e-9 3.132452074796971e-9
          4.354203525382441e-9 4.166302156361273e-10 3.985673105447723e-10 2.7648628379656697e-10 2.6401175969175097e-10 2.5700736383715433e-10
          1.7918369688962666e-10 1.7098058970145232e-10 3.4853128290237204e-10 2.299027622248118e-10 1.4855893352162002e-10 3.9406842682156785e-10
          3.7336246936011436e-10 2.5832464335214776e-10 3.175501618767641e-10 1.6833790090463989e-10 1.6085073199038656e-10 1.1278441411341569e-10
          1.0755034884377396e-10 1.4016357956357282e-10 9.327759491648171e-11 1.815097123291905e-10 1.713984741382009e-10 1.4438509029198649e-10
          2.795280756463334e-10 1.8299021481033083e-10 1.7929634569509723e-10 1.177986832012543e-10 2.0534899178671937e-10 1.331601123628509e-10
          8.533226093770788e-11 2.4251403497422723e-10 1.6557220531502008e-10 1.6653569996228387e-10 1.1173515081617683e-10 7.374585095023638e-11
          8.149364731042319e-11 5.3226989889394825e-11 1.0866434497507104e-10 7.32799732348399e-11 1.38928705011322e-10 8.914040763310874e-11
          8.855752201796139e-11 5.691634873081247e-11 1.029761452275877e-10 6.882891293935848e-11 1.3121253561717042e-9 1.2411557246849662e-9
          9.845459556040327e-10 9.285736535300353e-10 1.049477782952249e-9 7.783086157216663e-10 3.6400580912468506e-9 3.4277526986136113e-9
          2.7370911803124356e-9 2.8570381978098426e-9 7.046715333583479e-10 6.626307776549197e-10 5.505823028481143e-10 2.2422135901243363e-9
          2.1054718501428606e-9 1.7437688309591726e-9 7.912437452496616e-10 5.784249728480978e-10 5.303218023096423e-10 3.8056618232741416e-10
          2.123186491015571e-9 1.6771332945814887e-9 1.4061155924039952e-9 4.0369208022849886e-10 2.612903886045749e-10 1.2669218072212848e-9
          8.004826684201415e-10 5.481959733968889e-9 5.405456748561071e-9 5.080494669879891e-9 4.936360434371204e-9 5.002871939959076e-9
          4.327508256223035e-9 2.5367561824049563e-9 2.7677695581035953e-9 2.8227170746082703e-9 3.654266511891669e-9 4.342123235333468e-9
          4.101871651527428e-9 3.4235238153590538e-9 2.7706890756459385e-9 2.9966046694409228e-9 3.0902693439810117e-9 3.9598378861132125e-9
          3.227491149161774e-9 2.620658364756536e-9 2.1256545282718746e-9 3.985200893587529e-9 3.3455748677439596e-9 2.9452141929251355e-9
          2.5328801429010898e-9 1.6609508037980006e-9 2.603179669212945e-9 1.89517024201948e-9 2.222199830857042e-10 6.124633680788325e-10
          1.2221914384087246e-9 1.473796597670772e-9 1.967411943546096e-10 2.920165116487373e-10 2.882956988228131e-10 2.7750822676840287e-10
          5.405395229723124e-10 1.7816876373731592e-10 2.6054292307421757e-10 2.3852237396829624e-10 4.872886431423853e-10 1.4630177974977158e-10
          2.1293546988242168e-10 1.8538195418392766e-10 3.9590478623255496e-10 9.81458393916347e-10 9.686812180474311e-10 9.313026824353936e-10
          1.6563813667917266e-9 8.720745597301964e-10 7.952321263644344e-10 1.4895610735733317e-9 2.7661543844314597e-9 2.727061998915033e-9
          2.613546211700744e-9 4.305789208918911e-9 2.4362203664864907e-9 2.210819109803572e-9 3.83913652705538e-9 7.0602545880254e-10
          6.101446359508578e-10 1.20330525850841e-9 1.9545579194435645e-9 1.682456970890819e-9 3.040572147249889e-9 5.947440753253077e-9
          5.888395296035548e-9 5.7019934505335074e-9 5.9115664677249025e-9 5.375841800153679e-9 4.917469857509985e-9 5.71367740163367e-9
          4.105232829632294e-9 4.160427423606952e-9 4.288201821903128e-9 3.0404289436852384e-9 4.41207981893254e-9 4.575940078421659e-9
          3.476022882207397e-9 4.356240597930442e-9 3.7248357177171673e-9 5.133526284801858e-9 3.0751003320353233e-9 2.4702783705950033e-9
          3.883528773587288e-9 4.707026104344303e-9 4.59418044491633e-9 4.180652367471348e-9 4.157434402358233e-9 3.4673712484865455e-9
          4.115100979429142e-9 1.936146096572481e-9 2.453310703750803e-9 2.7457603204236666e-9 2.8167886318978514e-9 1.653926217565243e-10
          1.632483945289112e-10 2.4450490052822554e-10 2.4133856019092276e-10 1.3455489744788252e-10 2.0325946477001145e-10 2.0058997181050555e-10
          1.5713070546450264e-10 2.321598262552433e-10 1.9285357484627258e-10 4.664225881511543e-10 4.602902564610674e-10 3.887869400133601e-10
          4.423690767217056e-10 1.1101435066297172e-10 1.095475315608234e-10 1.672924367993028e-10 1.650689045259629e-10 8.836123342554992e-11
          1.3639734798154724e-10 1.345657042655355e-10 1.053569496234013e-10 1.5862375241356798e-10 1.2925473604279043e-10 3.297702362653446e-10
          3.2527285285485686e-10 2.6936445069971147e-10 3.1214591798431793e-10 1.476350816244243e-10 2.1773698514634286e-10 1.2155112392273098e-10
          1.8070852318241591e-10 1.3527934079970517e-10 1.9904522177158368e-10 1.6499043754540418e-10 4.140295618813288e-10 3.4900244165194394e-10
          3.7736853816897075e-10 9.885571781106344e-11 1.4850999841254433e-10 7.966226351476404e-11 1.2092255283632345e-10 9.041282737468852e-11
          1.3543810264384526e-10 1.1016645762793698e-10 2.914402713135727e-10 2.409325019937995e-10 2.647567388387146e-10 7.187797162330445e-11
          7.091493119352237e-11 1.1028643347080915e-10 1.0879080019728074e-10 5.645847385291838e-11 8.833582306704386e-11 8.712734569339457e-11
          6.815951651818846e-11 1.0445542993320464e-10 8.362558762781128e-11 2.2386317146762512e-10 2.207169697681859e-10 1.789261685322351e-10
          2.1154491451524595e-10 4.491242343303401e-11 4.4303729555268605e-11 6.995293655246198e-11 6.898912189898703e-11 4.2561463713130266e-11
          6.619580098853042e-11 1.4560297755015596e-10 1.4350748470195348e-10 1.3740469940052286e-10 6.388377124190298e-11 9.765863236242612e-11
          5.082677533363168e-11 7.813953874384839e-11 5.834126023450284e-11 8.889341352570253e-11 7.107050476577989e-11 1.9711046022911513e-10
          1.5956392667688303e-10 1.7857013915948142e-10 3.9859314802487594e-11 6.182034383435395e-11 3.635936596619769e-11 5.618623546998539e-11
          1.278187058149104e-10 1.1553918156867379e-10 1.2090596724652878e-10 1.7736873194246715e-10 9.932955151872127e-11 1.4679368873856863e-10
          1.0538206285489211e-10 1.5408264171180362e-10 1.2728978319940607e-10 3.349502166292813e-10 2.812516192032947e-10 2.8954288656621256e-10
          8.06160730412455e-11 1.203321096258137e-10 6.484628108445512e-11 9.775716782646506e-11 7.007222578495411e-11 1.0417370081654708e-10
          8.450702863099545e-11 2.3403552393967266e-10 1.9285314445274724e-10 2.013432295973612e-10 7.351040097648586e-11 1.0766413900211997e-10
          8.880765401721787e-11 2.437943025889436e-10 2.036212391140621e-10 5.949185122714008e-11 8.794865928199746e-11 4.773719937403643e-11
          7.122699178618029e-11 4.925514256400919e-11 7.239390825813867e-11 5.852167166387688e-11 1.686257686919707e-10 1.3835112863922736e-10
          1.375374199751624e-10 5.19256110956748e-11 7.879327601232739e-11 4.1259076374290365e-11 6.293278192945207e-11 4.50393227022551e-11
          6.802554317581957e-11 5.4269466856324434e-11 1.5731542020603725e-10 1.2701587715638104e-10 1.348108071102111e-10 3.231173860412665e-11
          4.970671337802177e-11 2.797863221064181e-11 4.2818007997329416e-11 1.0150980273162363e-10 8.671379490742647e-11 3.814667305288088e-11
          5.725198128401937e-11 3.0256113348703835e-11 4.561539794595665e-11 3.1498401609059394e-11 4.6965354423190965e-11 3.736788036140844e-11
          1.1241582302831355e-10 9.04452941834382e-11 9.126320862143371e-11 2.365459007772289e-11 4.941864773773995e-11 7.148879633010949e-11
          5.620026886699067e-11 1.3270928947065488e-10 3.9833508919927633e-11 5.8139283160406585e-11 3.185783967794558e-11 4.69034764520423e-11
          3.16562596783475e-11 4.5596842668271716e-11 3.6707339395414024e-11 1.0928586393111724e-10 8.921314690595214e-11 8.454573467019989e-11
          2.539781454688316e-11 3.7578110615915726e-11 2.0109869011801173e-11 2.9855421343560434e-11 2.0123266036273106e-11 2.935574952537541e-11
          7.215883652492495e-11 5.781633063491162e-11 5.5533836060874786e-11 8.535228915242528e-10 8.421366619105064e-10 7.355990305799366e-10
          7.255487070061155e-10 8.08847954483669e-10 6.961859400213849e-10 1.490803063353006e-9 1.4707352236577724e-9 1.2940267805528007e-9
          1.4120808828413153e-9 6.274081707667251e-10 6.186367866341993e-10 5.292218904187268e-10 5.216638141530118e-10 5.93035675630871e-10
          4.996173106312432e-10 1.1429901854142956e-9 1.1268247948939143e-9 9.702581083193501e-10 1.079609092398289e-9 7.561642004531308e-10
          6.49787147701815e-10 6.879453448658596e-10 5.898455881717725e-10 1.319272044473652e-9 1.15756810179115e-9 1.1990668390227718e-9
          5.526459992478933e-10 4.648887096922823e-10 5.005866902064017e-10 4.20236719340183e-10 1.0050615950767264e-9 8.628702533080293e-10
          9.089011808326501e-10 2.492528004122164e-9 2.4572549280250006e-9 2.230768551447243e-9 2.1990942544129182e-9 2.354827192373106e-9
          2.1069288720796917e-9 3.999862384671848e-9 3.9432933247228405e-9 3.586033385363447e-9 3.776490655788471e-9 1.9805934689010207e-9
          1.952104300711327e-9 1.7416091786164563e-9 1.7161052481431192e-9 1.8691661420099677e-9 1.6417022590447567e-9 3.2758968288808573e-9
          3.225407356774843e-9 2.8692823986188766e-9 3.0785066584745966e-9 2.1947136781023724e-9 1.9623398316228133e-9 1.9902888497047075e-9
          1.7768050298730153e-9 3.5093275365620353e-9 3.177297252631707e-9 3.161992781258846e-9 1.738707337826258e-9 1.5244598976561863e-9
          1.5707484998037364e-9 1.373538512419299e-9 2.849296877475062e-9 2.5323918792793978e-9 2.560043970010818e-9 4.412958011084778e-10
          4.348646316124805e-10 3.6368175471065464e-10 3.582845862718643e-10 4.161232366946319e-10 3.4256768490054013e-10 8.380855592391731e-10
          8.256198972636297e-10 6.939261001212246e-10 7.892689989505057e-10 2.9618937289027145e-10 2.9172072111285323e-10 2.787178578509795e-10
          5.84993519714425e-10 5.758668630292284e-10 5.493096071158131e-10 3.8665128936088605e-10 3.178884756700517e-10 3.488463036791838e-10
          2.8630213735666655e-10 7.320593675077038e-10 6.134837292588446e-10 6.586297074346292e-10 2.583309172411914e-10 2.322924560753845e-10
          5.076795480700682e-10 4.5455259013150627e-10 1.5147927333851058e-9 1.4920471087099219e-9 1.3018673202855335e-9 1.2818140050210632e-9
          1.4257385812736803e-9 1.2233473367909707e-9 2.567881619652469e-9 2.5277340791948595e-9 2.207144352207075e-9 2.411493122240517e-9
          1.1048611281687174e-9 1.0873555268240682e-9 1.0363866053062548e-9 1.9401708762862073e-9 1.909601714818611e-9 1.8205828960110468e-9
          1.3213331396860229e-9 1.131370994002395e-9 1.187123400444885e-9 1.0134593899110856e-9 2.2308177821871363e-9 1.946675624636947e-9
          2.001808830254934e-9 9.564097009218214e-10 8.542083344238355e-10 1.6806723254335817e-9 1.5012077455385721e-9 6.08967282068513e-10
          5.206609453099543e-10 5.243958235573804e-10 4.4686224655039943e-10 1.0598107896160892e-9 9.245990921514188e-10 9.105672559371322e-10
          4.4069055243302017e-10 3.690243581049579e-10 3.770479451183161e-10 3.1481278874515754e-10 7.981409132386221e-10 6.812324090292766e-10
          6.803234210567857e-10 4.392562257198707e-10 3.7290747665880404e-10 3.026280989337971e-10 7.60154818210737e-10 6.574585247444942e-10
          6.163680807136581e-10 3.135533102731606e-10 2.609579820035343e-10 2.535099274200702e-10 2.1026447972441243e-10 5.627321543993895e-10
          4.763656766617451e-10 4.5167102569046293e-10 1.7560138883722063e-9 1.5632299971806227e-9 1.5060238790101974e-9 1.33522215788955e-9
          2.7659690614940934e-9 2.496724227122501e-9 2.3552484972387636e-9 1.3773146160341346e-9 1.2000676017013937e-9 1.1713643121190566e-9
          1.0160959085383007e-9 2.2354043219703738e-9 1.9831696791162027e-9 1.8966541918840804e-9 1.2542202083155192e-9 1.1063567749240904e-9
          1.0135042532059628e-9 8.88723507917704e-10 1.9534964406574495e-9 1.7548786561645648e-9 1.5742476737127046e-9 9.655888386559822e-10
          8.332498148909109e-10 7.710626003387257e-10 6.61474768949451e-10 1.5606827523365934e-9 1.3728723154241082e-9 1.2428153573515191e-9
          3.0561761287553616e-10 2.502871041393233e-10 2.6002138874158044e-10 2.1242482509098996e-10 5.746415913388581e-10 4.789035729112291e-10
          4.861026360193767e-10 2.0267911834493285e-10 1.7163981727078146e-10 3.942441342087726e-10 3.3124780532668036e-10 2.1490534479951957e-10
          1.750985765310579e-10 1.7261859614294788e-10 1.4025002538763117e-10 3.9868633692209954e-10 3.298261472960251e-10 3.1711859068401324e-10
          1.0333553301164527e-9 8.789031528287202e-10 8.710318658060858e-10 7.375179146481085e-10 1.7414344644585691e-9 1.5117608926287612e-9
          1.4664632028594659e-9 7.380217100892446e-10 6.165439175618874e-10 1.2961588161840185e-9 1.080692574935267e-9 7.105757992363417e-10
          5.985685660953438e-10 5.608470812125535e-10 4.698373612688486e-10 1.193688662989775e-9 1.0252444445959106e-9 9.382708706467281e-10
          5.5981734047231704e-9 5.535262794631447e-9 5.224826142483004e-9 5.161111950765378e-9 5.343581919602901e-9 4.96960284132038e-9
          5.723920365031114e-9 5.698338640189956e-9 5.464858538191687e-9 5.626424969910808e-9 4.8376695441971474e-9 4.772906537582767e-9
          4.412308279971242e-9 4.346663601041263e-9 4.578577515363726e-9 4.15299703435074e-9 5.280117208617597e-9 5.26225593158644e-9
          5.048356862278588e-9 5.189416516823474e-9 5.0206329523912505e-9 4.65131101758869e-9 4.575225677428611e-9 4.214461163566984e-9
          5.499976011996646e-9 5.269821427747157e-9 5.265079880296972e-9 4.259311360292271e-9 3.842695908308962e-9 3.832331245271367e-9
          3.4394052718857626e-9 5.017062868848605e-9 4.7069009887007594e-9 4.699768428863412e-9 3.977463437693973e-9 4.019733690335679e-9
          3.770307686109798e-9 3.809461799517286e-9 4.113916387717529e-9 3.930769296423197e-9 2.8049758530128043e-9 2.8828899855949228e-9
          2.5896471813339345e-9 3.0348046848757914e-9 3.6040133317345163e-9 3.6676061597045867e-9 3.631335488770866e-9 3.7042685598222656e-9
          3.852363522020471e-9 3.890614016583303e-9 2.2653906357782643e-9 2.3635759745367555e-9 2.443648981591786e-9 2.6788198938924537e-9
          4.256898319422278e-9 4.143574260811937e-9 4.459215005798838e-9 4.363606240160216e-9 3.2594468795789995e-9 3.1465119902486936e-9
          3.681144780844372e-9 4.100923982821259e-9 4.079868060976056e-9 4.273733808176922e-9 4.1083913034817845e-9 3.175618413961455e-9
          3.299816748860883e-9 3.6683232277386653e-9 3.9516794785237575e-9 3.888533681534874e-9 3.4777952459923416e-9 3.420701841853699e-9
          3.704461030654325e-9 3.2552422311186574e-9 4.788607041935916e-9 4.7381685601265915e-9 4.281995557782121e-9 4.579044298934173e-9
          3.021826331170801e-9 2.972556377483468e-9 2.8305801852368113e-9 3.800271139770908e-9 3.744175606262207e-9 3.5792043768928175e-9
          3.415656444823529e-9 2.9990616652995267e-9 3.04981379198954e-9 2.679295328072394e-9 4.295380465670461e-9 3.80852832291312e-9
          3.886830838491134e-9 2.6117433011782552e-9 2.3368320908909894e-9 3.3176855917057378e-9 2.984834748381602e-9 3.734745184141501e-9
          3.784838530080787e-9 3.652797928573834e-9 3.663533024338702e-9 3.888204264817716e-9 3.66201723059447e-9 2.596846505045631e-9
          2.7227555603706326e-9 2.842478775219215e-9 3.0271029009480442e-9 3.308970862946652e-9 3.2999135519268733e-9 3.257618640588965e-9
          2.616611813381379e-9 2.6504635313132305e-9 2.7234335573895525e-9 3.927004331123735e-9 3.5819323841086873e-9 3.796099844374819e-9
          3.3804631564776025e-9 3.3219877522824615e-9 3.1094561333437954e-9 3.431533217113401e-9 3.1472496352175183e-9 2.944048951738292e-9
          2.763536139935197e-9 2.6985082399900673e-9 4.029113104678264e-9 3.68554005481319e-9 3.422419653251094e-9 3.11451203795708e-9
          4.867588503385553e-9 4.5649502394969285e-9 4.290605112452985e-9 3.332371292411698e-9 2.981208353722059e-9 2.808400695462049e-9
          2.5106094837325607e-9 4.2121691500438555e-9 3.811469383359928e-9 3.597661642181429e-9 2.8155525998338507e-9 2.5569733770582805e-9
          2.256767578207263e-9 2.0444816499866332e-9 3.585090629289061e-9 3.2729434936505913e-9 2.876482758586604e-9 2.30289267154688e-9
          2.055708751450397e-9 1.834978306881706e-9 1.6300696122771406e-9 2.95897417668653e-9 2.653840090938958e-9 2.3696735662733637e-9