<?xml version="1.0"?>
<VTKFile type="UnstructuredGrid" version="0.1" byte_order="LittleEndian" header_type="UInt32" compressor="vtkZLibDataCompressor">
  <UnstructuredGrid>
    <Piece NumberOfPoints="1340" NumberOfCells="793">
      <PointData>
        <DataArray type="Int32" Name="libmesh_node_id" format="ascii" RangeMin="1130" RangeMax="5566">
          1224 1314 1316 1317 1318 1348
          1371 1407 1408 1409 1440 1463
          1481 1489 1491 1492 1493 1494
          1495 1496 1497 1498 1499 1500
          1501 1502 1503 1504 1505 1506
          1507 1508 1512 1513 1515 1516
          1518 1575 1577 1579 1580 1581
          1582 1584 1585 1587 1588 1589
          1590 1593 1594 1596 1598 1647
          1652 1653 1654 1655 1656 1657
          1658 1659 1660 1661 1662 1663
          1664 1665 1666 1667 1668 1669
          1670 1671 1672 1673 1674 1675
          1676 1677 1678 1679 1680 1681
          1682 1683 1684 1685 1686 1687
          1688 1689 1690 1691 1692 1693
          1694 1695 1696 1697 1698 1699
          1700 1701 1702 1703 1704 1705
          1706 1707 1711 1722 1723 1724
          1725 1726 1727 1728 1729 1730
          1731 1828 1829 1832 1833 1835
          1836 1837 1838 1839 1841 1842
          1843 1844 1845 1849 1850 1882
          1884 1886 1887 1888 1889 1891
          1892 1894 1895 1896 1897 1898
          1899 1900 1901 1902 1903 1904
          1905 1906 1907 1908 1909 1910
          1911 1912 1913 1914 1915 1916
          1917 1918 1919 1920 1921 1922
          1923 1924 1925 1926 1927 1930
          1933 1936 1937 2037 2038 2039
          2040 2041 2042 2043 2044 2045
          2046 2047 2048 2049 2050 2051
          2052 2053 2054 2055 2056 2057
          2058 2059 2060 2061 2062 2063
          2064 2065 2066 2067 2068 2069
          2070 2071 2072 2073 2074 2075
          2076 2077 2078 2079 2080 2081
          2082 2083 2084 2085 2086 2087
          2088 2089 2090 2091 2092 2093
          2094 2095 2096 2097 2098 2099
          2100 2101 2102 2103 2104 2105
          2106 2107 2108 2109 2110 2111
          2112 2113 2114 2115 2116 2117
          2118 2119 2120 2121 2122 2123
          2124 2125 2126 2127 2128 2129
          2130 2131 2132 2133 2134 2135
          2136 2137 2138 2139 2140 2141
          2142 2143 2144 2145 2146 2147
          2148 2149 2150 2151 2152 2153
          2154 2155 2156 2157 2158 2159
          2160 2161 2162 2163 2164 2165
          2166 2167 2168 2169 2170 2171
          2172 2173 2174 2175 2176 2177
          2178 2179 2180 2181 2182 2183
          2184 2185 2186 2187 2188 2189
          2190 2191 2192 2193 2194 2195
          2196 2197 2198 2199 2200 2201
          2202 2203 2204 2205 2206 2207
          2208 2209 2210 2211 2212 2213
          2214 2215 2216 2217 2218 2219
          2220 2221 2222 2223 2224 2225
          2226 2227 2228 2229 2230 2231
          2232 2233 2234 2235 2236 2237
          2238 2239 2240 2241 2242 2243
          2244 2245 2246 2247 2248 2249
          2250 2251 2252 2253 2254 2255
          2256 2257 2258 2259 2260 2261
          2262 2263 2264 2265 2266 2267
          2268 2269 2270 2271 2272 2273
          2274 2275 2276 2277 2278 2279
          2283 2284 2286 2287 2289 2304
          2305 2308 2309 2311 2312 2313
          2344 2345 2346 2350 2358 2359
          2360 2361 2362 2363 2364 2365
          2366 2367 2368 2369 2370 2371
          2372 2373 2374 2375 2376 2377
          2378 2379 2382 2383 2385 2387
          2704 2705 2706 2711 2714 2715
          2716 2717 2718 2719 2720 2721
          2722 2723 2724 2725 2726 2727
          2728 2729 2730 2731 2732 2733
          2734 2735 2738 2739 2803 2804
          2805 2806 2807 2808 2809 2810
          2811 2812 2813 2814 2815 2816
          2817 2818 2819 2820 2821 2822
          2823 2824 2825 2826 2827 2828
          2829 2830 2831 2832 2833 2834
          2835 2836 2837 2838 2839 2840
          2841 2842 2843 2844 2845 2846
          2847 2848 2849 2850 2851 2852
          2853 2936 2937 2938 2939 2940
          2941 2942 2943 2944 2945 2946
          2947 2948 2949 2950 2951 2952
          2953 2954 2955 2956 2957 2958
          2959 2960 2961 2962 2963 2964
          2965 2966 2967 2968 2969 2970
          2971 2972 2973 2974 2975 2976
          2977 2978 2979 2980 2981 2982
          2983 2984 2985 2986 2987 2988
          2989 2990 2991 2992 2993 2994
          2995 2996 2997 2998 2999 3000
          3001 3002 3003 3004 3005 3006
          3007 3008 3009 3010 3011 3012
          3013 3014 3015 3016 3017 3018
          3019 3020 3021 3022 3023 3024
          3025 3026 3027 3028 3029 3030
          3031 3032 3033 3034 3035 3036
          3037 3038 3039 3040 3041 3042
          3043 3044 3045 3046 3047 3048
          3049 3050 3051 3052 3053 3054
          3055 3056 3057 3058 3059 3060
          3061 3062 3063 3064 3065 3066
          3067 3068 3069 3070 3071 3072
          3073 3074 3075 3076 3077 3078
          3079 3080 3081 3082 3083 3084
          3085 3086 3087 3088 3089 3090
          3091 3092 3093 3094 3095 3096
          3097 3098 3099 3100 3101 3102
          3103 3104 3105 3106 3107 3108
          3109 3110 3111 3112 3113 3114
          3115 3116 3117 3118 3123 3124
          3125 3126 3131 3132 3133 3151
          3152 3153 3154 3155 3156 3157
          3158 3160 3171 3172 3173 3174
          3185 3186 3189 3191 3192 3194
          4577 4578 4579 4580 4581 4582
          4583 4591 4592 4593 4594 4595
          4596 4597 4598 4599 4600 4601
          4602 4603 4604 4605 4606 4609
          4610 4612 4614 4703 4704 4705
          4706 4707 4708 4709 4710 4711
          4712 4990 4991 4992 4993 4994
          4995 4996 4997 4998 4999 5000
          5001 5002 5003 5004 5005 5006
          5007 5008 5009 5010 5011 5012
          5013 5014 5015 5016 5017 5018
          5019 5020 5021 5022 5023 5024
          5025 5026 5027 5028 5029 5030
          5031 5032 5033 5034 5035 5036
          5037 5038 5039 5040 5041 5042
          5043 5044 5045 5046 5047 5048
          5049 5050 5051 5052 5053 5054
          5055 5056 5057 5058 5059 5060
          5061 5062 5063 5064 5065 5066
          5067 5068 5069 5070 5071 5072
          5073 5074 5075 5076 5077 5078
          5079 5080 5081 5082 5083 5084
          5085 5086 5087 5088 5089 5090
          5091 5092 5093 5094 5095 5096
          5097 5098 5099 5100 5101 5102
          5103 5104 5105 5106 5107 5108
          5109 5110 5111 5112 5113 5114
          5115 5116 5117 5118 5119 5120
          5121 5122 5123 5124 5125 5126
          5127 5128 5129 5130 5131 5132
          5133 5134 5135 5136 5137 5138
          5139 5140 5141 5142 5143 5144
          5145 5146 5147 5148 5149 5150
          5151 5152 5153 5154 5155 5156
          5157 5158 5159 5160 5161 5162
          5163 5164 5165 5166 5167 5168
          5169 5170 5171 5172 5173 5174
          5175 5176 5177 5178 5179 5180
          5181 5182 5183 5184 5185 5186
          5187 5188 5189 5190 5191 5192
          5193 5194 5195 5196 5197 5198
          5199 5200 5201 5202 5203 5204
          5205 5206 5207 5208 5209 5210
          5211 5212 5213 5214 5215 5216
          5217 5218 5219 5220 5221 5222
          5223 5224 5225 5226 5227 5228
          5229 5230 5231 5232 5233 5234
          5235 5236 5237 5238 5239 5240
          5241 5242 5243 5244 5245 5246
          5247 5248 5249 5250 5251 5252
          5253 5254 5255 5256 5257 5258
          5259 5260 5261 5262 5263 5264
          5265 5266 5267 5268 5269 5270
          5271 5272 5273 5274 5275 5276
          5277 5278 5279 5280 5281 5282
          5283 5284 5285 5286 5287 5288
          5289 5290 5291 5292 5293 5294
          5295 5296 5297 5298 5299 5300
          5301 5302 5303 5304 5305 5306
          5307 5308 5309 5310 5311 5312
          5313 5314 5315 5316 5317 5318
          5319 5320 5321 5322 5324 5325
          5326 5327 5328 5329 5330 5331
          5332 5333 5334 5335 5336 5337
          5342 5343 5344 5345 5353 5354
          5355 5393 5406 5407 5408 5409
          5410 5411 5412 5413 5414 5415
          5426 5427 5428 5429 5430 5431
          5432 5440 5441 5442 5443 5444
          5445 5446 5447 5448 5449 5460
          5461 5462 5463 5464 5465 5466
          5542 5546 5562 5566 1130 1132
          1133 1131 1222 1225 1223 1134
          1135 1226 1227 1256 1255 1315
          1347 1257 1319 1349 1279 1278
          1370 1280 1372 1439 1462 1441
          1464 1473 1479 1482 1477 1485
          1483 1576 1578 1583 1586 1591
          1514 1592 1595 1597 1715 1732
          1716 1733 1736 1737 1739 1741
          1830 1831 1834 1840 1846 1847
          1848 1851 1509 1854 1855 1519
          1520 1874 1490 1879 1645 1883
          1632 1646 1885 1890 1487 1651
          1893 1928 1929 1931 1932 1934
          1935 1708 1709 1938 1939 1940
          1941 1942 1943 1944 1945 1641
          2016 2027 2004 2017 2028 1644
          2018 2032 1649 2022 2035 1650
          1643 2013 2014 2015 1406 2021
          2280 2281 2282 2285 2306 2307
          2310 2347 2380 2381 2384 1721
          2386 2698 2699 1472 2707 2708
          2709 2710 2712 2713 1626 1639
          1642 1480 2736 2737 2740 1511
          1734 2800 2792 2801 2802 2797
          2798 2799 4607 1738 4608 4611
          1411 4613
        </DataArray>
        <DataArray type="Float64" Name="bounds" format="ascii" RangeMin="0" RangeMax="0">
          0 0 0 0 0 0
          0 0 0 0 0 0
          0 0 0 0 0 0
          0 0 0 0 0 0
          0 0 0 0 0 0
          0 0 0 0 0 0
          0 0 0 0 0 0
          0 0 0 0 0 0
          0 0 0 0 0 0
          0 0 0 0 0 0
          0 0 0 0 0 0
          0 0 0 0 0 0
          0 0 0 0 0 0
          0 0 0 0 0 0
          0 0 0 0 0 0
          0 0 0 0 0 0
          0 0 0 0 0 0
          0 0 0 0 0 0
          0 0 0 0 0 0
          0 0 0 0 0 0
          0 0 0 0 0 0
          0 0 0 0 0 0
          0 0 0 0 0 0
          0 0 0 0 0 0
          0 0 0 0 0 0
          0 0 0 0 0 0
          0 0 0 0 0 0
          0 0 0 0 0 0
          0 0 0 0 0 0
          0 0 0 0 0 0
          0 0 0 0 0 0
          0 0 0 0 0 0
          0 0 0 0 0 0
          0 0 0 0 0 0
          0 0 0 0 0 0
          0 0 0 0 0 0
          0 0 0 0 0 0
          0 0 0 0 0 0
          0 0 0 0 0 0
          0 0 0 0 0 0
          0 0 0 0 0 0
          0 0 0 0 0 0
          0 0 0 0 0 0
          0 0 0 0 0 0
          0 0 0 0 0 0
          0 0 0 0 0 0
          0 0 0 0 0 0
          0 0 0 0 0 0
          0 0 0 0 0 0
          0 0 0 0 0 0
          0 0 0 0 0 0
          0 0 0 0 0 0
          0 0 0 0 0 0
          0 0 0 0 0 0
          0 0 0 0 0 0
          0 0 0 0 0 0
          0 0 0 0 0 0
          0 0 0 0 0 0
          0 0 0 0 0 0
          0 0 0 0 0 0
          0 0 0 0 0 0
          0 0 0 0 0 0
          0 0 0 0 0 0
          0 0 0 0 0 0
          0 0 0 0 0 0
          0 0 0 0 0 0
          0 0 0 0 0 0
          0 0 0 0 0 0
          0 0 0 0 0 0
          0 0 0 0 0 0
          0 0 0 0 0 0
          0 0 0 0 0 0
          0 0 0 0 0 0
          0 0 0 0 0 0
          0 0 0 0 0 0
          0 0 0 0 0 0
          0 0 0 0 0 0
          0 0 0 0 0 0
          0 0 0 0 0 0
          0 0 0 0 0 0
          0 0 0 0 0 0
          0 0 0 0 0 0
          0 0 0 0 0 0
          0 0 0 0 0 0
          0 0 0 0 0 0
          0 0 0 0 0 0
          0 0 0 0 0 0
          0 0 0 0 0 0
          0 0 0 0 0 0
          0 0 0 0 0 0
          0 0 0 0 0 0
          0 0 0 0 0 0
          0 0 0 0 0 0
          0 0 0 0 0 0
          0 0 0 0 0 0
          0 0 0 0 0 0
          0 0 0 0 0 0
          0 0 0 0 0 0
          0 0 0 0 0 0
          0 0 0 0 0 0
          0 0 0 0 0 0
          0 0 0 0 0 0
          0 0 0 0 0 0
          0 0 0 0 0 0
          0 0 0 0 0 0
          0 0 0 0 0 0
          0 0 0 0 0 0
          0 0 0 0 0 0
          0 0 0 0 0 0
          0 0 0 0 0 0
          0 0 0 0 0 0
          0 0 0 0 0 0
          0 0 0 0 0 0
          0 0 0 0 0 0
          0 0 0 0 0 0
          0 0 0 0 0 0
          0 0 0 0 0 0
          0 0 0 0 0 0
          0 0 0 0 0 0
          0 0 0 0 0 0
          0 0 0 0 0 0
          0 0 0 0 0 0
          0 0 0 0 0 0
          0 0 0 0 0 0
          0 0 0 0 0 0
          0 0 0 0 0 0
          0 0 0 0 0 0
          0 0 0 0 0 0
          0 0 0 0 0 0
          0 0 0 0 0 0
          0 0 0 0 0 0
          0 0 0 0 0 0
          0 0 0 0 0 0
          0 0 0 0 0 0
          0 0 0 0 0 0
          0 0 0 0 0 0
          0 0 0 0 0 0
          0 0 0 0 0 0
          0 0 0 0 0 0
          0 0 0 0 0 0
          0 0 0 0 0 0
          0 0 0 0 0 0
          0 0 0 0 0 0
          0 0 0 0 0 0
          0 0 0 0 0 0
          0 0 0 0 0 0
          0 0 0 0 0 0
          0 0 0 0 0 0
          0 0 0 0 0 0
          0 0 0 0 0 0
          0 0 0 0 0 0
          0 0 0 0 0 0
          0 0 0 0 0 0
          0 0 0 0 0 0
          0 0 0 0 0 0
          0 0 0 0 0 0
          0 0 0 0 0 0
          0 0 0 0 0 0
          0 0 0 0 0 0
          0 0 0 0 0 0
          0 0 0 0 0 0
          0 0 0 0 0 0
          0 0 0 0 0 0
          0 0 0 0 0 0
          0 0 0 0 0 0
          0 0 0 0 0 0
          0 0 0 0 0 0
          0 0 0 0 0 0
          0 0 0 0 0 0
          0 0 0 0 0 0
          0 0 0 0 0 0
          0 0 0 0 0 0
          0 0 0 0 0 0
          0 0 0 0 0 0
          0 0 0 0 0 0
          0 0 0 0 0 0
          0 0 0 0 0 0
          0 0 0 0 0 0
          0 0 0 0 0 0
          0 0 0 0 0 0
          0 0 0 0 0 0
          0 0 0 0 0 0
          0 0 0 0 0 0
          0 0 0 0 0 0
          0 0 0 0 0 0
          0 0 0 0 0 0
          0 0 0 0 0 0
          0 0 0 0 0 0
          0 0 0 0 0 0
          0 0 0 0 0 0
          0 0 0 0 0 0
          0 0 0 0 0 0
          0 0 0 0 0 0
          0 0 0 0 0 0
          0 0 0 0 0 0
          0 0 0 0 0 0
          0 0 0 0 0 0
          0 0 0 0 0 0
          0 0 0 0 0 0
          0 0 0 0 0 0
          0 0 0 0 0 0
          0 0 0 0 0 0
          0 0 0 0 0 0
          0 0 0 0 0 0
          0 0 0 0 0 0
          0 0 0 0 0 0
          0 0 0 0 0 0
          0 0 0 0 0 0
          0 0 0 0 0 0
          0 0 0 0 0 0
          0 0 0 0 0 0
          0 0 0 0 0 0
          0 0 0 0 0 0
          0 0 0 0 0 0
          0 0 0 0 0 0
          0 0 0 0 0 0
          0 0 0 0 0 0
          0 0 0 0 0 0
          0 0 0 0 0 0
          0 0 0 0 0 0
          0 0 0 0 0 0
          0 0 0 0 0 0
          0 0 0 0 0 0
          0 0
        </DataArray>
        <DataArray type="Float64" Name="gradient_error" format="ascii" RangeMin="1.4610937927348837e-11" RangeMax="2.2953865596455752e-7">
          7.855869385774722e-10 2.0407765900588294e-8 2.8966726398243154e-9 1.7750687449699802e-9 2.1162790077852257e-10 3.2716788030546047e-10
          3.478471370770203e-10 7.186955267454808e-8 3.3785852213746466e-9 2.715270049501866e-8 8.848381878282816e-10 5.47377013061693e-10
          9.895488096164543e-8 4.338209894849216e-8 6.60091981104615e-9 2.3482562904811442e-8 6.677501783986092e-8 7.102593156553309e-8
          2.5978199125964184e-9 4.885479315576659e-8 4.3652855287388966e-8 2.5083152331338e-8 3.321225522473505e-8 8.768484848529757e-9
          3.3210845476107914e-8 5.178333267195783e-8 6.102553984022773e-8 4.941506110285801e-8 8.90167900898636e-10 5.013025650655418e-10
          2.5890730272559033e-8 2.3419196766383055e-8 4.859670686005107e-10 2.557836305162087e-9 4.993352463012941e-10 6.693210913507782e-8
          1.0607566349228389e-8 2.144998001891889e-9 9.574789759808128e-9 1.2678152546634816e-9 3.476686309406841e-9 2.097135933702191e-10
          1.6414518027523022e-9 7.011966438308665e-10 1.700458151772437e-8 5.788519145300918e-9 3.0731900121343854e-9 5.92676688928526e-10
          3.973943208446058e-10 8.424335335472065e-11 1.7879028141058993e-10 2.2100917222472048e-10 2.733372094664592e-10 6.519584729456349e-8
          7.273454582880067e-8 6.048367676388943e-8 5.586709239063456e-8 5.415744945698117e-8 5.503032662005563e-8 6.51540731186839e-8
          6.125413723688675e-8 7.819110799567412e-8 6.568817323673273e-8 6.553009239881975e-8 2.6453904088893963e-8 4.942300775094702e-8
          5.891500891899836e-8 4.742466720611737e-8 5.870026036783788e-8 4.801715215977767e-8 7.683603833078735e-8 6.958064887506279e-8
          3.939045299426177e-8 9.07125653933897e-8 7.89078035397269e-8 5.2250701760121064e-8 6.41730792183509e-8 6.110482678544851e-8
          4.425385470084475e-8 7.185711685737201e-8 6.931170286475749e-8 5.638633828578644e-8 4.280649718561803e-8 6.042639904757352e-8
          5.6887172618346374e-8 6.513196903976077e-8 3.507653791971264e-8 4.73147348302008e-8 1.6677326069887586e-8 4.117314738707001e-8
          5.127276809836752e-8 2.115398426429274e-8 4.096977621577286e-8 4.748796643261638e-8 3.363152049162865e-8 5.605731418590418e-8
          3.763280359973785e-8 2.96519909197181e-8 5.2267164982491396e-8 8.848861934370434e-8 1.9891686707908632e-8 5.5843288521892745e-8
          6.517744726791657e-8 3.351283290884416e-8 5.584502752553343e-8 4.803432092635992e-8 1.702250402167818e-10 6.439564141730094e-8
          4.36185597545096e-8 6.489861971805748e-8 6.240793533639951e-8 2.6882935725718658e-8 3.683651672501425e-8 1.8973431792689566e-8
          2.622083241618257e-8 5.100015556926003e-9 1.1388517200238306e-8 7.17978639797114e-9 2.5805850598897793e-8 1.801071635735024e-8
          1.637361541160353e-8 2.388059089044691e-9 2.1692979017008406e-9 6.568941443627733e-9 6.497280708846746e-9 7.44858223294356e-10
          2.270321349776961e-9 2.216795119130883e-9 1.9505367143569904e-9 6.4256199740657566e-9 2.1632688884848044e-9 7.255208889273531e-11
          5.163210078508563e-11 2.4932055388047154e-10 1.8332603600399176e-10 3.071211267743594e-11 1.1733151812751194e-10 1.039664751833779e-7
          1.0754188367558151e-7 9.846415327355653e-8 7.727048533366278e-8 5.80645151055994e-8 7.509239930253719e-8 6.862828937456631e-8
          1.1209143747522619e-7 5.7084904973102175e-8 9.2120283499475e-8 1.8264630499091177e-9 3.194437801268804e-9 6.111752171680174e-9
          4.666447632891191e-8 3.8260932668692317e-8 3.2517553943597906e-8 4.0503838249118476e-8 1.9263490790610963e-9 2.94522053788669e-8
          2.452437329896959e-8 4.782954167437072e-9 1.8546836975123825e-8 2.7085398089518007e-8 1.2939624801949031e-8 9.179720067569602e-8
          7.185450965048488e-8 4.285139534019961e-8 6.064630212841725e-8 5.2988927775767505e-8 7.84412089166349e-8 1.9319567269477413e-9
          1.6512211727538907e-9 2.049551994334587e-8 1.693932849205823e-8 1.1859790794188298e-9 1.2400930409655323e-8 1.024552740910778e-8
          8.877830731275697e-10 8.372842067102939e-9 4.844828422206302e-9 6.941437486603616e-10 6.584855315916427e-10 2.804302125511211e-10
          4.73962488613869e-10 6.953692326547834e-11 9.446546106201768e-11 4.1831357707207e-8 4.512130069355798e-8 4.399816353511443e-8
          4.757859894224344e-8 3.646676072196116e-8 3.9264345744307936e-8 4.128324707625308e-8 4.5023630148369747e-8 4.753447173474533e-8
          4.125949270538666e-8 5.197693068120044e-8 5.216067162841137e-8 3.6808224155816786e-8 4.1606553758128736e-8 5.587610870917643e-8
          4.029764725172459e-8 4.5342677411560336e-8 5.104440629259257e-8 4.9234878546502135e-8 5.309492830248301e-8 2.3965929882954167e-8
          3.204297866230848e-8 3.511805456523834e-8 4.560716508541436e-8 6.023801294959335e-8 6.002276195752956e-8 4.4412722439305604e-8
          4.9698881346399205e-8 6.464894718001169e-8 4.932346126224062e-8 5.4827907232098926e-8 5.7553439672609623e-8 5.748775351404305e-8
          6.250412913176707e-8 2.9472531896504675e-8 3.877280940025744e-8 4.318811348249039e-8 5.382016723781325e-8 4.605189917964578e-8
          5.046123056363828e-8 4.811966400254219e-8 5.3598705033077045e-8 3.9495987604726385e-8 4.304368479542668e-8 4.4786082900331147e-8
          5.0577520945800785e-8 5.3974957017223735e-8 4.537556871999735e-8 5.0281948278188294e-8 5.703843539053877e-8 5.2531932105469864e-8
          6.081008402535164e-8 4.1816295594865866e-8 4.6574712628231115e-8 4.840378536363576e-8 5.774352498556851e-8 6.192068001981544e-8
          4.956300723406263e-8 4.287551389520163e-8 4.069448396787076e-8 4.060080093010328e-8 5.377258401738702e-8 5.583386618678533e-8
          5.352701402195385e-8 5.171549715420959e-8 4.041891800424818e-8 5.7756572271139476e-8 5.517997531931132e-8 3.4844854780965494e-8
          4.687097489502583e-8 4.578987702139611e-8 4.7761037871137336e-8 7.067432718730478e-8 6.979555633372791e-8 7.548587675869211e-8
          6.52669299309864e-8 4.20821028509298e-8 3.9675573248237825e-8 5.946650467408253e-8 5.658349081331849e-8 3.8359033757599946e-8
          6.089896524597585e-8 5.7676866923718544e-8 3.3156429996885626e-8 4.837782684291992e-8 4.8640091242922865e-8 8.358368256835511e-8
          8.168878618622995e-8 8.820734786805319e-8 7.41664790857076e-8 5.526404879062929e-8 6.093428404607583e-8 6.255895263417037e-8
          6.828374965615348e-8 6.825000383298757e-8 7.484498654942561e-8 3.797166168501804e-8 4.863699950073278e-8 5.5536778429297174e-8
          6.486324281308852e-8 5.914689072666191e-8 7.088594475282488e-8 5.54964276901748e-8 6.384853894547964e-8 8.235321244143892e-8
          8.069713440939467e-8 2.7288462585057837e-8 5.1805444757077865e-8 2.763265440144189e-8 7.997269040041684e-8 5.485148045756116e-8
          6.493128001876393e-8 5.7198642290098613e-8 6.93943618025936e-8 4.3929536314760475e-8 5.025586427176585e-8 5.208265707222998e-8
          6.65401936331113e-8 7.163212606360228e-8 5.4064358409863e-8 5.95143962353776e-8 7.417794426865533e-8 6.173142523764049e-8
          7.938543100098157e-8 4.551477783979292e-8 5.383225873589384e-8 5.543103386035438e-8 7.720197853812266e-8 8.346916303731679e-8
          5.873396462449282e-8 2.9751926108894295e-8 2.9967069984901845e-8 3.289362039275986e-8 3.2851466326510856e-8 2.9339819348201644e-8
          3.2741208235851886e-8 2.388701634010831e-8 2.524258391506314e-8 2.583962491487657e-8 2.442439951171635e-8 3.6035314676625435e-8
          3.573586266811986e-8 3.614259712350214e-8 2.6598151490017966e-8 2.8708659579278666e-8 3.234992961924536e-8 2.781128141372891e-8
          3.1668048211370916e-8 2.1852433846068083e-8 2.336918354462335e-8 2.2049220562573593e-8 3.5991199659212075e-8 3.552481500901291e-8
          2.4885933243178617e-8 3.893954691569094e-8 3.637674100491553e-8 6.194319787273656e-8 5.8359519789782325e-8 3.366393998543381e-8
          6.235303639800425e-8 5.839671974017391e-8 2.964226044006915e-8 4.844629323896249e-8 4.763373990371222e-8 7.255191296515808e-8
          8.207008383056966e-8 7.502326919557633e-8 8.368693268822419e-8 3.265391038283634e-8 3.021546109245395e-8 6.184138448958506e-8
          5.7538082395835095e-8 2.6094977187831957e-8 6.011848059055407e-8 5.554424069111452e-8 2.3992921694438936e-8 4.601636813434518e-8
          4.3466249942769346e-8 5.443734449976197e-8 6.435643406456073e-8 5.173722195952622e-8 7.793716333000634e-8 2.1485625374575493e-8
          2.3363372383202988e-8 3.472151510687559e-8 3.576226194691879e-8 1.9277546869174345e-8 3.3192566359922595e-8 1.7500664963152814e-8
          2.732628544265426e-8 2.8699110009453073e-8 2.5558055994764318e-8 6.374978128767195e-8 6.539088827164452e-8 4.5986321424529524e-8
          1.6794030608034383e-8 3.1087702968246675e-8 1.4123928125750688e-8 2.838841430935719e-8 1.3379229629262464e-8 2.3377449969888114e-8
          2.0814329524850674e-8 6.639501052733086e-8 6.629672825135191e-8 4.4424062908270565e-8 3.34558108838059e-8 4.832940929694477e-8
          8.823917884921719e-9 3.911231991843801e-8 7.89611848176973e-8 8.661380539516116e-8 2.557792381890351e-10 6.540240083384201e-9
          4.0982800728071335e-9 5.7752101043963236e-8 9.999326291308744e-9 2.5085222971480382e-8 1.1359558612952046e-8 1.1455975649514852e-8
          8.005295517740994e-8 5.642605775548568e-8 2.4755253114208697e-10 8.904244039598997e-10 8.66974297649013e-10 7.187766593276284e-8
          8.50964125974298e-8 9.110711088948249e-8 5.6761721345994135e-8 5.7693105815543686e-8 9.065066745869137e-8 9.854003108634678e-8
          6.311991351627185e-8 9.710902178858496e-8 8.634135311395934e-8 5.80837690988263e-8 5.77487341900365e-8 1.0680939785096716e-7
          8.320163790205495e-8 6.621927899050362e-8 2.343086767877432e-8 2.148603529312906e-8 5.687936427097641e-8 5.2166027083374086e-8
          1.6678344554954695e-8 3.989719555393458e-8 5.606483577106676e-8 5.144073980064999e-8 6.45872665460922e-8 1.136966344421419e-8
          2.5143590725845712e-8 8.923840686002795e-9 1.7945480239594016e-8 6.479898383680702e-8 6.183544689546304e-8 3.973469820189835e-8
          7.316831694993622e-8 7.304325741413809e-8 5.6374094509476324e-8 6.662970161269774e-8 2.6606504753996114e-8 3.06503868569944e-8
          2.506132884677506e-8 2.9247843308977808e-8 1.891598077079354e-8 2.0450383743884234e-8 1.8575019297777975e-8 3.469426895999269e-8
          3.3434357771180556e-8 2.198478671697493e-8 2.3156058987283952e-8 2.741890108876607e-8 2.089598912590119e-8 2.5129285662356204e-8
          1.5046274442717747e-8 1.645354985017328e-8 1.415162370781423e-8 3.168174319024818e-8 2.9362582198811215e-8 1.7860825257628814e-8
          1.8336195162132077e-8 2.2399136832800787e-8 1.0633532330278674e-8 1.1760771137868603e-8 2.6462078503469492e-8 1.2888009945458534e-8
          3.47902429304766e-8 3.240093815493912e-8 4.443069497097807e-8 1.594262690196556e-8 3.0011633379401644e-8 5.1072674177548825e-8
          5.279479451510899e-8 4.674184516624798e-8 5.087485864421362e-9 9.684913761123783e-9 5.4554907506825785e-8 4.7808641652561e-8
          1.4282341657826203e-8 4.106237579829622e-8 3.3110121974015685e-10 9.444268928306772e-10 2.368856197921908e-9 4.279860312864505e-9
          2.551495998146947e-10 1.244531858036143e-9 2.571219117852145e-10 1.3751653024085314e-9 2.2770122409032244e-9 8.895312802199231e-10
          2.1364851367691405e-10 6.59883591120271e-10 1.0219936464901407e-10 5.569660365038737e-10 2.9621752118112675e-8 2.998223192998442e-8
          3.403274814689024e-8 3.362305927539008e-8 2.9245167194293157e-8 3.480938405739025e-8 2.6858470286119232e-8 3.086017744277213e-8
          3.05799546646201e-8 3.1369016705047514e-8 4.0548035667935574e-8 3.88924122894879e-8 4.742568930082853e-8 4.6021813346180814e-8
          3.965815933470662e-8 4.9519778437542504e-8 4.792153824758859e-8 3.466199791369214e-8 4.194410924564369e-8 4.329151702186198e-8
          4.217565557159328e-8 4.024129725869039e-8 5.164938424433673e-8 4.9830933940604266e-8 3.521586438404326e-8 4.458370196949483e-8
          2.9208682920739122e-8 3.548377054927746e-8 2.909415992179143e-8 3.605551743897273e-8 2.633015892513418e-8 3.1697259998800654e-8
          3.185129889185617e-8 2.8814683243052447e-8 3.652261700196e-8 2.826790866969234e-8 3.6816142424872106e-8 2.5504576663805877e-8
          3.189031370180215e-8 3.171094109798417e-8 2.7358592807506958e-8 3.686959365910635e-8 2.6200041730184672e-8 3.672036438439851e-8
          2.35409300936228e-8 3.121739938528342e-8 3.052203139400555e-8 2.4906891814711802e-8 3.639088714313951e-8 2.0769967281198183e-8
          2.9726597552993618e-8 2.9640668738237124e-8 2.9310700692346117e-8 3.1874051422809126e-8 3.138915862021149e-8 2.9886503515985167e-8
          3.231822112624225e-8 2.5512171361752517e-8 2.6518320649477854e-8 2.6615017189727266e-8 2.6459537484406365e-8 3.410743410738113e-8
          3.3467616548076866e-8 3.474993873649934e-8 2.7524469937203194e-8 3.000373826599354e-8 3.2651676505802584e-8 2.5087646100635663e-8
          2.6240331761627196e-8 3.5299614745611625e-8 2.739301742261873e-8 7.982801878843798e-9 8.975834040222214e-9 8.900465110973118e-9
          1.0449318223434775e-8 8.82509618172402e-9 1.1351855181419338e-8 7.412700339052036e-9 7.558091009937137e-9 7.703481680822237e-9
          7.133380141030475e-9 7.660436732837738e-9 8.093578715010838e-9 6.9869909950714614e-9 8.394658315453853e-9 8.526720697183936e-9
          1.0321912996209374e-8 6.3450394254532615e-9 7.286692319048557e-9 6.3372088749477056e-9 8.228345212643853e-9 1.1399240723678671e-8
          1.1474697113198197e-8 1.1446626265938004e-8 1.4390746143761009e-8 1.510440737934916e-8 1.4903648904147038e-8 1.585458128210964e-8
          1.4702890428944917e-8 1.693099804093969e-8 1.6729850096312093e-8 1.7612399334231565e-8 1.6528702151684496e-8 1.879814969065107e-8
          1.8507389289168574e-8 1.943558530334038e-8 1.769276870215569e-8 1.5986803039111805e-8 1.6338798171761784e-8 1.7001403400544554e-8
          1.5508687826898272e-8 1.4592255965570362e-8 1.4413925176961013e-8 1.4235594388351665e-8 1.1575897702418785e-8 1.1545999235985415e-8
          1.1211554374054911e-8 1.1806868490205917e-8 1.502441789110855e-8 1.4895341507080712e-8 1.59493322000889e-8 1.5846304386173365e-8
          1.4766265123052877e-8 1.5743276572257828e-8 8.312878540803647e-9 1.1098803484115117e-8 1.023033597794202e-8 1.3998418756020532e-8
          1.2047018227368962e-8 1.3201402843285885e-8 1.1996400243878135e-8 1.4063209164949795e-8 1.4904990297685263e-8 1.3920096871484336e-8
          6.2997142327537426e-9 7.385905233436021e-9 3.824160302097186e-9 5.3434832233547535e-9 1.007762061764622e-8 9.697956616204802e-9
          3.969789900949325e-10 3.0854857908290843e-9 6.823024010844989e-10 8.352058783695348e-9 1.0324639726563583e-9 4.105734385414631e-9
          8.786403984569445e-10 2.6177447365328213e-9 1.0238791939683222e-8 7.740738052109955e-9 1.9459088820076143e-10 4.99559298626568e-10
          3.7058600852866207e-10 6.836796462578813e-9 1.188907296464767e-8 1.280910793232038e-8 1.208690981643295e-8 1.3085672252915791e-8
          1.1731127701926382e-8 1.2416813021354871e-8 1.2177419388987763e-8 1.359084786886204e-8 1.2924142611815547e-8 1.3854040215998043e-8
          1.47525057426066e-8 1.3118486572774282e-8 1.0952698798960066e-8 1.378798356051175e-8 1.6946685673503066e-8 1.680693961996253e-8
          1.798249499610921e-8 1.7826135999763447e-8 1.6667193566421994e-8 1.762981676331936e-8 9.403379095820129e-9 9.395345292495657e-9