<?xml version="1.0"?>
<VTKFile type="UnstructuredGrid" version="0.1" byte_order="LittleEndian" header_type="UInt32" compressor="vtkZLibDataCompressor">
  <UnstructuredGrid>
    <Piece NumberOfPoints="1262" NumberOfCells="827">
      <PointData>
        <DataArray type="Int32" Name="libmesh_node_id" format="ascii" RangeMin="1414" RangeMax="12161">
          1414 1535 1543 1794 1795 1796
          1802 1806 1807 1814 1815 2626
          2627 2628 2629 2630 2631 2632
          2633 2634 2635 2636 2637 2638
          2639 2650 2651 2652 2653 2658
          2660 2661 2662 2663 2664 2665
          2666 2667 2668 2669 2670 2671
          2672 2673 2674 2675 2681 2878
          2879 2880 2881 2882 2883 2884
          2885 2886 2887 2895 2896 2897
          2898 2899 2900 2901 2902 2903
          2904 2905 2906 2907 2908 2909
          2910 2911 2912 2913 2914 2915
          2916 2917 2918 2919 2920 2921
          2922 2923 2924 2925 4261 4262
          4263 4264 4265 4266 4267 4268
          4270 4271 4272 4273 4274 4275
          4276 4277 4278 4279 4280 4281
          4282 4283 4284 4285 4286 4287
          4288 4289 4291 4292 4295 4297
          4299 4300 4301 4302 4303 4304
          4305 4306 4307 4308 4309 4310
          4311 4312 4313 4314 4315 4316
          4317 4318 4319 4320 4321 4322
          4323 4324 4325 4326 4327 4328
          4330 4332 4334 4336 4337 4338
          4339 4340 4341 4342 4413 4414
          4417 4419 4421 4422 4423 4424
          4425 4426 4427 4428 4429 4430
          4448 4449 4450 4451 4452 4453
          4454 4472 4473 4474 4475 4476
          4477 4478 4479 4480 4481 4482
          4483 4484 4485 4486 4487 4488
          4489 4490 4491 4492 4493 4494
          4495 4496 4497 4498 4499 4500
          4501 4502 4503 4504 4505 4506
          4507 4508 4509 4510 4511 4512
          4513 4514 4515 4516 4517 4518
          4519 4520 4521 4522 4523 4524
          4525 4526 4527 4528 4529 4530
          4531 4532 4533 4534 4535 4536
          4537 4538 4539 4540 4541 4542
          4543 4544 4545 4546 4679 4680
          4681 4682 4683 4684 4685 4846
          4847 4848 4849 4850 4851 4852
          4853 4854 4855 4856 4857 4858
          4859 4860 4861 4862 4863 4864
          4865 4866 4867 4868 4869 4870
          4871 4872 4873 4874 4875 4876
          4877 4878 4879 4880 4881 4882
          4883 4884 4885 4886 4887 4888
          4889 4904 4905 4906 4907 4908
          4909 4910 4912 4913 4914 4915
          4916 4917 4918 4919 4920 4921
          4922 4923 4925 4926 4927 4930
          4931 4932 4933 4934 4935 4936
          4937 4966 4967 4968 4969 4970
          4971 4972 4973 4974 4975 4976
          4977 4978 4979 10615 10616 10617
          10620 10623 10625 10626 10627 10628
          10629 10630 10631 10632 10633 10634
          10635 10636 10637 10638 10641 10642
          10645 10647 10649 10650 10651 10652
          10653 10654 10655 10656 10657 10658
          10661 10662 10664 10667 10669 10670
          10671 10672 10673 10674 10675 10676
          10677 10678 10680 10684 10686 10687
          10688 10689 10690 10691 10692 10693
          10694 10695 10696 10697 10698 10699
          10700 10701 10702 10703 10704 10705
          10706 10707 10708 10709 10710 10711
          10712 10713 10714 10715 10716 10717
          10718 10719 10720 10721 10722 10723
          10724 10725 10726 10727 10728 10729
          10730 10731 10732 10733 10734 10735
          10736 10737 10738 10739 10740 10741
          10742 10743 10744 10745 10746 10747
          10748 10749 10750 10751 10752 10753
          10754 10755 10756 10757 10760 10761
          10768 10769 10770 10771 10772 10773
          10774 10775 10776 10777 10789 10791
          10795 10796 10797 10805 10806 10807
          10808 10809 10810 10811 10819 10820
          10821 10822 10823 10824 10825 10826
          10827 10828 10829 10830 10831 10832
          10833 10834 10835 10836 10837 10838
          10839 10840 10841 10842 10843 10844
          10845 10846 10847 10848 10849 10850
          10851 10852 10853 10854 10855 10856
          10857 10858 10859 10860 10861 10862
          10863 10864 10865 10866 10867 10868
          10869 10870 10871 10872 10873 10874
          10875 10876 10877 10878 10879 10880
          10881 10882 10883 10884 10885 10886
          10887 10888 10889 10890 10891 10892
          10893 10894 10895 10896 10897 10898
          10899 10900 10901 10902 10903 10904
          10905 10906 10907 10908 10909 10910
          10911 10912 10913 10914 10915 10916
          10917 10918 10919 10920 10921 10922
          10923 10924 10925 10926 10927 10928
          10929 10930 10931 10932 10933 10934
          10935 10936 10937 10938 10939 10940
          10941 10942 10943 10944 10945 10946
          10947 10948 10949 10950 10951 10952
          10953 10954 10955 10956 10957 10958
          10959 10960 10961 10962 10963 10964
          10965 10966 10967 10968 10969 10970
          10971 10972 10973 10974 10975 10976
          10977 10978 10979 10980 10981 10982
          10983 10984 10985 10986 10987 10988
          10989 10990 10991 10992 10993 10994
          10995 10996 10997 10998 10999 11000
          11001 11002 11003 11004 11005 11006
          11007 11008 11010 11014 11016 11017
          11018 11019 11020 11021 11022 11030
          11031 11032 11033 11034 11035 11036
          11038 11042 11044 11045 11046 11047
          11048 11049 11050 11058 11059 11060
          11061 11062 11063 11064 11065 11066
          11067 11068 11069 11070 11071 11072
          11073 11074 11075 11076 11077 11078
          11079 11080 11081 11082 11083 11084
          11085 11086 11087 11088 11089 11090
          11091 11092 11093 11094 11095 11096
          11097 11098 11099 11100 11101 11102
          11103 11104 11105 11106 11107 11108
          11109 11110 11111 11112 11113 11114
          11115 11116 11117 11118 11119 11120
          11587 11588 11591 11593 11607 11608
          11611 11613 11615 11616 11617 11618
          11619 11620 11621 11622 11623 11624
          11625 11626 11627 11628 11629 11630
          11631 11632 11633 11634 11635 11636
          11637 11638 11639 11640 11641 11642
          11643 11644 11662 11663 11665 11666
          11667 11677 11679 11690 11691 11694
          11695 11711 11712 11713 11714 11715
          11716 11717 11718 11719 11720 11721
          11722 11723 11724 11725 11726 11727
          11728 11729 11730 11731 11732 11733
          11734 11735 11736 11737 11738 11739
          11740 11741 11742 11743 11744 11745
          11746 11747 11748 11749 11750 11751
          11752 11753 11754 11755 11756 11757
          11758 11759 11760 11761 11762 11763
          11764 11765 11766 11767 11768 11769
          11845 11846 11847 11848 11849 11850
          11851 11852 11853 11854 11855 11856
          11857 11858 11859 11860 11861 11862
          11863 11864 11865 11866 11867 11868
          11869 11870 11871 11872 11873 11874
          11875 11876 11877 11878 11879 11880
          11881 11882 11883 11884 11885 11886
          11887 11888 11889 11890 11891 11892
          11893 11894 11895 11896 11897 11898
          11899 11900 11901 11902 11903 11904
          11905 11906 11907 11908 11909 11910
          11911 11912 11913 11914 11915 11916
          11917 11918 11919 11920 11921 11922
          11923 11924 11925 11926 11927 11928
          11929 11930 11931 11932 11933 11934
          11935 11936 11937 11938 11939 11940
          11941 11942 11943 11944 11945 11946
          11947 11948 11949 11950 11951 11952
          11953 11954 11955 11956 11957 11958
          11959 11960 11961 11962 11963 11964
          11965 11966 11967 11968 11969 11970
          11971 11972 11973 11974 11975 11976
          11977 11978 11979 11980 11981 11982
          11983 11984 11985 11986 11987 11988
          11989 11990 11991 11992 11993 11994
          11995 11996 11997 11998 11999 12000
          12001 12002 12003 12004 12005 12006
          12007 12008 12009 12010 12011 12012
          12013 12014 12015 12016 12017 12018
          12019 12020 12021 12022 12023 12024
          12025 12026 12027 12028 12029 12030
          12031 12032 12033 12034 12035 12036
          12037 12038 12039 12040 12041 12042
          12043 12044 12045 12046 12047 12048
          12049 12050 12051 12052 12053 12054
          12055 12056 12057 12058 12059 12060
          12061 12062 12063 12064 12065 12066
          12067 12068 12069 12070 12071 12072
          12073 12074 12075 12076 12077 12078
          12079 12080 12081 12082 12083 12084
          12085 12086 12087 12088 12089 12090
          12091 12092 12093 12094 12095 12096
          12097 12098 12099 12100 12101 12102
          12103 12104 12105 12106 12107 12108
          12109 12110 12111 12112 12113 12114
          12115 12116 12117 12118 12119 12120
          12121 12122 12123 12124 12125 12126
          12127 12128 12129 12130 12131 12132
          12133 12134 12135 12136 12137 12138
          12139 12140 12141 12142 12143 12144
          12145 12146 12147 12148 12149 12150
          12151 12152 12153 12154 12155 12156
          12157 12158 12159 12160 12161 1804
          1538 1808 1805 1809 1810 1539
          1811 1813 1812 1958 1961 1962
          1959 1790 1791 1965 1964 1536
          1797 2676 2677 2678 1799 2679
          2656 2680 2682 1817 2683 2757
          2758 2763 2767 2768 2775 2776
          1816 2890 2891 2894 2654 4464
          4462 4465 4463 4470 4469 4686
          4687 4688 4689 4693 4694 4839
          4433 4840 4434 4841 4842 4439
          4468 1544
        </DataArray>
        <DataArray type="Float64" Name="bounds" format="ascii" RangeMin="0" RangeMax="0">
          0 0 0 0 0 0
          0 0 0 0 0 0
          0 0 0 0 0 0
          0 0 0 0 0 0
          0 0 0 0 0 0
          0 0 0 0 0 0
          0 0 0 0 0 0
          0 0 0 0 0 0
          0 0 0 0 0 0
          0 0 0 0 0 0
          0 0 0 0 0 0
          0 0 0 0 0 0
          0 0 0 0 0 0
          0 0 0 0 0 0
          0 0 0 0 0 0
          0 0 0 0 0 0
          0 0 0 0 0 0
          0 0 0 0 0 0
          0 0 0 0 0 0
          0 0 0 0 0 0
          0 0 0 0 0 0
          0 0 0 0 0 0
          0 0 0 0 0 0
          0 0 0 0 0 0
          0 0 0 0 0 0
          0 0 0 0 0 0
          0 0 0 0 0 0
          0 0 0 0 0 0
          0 0 0 0 0 0
          0 0 0 0 0 0
          0 0 0 0 0 0
          0 0 0 0 0 0
          0 0 0 0 0 0
          0 0 0 0 0 0
          0 0 0 0 0 0
          0 0 0 0 0 0
          0 0 0 0 0 0
          0 0 0 0 0 0
          0 0 0 0 0 0
          0 0 0 0 0 0
          0 0 0 0 0 0
          0 0 0 0 0 0
          0 0 0 0 0 0
          0 0 0 0 0 0
          0 0 0 0 0 0
          0 0 0 0 0 0
          0 0 0 0 0 0
          0 0 0 0 0 0
          0 0 0 0 0 0
          0 0 0 0 0 0
          0 0 0 0 0 0
          0 0 0 0 0 0
          0 0 0 0 0 0
          0 0 0 0 0 0
          0 0 0 0 0 0
          0 0 0 0 0 0
          0 0 0 0 0 0
          0 0 0 0 0 0
          0 0 0 0 0 0
          0 0 0 0 0 0
          0 0 0 0 0 0
          0 0 0 0 0 0
          0 0 0 0 0 0
          0 0 0 0 0 0
          0 0 0 0 0 0
          0 0 0 0 0 0
          0 0 0 0 0 0
          0 0 0 0 0 0
          0 0 0 0 0 0
          0 0 0 0 0 0
          0 0 0 0 0 0
          0 0 0 0 0 0
          0 0 0 0 0 0
          0 0 0 0 0 0
          0 0 0 0 0 0
          0 0 0 0 0 0
          0 0 0 0 0 0
          0 0 0 0 0 0
          0 0 0 0 0 0
          0 0 0 0 0 0
          0 0 0 0 0 0
          0 0 0 0 0 0
          0 0 0 0 0 0
          0 0 0 0 0 0
          0 0 0 0 0 0
          0 0 0 0 0 0
          0 0 0 0 0 0
          0 0 0 0 0 0
          0 0 0 0 0 0
          0 0 0 0 0 0
          0 0 0 0 0 0
          0 0 0 0 0 0
          0 0 0 0 0 0
          0 0 0 0 0 0
          0 0 0 0 0 0
          0 0 0 0 0 0
          0 0 0 0 0 0
          0 0 0 0 0 0
          0 0 0 0 0 0
          0 0 0 0 0 0
          0 0 0 0 0 0
          0 0 0 0 0 0
          0 0 0 0 0 0
          0 0 0 0 0 0
          0 0 0 0 0 0
          0 0 0 0 0 0
          0 0 0 0 0 0
          0 0 0 0 0 0
          0 0 0 0 0 0
          0 0 0 0 0 0
          0 0 0 0 0 0
          0 0 0 0 0 0
          0 0 0 0 0 0
          0 0 0 0 0 0
          0 0 0 0 0 0
          0 0 0 0 0 0
          0 0 0 0 0 0
          0 0 0 0 0 0
          0 0 0 0 0 0
          0 0 0 0 0 0
          0 0 0 0 0 0
          0 0 0 0 0 0
          0 0 0 0 0 0
          0 0 0 0 0 0
          0 0 0 0 0 0
          0 0 0 0 0 0
          0 0 0 0 0 0
          0 0 0 0 0 0
          0 0 0 0 0 0
          0 0 0 0 0 0
          0 0 0 0 0 0
          0 0 0 0 0 0
          0 0 0 0 0 0
          0 0 0 0 0 0
          0 0 0 0 0 0
          0 0 0 0 0 0
          0 0 0 0 0 0
          0 0 0 0 0 0
          0 0 0 0 0 0
          0 0 0 0 0 0
          0 0 0 0 0 0
          0 0 0 0 0 0
          0 0 0 0 0 0
          0 0 0 0 0 0
          0 0 0 0 0 0
          0 0 0 0 0 0
          0 0 0 0 0 0
          0 0 0 0 0 0
          0 0 0 0 0 0
          0 0 0 0 0 0
          0 0 0 0 0 0
          0 0 0 0 0 0
          0 0 0 0 0 0
          0 0 0 0 0 0
          0 0 0 0 0 0
          0 0 0 0 0 0
          0 0 0 0 0 0
          0 0 0 0 0 0
          0 0 0 0 0 0
          0 0 0 0 0 0
          0 0 0 0 0 0
          0 0 0 0 0 0
          0 0 0 0 0 0
          0 0 0 0 0 0
          0 0 0 0 0 0
          0 0 0 0 0 0
          0 0 0 0 0 0
          0 0 0 0 0 0
          0 0 0 0 0 0
          0 0 0 0 0 0
          0 0 0 0 0 0
          0 0 0 0 0 0
          0 0 0 0 0 0
          0 0 0 0 0 0
          0 0 0 0 0 0
          0 0 0 0 0 0
          0 0 0 0 0 0
          0 0 0 0 0 0
          0 0 0 0 0 0
          0 0 0 0 0 0
          0 0 0 0 0 0
          0 0 0 0 0 0
          0 0 0 0 0 0
          0 0 0 0 0 0
          0 0 0 0 0 0
          0 0 0 0 0 0
          0 0 0 0 0 0
          0 0 0 0 0 0
          0 0 0 0 0 0
          0 0 0 0 0 0
          0 0 0 0 0 0
          0 0 0 0 0 0
          0 0 0 0 0 0
          0 0 0 0 0 0
          0 0 0 0 0 0
          0 0 0 0 0 0
          0 0 0 0 0 0
          0 0 0 0 0 0
          0 0 0 0 0 0
          0 0 0 0 0 0
          0 0 0 0 0 0
          0 0 0 0 0 0
          0 0 0 0 0 0
          0 0 0 0 0 0
          0 0 0 0 0 0
          0 0 0 0 0 0
          0 0 0 0 0 0
          0 0 0 0 0 0
          0 0 0 0 0 0
          0 0 0 0 0 0
          0 0
        </DataArray>
        <DataArray type="Float64" Name="gradient_error" format="ascii" RangeMin="1.3097723591894674e-14" RangeMax="4.387923498390168e-11">
          8.625405300476634e-14 5.814069879708741e-13 2.223367501788087e-12 4.885622759254759e-13 3.0358969274668883e-13 1.8202125040664778e-13
          6.444747587345624e-13 6.095300920399071e-14 5.938191321477322e-14 8.727521364784773e-14 2.0213291679826678e-13 3.6463543164901613e-13
          2.9259099504074793e-13 3.737944977489648e-12 2.6807226909568527e-12 2.446265430833856e-13 5.925103186321506e-13 4.23951958566663e-13
          4.340127591187762e-13 1.0058325755506864e-12 1.825974760409628e-13 1.30402465065922e-11 1.0024925629788006e-11 1.6735662556786514e-12
          3.972213337999403e-12 3.4851197053682707e-13 3.4172609157843755e-13 1.5783009993900967e-13 2.541490858904859e-13 3.5564912506670517e-13
          1.0700658115650995e-13 9.007405489072856e-14 1.0546055083015342e-13 1.0825346537552361e-13 5.77969162585588e-14 1.2024424704642614e-13
          1.3923968829150122e-13 8.05986969916332e-14 1.626285611237999e-13 1.3117956581672882e-13 3.039658639940626e-13 2.2621488199173528e-13
          2.7843143347727526e-13 1.2912510061395424e-13 9.309090958431166e-14 1.4020969032320596e-13 1.8509762761989388e-13 4.1518182421162205e-13
          3.823621204977959e-13 2.8137844253495813e-13 2.539705391261794e-13 1.4102258281419191e-13 1.4754149353532432e-13 1.3257766651347098e-13
          3.018686981425765e-13 2.4153643500431527e-13 1.4832602384496797e-13 2.0253823149213532e-13 2.871680565941401e-13 7.997960148575576e-14
          1.3720969446114213e-13 1.5088148348308744e-13 3.211215559312878e-13 9.623647245721761e-14 4.2016297680500584e-14 3.848929201471682e-14
          9.596359963377193e-14 8.475675775706296e-14 2.904837189177177e-14 4.967586271977056e-14 4.338715444843765e-14 3.1777022118598785e-14
          5.960950109745795e-14 2.874458034260962e-14 7.328002005901828e-14 6.329676227188802e-14 6.801427950727683e-14 1.1017627186576019e-13
          3.040716267131859e-14 6.145972486374593e-14 5.75064040846306e-14 4.281958725661796e-14 1.0887500561002106e-13 4.4082539921958303e-14
          7.405546035774874e-14 1.6336311330564608e-13 8.460564549794261e-14 1.7493042396342416e-13 8.527475043930866e-13 8.065680084105144e-13
          1.6932515760062638e-12 1.575858351075523e-12 3.453919385691568e-13 7.201590056862659e-13 6.701350705063035e-13 6.830176580703957e-13
          5.398064592862385e-13 8.697473620859699e-12 8.003858190485519e-12 3.4389554292408693e-12 6.243949788759094e-12 2.839730617190794e-13
          2.6830775401822734e-13 4.141390668212926e-13 3.8667122859805245e-13 3.084968704607446e-13 3.003787123127618e-13 2.815661938024955e-13
          2.2536678024175732e-13 3.147626553533478e-13 2.3211029927301465e-13 1.5269151065435616e-12 1.4044815079812268e-12 5.447641722687335e-13
          1.094044150706555e-12 5.175701806147804e-13 2.9947745850623604e-13 4.4374815002862764e-13 4.563991344724436e-13 1.7758909021305159e-12
          2.512856339076377e-13 3.0092346572560774e-13 1.9516000606375153e-13 1.693225948613775e-13 3.0994902508240645e-13 2.7087768641229484e-13
          1.414316179802284e-13 7.239050036750694e-13 2.7998326670238134e-13 4.089010524643617e-13 2.6454786803182494e-11 2.4342565980941363e-11
          1.152913295884467e-11 1.0599554813030966e-11 1.892976110641166e-11 8.224022804401888e-12 2.9052499180003145e-11 2.7423427116654718e-11
          1.2258622867153218e-11 2.263479017166902e-11 4.764826171568904e-12 4.37766432399754e-12 1.8680148771664993e-12 1.7152394207726833e-12
          3.390447667005732e-12 1.3264872295669102e-12 5.535033735691352e-12 5.185350622715499e-12 2.0769498465216872e-12 4.207076037495836e-12
          5.36940182375682e-12 2.9486733173758005e-12 6.927211588774297e-12 2.2083080959669852e-12 8.622470283349487e-13 1.2098489694054188e-12
          4.707628764756008e-13 2.882874713261707e-12 1.1382291414260124e-12 1.6418400417644931e-12 4.481388226608432e-13 3.7312312861740745e-13
          3.450019262737553e-13 4.906498024394755e-13 2.511704801015531e-13 1.9846698311259148e-13 1.0325339928787141e-13 1.4999813196713797e-13
          1.3808971540166871e-13 1.8589526456030714e-13 1.3759139980335215e-13 2.308741333650276e-13 2.01005775753067e-13 2.2489341531402938e-13
          5.592702697049098e-13 2.5636020764049677e-13 3.4374864898676656e-13 3.2116773965922503e-13 7.757504121533024e-13 3.0159926171696594e-13
          4.641118594263988e-13 1.8241602675495278e-13 1.705954322670962e-13 1.201069735534864e-13 1.1225914540447019e-13 5.971412892772745e-14
          7.702747372505555e-14 7.21342126785618e-14 1.3862580579270598e-13 1.250450765893081e-13 9.358116363617499e-14 2.1823088965086097e-13
          2.0034396746009075e-13 9.76102107271103e-14 1.8192986102344066e-13 1.0081680328172645e-13 1.186099636852592e-13 4.057689012528041e-14
          9.915309056993404e-14 6.91908934109413e-14 1.0598965104353387e-13 7.49356067113513e-14 1.481100816047783e-13 1.3009730255803752e-13
          1.536266458566952e-13 6.946856089126035e-13 6.373993310199762e-13 2.4436782198322374e-13 2.2355705283186168e-13 4.916737625860993e-13
          1.7120499864631125e-13 8.454389623992232e-13 7.882941326420208e-13 2.8442049156772705e-13 6.312937703568673e-13 1.1912702650906175e-13
          1.1146793467312851e-13 1.257979962541491e-13 1.492822350369436e-13 1.151973332034531e-13 1.215419711436197e-13 1.5260043245751413e-13
          9.017202951936078e-14 1.489310181776785e-13 1.8542172230050106e-13 1.030192764662658e-13 1.64286120581077e-13 1.5785919261249007e-13
          1.9333013040768524e-13 3.184621836117496e-13 1.3244177852109242e-13 2.064011508483455e-13 1.6017748010798426e-13 4.2614473129560676e-13
          1.501693891283921e-13 2.39349948042715e-13 9.189720408228909e-14 1.2626257357441907e-13 7.413177118432564e-14 1.5490446639039425e-13
          1.0287233930622709e-13 1.285631657325442e-13 9.627750342309186e-14 1.2936365637005954e-13 1.9487139532645984e-13 1.280264557549471e-13
          1.9918570458815442e-13 2.1180033478559363e-13 1.4998797898326094e-13 1.8006889659213743e-13 1.7717711347163736e-13 2.1008167180998179e-13
          1.4175628697479897e-13 1.702371633919929e-13 1.7592661665724366e-13 2.0280104875066526e-13 2.547975913599053e-14 3.671367228650852e-14
          2.0301275478768e-14 1.994490400998657e-14 2.2367760383716563e-14 2.7758258258455124e-14 1.9499093511858625e-14 2.7139559659333487e-14
          2.6063454825235166e-14 6.356536703135712e-14 6.016172971870473e-14 2.254350872049474e-14 3.629650969004691e-14 3.4359915481372265e-14
          2.421422974257864e-14 5.179985091141529e-14 2.975083113645961e-14 2.3387823891726145e-14 4.1044389446050146e-14 1.7129919589360845e-14
          2.5227962251841737e-14 2.3334538289431858e-14 3.524716947532204e-14 2.337758350346188e-14 4.82854508964895e-14 9.279264912664941e-14
          3.550993240451563e-14 5.6141022368280364e-14 4.1345947728377e-14 6.656166017363651e-14 4.5610673103975155e-14 7.356273492201293e-14
          9.727194082485942e-14 4.396989311087814e-14 5.675957317323661e-14 5.295433491893186e-14 6.764736786125886e-14 4.232871997825924e-14
          1.2098114672770592e-13 6.954925323559508e-14 8.234040080358586e-14 9.814071031182529e-14 1.2888107023565847e-13 6.085098189502434e-14
          7.486812550286052e-14 6.529423651051305e-14 8.179995851465368e-14 5.391402820014715e-14 1.5962143015949166e-13 8.888526911069672e-14
          9.830568051879432e-14 2.782122551324794e-13 2.698176771302014e-13 7.776147297250478e-13 7.403870007626676e-13 1.4116641276388202e-13
          3.4626495041532455e-13 3.2949302798829454e-13 6.392690576860363e-13 2.8361070720174323e-13 7.469252094064577e-14 7.097338653818149e-14
          1.3834491032304965e-13 1.319313488646665e-13 5.0525324055323746e-14 7.186260600313027e-14 6.866416975063969e-14 6.27324816379431e-14
          1.1408272255139157e-13 6.093264488725251e-14 4.984736141684693e-13 1.0855098085334319e-13 2.164186065727527e-13 1.7141110633844444e-13
          5.650547474233764e-14 8.943971204764651e-14 3.9071240274750385e-14 5.427006181865236e-14 5.480023834450632e-14 7.623176639879332e-14
          5.214056736094882e-14 6.192465072380718e-14 6.095886531913909e-14 7.801661380358041e-14 7.64932894140799e-14 3.6404765542768276e-14
          4.645149661689654e-14 4.836555808988869e-14 5.9993079914471e-14 7.496996502457937e-14 5.027961956288085e-14 9.410857688335364e-14
          9.20277135090207e-14 6.032635063700911e-14 8.994685013468775e-14 4.2172947171823636e-13 7.228125348676109e-13 7.108510225325327e-13
          6.761884182880655e-13 1.6630875985106722e-12 2.8010776011819757e-13 2.7576359782818837e-13 4.728831267872442e-13 4.650856511136397e-13
          1.8149499491344707e-13 3.060063411050983e-13 3.009839477767109e-13 2.6292581173851136e-13 4.4236326135226934e-13 2.8625886358965494e-13
          1.1112753823906954e-12 1.0914548079087107e-12 7.073039954229677e-13 1.034135338209627e-12 3.7176405111516804e-13 6.222708686988241e-13
          5.540144262222069e-13 1.440749495176224e-12 2.426440619015134e-13 4.068859892388554e-13 1.592647946582422e-13 2.6315547022854674e-13
          2.1799907177207183e-13 3.622959781478587e-13 2.3457844356393344e-13 9.453422162219652e-13 6.125403249196378e-13 8.336357342444405e-13
          3.9123261707358665e-12 3.8370665610906805e-12 3.620094648790057e-12 8.518501601703772e-12 2.574954903973201e-12 2.5253533006755834e-12
          1.6756170362349464e-12 1.6432992981113628e-12 2.382352361239791e-12 1.5501257787968854e-12 5.737314700196126e-12 5.619060573882281e-12
          3.660790774870626e-12 5.279036529681775e-12 3.286111587396199e-12 7.2157740951310925e-12 2.162201772502155e-12 1.4066535649355129e-12
          1.888681317720089e-12 1.228175083381051e-12 4.758419771120147e-12 3.0993228393913374e-12 4.116621421752083e-12 1.2658680864686126e-13
          1.2458244988582362e-13 1.939833983397211e-13 1.9078279323898892e-13 1.0515715891988492e-13 1.4904963044369199e-13 1.4656298361190411e-13
          1.1864565215222575e-13 1.8151662723061848e-13 1.3952777238967776e-13 4.596409032007724e-13 4.514311466996677e-13 3.376632620921947e-13
          4.2773712251709275e-13 1.0916324405186826e-13 1.669630245560036e-13 9.213229953270881e-14 1.2850004892228376e-13 9.802182063902495e-14
          1.4884826779718338e-13 1.1439962982578596e-13 3.9102123684083383e-13 2.9216989234339517e-13 3.444843579377201e-13 1.0802952225088456e-12
          1.0594374346837625e-12 6.86557096098267e-13 6.732813231363433e-13 9.99282183280709e-13 6.34975989695638e-13 2.404481096401088e-12
          2.3547857238471326e-12 1.4953149190947552e-12 2.2119130611368946e-12 2.5678155169502785e-13 2.52074301015407e-13 4.267827111654633e-13
          4.1850925468744454e-13 1.5185488316909173e-13 2.6169882203447997e-13 2.565972990488547e-13 2.384644827071051e-13 3.9465778442756377e-13
          2.419530135926722e-13 9.57380860018191e-13 9.375304177033433e-13 5.801830671394253e-13 8.804899330484033e-13 9.066633504149612e-13
          5.760531416004445e-13 7.912516136332166e-13 5.024681793858797e-13 1.9931829777968413e-12 1.265434186585339e-12 1.7235824200827612e-12
          2.1756099475970829e-13 3.580012663979802e-13 1.3164715992626395e-13 2.1948350634472727e-13 1.908869912950588e-13 3.1218716891780426e-13
          1.9139335217121503e-13 7.932113870884036e-13 4.90618595267312e-13 6.856585576628709e-13 2.8986624132873724e-13 4.77284809454521e-13
          1.9251511339980567e-13 3.117707123602098e-13 1.3107708935245727e-13 2.0105870036778794e-13 1.681926887076848e-13 2.5940000781071916e-13
          1.8229405122734535e-13 7.097416494751022e-13 4.571912781826729e-13 5.824589871710308e-13 2.0908575012681992e-13 1.649756370410573e-13
          4.580711704658085e-13 3.475640961791172e-13 4.041019741583506e-13 1.5903104085417846e-12 1.0343804369480685e-12 1.2910966801218185e-12
          8.399834286998407e-13 3.4196939639841593e-12 2.2261002190550547e-12 2.7294748503460172e-12 1.0098912596411636e-12 6.551383254407098e-13
          7.600809871978919e-13 4.91184310498315e-13 2.0948465237105245e-12 1.3622772925748906e-12 1.547602825758396e-12 9.119313588296625e-14
          1.2827324602743939e-13 7.582991237818646e-14 1.0010015577693232e-13 8.995590541195362e-14 1.1732493924953907e-13 9.342194174762104e-14
          2.9001792331310996e-13 2.1656752774032266e-13 2.7360709979032766e-13 6.648730478229741e-13 4.211853316925868e-13 5.375727822071977e-13
          3.3941669142271154e-13 1.4308864004965272e-12 9.080125225339593e-13 1.141160015307615e-12 1.6081149393808204e-13 2.6165798491672915e-13
          9.832188486121045e-14 1.604909424433574e-13 1.3072768558658879e-13 2.1109495216501456e-13 1.2978960380748097e-13 5.689079434895472e-13
          3.5162771060138606e-13 4.5326582300850493e-13 2.6399283462427317e-13 4.17825474396245e-13 1.6534738999762153e-13 2.633719716334093e-13
          1.9925625721798318e-13 3.1312351269215843e-13 1.9749163843843682e-13 8.749669074937488e-13 5.547936990403977e-13 6.455048519398366e-13
          1.0333778719571701e-13 1.6399023248927158e-13 6.530174801136543e-14 1.005320977002233e-13 7.999839343981657e-14 1.22567510178445e-13
          8.351084999240698e-14 3.473837850632932e-13 2.1381228983436898e-13 2.555696673480773e-13 2.555164775321461e-11 2.5009053896055728e-11
          1.712351684242515e-11 1.6758815996165004e-11 2.3449744033042248e-11 1.571093170421556e-11 3.927668336906752e-11 3.847446912745433e-11
          2.5911015849974982e-11 3.615944524156452e-11 1.1327587078625392e-11 1.1085723359783877e-11 7.397040185009415e-12 7.238762550953593e-12
          1.0390890834193987e-11 6.784118215798548e-12 1.7581012035551636e-11 1.72176386158513e-11 1.1289682213593196e-11 1.6169965365311383e-11
          2.1065112896567376e-11 1.4108990001953803e-11 1.813122926745282e-11 1.2139054515858939e-11 3.259172852214471e-11 2.1927598523928844e-11
          2.8157484336957956e-11 9.328990870674375e-12 6.0894692965226126e-12 8.023683848334776e-12 5.23588209877245e-12 1.4558111692594496e-11
          9.538518898295614e-12 1.255935204665785e-11 4.387923498390168e-11 4.3149259586993115e-11 2.982734494425568e-11 2.9320098943621794e-11
          4.0996512221013215e-11 2.7827871155749025e-11 4.2448092493721854e-11 4.188146336463361e-11 2.864672547472293e-11 4.016241847169043e-11
          1.9995168437798104e-11 1.9648422532124246e-11 1.3220854644630064e-11 1.2987540428446732e-11 1.8630546120420407e-11 1.2303936005132465e-11
          1.9601875097972773e-11 1.931709809428192e-11 1.2844123487889766e-11 1.846310487626883e-11 3.7549790665084455e-11 2.5448700510722024e-11
          3.305985739728152e-11 2.236472971533851e-11 3.727932106122547e-11 2.5392137657954214e-11 3.332393935564749e-11 1.70136419117168e-11
          1.1221563050278699e-11 1.492691979828908e-11 9.830148910537834e-12 1.7057049666489637e-11 1.130165384405932e-11 1.5165944407902783e-11
          4.768263376760263e-12 4.66604710504885e-12 3.0341783894213432e-12 2.9690283683698996e-12 4.372472331704632e-12 2.781941451847762e-12
          7.46090271317296e-12 7.305274966858987e-12 4.665049816456316e-12 6.8568834548717805e-12 1.9058600788400735e-12 1.8648679082122676e-12
          1.1817447883850547e-12 1.1562617836847027e-12 1.7471953845409369e-12 1.0831875650957678e-12 3.003138938510762e-12 2.9400284756623963e-12
          1.828623621548156e-12 2.7583094201561655e-12 3.924021420069283e-12 2.496229540207378e-12 3.373130121895109e-12 2.1453458705657464e-12