<?xml version="1.0"?>
<VTKFile type="UnstructuredGrid" version="0.1" byte_order="LittleEndian" header_type="UInt32" compressor="vtkZLibDataCompressor">
  <UnstructuredGrid>
    <Piece NumberOfPoints="1323" NumberOfCells="783">
      <PointData>
        <DataArray type="Int32" Name="libmesh_node_id" format="ascii" RangeMin="12" RangeMax="4989">
          12 13 14 15 16 17
          18 19 20 21 22 23
          24 25 26 27 28 29
          30 31 32 33 34 35
          36 37 38 39 40 41
          42 43 44 45 46 47
          48 49 50 51 52 53
          54 55 56 57 58 59
          60 61 62 63 64 65
          66 67 68 69 70 71
          72 73 74 75 76 77
          78 79 80 81 82 83
          84 85 86 87 88 89
          90 91 98 99 100 101
          102 103 104 105 106 107
          108 109 110 111 112 113
          114 115 116 117 118 119
          120 121 122 123 124 125
          126 127 128 129 130 131
          132 133 134 135 136 137
          144 145 146 147 148 149
          150 151 152 153 154 155
          156 157 158 159 160 161
          162 163 164 165 166 167
          168 169 170 171 172 173
          174 175 176 177 178 179
          180 181 182 183 190 191
          192 193 194 195 196 197
          198 199 200 201 202 203
          204 205 206 207 208 209
          210 211 212 213 214 215
          216 217 218 219 220 221
          222 223 224 225 226 227
          228 229 233 234 235 236
          237 238 239 240 241 242
          243 244 245 246 247 248
          249 250 251 252 256 257
          258 259 260 261 262 263
          264 265 266 267 268 269
          270 271 272 273 274 275
          282 283 284 285 286 287
          288 289 290 291 292 293
          294 295 296 297 298 299
          300 301 302 303 304 305
          306 307 308 309 310 311
          312 313 314 315 316 317
          318 319 320 321 325 326
          327 328 329 330 331 332
          333 334 335 336 337 338
          339 340 341 342 343 344
          348 349 350 351 352 353
          354 355 356 357 358 359
          360 361 362 363 364 365
          366 367 378 379 380 381
          382 383 384 385 386 387
          388 389 390 391 392 393
          394 395 396 397 398 399
          400 401 402 403 404 405
          406 407 408 409 410 411
          412 413 419 420 421 422
          423 424 425 426 427 428
          429 430 431 432 433 434
          435 436 442 443 444 445
          446 447 448 449 450 451
          452 453 454 455 456 457
          458 459 470 471 472 473
          474 475 476 477 478 479
          480 481 482 483 484 485
          486 487 488 489 490 491
          492 493 494 495 496 497
          498 499 500 501 502 503
          504 505 511 512 513 514
          515 516 517 518 519 520
          521 522 523 524 525 526
          527 528 534 535 536 537
          538 539 540 541 542 543
          544 545 546 547 548 549
          550 551 562 563 564 565
          566 567 568 569 570 571
          572 573 574 575 576 577
          578 579 580 581 582 583
          584 585 586 587 588 589
          590 591 592 593 594 595
          596 597 603 604 605 606
          607 608 609 610 611 612
          613 614 615 616 617 618
          619 620 626 627 628 629
          630 631 632 633 634 635
          636 637 638 639 640 641
          642 643 654 655 656 657
          658 659 660 661 662 663
          664 665 666 667 668 669
          670 671 672 673 674 675
          676 677 678 679 680 681
          682 683 684 685 686 687
          688 689 695 696 697 698
          699 700 701 702 703 704
          705 706 707 708 709 710
          711 712 718 719 720 721
          722 723 724 725 726 727
          728 729 730 731 732 733
          734 735 748 749 750 751
          752 753 754 755 756 757
          758 759 760 761 762 763
          764 765 766 767 768 769
          770 771 772 773 774 775
          776 777 778 779 780 781
          788 789 790 791 792 793
          794 795 796 797 798 799
          800 801 802 803 804 811
          812 813 814 815 816 817
          818 819 820 821 822 823
          824 825 826 827 840 841
          842 843 844 845 846 847
          848 849 850 851 852 853
          854 855 856 857 858 859
          860 861 862 863 864 865
          866 867 868 869 870 871
          872 873 880 881 882 883
          884 885 886 887 888 889
          890 891 892 893 894 895
          896 903 904 905 906 907
          908 909 910 911 912 913
          914 915 916 917 918 919
          934 935 936 937 938 939
          940 941 942 943 944 945
          946 947 948 949 950 951
          952 953 954 955 956 957
          958 959 960 961 962 963
          964 965 973 974 975 976
          977 978 979 980 981 982
          983 984 985 986 987 988
          996 997 998 999 1000 1001
          1002 1003 1004 1005 1006 1007
          1008 1009 1010 1011 1026 1027
          1028 1029 1030 1031 1032 1033
          1034 1035 1036 1037 1038 1039
          1040 1041 1042 1043 1044 1045
          1046 1047 1048 1049 1050 1051
          1052 1053 1054 1055 1056 1057
          1065 1066 1067 1068 1069 1070
          1071 1072 1073 1074 1075 1076
          1077 1078 1079 1080 1088 1089
          1090 1091 1092 1093 1094 1095
          1096 1097 1098 1099 1100 1101
          1102 1103 1120 1121 1122 1123
          1124 1125 1126 1127 1128 1129
          1130 1131 1132 1133 1134 1135
          1136 1137 1138 1139 1140 1141
          1142 1143 1144 1145 1146 1147
          1148 1149 1158 1159 1160 1161
          1162 1163 1164 1165 1166 1167
          1168 1169 1170 1171 1172 1181
          1182 1183 1184 1185 1186 1187
          1188 1189 1190 1191 1192 1193
          1194 1195 1223 1225 1226 1227
          1228 1229 1230 1231 1232 1233
          1234 1235 1236 1237 1238 1239
          1240 1241 1255 1256 1257 1258
          1259 1260 1261 1262 1263 1264
          1278 1279 1280 1281 1282 1283
          1284 1285 1286 1287 1320 1321
          1322 1323 1324 1325 1326 1327
          1328 1329 1330 1331 1332 1333
          1349 1350 1351 1352 1353 1354
          1355 1356 1372 1373 1374 1375
          1376 1377 1378 1379 1415 1416
          1417 1418 1419 1420 1421 1422
          1423 1424 1425 1441 1442 1443
          1444 1445 1446 1447 1448 1464
          1465 1466 1467 1468 1469 1470
          1471 1519 1523 1533 1534 1536
          1537 1538 1539 1540 1541 1542
          1544 1545 1546 1561 1562 1563
          1564 1565 1566 1567 1568 1569
          1570 1571 1572 1573 1574 1591
          1592 1595 1597 1599 1600 1601
          1602 1603 1604 1605 1606 1607
          1608 1609 1610 1611 1612 1613
          1614 1615 1616 1617 1618 1799
          1804 1805 1808 1809 1810 1811
          1812 1813 1816 1817 1820 1821
          1824 1826 1846 1847 1852 1853
          1854 1856 1857 1858 1859 1861
          1862 1863 1864 1865 1866 1867
          1868 1869 1870 1871 1940 1946
          1947 1950 1953 1956 1957 1960
          1961 1962 1963 1965 1966 1967
          1968 1969 1970 1971 1972 1973
          1974 1975 2654 2655 2656 2659
          2676 2677 2678 2679 2680 2682
          2683 2748 2750 2752 2754 2755
          2756 2757 2758 2759 2760 2761
          2762 2763 2764 2765 2766 2767
          2768 2769 2770 2771 2772 2773
          2774 2775 2776 2777 2778 2926
          2927 2928 2929 2930 2931 2932
          2933 2934 2935 4433 4434 4437
          4439 4462 4463 4464 4465 4466
          4467 4468 4469 4470 4471 4584
          4586 4587 4588 4589 4590 4607
          4608 4611 4613 4615 4617 4619
          4620 4621 4624 4625 4627 4629
          4630 4631 4634 4686 4687 4688
          4689 4690 4691 4692 4693 4694
          4695 4713 4714 4715 4716 4717
          4718 4719 4720 4721 4722 4839
          4840 4841 4842 4843 4844 4845
          4980 4981 4982 4983 4984 4985
          4986 4987 4988 4989 1319 1526
          1514 1527 1528 1413 1797 1818
          1798 1819 1822 1823 1825 1827
          1855 1848 1860 1851 1520 1941
          1948 1949 1942 1951 1952 1954
          1945 1955 1958 1959 1964 2743
          2749 2744 2751 2753 2747 1780
          1782 1784 2686 2687 2690 2692
          4585 1774 1738 1775 4616 1776
          4618 1411 1779 4622 4623 1785
          4626 1786 4628 4632 4633 4559
          4560 4563 4565
        </DataArray>
        <DataArray type="Float64" Name="bounds" format="ascii" RangeMin="0" RangeMax="0">
          0 0 0 0 0 0
          0 0 0 0 0 0
          0 0 0 0 0 0
          0 0 0 0 0 0
          0 0 0 0 0 0
          0 0 0 0 0 0
          0 0 0 0 0 0
          0 0 0 0 0 0
          0 0 0 0 0 0
          0 0 0 0 0 0
          0 0 0 0 0 0
          0 0 0 0 0 0
          0 0 0 0 0 0
          0 0 0 0 0 0
          0 0 0 0 0 0
          0 0 0 0 0 0
          0 0 0 0 0 0
          0 0 0 0 0 0
          0 0 0 0 0 0
          0 0 0 0 0 0
          0 0 0 0 0 0
          0 0 0 0 0 0
          0 0 0 0 0 0
          0 0 0 0 0 0
          0 0 0 0 0 0
          0 0 0 0 0 0
          0 0 0 0 0 0
          0 0 0 0 0 0
          0 0 0 0 0 0
          0 0 0 0 0 0
          0 0 0 0 0 0
          0 0 0 0 0 0
          0 0 0 0 0 0
          0 0 0 0 0 0
          0 0 0 0 0 0
          0 0 0 0 0 0
          0 0 0 0 0 0
          0 0 0 0 0 0
          0 0 0 0 0 0
          0 0 0 0 0 0
          0 0 0 0 0 0
          0 0 0 0 0 0
          0 0 0 0 0 0
          0 0 0 0 0 0
          0 0 0 0 0 0
          0 0 0 0 0 0
          0 0 0 0 0 0
          0 0 0 0 0 0
          0 0 0 0 0 0
          0 0 0 0 0 0
          0 0 0 0 0 0
          0 0 0 0 0 0
          0 0 0 0 0 0
          0 0 0 0 0 0
          0 0 0 0 0 0
          0 0 0 0 0 0
          0 0 0 0 0 0
          0 0 0 0 0 0
          0 0 0 0 0 0
          0 0 0 0 0 0
          0 0 0 0 0 0
          0 0 0 0 0 0
          0 0 0 0 0 0
          0 0 0 0 0 0
          0 0 0 0 0 0
          0 0 0 0 0 0
          0 0 0 0 0 0
          0 0 0 0 0 0
          0 0 0 0 0 0
          0 0 0 0 0 0
          0 0 0 0 0 0
          0 0 0 0 0 0
          0 0 0 0 0 0
          0 0 0 0 0 0
          0 0 0 0 0 0
          0 0 0 0 0 0
          0 0 0 0 0 0
          0 0 0 0 0 0
          0 0 0 0 0 0
          0 0 0 0 0 0
          0 0 0 0 0 0
          0 0 0 0 0 0
          0 0 0 0 0 0
          0 0 0 0 0 0
          0 0 0 0 0 0
          0 0 0 0 0 0
          0 0 0 0 0 0
          0 0 0 0 0 0
          0 0 0 0 0 0
          0 0 0 0 0 0
          0 0 0 0 0 0
          0 0 0 0 0 0
          0 0 0 0 0 0
          0 0 0 0 0 0
          0 0 0 0 0 0
          0 0 0 0 0 0
          0 0 0 0 0 0
          0 0 0 0 0 0
          0 0 0 0 0 0
          0 0 0 0 0 0
          0 0 0 0 0 0
          0 0 0 0 0 0
          0 0 0 0 0 0
          0 0 0 0 0 0
          0 0 0 0 0 0
          0 0 0 0 0 0
          0 0 0 0 0 0
          0 0 0 0 0 0
          0 0 0 0 0 0
          0 0 0 0 0 0
          0 0 0 0 0 0
          0 0 0 0 0 0
          0 0 0 0 0 0
          0 0 0 0 0 0
          0 0 0 0 0 0
          0 0 0 0 0 0
          0 0 0 0 0 0
          0 0 0 0 0 0
          0 0 0 0 0 0
          0 0 0 0 0 0
          0 0 0 0 0 0
          0 0 0 0 0 0
          0 0 0 0 0 0
          0 0 0 0 0 0
          0 0 0 0 0 0
          0 0 0 0 0 0
          0 0 0 0 0 0
          0 0 0 0 0 0
          0 0 0 0 0 0
          0 0 0 0 0 0
          0 0 0 0 0 0
          0 0 0 0 0 0
          0 0 0 0 0 0
          0 0 0 0 0 0
          0 0 0 0 0 0
          0 0 0 0 0 0
          0 0 0 0 0 0
          0 0 0 0 0 0
          0 0 0 0 0 0
          0 0 0 0 0 0
          0 0 0 0 0 0
          0 0 0 0 0 0
          0 0 0 0 0 0
          0 0 0 0 0 0
          0 0 0 0 0 0
          0 0 0 0 0 0
          0 0 0 0 0 0
          0 0 0 0 0 0
          0 0 0 0 0 0
          0 0 0 0 0 0
          0 0 0 0 0 0
          0 0 0 0 0 0
          0 0 0 0 0 0
          0 0 0 0 0 0
          0 0 0 0 0 0
          0 0 0 0 0 0
          0 0 0 0 0 0
          0 0 0 0 0 0
          0 0 0 0 0 0
          0 0 0 0 0 0
          0 0 0 0 0 0
          0 0 0 0 0 0
          0 0 0 0 0 0
          0 0 0 0 0 0
          0 0 0 0 0 0
          0 0 0 0 0 0
          0 0 0 0 0 0
          0 0 0 0 0 0
          0 0 0 0 0 0
          0 0 0 0 0 0
          0 0 0 0 0 0
          0 0 0 0 0 0
          0 0 0 0 0 0
          0 0 0 0 0 0
          0 0 0 0 0 0
          0 0 0 0 0 0
          0 0 0 0 0 0
          0 0 0 0 0 0
          0 0 0 0 0 0
          0 0 0 0 0 0
          0 0 0 0 0 0
          0 0 0 0 0 0
          0 0 0 0 0 0
          0 0 0 0 0 0
          0 0 0 0 0 0
          0 0 0 0 0 0
          0 0 0 0 0 0
          0 0 0 0 0 0
          0 0 0 0 0 0
          0 0 0 0 0 0
          0 0 0 0 0 0
          0 0 0 0 0 0
          0 0 0 0 0 0
          0 0 0 0 0 0
          0 0 0 0 0 0
          0 0 0 0 0 0
          0 0 0 0 0 0
          0 0 0 0 0 0
          0 0 0 0 0 0
          0 0 0 0 0 0
          0 0 0 0 0 0
          0 0 0 0 0 0
          0 0 0 0 0 0
          0 0 0 0 0 0
          0 0 0 0 0 0
          0 0 0 0 0 0
          0 0 0 0 0 0
          0 0 0 0 0 0
          0 0 0 0 0 0
          0 0 0 0 0 0
          0 0 0 0 0 0
          0 0 0 0 0 0
          0 0 0 0 0 0
          0 0 0 0 0 0
          0 0 0 0 0 0
          0 0 0 0 0 0
          0 0 0 0 0 0
          0 0 0 0 0 0
          0 0 0 0 0 0
          0 0 0 0 0 0
          0 0 0
        </DataArray>
        <DataArray type="Float64" Name="gradient_error" format="ascii" RangeMin="1.763548782480618e-15" RangeMax="2.8463433862532268e-8">
          1.6938838498049298e-14 1.7239955783885045e-14 1.9343956479065064e-14 1.8510297182052378e-14 1.6966989568664916e-14 1.7226808268647048e-14
          1.905933243264492e-14 1.8419573302511436e-14 1.7023992528532437e-14 1.724347699081821e-14 1.873487323267276e-14 1.8271573107106382e-14
          1.722760485718298e-14 1.7349821900301522e-14 1.8205102205581396e-14 1.798438045595398e-14 1.7882494673293295e-14 1.7700147454072182e-14
          1.7110340495460526e-14 1.7379985765137643e-14 1.8212269102734006e-14 1.7888599389854532e-14 1.6751664884019115e-14 1.714903946055974e-14
          1.772850538631866e-14 1.7653332346032885e-14 1.7521637978330744e-14 1.7521123120682147e-14 1.7412822551192906e-14 1.7493841563988007e-14
          1.7908694019507944e-14 1.7719455903033895e-14 1.747700619571838e-14 1.7521908423973355e-14 1.7758148638125695e-14 1.7653386798112453e-14
          1.7549359655984556e-14 1.7554429909340264e-14 1.7591520144187032e-14 1.7577841419307642e-14 1.7593895329801363e-14 1.757735880058745e-14
          1.74922341718086e-14 1.7526922196891504e-14 1.756935320272724e-14 1.7565277740023533e-14 1.7542801544077765e-14 1.755182934804191e-14
          1.755623208890227e-14 1.7558470286465568e-14 1.757084164657633e-14 1.7566369149264413e-14 1.7560460421461742e-14 1.756081517028218e-14
          1.7562584263036734e-14 1.7561772232081104e-14 1.7561149581208662e-14 1.7561105371444024e-14 1.756104053108704e-14 1.7561103610472138e-14
          1.7561128894566407e-14 1.756111341650035e-14 1.7561029863642238e-14 1.7561058373894392e-14 1.7561101735650414e-14 1.7561098824085537e-14
          1.7561076255397648e-14 1.756108257681028e-14 1.756109440672638e-14 1.7561094157579448e-14 1.756109109507328e-14 1.75610918266012e-14
          1.756109358108612e-14 1.7561093495612354e-14 1.7561093802044884e-14 1.7561093650647204e-14 1.7561093491975166e-14 1.756109342286872e-14
          1.7561094072105593e-14 1.756109385205612e-14 1.755772606165316e-14 1.760204901570793e-14 1.753192280193073e-14 1.765207193101186e-14
          1.7519985707570263e-14 1.766783061791001e-14 1.752274676336136e-14 1.76502497557884e-14 1.7541722272356373e-14 1.7601894213103682e-14
          1.756170907855696e-14 1.7557683015977883e-14 1.7567619358377008e-14 1.7545772314071924e-14 1.7566691262264523e-14 1.7548628244843933e-14
          1.756357746085392e-14 1.75557565894872e-14 1.756039389080854e-14 1.7562512256306763e-14 1.7560759544441333e-14 1.7561822896166546e-14
          1.756102305239234e-14 1.756126303190205e-14 1.7560966429371228e-14 1.7561366410478108e-14 1.7561146069884602e-14 1.7560994411312184e-14
          1.7561078387080542e-14 1.7561126282465016e-14 1.756109484319068e-14 1.7561091392423302e-14 1.7561094382175948e-14 1.7561091454702908e-14
          1.7561093517435472e-14 1.7561092984588493e-14 1.7561093326483416e-14 1.756109347788108e-14 1.7561093299204552e-14 1.756109354016781e-14
          1.7574379053585524e-14 1.752746014637617e-14 1.7577218635232278e-14 1.752432968964577e-14 1.7577009962036543e-14 1.7527388254280013e-14
          1.757345458330265e-14 1.7536840805250236e-14 1.756564430986167e-14 1.7554157391392598e-14 1.7558488480138862e-14 1.75689519948554e-14
          1.7557079411006905e-14 1.7570936365110294e-14 1.755852194774594e-14 1.7567038703128014e-14 1.756034426947951e-14 1.756288822087519e-14
          1.756128761892111e-14 1.756086181818528e-14 1.7560696817509128e-14 1.756203557035868e-14 1.7560843827464854e-14 1.7561668911798042e-14
          1.7561224374713594e-14 1.7560836169003715e-14 1.756112222066659e-14 1.7561028621498893e-14 1.7561095612481706e-14 1.7561085875072797e-14
          1.756109174794706e-14 1.756109590070006e-14 1.756109285183123e-14 1.756109401118291e-14 1.7561093126438432e-14 1.7561093411047866e-14
          1.7561093242828242e-14 1.756109345651264e-14 1.756109324464683e-14 1.7561093448328978e-14 1.8843557338667303e-14 1.7918403200080282e-14
          1.6113283234396282e-14 1.6450522081811287e-14 1.4639719338966448e-14 1.570642367468197e-14 1.6747933979044185e-14 1.683988298090878e-14
          2.28728630394606e-14 2.009816086891928e-14 2.6017209518680204e-14 2.1859182772668658e-14 2.0810989986957296e-14 1.929118935436798e-14
          1.6792612274561644e-14 1.7246778712577496e-14 1.6989280658863904e-14 1.73025369676135e-14 1.752444141254809e-14 1.7538520343441975e-14
          1.7840544237225885e-14 1.7700581852626507e-14 1.7644216096369545e-14 1.7603359868200322e-14 1.7527478244751462e-14 1.754283251311438e-14
          1.7554899646761257e-14 1.7558184829083224e-14 1.75609864761851e-14 1.7560890420049222e-14 1.7561278326491057e-14 1.7561191621990734e-14
          1.7561156932039857e-14 1.7561133198851975e-14 1.7561105929329747e-14 1.7561101749295833e-14 1.756109486955795e-14 1.7561094462648242e-14
          1.756109335194369e-14 1.7561093391952693e-14 1.7356929676390203e-14 1.7251150801573143e-14 1.7229903283703618e-14 1.728634554102869e-14
          1.744994306748274e-14 1.7614660288083938e-14 1.7647446092575725e-14 1.7619521420860678e-14 1.75847743588094e-14 1.755686952145791e-14
          1.7558892330285282e-14 1.7560631633401364e-14 1.7560075264328128e-14 1.7561412150519963e-14 1.756096379429877e-14 1.756109552481842e-14
          1.7561099820265645e-14 1.7561095082790587e-14 1.7561093568356096e-14 1.7561093204637844e-14 1.7720610291287145e-14 1.7714540673919994e-14
          1.7686678557009747e-14 1.764085909928401e-14 1.7576427436587513e-14 1.752816454951076e-14 1.7523503463372785e-14 1.753809769112801e-14
          1.75537554412557e-14 1.756113976857996e-14 1.7557165192543433e-14 1.755875962677163e-14 1.7561963747178968e-14 1.7561354289634742e-14
          1.756113322468419e-14 1.7561086132146426e-14 1.756109017486721e-14 1.7561092596319253e-14 1.7561093080973668e-14 1.7561092977313994e-14
          6.83758255228341e-14 4.6396216633550894e-14 5.0789882995574603e-14 3.787606564823944e-14 3.520270040142007e-14 2.946246052241408e-14
          2.948608464047139e-14 2.5426194052720214e-14 4.7218991318089567e-14 3.30565527914968e-14 6.091735212473085e-14 3.924035584500361e-14
          4.1538729024401904e-14 2.9364403380433154e-14 2.5772852589002337e-14 2.14674429286345e-14 2.230320232536722e-14 1.98502461975608e-14
          1.87142968661299e-14 1.815628653403403e-14 1.675861963358709e-14 1.7164649188838636e-14 1.7346918083983378e-14 1.7452994208240414e-14
          1.7685281072058325e-14 1.7628847752790337e-14 1.758787830806392e-14 1.757395213209388e-14 1.7562659989628698e-14 1.7562524500728172e-14
          1.7560621648470017e-14 1.756086692024689e-14 1.756088152753783e-14 1.7560962183593312e-14 1.7561051618203946e-14 1.7561065307130868e-14
          1.7561094051197592e-14 1.7561093158722587e-14 1.7561100773613566e-14 1.7561097807492526e-14 2.0702333495277344e-14 2.098793652890122e-14
          2.0423827516968744e-14 1.9350166431072053e-14 1.827591063648248e-14 1.7725750113018113e-14 1.751154385295858e-14 1.7427488025198024e-14
          1.7500221034675526e-14 1.7582400068598747e-14 1.7575829635393285e-14 1.7565750825047882e-14 1.7565245504572104e-14 1.756002005694182e-14
          1.7561636772956727e-14 1.756110683155794e-14 1.756107035813369e-14 1.7561085158318155e-14 1.7561091119170386e-14 1.7561092219872184e-14
          1.6988059246286986e-14 1.701362475689818e-14 1.712543439052941e-14 1.733402939717507e-14 1.7657707008060928e-14 1.7888140660759863e-14
          1.7833009969452768e-14 1.7692942782129387e-14 1.7603151999596677e-14 1.7566523935259336e-14 1.7580980526696387e-14 1.7572431317598318e-14
          1.755807657562186e-14 1.7560014157759793e-14 1.7560884534085798e-14 1.756110147109212e-14 1.7561097876618586e-14 1.7561091320578518e-14
          1.7561089972093196e-14 1.7561089598372885e-14 1.0187539661817103e-13 7.351150518774547e-14 8.95103572567082e-14 5.941189216550385e-14
          1.8855771000193868e-13 1.0598314275731935e-13 2.40773818315054e-13 1.3441897064298598e-13 1.3862841655034707e-13 8.275270543836008e-14
          5.991193294172183e-14 4.114672627876047e-14 4.1028662455486643e-14 3.017237309452999e-14 2.8533347705241835e-14 2.3104044326712337e-14
          2.3868387177691907e-14 2.0790518892852624e-14 1.9915058999471234e-14 1.878241577441981e-14 1.7149936300226246e-14 1.733623215552222e-14
          1.745666282704393e-14 1.7510371106385007e-14 1.7550607682694426e-14 1.755306426473132e-14 1.7561879059186365e-14 1.7561308299332072e-14
          1.7561790761490968e-14 1.7561510918085957e-14 1.756128787475458e-14 1.7561216982124057e-14 1.7561136194417904e-14 1.756111904146253e-14
          1.756110929190015e-14 1.7561100980951818e-14 3.2146896576212995e-14 2.4031476513078912e-14 2.117109577325881e-14 2.3551097653492616e-14
          2.256445576848901e-14 1.9973392760212712e-14 1.8415015537753674e-14 1.761104475917082e-14 1.7608705915173654e-14 1.7588864938955157e-14
          1.7546750766201895e-14 1.756472532276923e-14 1.755877988754124e-14 1.75609091776032e-14 1.7561140291191762e-14 1.7561107138803436e-14
          1.7561087633438674e-14 1.7561083331528082e-14 1.9146179395106067e-14 1.874952595185832e-14 1.893361603381758e-14 1.903807233606728e-14
          1.825191721060493e-14 1.7565265904626295e-14 1.7513947341934014e-14 1.7547348570158795e-14 1.750476122233396e-14 1.7527957328541932e-14
          1.7570973521585597e-14 1.756537125981237e-14 1.7562038928314268e-14 1.7561080815728622e-14 1.7561049507702577e-14 1.756106818811334e-14
          1.7561073378370193e-14 1.7561073993052684e-14 3.4309583394005854e-13 2.554441569800878e-13 3.6606253027758704e-13 2.2890355280239784e-13
          8.222400698417412e-13 4.459390831747606e-13 9.885960472801378e-13 5.398849446579578e-13 5.460238041343747e-13 3.1174383813542803e-13
          2.331595050416611e-13 1.4005279852134361e-13 1.548708700734102e-13 9.136763552955515e-14 8.204805466225471e-14 5.094175387506449e-14
          4.788562617928197e-14 3.3596836364885603e-14 3.149021068022524e-14 2.4922555633940226e-14 1.9263239971107977e-14 1.8499816329315707e-14
          1.8074325235323456e-14 1.7814579200744575e-14 1.7619193502659533e-14 1.7602307111815596e-14 1.756298827166841e-14 1.756335790975006e-14
          1.7559449678902263e-14 1.756016037445224e-14 1.756059441189828e-14 1.7560762660920454e-14 1.756106699816309e-14 1.7561059996253253e-14
          1.7561161005531536e-14 1.756112221514892e-14 9.58820648422373e-14 6.121160009938335e-14 5.427099394448178e-14 6.633698400288447e-14
          5.549842713481643e-14 3.573211809290272e-14 2.3829695707785728e-14 1.8979839618234273e-14 1.8821529607121314e-14 1.8163698987915634e-14
          1.7634284883201584e-14 1.7549758591953102e-14 1.7571081203814567e-14 1.756224920294764e-14 1.7560965075848704e-14 1.7560976137075545e-14
          1.7561029764369526e-14 1.7561043829324533e-14 2.3971649664357473e-14 3.0678624871558e-14 3.8903891381183456e-14 4.150012596999115e-14
          3.353298213315159e-14 2.4518144184779284e-14 1.9794990429871368e-14 1.8124226148594304e-14 1.8335012663753387e-14 1.7972497388176057e-14
          1.7532177078879724e-14 1.7544684017740512e-14 1.755674168665748e-14 1.7560770858063564e-14 1.7561059081695185e-14 1.7561021364208458e-14
          1.7561006534395647e-14 1.7561004233882758e-14 1.2070224974995672e-12 8.957465571193063e-13 1.7784747603326954e-12 1.0434635845385354e-12
          3.722765556888117e-12 2.023654888650807e-12 4.130718602056025e-12 2.284545270942453e-12 2.2067227180832563e-12 1.275788007331695e-12
          9.365629187990208e-13 5.641012385151123e-13 6.282618893769001e-13 3.5773481299084696e-13 3.1851933641523443e-13 1.7714893661964572e-13
          1.8304021550793922e-13 1.0774222788922875e-13 9.129742436947965e-14 5.802393729208515e-14 1.8669332277422458e-14 1.8069005144914488e-14
          1.734869035673019e-14 1.747930412653534e-14 1.7285223433009206e-14 1.7376068004539398e-14 1.7534896349371763e-14 1.7540390938544794e-14
          1.7563868730560513e-14 1.7562172526065728e-14 1.7563205515362634e-14 1.7562338212355895e-14 1.7562073498472e-14 1.756167347632746e-14
          1.7561799028974004e-14 1.756149804876988e-14 3.445436012348977e-13 2.2043700316742373e-13 2.442279832227392e-13 3.0206651827206273e-13
          2.3088840731608195e-13 1.2768819685275844e-13 6.017128102475028e-14 2.86979806511075e-14 2.727720950798094e-14 2.2313055527621066e-14
          1.7550200332176378e-14 1.7615452965730894e-14 1.7522937462015242e-14 1.7554082888007145e-14 1.756053016279357e-14 1.756103352045451e-14
          1.7560954546532265e-14 1.7560920220100682e-14 1.0461658573074999e-13 1.3242159759047202e-13 1.6391174603198106e-13 1.6576109671524362e-13
          1.169235180520303e-13 6.373683547431314e-14 3.313482544470685e-14 2.161742447815794e-14 2.2110178745443632e-14 1.9875660840551488e-14
          1.763172265194624e-14 1.76209880351213e-14 1.7578962347960888e-14 1.7562280248296465e-14 1.75605840040162e-14 1.7560596131559866e-14
          1.7560635638881615e-14 1.756064337163561e-14 5.130139657436915e-12 3.4825121495911958e-12 9.578533084413853e-12 5.410621172876802e-12
          1.7045988046258052e-11 9.4279922837636e-12 1.7428844313019425e-11 9.813949752847846e-12 8.998537793120536e-12 5.312656541639528e-12
          3.791771086275983e-12 2.3312582572653023e-12 2.593598674049396e-12 1.481792958276025e-12 1.2818155549037946e-12 7.051217180162194e-13
          7.303789129229795e-13 4.1901016015031137e-13 3.5256602524274334e-13 2.089561844371151e-13 4.457069671694925e-14 3.270911322467035e-14
          2.939991837637741e-14 2.3624230048221802e-14 1.8930327635446394e-14 1.848657269865051e-14 1.7745013716097658e-14 1.769359215023916e-14
          1.7573752692329143e-14 1.7571846696049908e-14 1.7560168362518626e-14 1.7560561881114458e-14 1.7561006205876312e-14 1.756069507148658e-14
          1.7561515900707032e-14 1.756098194801319e-14 1.2293569732469177e-12 9.72448824440063e-13 1.2942493479703667e-12 1.465180046302465e-12
          1.0594749268791794e-12 5.612329109627913e-13 2.3995933935199407e-13 9.121477302741961e-14 8.188632864657459e-14 5.1413159564635603e-14
          1.9321330449029488e-14 1.7609678632783675e-14 1.7767078169271708e-14 1.7596337445316322e-14 1.7564338597516998e-14 1.756005447306032e-14
          1.7559727959085352e-14 1.7559747901286826e-14 6.238293047483578e-13 7.021883875403739e-13 7.78502174671584e-13 7.313048999286653e-13
          4.921745635998386e-13 2.517203936709616e-13 1.099314362013343e-13 5.4001664926194944e-14 5.613124991550591e-14 3.74799754977844e-14
          1.7795131165667527e-14 1.7370815545501163e-14 1.7491338576688793e-14 1.755050430625198e-14 1.7558736495263326e-14 1.755915354641036e-14
          1.7559071981073857e-14 1.7559047807254315e-14 5.345453110707062e-11 3.041015547907271e-11 7.885558182806663e-11 4.475235981135931e-11
          7.437225683625955e-11 4.276136255336161e-11 3.711913906440445e-11 2.246890677851304e-11 1.5435761339033906e-11 9.76230379258325e-12
          1.0670275149815971e-11 6.191010438677653e-12 5.174287128354396e-12 2.8731152928429315e-12 2.961432131279221e-12 1.7005015697334961e-12
          1.4066511430822564e-12 8.258831059086642e-13 1.2026321820534703e-13 7.895919583723397e-14 6.660434466376723e-14 4.4765064730699945e-14
          1.8235437957868322e-14 1.7803652238936198e-14 1.6712737786135774e-14 1.6984214231097316e-14 1.7454319453973758e-14 1.7478999922091597e-14
          1.7566177665936883e-14 1.756091205693324e-14 1.7578364082629835e-14 1.7570908303667785e-14 1.757909765587123e-14 1.7571692271526207e-14
          5.4403504148905004e-12 7.127400181282981e-12 7.1743278879188375e-12 4.953553939951873e-12 2.568987210981946e-12 1.0814862735223276e-12
          3.9459891735673774e-13 3.300599815029077e-13 1.8437802100220097e-13 3.0210059770202307e-14 2.0557724353189176e-14 1.761518734549763e-14
          1.7422628197321596e-14 1.7528789886916466e-14 1.7553291041839755e-14 1.7557241345153415e-14 1.7557697561087398e-14 3.514920978706201e-12
          3.605662567913987e-12 3.198187505373981e-12 2.088433387282104e-12 1.0491281758312979e-12 4.5122681950531967e-13 2.1725437738200835e-13
          2.2054895481804402e-13 1.2364097326933018e-13 2.2764946071283688e-14 1.8189663908745697e-14 1.785850817099119e-14 1.7589565718584332e-14
          1.7553899383623497e-14 1.7550935635749918e-14 1.7551030165601085e-14 1.7551108234993615e-14 2.9433450131587534e-10 1.7324432755063773e-10
          3.683784273888821e-10 2.149830994650341e-10 3.2143463641072377e-10 1.8917628514441041e-10 1.5487341113802267e-10 9.645604757629191e-11