<?xml version="1.0"?>
<VTKFile type="UnstructuredGrid" version="0.1" byte_order="LittleEndian" header_type="UInt32" compressor="vtkZLibDataCompressor">
  <UnstructuredGrid>
    <Piece NumberOfPoints="575" NumberOfCells="327">
      <PointData>
        <DataArray type="Int32" Name="libmesh_node_id" format="ascii" RangeMin="374" RangeMax="3942">
          374 383 385 386 504 514
          515 518 521 523 528 529
          531 535 536 673 674 702
          703 704 705 706 707 708
          710 711 712 713 714 715
          720 724 725 732 733 1057
          1058 1059 1060 1061 1062 1063
          1064 1065 1066 1071 1072 1073
          1074 1075 1076 1077 1078 1079
          1080 1117 1125 1126 1127 1128
          1129 1130 1131 1132 1133 1134
          1138 1173 1175 1177 1417 1418
          1421 1422 1423 1424 1425 1426
          1427 1428 1456 1457 1458 1459
          1460 1461 1462 1463 1464 1465
          1466 1467 1468 1469 1470 1471
          1472 1473 1474 1475 1476 1477
          1478 1479 1770 1771 1772 1773
          1774 1775 1776 1777 1778 1779
          1780 1781 1782 1783 1784 1785
          1786 1787 1788 1789 1790 1791
          1796 1797 1798 1799 1800 1801
          1806 1807 1808 1812 1813 1814
          1815 1816 1817 1818 1820 1982
          1983 1984 1985 1986 1987 1988
          1989 1990 1991 1992 1993 1994
          1995 1996 1997 1998 1999 2000
          2001 2002 2003 2004 2005 2006
          2007 2008 2009 2010 2011 2012
          2013 2014 2015 2020 2021 2024
          2030 2031 2032 2033 2034 2035
          2036 2037 2038 2040 2041 2042
          2043 2044 2045 2046 2047 2048
          2049 2229 2355 2356 2357 2358
          2359 2360 2361 2362 2363 2364
          2365 2366 2367 2368 2369 2370
          2371 2389 2391 2393 2413 2414
          2415 2416 2417 2418 2419 2420
          2421 2422 2423 2424 2425 2426
          2427 2428 2429 3037 3038 3039
          3040 3041 3042 3043 3044 3045
          3046 3047 3048 3049 3050 3051
          3052 3053 3054 3055 3057 3058
          3060 3061 3062 3063 3064 3065
          3066 3620 3621 3622 3623 3624
          3625 3626 3627 3628 3629 3630
          3631 3632 3633 3634 3635 3636
          3637 3638 3639 3640 3641 3642
          3643 3644 3645 3646 3647 3648
          3649 3650 3651 3652 3653 3654
          3655 3656 3657 3658 3659 3660
          3661 3662 3663 3664 3665 3666
          3667 3668 3669 3670 3671 3672
          3673 3674 3675 3676 3677 3678
          3679 3680 3681 3682 3683 3684
          3685 3686 3687 3688 3689 3690
          3691 3692 3693 3694 3695 3696
          3697 3698 3699 3700 3701 3702
          3703 3704 3705 3706 3707 3708
          3709 3710 3711 3712 3713 3714
          3715 3716 3717 3718 3719 3720
          3721 3722 3723 3724 3725 3726
          3727 3728 3729 3730 3731 3732
          3733 3734 3735 3736 3737 3738
          3739 3740 3741 3742 3743 3744
          3745 3750 3751 3752 3753 3754
          3755 3760 3761 3762 3763 3767
          3768 3769 3770 3774 3775 3776
          3777 3778 3779 3780 3781 3782
          3783 3784 3785 3788 3790 3791
          3793 3794 3795 3796 3797 3798
          3799 3800 3801 3802 3805 3806
          3808 3810 3811 3812 3813 3814
          3815 3816 3831 3832 3833 3834
          3840 3844 3845 3846 3847 3848
          3849 3850 3851 3852 3853 3854
          3855 3856 3857 3858 3859 3860
          3861 3862 3863 3864 3865 3866
          3867 3868 3869 3871 3872 3873
          3874 3875 3878 3881 3882 3889
          3890 3891 3892 3895 3897 3899
          3900 3901 3902 3903 3904 3905
          3906 3907 3908 3909 3910 3911
          3912 3913 3914 3915 3916 3917
          3918 3919 3920 3921 3922 3925
          3926 3927 3928 3929 3930 3931
          3932 3933 3934 3935 3936 3937
          3938 3939 3940 3941 3942 1081
          1802 1803 1794 519 1804 1805
          1082 1083 1819 1810 3746 3747
          3056 2016 3748 3749 2017 3756
          3757 1135 3758 3759 2018 3764
          3059 3765 3766 2019 3771 3772
          3773 1136 3817 3818 2026 3819
          3820 2027 3835 3836 3837 2029
          3870 3876 3877 3923 3924
        </DataArray>
        <DataArray type="Float64" Name="bounds" format="ascii" RangeMin="0" RangeMax="0">
          0 0 0 0 0 0
          0 0 0 0 0 0
          0 0 0 0 0 0
          0 0 0 0 0 0
          0 0 0 0 0 0
          0 0 0 0 0 0
          0 0 0 0 0 0
          0 0 0 0 0 0
          0 0 0 0 0 0
          0 0 0 0 0 0
          0 0 0 0 0 0
          0 0 0 0 0 0
          0 0 0 0 0 0
          0 0 0 0 0 0
          0 0 0 0 0 0
          0 0 0 0 0 0
          0 0 0 0 0 0
          0 0 0 0 0 0
          0 0 0 0 0 0
          0 0 0 0 0 0
          0 0 0 0 0 0
          0 0 0 0 0 0
          0 0 0 0 0 0
          0 0 0 0 0 0
          0 0 0 0 0 0
          0 0 0 0 0 0
          0 0 0 0 0 0
          0 0 0 0 0 0
          0 0 0 0 0 0
          0 0 0 0 0 0
          0 0 0 0 0 0
          0 0 0 0 0 0
          0 0 0 0 0 0
          0 0 0 0 0 0
          0 0 0 0 0 0
          0 0 0 0 0 0
          0 0 0 0 0 0
          0 0 0 0 0 0
          0 0 0 0 0 0
          0 0 0 0 0 0
          0 0 0 0 0 0
          0 0 0 0 0 0
          0 0 0 0 0 0
          0 0 0 0 0 0
          0 0 0 0 0 0
          0 0 0 0 0 0
          0 0 0 0 0 0
          0 0 0 0 0 0
          0 0 0 0 0 0
          0 0 0 0 0 0
          0 0 0 0 0 0
          0 0 0 0 0 0
          0 0 0 0 0 0
          0 0 0 0 0 0
          0 0 0 0 0 0
          0 0 0 0 0 0
          0 0 0 0 0 0
          0 0 0 0 0 0
          0 0 0 0 0 0
          0 0 0 0 0 0
          0 0 0 0 0 0
          0 0 0 0 0 0
          0 0 0 0 0 0
          0 0 0 0 0 0
          0 0 0 0 0 0
          0 0 0 0 0 0
          0 0 0 0 0 0
          0 0 0 0 0 0
          0 0 0 0 0 0
          0 0 0 0 0 0
          0 0 0 0 0 0
          0 0 0 0 0 0
          0 0 0 0 0 0
          0 0 0 0 0 0
          0 0 0 0 0 0
          0 0 0 0 0 0
          0 0 0 0 0 0
          0 0 0 0 0 0
          0 0 0 0 0 0
          0 0 0 0 0 0
          0 0 0 0 0 0
          0 0 0 0 0 0
          0 0 0 0 0 0
          0 0 0 0 0 0
          0 0 0 0 0 0
          0 0 0 0 0 0
          0 0 0 0 0 0
          0 0 0 0 0 0
          0 0 0 0 0 0
          0 0 0 0 0 0
          0 0 0 0 0 0
          0 0 0 0 0 0
          0 0 0 0 0 0
          0 0 0 0 0 0
          0 0 0 0 0 0
          0 0 0 0 0
        </DataArray>
        <DataArray type="Float64" Name="gradient_error" format="ascii" RangeMin="5.478112618770051e-12" RangeMax="3.220701466661156e-7">
          3.7190781169166116e-8 4.964028574520781e-10 7.196701647801347e-10 1.7253829845305221e-9 8.897410976224954e-8 1.0704520290938635e-8
          3.04782913393767e-8 1.362256641447611e-9 3.5961901849218444e-8 1.9290434273799757e-9 1.2080096225339293e-11 9.009462904724539e-11
          5.758498753998437e-11 1.72638850096381e-10 1.5332981567218106e-10 1.0448140642597856e-8 9.376737796430746e-9 9.926612159027368e-10
          1.1269257911105853e-9 3.185083145105173e-9 3.261493105191807e-9 2.556172018399254e-10 1.8801026467101414e-10 4.1450712760078505e-10
          3.3907828966195497e-9 6.87821370700629e-10 6.766428896053858e-11 7.945030794229047e-11 3.9749402799120115e-11 1.0261686417895065e-10
          1.652547919615875e-10 1.247001667260966e-9 1.2973597846116614e-9 1.7374435553578636e-10 1.5570535556075449e-10 2.947525662221162e-8
          2.9519357681784964e-8 3.220701466661156e-7 2.421714077491094e-7 1.0775612919405367e-8 2.6374240515342466e-7 1.9017807979850134e-7
          2.9563458741358313e-8 1.6227266883210328e-7 8.152103184596467e-8 4.3977465131702235e-9 4.073503681707431e-9 1.2673408755696506e-7
          8.707386377434138e-8 1.0529704312118384e-9 4.735638996914885e-9 2.9699113326039224e-9 4.469697226826603e-9 2.8680950425476013e-8
          2.2592090597941702e-9 1.8116593728649955e-9 9.854360894420457e-11 8.85954313758823e-11 1.3249655742639333e-10 7.941047079118303e-11
          1.7223755570807465e-11 2.5058879013018024e-11 2.6580571219471748e-11 1.7904883184780398e-10 2.0089327548944817e-10 4.136612534712848e-11
          2.0919137224552033e-10 2.6275678787363494e-10 6.392181513064588e-11 4.1482101966269055e-10 1.1594163869160399e-9 1.733384492414796e-9
          1.055652035077092e-9 2.7676940993139935e-10 2.2415375654835777e-10 5.7282530964215703e-11 5.433928343258649e-11 1.617455502031004e-10
          2.223439310569585e-10 5.4029210005871725e-11 3.0581729451155826e-10 1.265486101582693e-9 8.387418973755267e-10 4.119976931683603e-10
          3.5369635883134465e-10 2.511344821673417e-10 1.2199225768365346e-9 7.606732890084394e-10 1.2659938842703405e-10 6.650737290806593e-10
          4.071445050280428e-10 1.4857260550333884e-10 3.014240011803444e-10 1.492152809754264e-10 3.522630775034254e-11 3.7921627812524386e-11
          8.948739144627958e-11 7.925616421912471e-11 1.2064050234895343e-11 1.4566524904122217e-11 1.650378115875586e-11 4.0616947874706235e-11
          6.902493699196982e-11 1.8441037413389502e-11 9.625351669965372e-10 2.452027397746935e-9 1.8516421408583075e-9 1.2512568839696801e-9
          1.7252877747319358e-8 9.02026099394699e-10 7.214509745041701e-10 1.985309185895466e-9 1.5620069352017942e-9 3.229907581290534e-10
          8.201362340855641e-10 7.150624232245149e-10 5.408758496136411e-10 1.1387046845081227e-9 5.61455027332868e-10 1.4981513084002135e-8
          1.23328716952057e-8 3.969064353690171e-9 9.601227763024884e-9 5.241725504251991e-8 4.4152543269802514e-8 2.732474203335606e-8
          4.492176555354015e-8 3.7865260418364646e-8 2.0527912714850146e-8 1.7172231710099544e-8 2.2876999715602375e-8 9.88333287685966e-9
          9.783035586037465e-9 1.4335376436407233e-8 9.90910030318746e-9 6.833594342858474e-9 1.0960338302781369e-8 1.6538392640524078e-9
          4.128821314575719e-9 4.231966009460825e-9 6.975432457547127e-9 1.7688267015126296e-9 1.1514360418607701e-8 6.75059086751176e-11
          1.2294721985099954e-10 6.585776434538755e-11 8.750862915075879e-11 5.4881275469384176e-11 3.827760825510402e-11 3.7178528001416907e-11
          1.9862002281153574e-10 2.127918511503525e-10 6.925331081521059e-11 3.0691143332018085e-10 2.426920954872981e-10 1.0145027516067048e-10
          2.1228356921394525e-10 2.207633696655807e-11 1.9454874988346264e-11 1.5725264047384524e-11 2.008546117535704e-11 6.573937066555454e-12
          1.215107886139774e-11 1.6565456144419183e-11 1.639500660088163e-11 2.8628455840256314e-11 1.9553243240080388e-11 5.391251776809153e-11
          4.5311597509350286e-11 2.4766362773616764e-11 3.493636379791833e-11 1.999995756968935e-9 1.4979270088040372e-9 9.755608018316417e-10
          7.057759672001305e-10 6.654204509531731e-10 2.8369645243680245e-10 4.1958743983862944e-10 2.986780448133242e-10 1.1499142253170168e-10
          3.4845252366218854e-10 3.504983957653636e-10 1.2256168372075272e-10 1.2654480609255715e-10 3.9958038149982834e-10 4.114349128415766e-10
          1.4551507848658656e-10 7.537362944179333e-10 3.101075790706006e-10 4.287976199207104e-11 6.335828779509305e-11 2.545877500974541e-11
          4.516679776034614e-11 4.772091940782543e-11 6.826156868982296e-11 5.2719825819557984e-11 1.3644715483026158e-10 6.475866828133237e-11
          9.473828370361717e-11 2.2239937816645582e-10 2.72237322490017e-10 3.682633709858003e-10 2.6575835264990485e-10 1.7694967187212918e-10
          2.479924510487468e-10 5.234840791699178e-11 8.457048611228249e-11 1.350478291480684e-10 1.838492268541623e-10 6.735816305889617e-11
          1.6568942911404508e-11 2.8965787268551962e-11 1.0103091243066839e-11 1.651213342423213e-11 1.7181285631180222e-11 2.4451690432491516e-11
          1.6127155805610414e-11 8.228132265724617e-11 3.854718634139474e-11 4.258926836950857e-11 3.4676266064139803e-10 4.977848685448607e-10
          3.541888752336329e-10 2.3452382207673995e-10 3.378132418142735e-10 8.04432863031185e-11 1.196505588257388e-10 1.6532859957755597e-10
          2.3608706537668235e-10 7.903103170793859e-11 2.844495132951842e-11 4.219642714063914e-11 1.828831356488169e-11 2.2933351713486978e-11
          2.2068412560443444e-11 2.9324907454191915e-11 1.8573007012238406e-11 1.7283887152169746e-10 2.2349482630391603e-10 2.1221083801745017e-10
          1.8486192394987856e-10 6.164879567331441e-10 1.205635955506675e-10 1.458781739630855e-10 1.2295934975739814e-10 4.1052777658169133e-10
          1.3133400806992996e-9 1.2280512906922568e-9 1.046998014437078e-9 3.3546360896914493e-9 8.298865449489747e-10 5.953451372508737e-10
          2.06437604317436e-9 6.917178158556508e-9 6.4015448869447016e-9 5.318424672588032e-9 4.000839256130926e-9 2.5084062765334933e-9
          3.0335524397061394e-10 3.9518358504441486e-10 3.0821645729608983e-10 8.199837738443818e-10 1.467539768502991e-9 8.54230711562218e-10
          2.789247328287235e-9 1.319745148122872e-10 1.2556210561202713e-10 1.8598255861536978e-10 1.764479009815825e-10 6.090814409831954e-11
          1.186978561157008e-10 1.1230423112579936e-10 1.0829235564730823e-10 1.5234301691564292e-10 9.558344917522503e-11 5.141348988961814e-10
          4.8287632638535e-10 2.8905310089945025e-10 4.101373025126774e-10 3.7448951995386594e-11 3.5438352174542296e-11 7.267637393250138e-11
          6.859670619357487e-11 2.225793486682655e-11 4.6127497336635874e-11 4.3508627654781325e-11 3.0571416064841926e-11 5.811946503127493e-11
          3.6616507316440294e-11 2.0204079588259172e-10 1.89490507540338e-10 1.2384737641919694e-10 1.5688101783537388e-10 9.105388052395409e-11
          1.213791605321485e-10 4.7520465903960304e-11 7.619978280249459e-11 8.467274616505877e-11 1.0498553058080647e-10 6.7143273390437e-11
          3.1802069557572417e-10 1.8286544886865356e-10 2.6982194590561686e-10 2.7569158264276464e-11 4.550624748768323e-11 1.7337990917095298e-11
          2.8421301469001955e-11 2.7423236752567074e-11 3.9290603367464964e-11 2.4499346278050084e-11 1.1513517711304354e-10 7.350039611762554e-11
          9.027480923157528e-11 1.4593570244163626e-11 1.430114747146809e-11 2.923648605244466e-11 2.7484967390487846e-11 9.622097914729175e-12
          1.8286108509003345e-11 1.7097160668340202e-11 1.2987404978457249e-11 2.288506880088972e-11 1.5627690555616726e-11 8.558312587452542e-11
          7.977806589740199e-11 4.996777888082875e-11 6.479012828977336e-11 6.3031499300111945e-12 6.6450636920715155e-12 1.101118998545951e-11
          1.0381973394078126e-11 5.478112618770051e-12 8.095466944954572e-12 7.792219004154836e-12 6.986977454131836e-12 9.752756802696745e-12
          7.4889710633551e-12 3.286109184945121e-11 3.027539268229196e-11 2.1771762646251373e-11 2.9045340910469617e-11 1.1095100074085447e-11
          1.7255685527879038e-11 9.155768531853291e-12 1.3161844589342986e-11 1.0224114890028949e-11 1.4474682182509666e-11 1.1257043167189908e-11
          4.6300721370515884e-11 3.4802440860012644e-11 3.552245887643365e-11 1.1345270658632154e-9 1.061282503084214e-9 8.027182645770316e-10
          7.501635136976966e-10 8.927901787644783e-10 6.155447962617796e-10 2.984463212675907e-9 2.7672705553255214e-9 1.859677689643283e-9
          2.2678039559552727e-9 5.45580880205738e-10 5.07933402949177e-10 3.6774283773062446e-10 3.4126475737695907e-10 4.109597711606423e-10
          2.733232613671282e-10 1.4113314327760538e-9 1.3062410248056892e-9 8.99798245985031e-10 1.0356376774093284e-9 6.882111412202547e-10
          4.499450932374473e-10 4.813954859683926e-10 2.9801010977152037e-10 1.6639786721754395e-9 1.0561546349592382e-9 1.0721925609159183e-9
          2.925636227943382e-10 1.9133210568688356e-10 1.8738458472598813e-10 1.1986741723970936e-10 7.104469606524828e-10 4.754904229457026e-10
          4.338258863048437e-10 6.127654754562109e-9 5.68045319709554e-9 4.646484297070901e-9 4.308889716263925e-9 4.64670651527018e-9
          3.4277840739007717e-9 3.4010431664743903e-9 3.1406892522971604e-9 2.4094835016384944e-9 2.2166878378311118e-9 2.459549890560292e-9
          1.7161254825516393e-9 3.382773919349962e-9 2.349910323625906e-9 2.100603514973028e-9 1.4170171964240677e-9 1.6371438532386152e-9
          1.1205445818130112e-9 9.544614938173217e-10 6.374233298077672e-10 2.4203201810033086e-10 2.2422640485013046e-10 1.5430596304723138e-10
          1.4280177279718565e-10 1.7857590810574766e-10 1.1332448599795978e-10 6.524694578607205e-10 6.002938915346095e-10 3.853746515486275e-10
          4.674111706547127e-10 9.503550483316827e-11 8.774805967551052e-11 6.92792964438601e-11 2.58543700402967e-10 2.372521333497822e-10
          1.8344334201990488e-10 1.236733405458606e-10 7.796402578190745e-11 7.627583360498405e-11 4.7606667640552e-11 3.1123749077553977e-10
          1.9756007748353026e-10 1.8288910115011782e-10 2.6556802541966665e-11 4.748612301348616e-11 1.7163250399761224e-11 2.88032786208541e-11
          1.210965159937156e-10 7.006407168526794e-11 1.6386521611512994e-9 1.503120387888319e-9 1.0647840108815702e-9 9.746018649398312e-10
          1.1540885458701087e-9 7.440659688546226e-10 7.440032870138417e-10 4.760142532480023e-10 4.164073280606813e-10 2.6401594563942345e-10
          1.6189826793920873e-10 3.484678879944193e-10 2.267101291208493e-10 3.1278319344463026e-10 1.1699982465858405e-10 1.8275753940403542e-10
          1.7872350052607217e-10 2.416552801692404e-10 1.3590421603472729e-10 6.471875054898093e-10 3.850729515999677e-10 4.3799609757076403e-10
          6.849685905963595e-11 1.1023783531232405e-10 4.23431923702899e-11 6.899487972392132e-11 5.306636593139334e-11 7.920013013267962e-11
          4.905929063122832e-11 2.425872804377743e-10 1.550689642682018e-10 1.495546389793064e-10 1.2066584603841702e-9 7.807176021959687e-10
          6.792388973862156e-10 4.083992681700964e-10 2.299856482366506e-9 1.230644583721581e-9 5.089608514551446e-10 3.313545132368991e-10
          2.5551011301290586e-10 1.6189683464901705e-10 4.824647474714045e-10 1.46835847677088e-10 2.042663001995117e-10 8.598592785899386e-11
          1.2281306207655397e-10 5.340893015402381e-11 7.626039959852306e-11 4.93198693037497e-11 1.386953558217377e-10 2.5976687542244302e-11
          4.3019979620273924e-11 1.6291461418406416e-11 2.6757182215268916e-11 1.937438261871478e-11 3.010394851073567e-11 1.8877691264469057e-11
          9.848374990649957e-11 6.141874816536714e-11 5.898679016132311e-11 1.027209642024204e-11 1.6065811762753913e-11 8.287343420768545e-12
          1.2010852549098081e-11 7.574661423751527e-12 1.1399333940904541e-11 8.818532350181381e-12 3.7042127018203585e-11 2.5680507104108226e-11
          2.5223024910090178e-11 2.1295442515946477e-10 1.3344489838023909e-10 1.0152212497908403e-10 7.360533825575596e-11 1.970557710813984e-10
          8.105876956654286e-11 4.7711868028409403e-11 5.221997797582189e-11 3.063267885157346e-11 1.6621166290438125e-10 9.798130846007514e-11
          8.796053285391983e-11 3.3204911420709013e-11 4.687117593689448e-11 2.6621033760817598e-11 3.60398563301574e-11 2.3369978283281048e-11
          3.121039302599237e-11 2.561208442601251e-11 8.621106695842603e-11 6.098785408260605e-11 5.3160415378968966e-11 2.628367491622194e-7
          1.475955047171476e-7 1.227485729946134e-7 1.6867431807796354e-7 7.529390545351991e-8 6.146282159017474e-8 6.841580899619091e-8
          1.517915773866883e-7 3.280315299018995e-8 2.6485864479387266e-8 4.004057402672556e-8 1.2873337046133021e-8 1.187283810685653e-8
          1.3489193504399489e-8 9.727497919955461e-9 9.050969671772923e-9 9.588337174495975e-9 7.209644168991089e-9 7.366809574470243e-9
          6.826201406862281e-9 5.374742513116885e-9 4.957250906110342e-9 5.352927187462025e-9 3.834338724060785e-9 6.889420611659905e-9
          8.121235778479713e-9 4.880116644108804e-9 4.184072927085529e-9 2.858676446257184e-9 3.509665132277009e-9 2.4581914777090866e-9
          1.9756545693730974e-9 1.3450967288030952e-9 3.7375246925190885e-9 3.4329868460406843e-9 2.465141585773022e-9 2.2566853710970055e-9
          2.6257134815366003e-9 1.7117246142654013e-9 1.656563933121205e-9 1.0687897905162071e-9 8.896135765244611e-10 5.677034388198136e-10
          1.5085169518265365e-9 1.0049019546487854e-9 6.649148209731119e-10 4.3196353697117347e-10 2.727507956055013e-10
        </DataArray>
        <DataArray type="Float64" Name="gradient_matprop_error" format="ascii" RangeMin="0" RangeMax="0">
          0 0 0 0 0 0
          0 0 0 0 0 0
          0 0 0 0 0 0
          0 0 0 0 0 0
          0 0 0 0 0 0
          0 0 0 0 0 0
          0 0 0 0 0 0
          0 0 0 0 0 0
          0 0 0 0 0 0
          0 0 0 0 0 0
          0 0 0 0 0 0
          0 0 0 0 0 0
          0 0 0 0 0 0
          0 0 0 0 0 0
          0 0 0 0 0 0
          0 0 0 0 0 0
          0 0 0 0 0 0
          0 0 0 0 0 0
          0 0 0 0 0 0
          0 0 0 0 0 0
          0 0 0 0 0 0
          0 0 0 0 0 0
          0 0 0 0 0 0
          0 0 0 0 0 0
          0 0 0 0 0 0
          0 0 0 0 0 0
          0 0 0 0 0 0
          0 0 0 0 0 0
          0 0 0 0 0 0
          0 0 0 0 0 0
          0 0 0 0 0 0
          0 0 0 0 0 0
          0 0 0 0 0 0
          0 0 0 0 0 0
          0 0 0 0 0 0
          0 0 0 0 0 0
          0 0 0 0 0 0
          0 0 0 0 0 0
          0 0 0 0 0 0
          0 0 0 0 0 0
          0 0 0 0 0 0
          0 0 0 0 0 0
          0 0 0 0 0 0
          0 0 0 0 0 0
          0 0 0 0 0 0
          0 0 0 0 0 0
          0 0 0 0 0 0
          0 0 0 0 0 0
          0 0 0 0 0 0
          0 0 0 0 0 0
          0 0 0 0 0 0
          0 0 0 0 0 0
          0 0 0 0 0 0
          0 0 0 0 0 0
          0 0 0 0 0 0
          0 0 0 0 0 0
          0 0 0 0 0 0
          0 0 0 0 0 0
          0 0 0 0 0 0
          0 0 0 0 0 0
          0 0 0 0 0 0
          0 0 0 0 0 0
          0 0 0 0 0 0
          0 0 0 0 0 0
          0 0 0 0 0 0
          0 0 0 0 0 0
          0 0 0 0 0 0
          0 0 0 0 0 0
          0 0 0 0 0 0
          0 0 0 0 0 0
          0 0 0 0 0 0
          0 0 0 0 0 0
          0 0 0 0 0 0
          0 0 0 0 0 0
          0 0 0 0 0 0
          0 0 0 0 0 0
          0 0 0 0 0 0
          0 0 0 0 0 0
          0 0 0 0 0 0
          0 0 0 0 0 0
          0 0 0 0 0 0
          0 0 0 0 0 0
          0 0 0 0 0 0
          0 0 0 0 0 0
          0 0 0 0 0 0
          0 0 0 0 0 0
          0 0 0 0 0 0
          0 0 0 0 0 0
          0 0 0 0 0 0
          0 0 0 0 0 0
          0 0 0 0 0 0
          0 0 0 0 0 0
          0 0 0 0 0 0
          0 0 0 0 0 0
          0 0 0 0 0 0
          0 0 0 0 0
        </DataArray>
        <DataArray type="Float64" Name="initial_marker" format="ascii" RangeMin="0" RangeMax="2">
          1 0 0 0 0 1
          0 0 0 0 0 0
          0 0 0 0 0 0
          0 0 0 0 0 0
          0 0 0 0 0 0
          0 0 0 0 0 2
          1 2 1.5 0.6666666666666666 2 1.5
          0 1 0.6666666666666666 0.5 0.25 2
          1.5 0 2 1.5 0 0.25
          0 0 0 0 2 0.75
          0 1 0 0 0 0
          0 0 0 0 0 0
          0 0 0 0 0 0
          0 0 0 0 0 0
          0 0 0 0 0 0
          0 0 0 0 0 0
          0 0 0 0 0 0
          0 0 0 1 1 1
          2 0 0 1 1 0
          0.5 0.5 0 1 0.3333333333333333 2
          2 2 2 2 2 2
          2 2 2 2 2 2
          1 1.5 1 1 1.5 0.3333333333333333
          1.5 0 1 0.3333333333333333 2 0
          0 0 0 0 0 0
          0 0 0 2 2 2
          1.25 0 0 0 0 0
          0 0 0 0 0 2
          1.25 0.75 0.5 2 2 2
          2 2 2 2 2 2
          0 1.5 0 0.75 0 0
          0 2 2 0 0.5 0
          0 0 0 0 1.75 1.25
          0 0 0 0 0 0
          0 0 0 0 0 0
          0 0 0 0 0 0
          0 0 0 0 0 0
          0 0 0 0 0 0
          0 0 0 0 0 0
          0 0 0 0 1 1
          1 2 0 1 1 2
          2 2 2 2 2 2
          2 2 2 2 2 2
          1 1.5 1 2 2 2
          2 0 0 1 1 0
          1 1 0 1 1 2
          2 2 2 0 0 1
          1 0 1 1 0 1
          1 2 2 2 2 0
          1 0 0.75 0 1 0.5
          2 1.75 2 0 0.5 0
          0.5 0 0 0 1.5 1.5
          1.3333333333333333 0 0 1 1 0
          1 0.75 0 0.75 0.3333333333333333 2
          2 1.75 1.75 0 0 0.5
          0.25 0 0 0 0 0
          0 1.5 1.25 1.3333333333333333 1.3333333333333333 0
          0.25 0 0 0 0 0
          1.25 1.3333333333333333 0.6666666666666666 2 2 2
          2 2 2 2 2 2
          2 2 2 2 2 2
          2 2 2 2 2 2
          2 2 2 2 2 2
          2 2 2 1.75 2 2
          2 2 2 2 2 2
          2 2 2 2 2 2
          2 2 2 2 2 2
          2 2 2 2 2 2
          2 2 2 2 2 2
          2 2 2 2 2 2
          2 2 2 1.5 1.5 2
          2 2 1.5 1.75 0.5 1.25
          2 2 2 2 2 2
          2 2 2 2 2 2
          2 2 1 1.5 1 1.5
          0 1 1 2 2 2
          1 1.5 0.5 1 0 1
          0.5 2 1.75 1.6666666666666667 2 2
          2 2 2 2 2 2
          1.75 1.5 2 1 1 0.5
          0.75 0 0.5 0 1 0
          0.5 0 0.5 0 0 0
          1.5 1.5 0.6666666666666666 0 0.5 0
          0.5 0 0 0 1.25 1
          0.5 2 2 1.5 1.6666666666666667 2
          1.75 1.5 1.5 1 2 2
          2 0 0.5 0 0.5 0
          0 0 1 1 0 2
          2 2 2 2 2 2
          2 2 2 2 2 2
          2 2 2 2 2 2
          2 2 2 2 2 2
          2 2 2 2 2 2
          2 2 2 2 2 2
          2 2 2 2 2 2
          2 2 2 2 2
        </DataArray>
        <DataArray type="Float64" Name="markers_norefine" format="ascii" RangeMin="0" RangeMax="0">
          0 0 0 0 0 0
          0 0 0 0 0 0
          0 0 0 0 0 0
          0 0 0 0 0 0
          0 0 0 0 0 0
          0 0 0 0 0 0
          0 0 0 0 0 0
          0 0 0 0 0 0
          0 0 0 0 0 0
          0 0 0 0 0 0
          0 0 0 0 0 0
          0 0 0 0 0 0
          0 0 0 0 0 0
          0 0 0 0 0 0
          0 0 0 0 0 0
          0 0 0 0 0 0
          0 0 0 0 0 0
          0 0 0 0 0 0
          0 0 0 0 0 0
          0 0 0 0 0 0
          0 0 0 0 0 0
          0 0 0 0 0 0
          0 0 0 0 0 0
          0 0 0 0 0 0
          0 0 0 0 0 0
          0 0 0 0 0 0
          0 0 0 0 0 0
          0 0 0 0 0 0
          0 0 0 0 0 0
          0 0 0 0 0 0
          0 0 0 0 0 0
          0 0 0 0 0 0
          0 0 0 0 0 0
          0 0 0 0 0 0
          0 0 0 0 0 0
          0 0 0 0 0 0
          0 0 0 0 0 0
          0 0 0 0 0 0
          0 0 0 0 0 0
          0 0 0 0 0 0
          0 0 0 0 0 0
          0 0 0 0 0 0
          0 0 0 0 0 0
          0 0 0 0 0 0
          0 0 0 0 0 0
          0 0 0 0 0 0
          0 0 0 0 0 0
          0 0 0 0 0 0
          0 0 0 0 0 0
          0 0 0 0 0 0
          0 0 0 0 0 0
          0 0 0 0 0 0
          0 0 0 0 0 0
          0 0 0 0 0 0
          0 0 0 0 0 0
          0 0 0 0 0 0
          0 0 0 0 0 0
          0 0 0 0 0 0
          0 0 0 0 0 0
          0 0 0 0 0 0
          0 0 0 0 0 0
          0 0 0 0 0 0
          0 0 0 0 0 0
          0 0 0 0 0 0
          0 0 0 0 0 0
          0 0 0 0 0 0
          0 0 0 0 0 0
          0 0 0 0 0 0
          0 0 0 0 0 0
          0 0 0 0 0 0
          0 0 0 0 0 0
          0 0 0 0 0 0
          0 0 0 0 0 0
          0 0 0 0 0 0
          0 0 0 0 0 0
          0 0 0 0 0 0
          0 0 0 0 0 0
          0 0 0 0 0 0
          0 0 0 0 0 0
          0 0 0 0 0 0
          0 0 0 0 0 0
          0 0 0 0 0 0
          0 0 0 0 0 0
          0 0 0 0 0 0
          0 0 0 0 0 0
          0 0 0 0 0 0
          0 0 0 0 0 0
          0 0 0 0 0 0
          0 0 0 0 0 0
          0 0 0 0 0 0
          0 0 0 0 0 0
          0 0 0 0 0 0
          0 0 0 0 0 0
          0 0 0 0 0 0
          0 0 0 0 0 0
          0 0 0 0 0
        </DataArray>
        <DataArray type="Float64" Name="markers_mustrefine" format="ascii" RangeMin="0" RangeMax="2">
          1 0 0 0 0 1
          0 0 0 0 0 0
          0 0 0 0 0 0
          0 0 0 0 0 0
          0 0 0 0 0 0
          0 0 0 0 0 2
          1 2 1.5 0.6666666666666666 2 1.5
          0 1 0.6666666666666666 0.5 0.25 2
          1.5 0 2 1.5 0 0.25
          0 0 0 0 2 0.75
          0 1 0 0 0 0
          0 0 0 0 0 0
          0 0 0 0 0 0
          0 0 0 0 0 0
          0 0 0 0 0 0
          0 0 0 0 0 0
          0 0 0 0 0 0
          0 0 0 1 1 1
          2 0 0 1 1 0
          0.5 0.5 0 1 0.3333333333333333 2
          2 2 2 2 2 2
          2 2 2 2 2 2
          1 1.5 1 1 1.5 0.3333333333333333
          1.5 0 1 0.3333333333333333 2 0
          0 0 0 0 0 0
          0 0 0 2 2 2
          1.25 0 0 0 0 0
          0 0 0 0 0 2
          1.25 0.75 0.5 2 2 2
          2 2 2 2 2 2
          0 1.5 0 0.75 0 0
          0 2 2 0 0.5 0
          0 0 0 0 1.75 1.25
          0 0 0 0 0 0
          0 0 0 0 0 0
          0 0 0 0 0 0
          0 0 0 0 0 0
          0 0 0 0 0 0
          0 0 0 0 0 0
          0 0 0 0 1 1
          1 2 0 1 1 2
          2 2 2 2 2 2
          2 2 2 2 2 2
          1 1.5 1 2 2 2
          2 0 0 1 1 0
          1 1 0 1 1 2
          2 2 2 0 0 1
          1 0 1 1 0 1
          1 2 2 2 2 0
          1 0 0.75 0 1 0.5
          2 1.75 2 0 0.5 0
          0.5 0 0 0 1.5 1.5
          1.3333333333333333 0 0 1 1 0
          1 0.75 0 0.75 0.3333333333333333 2
          2 1.75 1.75 0 0 0.5
          0.25 0 0 0 0 0
          0 1.5 1.25 1.3333333333333333 1.3333333333333333 0
          0.25 0 0 0 0 0
          1.25 1.3333333333333333 0.6666666666666666 2 2 2
          2 2 2 2 2 2
          2 2 2 2 2 2
          2 2 2 2 2 2
          2 2 2 2 2 2
          2 2 2 1.75 2 2
          2 2 2 2 2 2
          2 2 2 2 2 2
          2 2 2 2 2 2
          2 2 2 2 2 2
          2 2 2 2 2 2
          2 2 2 2 2 2
          2 2 2 1.5 1.5 2
          2 2 1.5 1.75 0.5 1.25
          2 2 2 2 2 2
          2 2 2 2 2 2
          2 2 1 1.5 1 1.5
          0 1 1 2 2 2
          1 1.5 0.5 1 0 1
          0.5 2 1.75 1.6666666666666667 2 2
          2 2 2 2 2 2
          1.75 1.5 2 1 1 0.5
          0.75 0 0.5 0 1 0
          0.5 0 0.5 0 0 0
          1.5 1.5 0.6666666666666666 0 0.5 0
          0.5 0 0 0 1.25 1
          0.5 2 2 1.5 1.6666666666666667 2
          1.75 1.5 1.5 1 2 2
          2 0 0.5 0 0.5 0
          0 0 1 1 0 2
          2 2 2 2 2 2
          2 2 2 2 2 2
          2 2 2 2 2 2
          2 2 2 2 2 2
          2 2 2 2 2 2
          2 2 2 2 2 2
          2 2 2 2 2 2
          2 2 2 2 2
        </DataArray>