<?xml version="1.0"?>
<VTKFile type="UnstructuredGrid" version="0.1" byte_order="LittleEndian" header_type="UInt32" compressor="vtkZLibDataCompressor">
  <UnstructuredGrid>
    <Piece NumberOfPoints="442" NumberOfCells="240">
      <PointData>
        <DataArray type="Int32" Name="libmesh_node_id" format="ascii" RangeMin="385" RangeMax="2651">
          395 396 404 498 500 505
          506 507 509 611 613 617
          618 831 832 833 834 835
          838 839 840 841 859 860
          863 865 867 868 871 872
          873 874 876 1070 1076 1077
          1079 1080 1205 1206 1209 1212
          1447 1448 1449 1452 1455 1457
          1458 1459 1460 1461 1462 1463
          1464 1465 1466 1467 1468 1469
          1470 1481 1482 1483 1484 1485
          1486 1487 1488 1489 1490 1493
          1494 1496 1499 1501 1502 1503
          1504 1505 1506 1507 1508 1509
          1510 1518 1519 1520 1521 1522
          1523 1524 1525 1526 1532 1553
          1554 1557 1558 1562 1617 1618
          1619 1620 1621 1622 1623 1624
          1625 1626 1627 1628 1629 1630
          1631 1632 1633 1634 1635 1636
          2291 2292 2293 2294 2298 2299
          2300 2301 2302 2303 2304 2305
          2306 2307 2308 2309 2310 2311
          2312 2313 2314 2325 2326 2327
          2328 2329 2330 2331 2332 2333
          2334 2342 2343 2344 2345 2346
          2347 2348 2359 2360 2361 2362
          2363 2364 2365 2366 2367 2368
          2376 2377 2378 2379 2380 2381
          2382 2383 2384 2385 2386 2387
          2388 2389 2390 2391 2392 2393
          2394 2395 2396 2397 2398 2399
          2400 2401 2402 2403 2404 2405
          2406 2407 2408 2409 2410 2411
          2412 2413 2414 2415 2416 2417
          2418 2419 2420 2421 2422 2423
          2424 2425 2426 2427 2428 2429
          2430 2431 2432 2433 2434 2435
          2436 2437 2438 2439 2440 2441
          2442 2443 2444 2445 2446 2447
          2448 2449 2450 2451 2452 2453
          2454 2455 2456 2457 2458 2459
          2460 2461 2462 2463 2464 2465
          2466 2467 2468 2469 2470 2471
          2472 2473 2474 2475 2476 2478
          2483 2485 2503 2504 2507 2509
          2510 2512 2523 2525 2527 2529
          2537 2538 2541 2543 2544 2546
          2557 2559 2561 2563 2639 2641
          2645 2647 2649 2651 497 503
          499 502 504 491 603 391
          608 836 857 837 858 861
          862 864 866 850 851 869
          852 870 856 508 875 1073
          1074 496 1067 486 385 1197
          1200 1201 1198 829 830 1204
          1203 1199 1207 1208 1210 1211
          1213 1214 843 844 1443 1444
          1445 1446 1450 1451 1453 1454
          1456 1473 1471 1474 1472 1479
          1478 1477 1495 1512 1511 1500
          1516 1515 1514 842 1527 1528
          1529 1530 1531 1533 1534 1535
          1536 1538 1555 1556 1559 1560
          846 1561 1577 1593 1595 1594
          1596 1597 1599 1609 1610 1613
          1615 2289 2317 2318 2320 1491
          2323 1492 2296 2336 2338 2340
          2351 2352 2354 1497 2357 1498
          2370 2372 2374 2477 2505 2506
          2508 1573 2511 1574 2484 2524
          2526 2528 2539 2540 2542 1579
          2545 1580 2558 2560 2562 1582
          2640 2646 2648 2650
        </DataArray>
        <DataArray type="Float64" Name="bounds" format="ascii" RangeMin="0" RangeMax="0">
          0 0 0 0 0 0
          0 0 0 0 0 0
          0 0 0 0 0 0
          0 0 0 0 0 0
          0 0 0 0 0 0
          0 0 0 0 0 0
          0 0 0 0 0 0
          0 0 0 0 0 0
          0 0 0 0 0 0
          0 0 0 0 0 0
          0 0 0 0 0 0
          0 0 0 0 0 0
          0 0 0 0 0 0
          0 0 0 0 0 0
          0 0 0 0 0 0
          0 0 0 0 0 0
          0 0 0 0 0 0
          0 0 0 0 0 0
          0 0 0 0 0 0
          0 0 0 0 0 0
          0 0 0 0 0 0
          0 0 0 0 0 0
          0 0 0 0 0 0
          0 0 0 0 0 0
          0 0 0 0 0 0
          0 0 0 0 0 0
          0 0 0 0 0 0
          0 0 0 0 0 0
          0 0 0 0 0 0
          0 0 0 0 0 0
          0 0 0 0 0 0
          0 0 0 0 0 0
          0 0 0 0 0 0
          0 0 0 0 0 0
          0 0 0 0 0 0
          0 0 0 0 0 0
          0 0 0 0 0 0
          0 0 0 0 0 0
          0 0 0 0 0 0
          0 0 0 0 0 0
          0 0 0 0 0 0
          0 0 0 0 0 0
          0 0 0 0 0 0
          0 0 0 0 0 0
          0 0 0 0 0 0
          0 0 0 0 0 0
          0 0 0 0 0 0
          0 0 0 0 0 0
          0 0 0 0 0 0
          0 0 0 0 0 0
          0 0 0 0 0 0
          0 0 0 0 0 0
          0 0 0 0 0 0
          0 0 0 0 0 0
          0 0 0 0 0 0
          0 0 0 0 0 0
          0 0 0 0 0 0
          0 0 0 0 0 0
          0 0 0 0 0 0
          0 0 0 0 0 0
          0 0 0 0 0 0
          0 0 0 0 0 0
          0 0 0 0 0 0
          0 0 0 0 0 0
          0 0 0 0 0 0
          0 0 0 0 0 0
          0 0 0 0 0 0
          0 0 0 0 0 0
          0 0 0 0 0 0
          0 0 0 0 0 0
          0 0 0 0 0 0
          0 0 0 0 0 0
          0 0 0 0 0 0
          0 0 0 0
        </DataArray>
        <DataArray type="Float64" Name="gradient_error" format="ascii" RangeMin="2.396293807315945e-9" RangeMax="2.601096802891013e-7">
          5.103603445187569e-9 9.771638362952713e-9 1.1458666796097168e-8 9.736332445663796e-8 1.1158773731000918e-8 1.2852217435994005e-8
          5.031058803693705e-9 1.1851079804730637e-7 4.817259402890896e-8 6.919545195211394e-9 2.5423968295679486e-9 1.1183152729598108e-8
          3.3121377260005095e-9 7.580840789349425e-8 9.697117004884897e-8 7.710702830362432e-8 8.780296774379148e-8 1.0954636017246005e-7
          1.172915690260573e-7 3.0760867056218243e-9 4.159532567894728e-8 1.4690915324687914e-8 1.2030022758117081e-7 8.948364073314196e-8
          5.546071383609912e-8 6.348700033305282e-8 9.297064066460137e-8 1.0966967177588872e-7 2.0833806869954285e-8 3.026463423818966e-8
          1.4061241289029306e-8 1.3048282312578747e-7 3.9695461606425023e-8 1.4890057221672145e-8 3.3997686914220292e-9 3.050638276302046e-9
          7.790434276873923e-9 2.7015078611820635e-9 5.577268042316393e-9 6.415728275576209e-9 4.327355746784367e-9 7.254188508836024e-9
          7.994779784526494e-8 1.0962116184881296e-7 1.0523618360139352e-7 9.22435693984347e-8 7.401165989085034e-8 8.442585206602983e-8
          7.941323432307032e-8 1.1447726498737914e-7 1.093749168035658e-7 7.757478819089461e-8 1.1917825563528422e-7 1.1314253255533022e-7
          6.626885603323853e-8 9.443548102540794e-8 9.58846648717277e-8 8.150103859341477e-8 7.928166399171945e-8 8.499476557576343e-8
          1.0301542545541939e-7 5.013379182689036e-8 7.16592477464188e-8 4.7094779899981776e-8 7.049411279792904e-8 4.21304881674145e-8
          5.872010206177417e-8 5.6325705327778893e-8 1.1378389228199037e-7 1.1867760360409295e-7 8.794197765705438e-8 7.319949766323133e-9
          9.76829883529008e-9 6.005274453601935e-8 5.228666013516769e-9 8.405774673252439e-9 1.0720988578160536e-8 1.024383777398102e-8
          1.2322425405719032e-8 4.9551290971024606e-8 5.3922737305404384e-8 3.92692784276223e-9 6.588702969909033e-9 8.365094463376136e-9
          1.348830379023634e-8 1.0689507969732485e-7 1.1473041436656385e-7 1.044014030637433e-7 1.0681049613479358e-7 7.946217811645193e-8
          8.613959428838592e-8 1.1454469761997195e-7 7.93692613489396e-8 7.410024753920289e-8 6.019031160294785e-8 4.3382830812981506e-8
          6.827199293805318e-8 3.521627214953349e-8 5.302291563317154e-8 8.63810201497214e-8 5.571884331677308e-8 6.317519004318583e-8
          5.3067529589436134e-8 6.112973145168491e-8 4.386022581415337e-8 4.7619886611062455e-8 4.661583573851355e-8 7.063153676959856e-8
          6.919193331393369e-8 5.137954740797155e-8 4.9081451465202336e-8 5.780266370851985e-8 4.667350971121913e-8 5.573800913636241e-8
          4.062489532704482e-8 4.750876215028543e-8 4.862312177205539e-8 6.652387595183737e-8 6.480250856150569e-8 5.439262897352606e-8
          1.630819068222818e-8 1.639737174393546e-8 1.7082621726877962e-8 1.6741443098774732e-8 1.6806964512071778e-8 1.7574583273394743e-8
          1.6617595632236824e-8 1.7698024636994285e-8 1.7846844497102955e-8 1.866801591957857e-8 1.8322609595248456e-8 1.9270637281759714e-8
          1.9527758570005015e-8 2.0426099519490927e-8 2.021393416855564e-8 1.8393353171718246e-8 1.9310454511895833e-8 1.81371515101512e-8
          2.034566116048354e-8 2.1488288796097368e-8 2.004833384210612e-8 1.2741587548486606e-8 1.3211243794039927e-8 1.3174412907834135e-8
          1.3640520150642825e-8 1.4511196953453189e-8 1.4985206953221968e-8 6.9487317143146355e-9 7.558968621644822e-9 7.924207437811305e-9
          9.492709966331763e-9 1.590495482900074e-8 1.6533420904333788e-8 1.6468415790688344e-8 1.720305529567516e-8 1.2643413941522538e-8
          1.2958568341611835e-8 1.4470613479356555e-8 3.7211301975538057e-9 4.215833989273128e-9 4.165580666521092e-9 4.711554994064572e-9
          5.695846001323807e-9 6.146800100915777e-9 2.7197813812233714e-9 3.3388465794010046e-9 3.773113686914222e-9 4.687222878115733e-9
          9.036503899454063e-9 9.199834954057045e-9 1.139185357725296e-8 1.327368892275061e-8 7.78912506179275e-9 7.974791760163255e-9
          1.0161716144932672e-8 1.3667111554112839e-8 1.4146694861240803e-8 1.4255501919030348e-8 1.4745064100991922e-8 1.5541647152266872e-8
          1.6185868661953983e-8 7.784586533633182e-9 8.389559658036728e-9 8.987465654635669e-9 1.0176603983373723e-8 1.5003963817446382e-8
          1.547959567344746e-8 1.5926367096992817e-8 1.638056962329827e-8 1.693796683579915e-8 1.7826488616010796e-8 9.223780093232266e-9
          9.765021837153463e-9 1.0747232535319178e-8 1.1424303412961258e-8 1.7226189857960945e-8 1.799091987220902e-8 1.7995363579756905e-8
          1.8844728703463553e-8 1.335923245716208e-8 1.3883986332320517e-8 1.6135062012270548e-8 1.8830459883339924e-8 1.9763244078925006e-8
          1.9740213624530083e-8 2.070828307543215e-8 1.4521778204510348e-8 1.5296401188294285e-8 1.747753742921881e-8 4.70463433525209e-9
          5.292106684029992e-9 5.3504363146537494e-9 5.970403469220284e-9 6.723924389218338e-9 7.44283575084989e-9 3.476294074469209e-9
          4.251639277365179e-9 4.787987911574498e-9 5.855325520974523e-9 6.074892486596949e-9 6.74771249816163e-9 6.874008577542909e-9
          7.626691872225441e-9 8.308505676823661e-9 9.318111137276798e-9 4.4395151398624165e-9 5.396814098906241e-9 6.093958400918137e-9
          7.43040403076747e-9 9.450562600918436e-9 9.920445876740467e-9 1.4312268438527203e-8 1.4673748160826512e-8 8.241686831716356e-9
          8.744304321362103e-9 1.3348731683329888e-8 1.0639390707610304e-8 1.1571482032549596e-8 1.5240799266106825e-8 1.5950540105502954e-8
          9.55048361239622e-9 1.0588361050263279e-8 1.3981339091862467e-8 1.739405937355805e-8 1.741934710608976e-8 1.774482549970887e-8
          1.744463483862147e-8 1.8011556251746388e-8 1.9097870939752252e-8 1.833750592671511e-8 2.005959092152192e-8 2.1088054909041616e-8
          2.068899588373309e-8 1.7865198938256316e-8 1.8732646475217445e-8 1.843871645566632e-8 1.966338750434984e-8 1.7718841624766245e-8
          1.8367422010682644e-8 1.853992698461753e-8 1.9598381605185973e-8 2.054005655477887e-8 2.079746724945789e-8 2.206514985600539e-8
          1.913717228885003e-8 1.9992058200516118e-8 2.0905938615182694e-8 2.0891458184646365e-8 2.135796123572122e-8 2.2417704824621654e-8
          2.273308748472463e-8 2.2455229607002033e-8 1.7009885663117773e-8 1.7455125092161198e-8 1.8870634790034522e-8 1.1487147675743732e-8
          1.195672555036864e-8 1.3444560815071434e-8 2.0808960030088822e-8 2.1777015001313217e-8 1.625690503257627e-8 1.9071573666856645e-8
          7.782563975578641e-9 8.631369358580815e-9 1.0490196144242921e-8 5.719145741258994e-9 6.9015765650255185e-9 9.414835413790369e-9
          1.2716605759442536e-8 1.6854550949045704e-8 1.1804234029185552e-8 1.565114159561864e-8 2.2207881008097186e-8 2.3303024735630864e-8
          2.1602490025749098e-8 2.3428872125389e-8 2.0997099043401007e-8 2.355471951514714e-8 3.221237201860026e-8 3.5991753764457505e-8
          1.0072648406363198e-7 4.858304151493375e-8 3.775253671120662e-8 8.105109606124495e-8 1.846395949600189e-8 9.544905280773263e-8
          3.216699137593894e-8 1.2673771760671298e-7 1.470285011440531e-7 1.2513101021038744e-7 1.119496839342987e-7 5.308221016333282e-8
          8.028477475327262e-8 8.029608349227927e-8 1.0748733934321242e-7 7.982038571651855e-8 1.4630998152271933e-7 6.430492772878635e-8
          1.590047264630871e-7 1.206715658976304e-7 2.0259013203020505e-7 2.601096802891013e-7 1.7703820406647446e-7 8.74322837596335e-9
          8.266831326418636e-9 1.0528343752601335e-8 1.5245580200994008e-8 6.428541662466903e-8 5.505718311050844e-8 7.75741621706668e-8
          5.921176691898906e-8 4.968129071647243e-8 6.638649253130796e-8 1.169772592287092e-7 9.480458253332903e-8 4.0150814513955796e-8
          5.5198822891949125e-8 8.940412043529103e-9 3.9540922615314986e-8 3.2335923479276736e-8 2.4212307047545614e-8 1.8646385496108902e-8
          2.5130924343238487e-8 1.308046394467219e-8 7.35903128069572e-8 5.685151711481631e-8 8.377608436050178e-8 7.951021014015911e-8
          1.0473151461239248e-7 1.0095959406737576e-7 6.836071379938137e-8 8.965816324342875e-8 7.069924675691229e-8 6.920262958912321e-8
          9.131176501850178e-8 5.2523760332192006e-8 5.435534367316453e-8 7.193232971184469e-8 7.150710267944719e-8 1.0872877592009618e-7
          1.0357660806541695e-7 6.022872598079405e-8 6.995322943322474e-8 1.1380568206002817e-7 1.2086967055611833e-7 6.733146690517544e-8
          1.0158146544197418e-7 1.2324498666713264e-7 1.0078239583082333e-7 1.0958423135099693e-7 1.2340427169866154e-7 1.1622297164094448e-7
          6.870897947785084e-8 1.2628701446039946e-7 1.1793234636103854e-7 9.628137091308111e-8 9.523068986667831e-8 9.463076011876007e-8
          9.100050971026259e-8 1.1615921972875954e-7 3.924897153793804e-8 6.489965506256744e-8 4.8915608653455876e-8 1.2329520245757827e-7
          1.2211749823101626e-7 1.2677481130981553e-7 5.911294470594729e-8 1.236611906795856e-7 1.0750664916093418e-7 1.3237108214738285e-7
          1.243795046189239e-7 9.399889344182118e-8 1.2085654765569102e-7 5.751199362870991e-8 6.445907617887988e-8 4.967961087361118e-8
          7.140615872904986e-8 1.5748434264439824e-8 1.239587419262639e-8 1.2868291404255249e-8 1.409822140085523e-8 6.661320092192811e-9
          7.313886268718978e-9 9.357159427761573e-9 1.6052404434219767e-8 1.5310537682062023e-8 1.5765341178297688e-8 1.239249685235349e-8
          3.3193671279951066e-9 3.783774069222105e-9 5.369224713737522e-9 2.396293807315945e-9 2.927924145076929e-9 4.224292190008349e-9
          8.946053607919785e-9 1.140183879881363e-8 7.67578444103686e-9 2.2399426038135373e-8 1.830485866566688e-8 1.8735123622287768e-8
          2.0103663124513944e-8 1.297302318259607e-8 1.3409250449401972e-8 1.4809222941390456e-8 2.4071522981042498e-8 2.2012574247150572e-8
          2.298321082418193e-8 1.745216712643856e-8 8.84251574035491e-9 9.798857841562224e-9 1.1854216829731767e-8 6.526464257714793e-9
          7.85003599076067e-9 1.0641990347871373e-8 1.4078223720356437e-8 1.7977406255523906e-8 1.3205738701094403e-8 1.6849130664099056e-8
          2.341716565457904e-8 2.2792825677378146e-8 2.4834052567727346e-8 2.2168485700177243e-8
        </DataArray>
        <DataArray type="Float64" Name="gradient_matprop_error" format="ascii" RangeMin="0" RangeMax="0">
          0 0 0 0 0 0
          0 0 0 0 0 0
          0 0 0 0 0 0
          0 0 0 0 0 0
          0 0 0 0 0 0
          0 0 0 0 0 0
          0 0 0 0 0 0
          0 0 0 0 0 0
          0 0 0 0 0 0
          0 0 0 0 0 0
          0 0 0 0 0 0
          0 0 0 0 0 0
          0 0 0 0 0 0
          0 0 0 0 0 0
          0 0 0 0 0 0
          0 0 0 0 0 0
          0 0 0 0 0 0
          0 0 0 0 0 0
          0 0 0 0 0 0
          0 0 0 0 0 0
          0 0 0 0 0 0
          0 0 0 0 0 0
          0 0 0 0 0 0
          0 0 0 0 0 0
          0 0 0 0 0 0
          0 0 0 0 0 0
          0 0 0 0 0 0
          0 0 0 0 0 0
          0 0 0 0 0 0
          0 0 0 0 0 0
          0 0 0 0 0 0
          0 0 0 0 0 0
          0 0 0 0 0 0
          0 0 0 0 0 0
          0 0 0 0 0 0
          0 0 0 0 0 0
          0 0 0 0 0 0
          0 0 0 0 0 0
          0 0 0 0 0 0
          0 0 0 0 0 0
          0 0 0 0 0 0
          0 0 0 0 0 0
          0 0 0 0 0 0
          0 0 0 0 0 0
          0 0 0 0 0 0
          0 0 0 0 0 0
          0 0 0 0 0 0
          0 0 0 0 0 0
          0 0 0 0 0 0
          0 0 0 0 0 0
          0 0 0 0 0 0
          0 0 0 0 0 0
          0 0 0 0 0 0
          0 0 0 0 0 0
          0 0 0 0 0 0
          0 0 0 0 0 0
          0 0 0 0 0 0
          0 0 0 0 0 0
          0 0 0 0 0 0
          0 0 0 0 0 0
          0 0 0 0 0 0
          0 0 0 0 0 0
          0 0 0 0 0 0
          0 0 0 0 0 0
          0 0 0 0 0 0
          0 0 0 0 0 0
          0 0 0 0 0 0
          0 0 0 0 0 0
          0 0 0 0 0 0
          0 0 0 0 0 0
          0 0 0 0 0 0
          0 0 0 0 0 0
          0 0 0 0 0 0
          0 0 0 0
        </DataArray>
        <DataArray type="Float64" Name="initial_marker" format="ascii" RangeMin="0" RangeMax="2">
          0 0 0 1 0 0
          2 2 0 0 0 0
          0 2 2 0.5 2 2
          1.5 2 2 2 0 0
          0 0 0 0.25 0 0
          0 0.5 0 0 0 0
          0 0 0 0 0 0
          1.5 2 1.75 1.25 2 2
          2 2 2 2 2 2
          1 1.5 1.5 2 2 2
          2 0 1 0 1 0
          1 1 2 2 2 2
          2 2 2 2 2 2
          2 2 2 2 2 2
          2 2 2 2 2 2
          2 2 2 2 1 0
          1 0 1 2 1 1
          1 1 0 0 0 1
          1 0 1 1 1 1
          0 0 0 1 1 0
          2 2 2 2 2 2
          2 2 2 2 2 2
          2 2 2 2 2 2
          2 2 2 2 2 2
          2 2 2 2 2 2
          2 2 2 2 2 2
          2 2 2 2 2 2
          2 2 2 2 2 2
          2 2 2 2 2 2
          2 2 2 2 2 2
          2 2 2 2 2 2
          2 2 2 2 2 2
          2 2 2 2 2 2
          2 2 2 2 2 2
          2 2 2 2 2 2
          2 2 2 2 2 2
          2 2 2 2 2 2
          2 2 2 2 2 2
          2 2 2 2 2 2
          2 2 2 2 2 2
          2 2 2 2 2 2
          2 2 2 2 2 2
          2 2 2 2 2 2
          2 2 2 2 2 2
          2 2 2 2 2 2
          2 2 2 2 2 2
          2 2 2 2 2 2
          2 2 2 2 2 2
          2 2 2 2 2 2
          2 2 2 2 0 0
          0 0 0 0 0 0
          0 0 0 1.5 0 0
          0 0 0 0 1.5 0
          1.5 0.5 2 2 1 0
          0 0 0 0 0 0
          0 0 0 1 0.25 0
          0 0 0 0 0 0
          0 0 1 0.5 2 1
          2 1.5 0 1 2 2
          2 0 0 1 1 2
          2 1 2 2 2 2
          2 2 2 2 2 2
          2 2 2 1.5 1.5 2
          2 2 0 1 1 2
          2 2 2 2 2 2
          2 2 2 1 1 0
          1 2 2 2 2 2
          2 2 2 2 2 2
          2 2 2 2 2 2
          2 2 2 2 2 2
          2 2 2 2 2 2
          2 2 2 2 2 2
          2 2 2 2 2 2
          2 2 2 2
        </DataArray>
        <DataArray type="Float64" Name="markers_norefine" format="ascii" RangeMin="0" RangeMax="2">
          0 0 0 0 0 0
          2 0 0 0 0 0
          0 0 0 0 1 0
          0 2 1.5 2 0 0
          0 0 0 0 0 0
          0 0 0 0 0 0
          0 0 0 0 0 0
          0 0 0 0 0 0
          0 0 0 0 0 0
          0 0 0 0.5 0 0.5
          0 0 0 0 0 0
          0 0 0 0 0 2
          2 0.5 2 2 2 2
          2 0.75 1.5 2 2 2
          2 0 0 0 0 0
          0 0 0 0 0 0
          0 0 0 0 0 0
          0 0 0 0 0 0
          0 0 0 0 0 0
          0 0 0 0 0 0
          0 0 0 0 0 0
          0 0 0 0.5 0 2
          1.5 2 0.5 0 0 0
          0 0 0 1 1 1
          1 1 1 2 2 2
          2 0.5 0.5 0 0 1.5
          1.5 1 2 2 2 2
          2 2 2 2 2 2
          2 2 2 1.6666666666666667 2 2
          2 1 1 1.5 1.25 1
          1 2 2 2 2 2
          1.75 2 2 1.25 1.5 2
          2 2 2 0.5 0.75 0
          0.5 1.5 1.75 0.6666666666666666 1 1
          1 1 2 2 1.6666666666666667 2
          2 2 2 2 2 2
          2 2 2 2 2 2
          2 2 2 2 2 2
          2 2 2 1.5 1.5 2
          2 2 2 2 1.75 2
          2 2 2 0 0.5 0
          1 0 0 0 0.5 1
          0 0.5 0.5 0 0 1
          1 0 0.75 1 0 0
          1 1 0 2 2 1
          0 0 2 2 1.5 2
          2 2 1 1 2 2
          2 2 2 2 2 2
          2 2 2 2 1 0
          1 0 1 0 0 0
          0 0 0 0 0 0
          0 0 0 0 0 0
          0 0 0 0 0 0
          0 0 0 0 0 0
          0 0 0 0 0 0
          0 0 0 0 0 0
          0 0 0 0 0 0
          0 0 0 0 0 0
          0 0 0 0 0 0
          0 0 0 0 0 0
          0 0 0.5 0 0 1
          0 0 0 0 0 0
          0 0 0 0 0 1
          0.5 0 0 0 0 0
          0 0 1.5 0 0 0
          0 0 0 0 0 0
          0 0 1 1 1 2
          2 2 0 0.5 0 1.5
          2 2 2 2 2 2
          2 2 2 2 2 2
          1.5 2 2 2 0 1
          1 2 2 2 2 2
          2 2 2 2 2 2
          1 1 0 1
        </DataArray>
        <DataArray type="Float64" Name="markers_mustrefine" format="ascii" RangeMin="0" RangeMax="2">
          0 0 0 1 0 0
          2 2 0 0 0 0
          0 2 2 0.5 2 2
          1.5 2 2 2 0 0
          0 0 0 0.25 0 0
          0 0.5 0 0 0 0
          0 0 0 0 0 0
          1.5 2 1.75 1.25 2 2
          2 2 2 2 2 2
          1 1.5 1.5 2 2 2
          2 0 1 0 1 0
          1 1 2 2 2 2
          2 2 2 2 2 2
          2 2 2 2 2 2
          2 2 2 2 2 2
          2 2 2 2 1 0
          1 0 1 2 1 1
          1 1 0 0 0 1
          1 0 1 1 1 1
          0 0 0 1 1 0
          2 2 2 2 2 2
          2 2 2 2 2 2
          2 2 2 2 2 2
          2 2 2 2 2 2
          2 2 2 2 2 2
          2 2 2 2 2 2
          2 2 2 2 2 2
          2 2 2 2 2 2
          2 2 2 2 2 2
          2 2 2 2 2 2
          2 2 2 2 2 2
          2 2 2 2 2 2
          2 2 2 2 2 2
          2 2 2 2 2 2
          2 2 2 2 2 2
          2 2 2 2 2 2
          2 2 2 2 2 2
          2 2 2 2 2 2
          2 2 2 2 2 2
          2 2 2 2 2 2
          2 2 2 2 2 2
          2 2 2 2 2 2
          2 2 2 2 2 2
          2 2 2 2 2 2
          2 2 2 2 2 2
          2 2 2 2 2 2
          2 2 2 2 2 2
          2 2 2 2 2 2
          2 2 2 2 2 2
          2 2 2 2 0 0
          0 0 0 0 0 0
          0 0 0 1.5 0 0
          0 0 0 0 1.5 0
          1.5 0.5 2 2 1 0
          0 0 0 0 0 0
          0 0 0 1 0.25 0
          0 0 0 0 0 0
          0 0 1 0.5 2 1
          2 1.5 0 1 2 2
          2 0 0 1 1 2
          2 1 2 2 2 2
          2 2 2 2 2 2
          2 2 2 1.5 1.5 2
          2 2 0 1 1 2
          2 2 2 2 2 2
          2 2 2 1 1 0
          1 2 2 2 2 2
          2 2 2 2 2 2
          2 2 2 2 2 2
          2 2 2 2 2 2
          2 2 2 2 2 2
          2 2 2 2 2 2
          2 2 2 2 2 2
          2 2 2 2
        </DataArray>
        <DataArray type="Float64" Name="gradient_marker" format="ascii" RangeMin="0" RangeMax="1">
          0.5 1 0.5 0.5 0.75 0.75
          0 1 0.75 1 1 1
          1 0.5 0.75 0.25 0.5 0.75
          0.5 0 0.25 0 0.5 0.375
          0.25 0.25 0.5 0.375 0 0
          0 0.25 0 1 1 1
          1 1 0 0 0 0
          0.25 0.75 0.625 0.5 0.5 0.5
          0.25 0.75 0.625 0 0.5 0.5
          0 0.5 0.5 0.5 0.5 0.5
          0.75 0 0.25 0 0.25 0
          0 0 0.75 0.75 0.3333333333333333 0
          0 0.375 0 0 0 0
          0 0.25 0.25 0 0 0
          0 0.75 0.75 0.75 0.75 0.5
          0.5 1 0 0 0 0
          0.25 0 0 0.3333333333333333 0 0.25
          0 0.25 0 0 0 0.5
          0.5 0 0 0.125 0 0
          0 0 0 0.25 0 0
          0 0 0 0 0 0
          0 0 0 0 0 0
          0 0 0 0 0 0
          0 0 0 0 0 0
          0 0 0 0 0 0
          0 0 0 0 0 0
          0 0 0 0 0 0
          0 0 0 0 0 0
          0 0 0 0 0 0
          0 0 0 0 0 0
          0 0 0 0 0 0
          0 0 0 0 0 0
          0 0 0 0 0 0
          0 0 0 0 0 0
          0 0 0 0 0 0
          0 0 0 0 0 0
          0 0 0 0 0 0
          0 0 0 0 0 0
          0 0 0 0 0 0
          0 0 0 0 0 0
          0 0 0 0 0 0
          0 0 0 0 0 0
          0 0 0 0 0 0
          0 0 0 0 0 0
          0 0 0 0 0 0
          0 0 0 0 0 0
          0 0 0 0 0 0
          0 0 0 0 0 0
          0 0 0 0 0 0
          0 0 0 0 0.75 1
          0.5 0.5 0.75 0.75 1 1
          1 0.5 0.5 0.5 0.5 0
          0.5 0.5 1 0.3333333333333333 0.625 0.5
          0.75 0.5 0.75 1 0.5 1
          1 0.5 1 0.75 1 0.5
          0.5 0.25 0.375 0.75 0.375 0
          0.25 0 0.25 0.125 0 0
          0 0 0.25 0.125 0 0
          0.5 0.5 0 0.5 0.5 0.5
          0.75 0 0 0.25 0.25 0.75
          0.75 0 0.5 0.875 1 0.5
          0.75 1 0.75 1 0.5 0.5
          0 0.5 0.5 0.5 0.5 0.5
          0.5 0.75 0 0.25 0 0.75
          0.75 0.75 0.25 0.75 0.625 0.75
          0.6666666666666666 0.5 0.75 0 0.25 0
          0.5 0 0 0 0 0
          0 0 0 0 0 0
          0 0 0 0 0 0
          0 0 0 0 0 0
          0 0 0 0 0 0
          0 0 0 0 0 0
          0 0 0 0 0 0
          0 0 0 0
        </DataArray>
        <DataArray type="Float64" Name="gradient_matprop_marker" format="ascii" RangeMin="0" RangeMax="0">
          0 0 0 0 0 0
          0 0 0 0 0 0
          0 0 0 0 0 0
          0 0 0 0 0 0
          0 0 0 0 0 0
          0 0 0 0 0 0
          0 0 0 0 0 0
          0 0 0 0 0 0
          0 0 0 0 0 0
          0 0 0 0 0 0
          0 0 0 0 0 0
          0 0 0 0 0 0
          0 0 0 0 0 0
          0 0 0 0 0 0
          0 0 0 0 0 0
          0 0 0 0 0 0
          0 0 0 0 0 0
          0 0 0 0 0 0
          0 0 0 0 0 0
          0 0 0 0 0 0
          0 0 0 0 0 0
          0 0 0 0 0 0
          0 0 0 0 0 0
          0 0 0 0 0 0
          0 0 0 0 0 0
          0 0 0 0 0 0
          0 0 0 0 0 0
          0 0 0 0 0 0
          0 0 0 0 0 0
          0 0 0 0 0 0
          0 0 0 0 0 0
          0 0 0 0 0 0
          0 0 0 0 0 0
          0 0 0 0 0 0
          0 0 0 0 0 0
          0 0 0 0 0 0
          0 0 0 0 0 0
          0 0 0 0 0 0
          0 0 0 0 0 0
          0 0 0 0 0 0
          0 0 0 0 0 0
          0 0 0 0 0 0
          0 0 0 0 0 0
          0 0 0 0 0 0
          0 0 0 0 0 0
          0 0 0 0 0 0
          0 0 0 0 0 0
          0 0 0 0 0 0
          0 0 0 0 0 0
          0 0 0 0 0 0
          0 0 0 0 0 0
          0 0 0 0 0 0
          0 0 0 0 0 0
          0 0 0 0 0 0
          0 0 0 0 0 0
          0 0 0 0 0 0
          0 0 0 0 0 0
          0 0 0 0 0 0
          0 0 0 0 0 0
          0 0 0 0 0 0
          0 0 0 0 0 0
          0 0 0 0 0 0
          0 0 0 0 0 0
          0 0 0 0 0 0
          0 0 0 0 0 0
          0 0 0 0 0 0
          0 0 0 0 0 0
          0 0 0 0 0 0
          0 0 0 0 0 0
          0 0 0 0 0 0
          0 0 0 0 0 0
          0 0 0 0 0 0
          0 0 0 0 0 0
          0 0 0 0
        </DataArray>
        <DataArray type="Float64" Name="combo" format="ascii" RangeMin="0" RangeMax="2">
          0.5 1 0.5 0.5 0.75 0.75
          2 1 0.75 1 1 1
          1 0.5 0.75 0.25 1.5 0.75
          0.5 2 1.75 2 0.5 0.375
          0.25 0.25 0.5 0.375 0 0
          0 0.25 0 1 1 1
          1 1 0 0 0 0
          0.25 0.75 0.625 0.5 0.5 0.5
          0.25 0.75 0.625 0 0.5 0.5
          0 0.5 0.5 1 0.5 1
          0.75 0 0.25 0 0.25 0
          0 0 0.75 0.75 0.3333333333333333 2
          2 0.875 2 2 2 2
          2 1 1.75 2 2 2
          2 0.75 0.75 0.75 0.75 0.5
          0.5 1 0 0 0 0
          0.25 0 0 0.3333333333333333 0 0.25
          0 0.25 0 0 0 0.5
          0.5 0 0 0.125 0 0
          0 0 0 0.25 0 0
          0 0 0 0 0 0
          0 0 0 0.5 0 2
          1.5 2 0.5 0 0 0
          0 0 0 1 1 1
          1 1 1 2 2 2
          2 0.5 0.5 0 0 1.5
          1.5 1 2 2 2 2
          2 2 2 2 2 2
          2 2 2 1.6666666666666667 2 2
          2 1 1 1.5 1.25 1
          1 2 2 2 2 2
          1.75 2 2 1.25 1.5 2
          2 2 2 0.5 0.75 0
          0.5 1.5 1.75 0.6666666666666666 1 1
          1 1 2 2 1.6666666666666667 2
          2 2 2 2 2 2
          2 2 2 2 2 2
          2 2 2 2 2 2
          2 2 2 1.5 1.5 2
          2 2 2 2 1.75 2
          2 2 2 0 0.5 0
          1 0 0 0 0.5 1
          0 0.5 0.5 0 0 1
          1 0 0.75 1 0 0
          1 1 0 2 2 1
          0 0 2 2 1.5 2
          2 2 1 1 2 2
          2 2 2 2 2 2
          2 2 2 2 1 0
          1 0 1 0 0.75 1
          0.5 0.5 0.75 0.75 1 1
          1 0.5 0.5 0.5 0.5 0
          0.5 0.5 1 0.3333333333333333 0.625 0.5
          0.75 0.5 0.75 1 0.5 1
          1 0.5 1 0.75 1 0.5
          0.5 0.25 0.375 0.75 0.375 0
          0.25 0 0.25 0.125 0 0
          0 0 0.25 0.125 0 0
          0.5 0.5 0 0.5 0.5 0.5
          0.75 0 0 0.25 0.25 0.75
          0.75 0 1 0.875 1 1.5
          0.75 1 0.75 1 0.5 0.5
          0 0.5 0.5 0.5 0.5 1.5
          1 0.75 0 0.25 0 0.75
          0.75 0.75 1.75 0.75 0.625 0.75
          0.6666666666666666 0.5 0.75 0 0.25 0
          0.5 0 1 1 1 2
          2 2 0 0.5 0 1.5
          2 2 2 2 2 2
          2 2 2 2 2 2
          1.5 2 2 2 0 1
          1 2 2 2 2 2
          2 2 2 2 2 2
          1 1 0 1
        </DataArray>
        <DataArray type="Float64" Name="dHdT" format="ascii" RangeMin="25.769456798631875" RangeMax="81.09873189246849">
          25.800010684785818 25.820040153527785 25.87900255771849 29.154728439582726 25.81917074214246 25.844663214156178
          46.099905738868785 35.36988218458415 26.086324055450753 25.819837282000712 25.81480239752644 25.824734754999927
          25.816262077927032 45.06506965262027 37.128705504357484 28.1283252906063 50.37215708569715 38.449727964238626
          31.050859799481117 45.664813999758515 68.37718857475573 64.11545932188048 26.696732623216974 26.863672604706313
          26.195369000083 27.35269824596118 26.437509293087178 26.80372995847353 25.95839698795656 26.022466143977056
          25.916322728181328 27.336541752216444 26.086535299997543 25.801294833458066 25.81044831287653 25.810013109348056
          25.806267771272204 25.80957790581958 25.769456798631875 25.788104675786716 25.802321306226226 25.806752552941553
          32.05523028352693 35.77331192737991 34.838239641638 33.13517993715993 42.23313593049021 32.123881498682906
          31.612964854124662 36.38001796994034 34.992193663474865 31.093566724267045 36.48822639418528 34.987305102494794
          30.246986768259188 32.80521122507161 32.547014783515536 48.58542187021199 43.718689220029816 45.13894934111891