<?xml version="1.0"?>
<VTKFile type="UnstructuredGrid" version="0.1" byte_order="LittleEndian" header_type="UInt32" compressor="vtkZLibDataCompressor">
  <UnstructuredGrid>
    <Piece NumberOfPoints="443" NumberOfCells="262">
      <PointData>
        <DataArray type="Int32" Name="libmesh_node_id" format="ascii" RangeMin="385" RangeMax="3562">
          491 923 924 925 931 973
          975 983 984 987 988 993
          994 1566 1567 1568 1569 1570
          1572 1573 1574 1575 1576 1577
          1740 1741 1742 1743 1744 1745
          1746 1747 1748 1750 1751 1752
          1753 1754 1755 1756 1757 1764
          1765 1768 1769 1770 1771 1772
          1773 1774 1775 1776 1777 1778
          1779 1784 1785 1810 1811 1813
          1816 1818 1819 1824 1825 2587
          2588 2589 2590 2591 2592 2593
          2594 2595 2814 2815 2816 2818
          2819 3039 3040 3041 3042 3043
          3044 3045 3046 3047 3048 3049
          3050 3051 3052 3053 3054 3055
          3056 3057 3058 3059 3060 3061
          3062 3063 3064 3065 3066 3067
          3068 3069 3070 3071 3072 3073
          3074 3075 3076 3077 3078 3079
          3080 3081 3082 3083 3084 3085
          3086 3087 3088 3089 3090 3091
          3092 3093 3094 3095 3096 3097
          3098 3099 3100 3101 3102 3103
          3104 3105 3106 3107 3108 3109
          3110 3111 3112 3113 3114 3115
          3116 3119 3121 3122 3123 3124
          3125 3126 3127 3128 3129 3130
          3131 3132 3133 3134 3136 3138
          3139 3140 3141 3142 3143 3144
          3147 3148 3150 3153 3155 3156
          3157 3158 3159 3160 3161 3162
          3163 3164 3166 3168 3170 3172
          3173 3174 3175 3176 3177 3178
          3179 3180 3181 3182 3183 3184
          3185 3186 3187 3188 3203 3204
          3205 3207 3208 3209 3220 3221
          3222 3223 3224 3225 3226 3227
          3228 3229 3240 3242 3244 3246
          3371 3372 3374 3379 3380 3381
          3382 3383 3384 3385 3386 3387
          3388 3390 3392 3396 3397 3398
          3399 3400 3401 3402 3413 3414
          3415 3416 3417 3418 3419 3420
          3421 3422 3430 3431 3432 3433
          3434 3435 3436 3437 3438 3439
          3440 3441 3442 3443 3444 3445
          3446 3457 3459 3461 3463 3471
          3472 3473 3474 3475 3476 3477
          3478 3479 3480 3491 3493 3495
          3497 385 974 976 500 977
          978 979 1662 1664 1665 1663
          1667 1666 1749 1758 1759 1760
          1761 1762 1763 502 1766 985
          1767 2093 2088 1798 1790 3117
          3118 2817 3120 3135 2820 3137
          3145 3146 3149 3151 3152 3154
          3165 3167 3169 3171 3189 3190
          3191 3192 3196 3197 3199 3200
          3202 3206 1782 3210 3211 3214
          3215 3217 3219 3230 3231 3234
          3236 3237 3239 3241 3243 3245
          1787 3247 3249 3251 3315 3266
          3316 3267 3317 3318 3322 3272
          3323 3335 3292 3336 3339 3296
          3340 3369 3370 3373 3375 1808
          3377 3376 1809 3378 3389 3391
          3394 3393 1812 3395 3405 3406
          3408 1814 3411 1815 3424 3426
          3428 1817 3447 3448 3451 3453
          3454 3456 3458 3460 3462 1822
          3464 3468 3481 3482 3485 3487
          3488 3490 3492 3494 3496 1827
          3498 3502 3561 3513 3562
        </DataArray>
        <DataArray type="Float64" Name="bounds" format="ascii" RangeMin="0" RangeMax="0">
          0 0 0 0 0 0
          0 0 0 0 0 0
          0 0 0 0 0 0
          0 0 0 0 0 0
          0 0 0 0 0 0
          0 0 0 0 0 0
          0 0 0 0 0 0
          0 0 0 0 0 0
          0 0 0 0 0 0
          0 0 0 0 0 0
          0 0 0 0 0 0
          0 0 0 0 0 0
          0 0 0 0 0 0
          0 0 0 0 0 0
          0 0 0 0 0 0
          0 0 0 0 0 0
          0 0 0 0 0 0
          0 0 0 0 0 0
          0 0 0 0 0 0
          0 0 0 0 0 0
          0 0 0 0 0 0
          0 0 0 0 0 0
          0 0 0 0 0 0
          0 0 0 0 0 0
          0 0 0 0 0 0
          0 0 0 0 0 0
          0 0 0 0 0 0
          0 0 0 0 0 0
          0 0 0 0 0 0
          0 0 0 0 0 0
          0 0 0 0 0 0
          0 0 0 0 0 0
          0 0 0 0 0 0
          0 0 0 0 0 0
          0 0 0 0 0 0
          0 0 0 0 0 0
          0 0 0 0 0 0
          0 0 0 0 0 0
          0 0 0 0 0 0
          0 0 0 0 0 0
          0 0 0 0 0 0
          0 0 0 0 0 0
          0 0 0 0 0 0
          0 0 0 0 0 0
          0 0 0 0 0 0
          0 0 0 0 0 0
          0 0 0 0 0 0
          0 0 0 0 0 0
          0 0 0 0 0 0
          0 0 0 0 0 0
          0 0 0 0 0 0
          0 0 0 0 0 0
          0 0 0 0 0 0
          0 0 0 0 0 0
          0 0 0 0 0 0
          0 0 0 0 0 0
          0 0 0 0 0 0
          0 0 0 0 0 0
          0 0 0 0 0 0
          0 0 0 0 0 0
          0 0 0 0 0 0
          0 0 0 0 0 0
          0 0 0 0 0 0
          0 0 0 0 0 0
          0 0 0 0 0 0
          0 0 0 0 0 0
          0 0 0 0 0 0
          0 0 0 0 0 0
          0 0 0 0 0 0
          0 0 0 0 0 0
          0 0 0 0 0 0
          0 0 0 0 0 0
          0 0 0 0 0 0
          0 0 0 0 0
        </DataArray>
        <DataArray type="Float64" Name="gradient_error" format="ascii" RangeMin="5.287581364343149e-12" RangeMax="1.7305024588264342e-7">
          1.2796636280544787e-8 1.0334085862477714e-9 8.28773831900813e-10 2.7094440905701627e-9 9.29577876614903e-9 1.714466411905494e-10
          1.312347544504391e-10 3.7915594052989476e-10 2.3763760428170546e-10 2.267030247042629e-8 7.793618597360797e-9 3.598276378349519e-8
          2.778712995990585e-8 4.0107279819341765e-9 3.586583383871281e-9 8.439607636867716e-10 1.5249531453859522e-9 1.4366416940019947e-9
          3.162438785808385e-9 1.176797110638372e-9 2.8848499297051713e-8 2.5509715294020455e-8 1.1288762282248676e-8 2.239488349295421e-8
          2.3156145762394588e-10 2.864379722667605e-10 1.6972826418363851e-10 1.88375686749496e-10 8.645876500818978e-11 6.818529777323333e-11
          6.289467152616959e-11 3.4367376889577774e-10 4.043741672372605e-10 8.910229578626754e-10 7.378182722666313e-10 3.0472889858471657e-10
          5.771882149648802e-10 2.4446503369818462e-11 2.238044647187343e-11 6.301161784144572e-11 5.4682148824754684e-11 1.7654014899492488e-10
          1.431809438851419e-10 8.60923017835618e-9 6.748720501866148e-9 4.290562530938962e-9 3.267256257877829e-9 3.2403710280751258e-9
          1.4494721372682906e-9 3.795600937697987e-8 3.085113406939654e-8 1.7924498383101397e-8 1.4582655768481848e-8 1.7878174973307136e-9
          1.3410216660447937e-9 1.1008167696450701e-8 8.425931047866037e-9 4.238532708278486e-8 4.138375677842033e-8 2.048364218235956e-8
          4.818880614449071e-8 2.4784298596956205e-8 2.158662087064118e-8 2.7911832092618085e-8 2.7726166443622646e-8 2.977679102199348e-10
          4.2662031656600156e-10 4.027242129347487e-10 3.4839882524682986e-10 1.8672576089419784e-9 2.0743591565629485e-10 2.737191391369741e-10
          2.2946873708378432e-10 1.3358696156721652e-9 4.415613815169051e-9 4.22980341461747e-9 3.780825773017332e-9 3.09585579305074e-9
          2.2639197896531572e-9 2.2358787996696842e-10 2.1062219111072492e-10 3.770732736048921e-10 3.5771994634204755e-10 1.0231811528055215e-10
          2.6352492859037647e-10 2.5168004279138397e-10 1.8144336131232925e-10 3.110333843475751e-10 2.2062823065504732e-10 1.5083513029191682e-9
          1.4451231082679585e-9 8.503997115727371e-10 1.2761138230649719e-9 6.986548865432121e-11 6.655956606561364e-11 1.6238159069715946e-10
          1.5517771211150226e-10 4.353583711556744e-11 1.0136335253832416e-10 9.685415651285351e-11 5.991413325023863e-11 1.3620594918191567e-10
          8.484498074621679e-11 5.890548264672142e-10 5.590388491829219e-10 3.5897869246815665e-10 4.778423149760832e-10 1.60099467385559e-10
          2.480121318386974e-10 9.440506931814968e-11 1.8006120143742426e-10 1.549687144009409e-10 2.1232411406144784e-10 1.5870109855714518e-10
          1.0207629620780622e-9 5.754173686728741e-10 9.204546714236523e-10 6.235567361350426e-11 1.1273484055704548e-10 3.931059322225274e-11
          6.992637169093433e-11 6.81367242034373e-11 1.010316162761047e-10 6.25077423768179e-11 3.654128101977347e-10 2.3182295155662357e-10
          3.066272638583799e-10 3.3063012793290054e-11 3.16331991527078e-11 6.181669174878237e-11 5.898250939181349e-11 2.8154097645918687e-11
          4.614623327826492e-11 4.3967724147503056e-11 2.818648622642611e-11 5.161067673796695e-11 3.83547724855573e-11 2.3627975656069985e-10
          2.2344205343475297e-10 1.6768570994001416e-10 1.8904684512804951e-10 2.577913335068201e-11 4.1798109901155906e-11 2.1601307962390812e-11
          3.1395879200106534e-11 2.5388679760637353e-11 3.652319336122255e-11 2.7871428445839668e-11 1.4296023286051878e-10 1.0613488797928889e-10
          1.191402130835547e-10 3.972806176722335e-9 3.783321311658273e-9 2.9834371136874756e-9 2.8159331402765945e-9 3.302669457460386e-9
          2.3718904864824154e-9 8.105377288251974e-9 2.0368601033592206e-9 1.9166257929031052e-9 1.3529937792583678e-9 1.2704976691362087e-9
          1.5982267429677937e-9 1.0524055893821692e-9 6.170892004199163e-9 5.7876811192256655e-9 4.009975392576608e-9 4.762385057621336e-9
          2.625923111498494e-9 1.7932917532854721e-9 1.8781539159878682e-9 1.2259613498147448e-9 4.962374222411498e-9 1.185477620227581e-9
          7.722232018772481e-10 7.898196106134779e-10 5.07137067949796e-10 3.431968423401958e-9 2.3201682926417976e-9 2.1850252182504556e-9
          1.987074388978064e-8 1.876820958494939e-8 1.570293803083407e-8 3.622694432049429e-8 1.5183585200735058e-8 1.4296778806986334e-8
          1.1119532696352889e-8 1.0433433360049875e-8 1.1843179804457137e-8 8.545228386823921e-9 3.017818240661947e-8 2.8649931508270183e-8
          2.146118874030192e-8 2.4110563840863334e-8 1.1522985195709906e-8 7.409493946840084e-9 2.2786792918405364e-8 8.514111573284434e-9
          6.021334153529692e-9 5.3002240140951756e-9 3.6515648023701173e-9 1.753036600548188e-8 1.2845326007902974e-8 1.0920036569003247e-8
          8.707361261978014e-10 8.162821038735047e-10 5.375164377236842e-10 5.034221592672257e-10 6.72799636112765e-10 4.1373527708109554e-10
          2.841547385335173e-9 2.6498050564974347e-9 1.6644078580205833e-9 2.145284748986613e-9 4.899320146988959e-10 2.9979027428809465e-10
          3.185543940622092e-10 1.508010174706974e-9 9.360167083899062e-10 9.297552458493033e-10 7.712190963037187e-9 7.204313376604847e-9
          5.009040212055157e-9 4.662106541459349e-9 5.8275989484667195e-9 3.735935250071933e-9 1.6224695915467727e-8 1.531570550851302e-8
          1.0337929247504174e-8 1.2669428672846723e-8 4.035228188998487e-9 2.4004720010502947e-9 8.90938735287146e-9 5.26279508187433e-9
          5.358548745294044e-8 5.30922929291411e-8 4.8893825210497105e-8 4.515117873778051e-8 4.4253284270517935e-8 3.600358715681206e-8
          3.4844469233120293e-8 3.9591378657322536e-8 3.0330910579695664e-8 4.9693158240416906e-8 5.153759562940312e-8 4.323720477604829e-8
          5.160973100048779e-8 3.814866582694544e-8 2.4626725263167407e-8 2.998035688638785e-8 2.241536058649299e-8 1.8894164918571513e-8
          1.381708521378112e-8 4.2576000337028285e-8 3.251589928115873e-8 2.7675069045215562e-8 4.535981303262445e-8 5.012557196308979e-8
          3.916192679538402e-8 4.323907916164411e-8 5.6453153601877944e-8 4.698091914260374e-8 4.245519688633296e-8 4.835982331298797e-8
          4.159043612102116e-8 5.7263330950467324e-8 5.100672945719123e-8 3.9854643704363374e-8 3.4571093899431437e-8 2.5769121146370377e-8
          5.3728969929463035e-8 4.2401232376165954e-8 3.715736557887149e-8 2.6683956591420015e-8 2.5616957960016925e-8 1.8547400766588844e-8
          1.772357733285466e-8 2.1944076938998615e-8 1.5004220142483026e-8 3.418837225775112e-8 3.399213209310595e-8 2.429117064381431e-8
          3.09716604890991e-8 1.5927564726650946e-8 9.566468260670816e-9 2.3449923728696767e-8 1.4413153783463029e-8 3.506073504882116e-8
          3.691278355018236e-8 2.7559715332904596e-8 2.7913057806422318e-8 3.6706993622501474e-8 2.615559952341329e-8 3.376401719942717e-8
          3.6824836377883885e-8 2.87956742917435e-8 3.842713164728767e-8 2.9156729602266955e-8 1.8275853495889722e-8 3.125616317341075e-8
          1.9756406614828333e-8 1.2508397714582305e-9 2.2564051985633294e-10 1.5178976952298315e-10 8.284728673026476e-11 4.3804120919412744e-11
          1.8181354108046666e-11 2.5496125013937665e-11 1.7305024588264342e-7 8.487047084078e-8 7.19624247849408e-8 1.4928520192613433e-7
          4.262273200657592e-8 9.21095876971518e-8 1.415848975338791e-10 5.287581364343149e-12 6.187949120957137e-11 5.4038025803245985e-11
          2.051415585510354e-11 6.074825688871138e-11 3.6561908131912726e-11 9.729142090590282e-11 8.106223955820223e-11 4.822376193269972e-11
          9.891177626707451e-11 5.932065417323915e-11 1.6511195152196361e-10 1.437308034376654e-10 3.816097993019203e-10 1.2474729960540882e-8
          1.1663738200141925e-8 1.3901084481702368e-8 9.768369801502515e-9 7.378032389219084e-9 8.902627461167719e-9 4.901796750612802e-9
          2.5863194103492617e-8 2.4221990532850282e-8 2.0417096962959188e-8 4.4740303016789016e-8 4.287603464341011e-8 3.714545064159932e-8
          1.5561758516174228e-8 1.0222388056401595e-8 2.8258748577898466e-8 1.8607630729847757e-8 1.360487965850738e-10 1.2830269638338918e-10
          3.161927137186809e-10 2.960086006996265e-10 1.0732755749535819e-10 2.4292544599931347e-10 1.0657090413021658e-9 9.90933066373425e-10
          7.960161678549697e-10 1.9363602469766935e-10 5.725065079909727e-10 8.014828176650992e-11 1.756953733330705e-10 5.410669829509265e-11
          1.1332460438020633e-10 5.536404299806717e-10 3.374453450045781e-10 3.046855844158383e-9 2.829129178053267e-9 2.252881780589886e-9
          6.949521994922193e-9 6.4905171350713636e-9 5.218014960710379e-9 2.5554463301709355e-9 1.5004620622759305e-9 5.800252175795141e-9
          3.3508283415888367e-9 1.5284758712572174e-9 8.906300262638387e-10 3.5334169707585944e-9 9.908054379236059e-11 1.6140136115319776e-10
          1.8635542350315793e-10 3.00320840959826e-10 5.959741101604989e-11 1.1281734281606452e-10 5.116172734921543e-10 8.096913134730466e-10
          3.125419383971195e-10 1.2571870698968463e-9 1.9508876884659372e-9 7.760110578383266e-10 2.6638441211371934e-9 4.055121203147714e-9
          1.6640505843969802e-9 6.109228627105796e-8 6.089194619682607e-8 5.727504745202955e-8 6.480128197074522e-8 5.759396568208396e-8
          5.978148785201998e-8 6.72403790647417e-8 6.120007492862855e-8 6.932947481229967e-8 4.606438431190324e-8 3.0580327598809355e-8
          5.2708567202663025e-8 6.169248932120242e-8 3.558855268665527e-8 4.305000217398416e-8 5.28839827195311e-8 5.820538802466744e-8
          6.552847624914063e-8 4.8966000747751385e-8 5.6236270983693304e-8 6.626970746967058e-8 6.153163469103561e-8 4.4082341077006786e-8
          6.419256884320403e-8 4.7230359045450066e-8 1.2218340830096573e-8 1.1591180920261009e-8 9.620551666151814e-9 1.6713005550911086e-8
          1.6262246458724866e-8 1.4197880375913745e-8 1.0670550363307471e-8 6.2239714851312176e-9 1.5996882665141823e-8 9.563642096521767e-9
          6.663997538934354e-9 1.0236077624287493e-8 1.8838924189294688e-8 1.8877402569424132e-8 1.738177756710437e-8 1.924810518368069e-8
          1.9571746520153367e-8 1.8465122353237216e-8 2.0074201493398974e-8 1.2262968699989039e-8 2.1595066716927188e-8 1.3294899521278626e-8
          1.303542875939808e-8 1.4080776754025415e-8 4.798515011403588e-9 7.1692104359550965e-9 3.035652860123011e-9
        </DataArray>
        <DataArray type="Float64" Name="gradient_matprop_error" format="ascii" RangeMin="0" RangeMax="0">
          0 0 0 0 0 0
          0 0 0 0 0 0
          0 0 0 0 0 0
          0 0 0 0 0 0
          0 0 0 0 0 0
          0 0 0 0 0 0
          0 0 0 0 0 0
          0 0 0 0 0 0
          0 0 0 0 0 0
          0 0 0 0 0 0
          0 0 0 0 0 0
          0 0 0 0 0 0
          0 0 0 0 0 0
          0 0 0 0 0 0
          0 0 0 0 0 0
          0 0 0 0 0 0
          0 0 0 0 0 0
          0 0 0 0 0 0
          0 0 0 0 0 0
          0 0 0 0 0 0
          0 0 0 0 0 0
          0 0 0 0 0 0
          0 0 0 0 0 0
          0 0 0 0 0 0
          0 0 0 0 0 0
          0 0 0 0 0 0
          0 0 0 0 0 0
          0 0 0 0 0 0
          0 0 0 0 0 0
          0 0 0 0 0 0
          0 0 0 0 0 0
          0 0 0 0 0 0
          0 0 0 0 0 0
          0 0 0 0 0 0
          0 0 0 0 0 0
          0 0 0 0 0 0
          0 0 0 0 0 0
          0 0 0 0 0 0
          0 0 0 0 0 0
          0 0 0 0 0 0
          0 0 0 0 0 0
          0 0 0 0 0 0
          0 0 0 0 0 0
          0 0 0 0 0 0
          0 0 0 0 0 0
          0 0 0 0 0 0
          0 0 0 0 0 0
          0 0 0 0 0 0
          0 0 0 0 0 0
          0 0 0 0 0 0
          0 0 0 0 0 0
          0 0 0 0 0 0
          0 0 0 0 0 0
          0 0 0 0 0 0
          0 0 0 0 0 0
          0 0 0 0 0 0
          0 0 0 0 0 0
          0 0 0 0 0 0
          0 0 0 0 0 0
          0 0 0 0 0 0
          0 0 0 0 0 0
          0 0 0 0 0 0
          0 0 0 0 0 0
          0 0 0 0 0 0
          0 0 0 0 0 0
          0 0 0 0 0 0
          0 0 0 0 0 0
          0 0 0 0 0 0
          0 0 0 0 0 0
          0 0 0 0 0 0
          0 0 0 0 0 0
          0 0 0 0 0 0
          0 0 0 0 0 0
          0 0 0 0 0
        </DataArray>
        <DataArray type="Float64" Name="initial_marker" format="ascii" RangeMin="0" RangeMax="2">
          2 0 0 0 1.25 0
          0 2 1 2 2 2
          2 1 1 0 0.5 0.5
          1 0.3333333333333333 2 2 2 2
          0 0 0 0 0 0
          0 0 0 2 2 2
          1 0 0 0 0 1.5
          1.25 2 2 2 2 2
          2 2 2 2 2 2
          2 2 2 2 2 2
          2 2 2 2 2 0
          1 1 1 2 0 0.5
          0 1.5 2 2 2 2
          2 0 0 1 1 0
          1 1 0 1 1 2
          2 2 2 0 0 1
          1 0 1 1 0 1
          1 2 2 2 2 0
          0.5 0 0.5 0 0 0
          1.5 1.5 1.3333333333333333 0 0.5 0
          0.5 0 0 0 1.5 1.5
          1.3333333333333333 0 0 1 1 0
          1 1 0 0.75 0.5 2
          2 2 1.75 0 0.25 0
          0 0 0 0 1.25 1.3333333333333333
          1.3333333333333333 2 2 2 2 2
          2 2 2 2 2 2
          2 2 2 2 2 2
          2 2 2 2 2 2
          2 2 2 2 2 2
          2 2 2 2 2 2
          2 2 2 2 2 2
          2 2 2 2 2 2
          2 2 2 2 2 2
          2 2 2 2 2 2
          2 2 2 2 2 2
          2 2 2 2 2 2
          2 2 2 2 2 2
          2 2 2 2 2 2
          2 2 2 2 2 2
          2 2 2 2 2 2
          2 2 2 2 2 2
          2 2 2 2 2 2
          2 2 2 2 2 2
          2 2 2 2 2 2
          2 2 2 2 2 2
          2 2 2 2 2 2
          2 2 2 2 2 2
          2 2 2 2 2 2
          2 2 2 2 2 2
          2 0 0 0 0 0
          0 0 2 2 2 2
          2 2 0 0 0 0
          0 0 0 1 1 0.25
          0.75 0 0 0 0 2
          2 2 2 2 2 2
          2 2 2 2 2 2
          2 2 2 2 2 2
          2 2 2 2 2 2
          2 1.75 2 2 2 1
          1.5 2 2 2 2 2
          2 2 2 2 2 2
          2 2 2 2 1 1
          1.5 1.5 0.5 1.25 2 2
          2 2 2 2 2 2
          2 2 2 2 2 2
          2 2 2 2 2 2
          2 2 2 2 2 2
          2 2 2 2 2 2
          2 2 2 2 2 2
          2 2 2 2 2 2
          2 2 2 2 2 2
          2 2 2 2 2 2
          2 2 2 2 2
        </DataArray>
        <DataArray type="Float64" Name="markers_norefine" format="ascii" RangeMin="0" RangeMax="2">
          0 0 0 0 0 0
          0 0 0 0 0 2
          0 0 0 0 0 0
          0 0 0 0 0 0
          0 0 0 0 0 0
          0 0 0 0 0 0
          0 0 0 0 0 0
          0 0 0 0 0 0
          0 0 0 0 0 0
          0 0 0 0.5 0.25 0
          0.5 0 0 0 0 0
          0 0 0 0 0 0
          0 0 0 0 0 0
          0 0 0 0 0 0
          0 0 0 0 0 0
          0 0 0 0 0 0
          0 0 0 0 0 0
          0 0 0 0 0 0
          0 0 0 0 0 0
          0 0 0 0 0 0
          0 0 0 0 0 0
          0 0 0 0 0 0
          0 0 0 0 0 0
          0 0 0 0 0 0
          0 0 0 0 0 0
          0 0 0 0 0 0
          0 0 0 0 0 0
          0 0 0 0 0 0
          0 0 0 0 0 0
          0 0 0 0 0 0
          0 0 0 0 0 0
          0 0 0 0 0 0
          0 0 0 0 0 0
          0 0 0 0 0 0
          0 0 0 0 0 0
          0 0 0 0 0 0
          0 0 0 0 0 0
          0 0 0 0 0 0
          0 0 0 0 0 0
          1 0.75 0.25 0.5 0.25 0
          0 0 0 1.5 1.25 0.5
          0.5 0 0 0 0 0
          0 0 0 0 2 2
          1.5 1.25 1.25 0.5 2 2
          1.5 1.5 0.25 0 0 0
          0.5 0 0 0 0 0
          0 0 0 0 0 0
          0 0 0 0 0 0.5
          0.25 0 0 0 0 1
          0.5 0 0 0 0 0
          0 0 0 0 0 0
          0 0 0 0 0 0
          0 0 0 0 0 0
          0 0 0 0 0 0
          0 0 0 0 0 0
          0 0 0 0 0 0
          0 0 0 0 0 0
          0 0 0 0 0 0
          0 0 0 0 0 0
          0 0 0 0 0 0
          0 0 0 0 0 0
          0 0 0 0 0 0
          0 0 0 0 0 0
          0 0 0 0 0 0
          0 0 0 0 0 0
          0 1 1 0.75 2 2
          1.75 2 1 1.75 0.25 0
          0.25 0.75 0 0 2 2
          1.75 2 2 2 0.75 0
          1 0 0 0 0 0
          0 0 0 0 0 0
          0 0 0 0 0 0
          0 0 0 0 0 0
          0 0 0 0 0
        </DataArray>
        <DataArray type="Float64" Name="markers_mustrefine" format="ascii" RangeMin="0" RangeMax="2">
          2 0 0 0 1.25 0
          0 2 1 2 2 2
          2 1 1 0 0.5 0.5
          1 0.3333333333333333 2 2 2 2
          0 0 0 0 0 0
          0 0 0 2 2 2
          1 0 0 0 0 1.5
          1.25 2 2 2 2 2
          2 2 2 2 2 2
          2 2 2 2 2 2
          2 2 2 2 2 0
          1 1 1 2 0 0.5
          0 1.5 2 2 2 2
          2 0 0 1 1 0
          1 1 0 1 1 2
          2 2 2 0 0 1
          1 0 1 1 0 1
          1 2 2 2 2 0
          0.5 0 0.5 0 0 0
          1.5 1.5 1.3333333333333333 0 0.5 0
          0.5 0 0 0 1.5 1.5
          1.3333333333333333 0 0 1 1 0
          1 1 0 0.75 0.5 2
          2 2 1.75 0 0.25 0
          0 0 0 0 1.25 1.3333333333333333
          1.3333333333333333 2 2 2 2 2
          2 2 2 2 2 2
          2 2 2 2 2 2
          2 2 2 2 2 2
          2 2 2 2 2 2
          2 2 2 2 2 2
          2 2 2 2 2 2
          2 2 2 2 2 2
          2 2 2 2 2 2
          2 2 2 2 2 2
          2 2 2 2 2 2
          2 2 2 2 2 2
          2 2 2 2 2 2
          2 2 2 2 2 2
          2 2 2 2 2 2
          2 2 2 2 2 2
          2 2 2 2 2 2
          2 2 2 2 2 2
          2 2 2 2 2 2
          2 2 2 2 2 2
          2 2 2 2 2 2
          2 2 2 2 2 2
          2 2 2 2 2 2
          2 2 2 2 2 2
          2 2 2 2 2 2
          2 0 0 0 0 0
          0 0 2 2 2 2
          2 2 0 0 0 0
          0 0 0 1 1 0.25
          0.75 0 0 0 0 2
          2 2 2 2 2 2
          2 2 2 2 2 2
          2 2 2 2 2 2
          2 2 2 2 2 2
          2 1.75 2 2 2 1
          1.5 2 2 2 2 2
          2 2 2 2 2 2
          2 2 2 2 1 1
          1.5 1.5 0.5 1.25 2 2
          2 2 2 2 2 2
          2 2 2 2 2 2
          2 2 2 2 2 2
          2 2 2 2 2 2
          2 2 2 2 2 2
          2 2 2 2 2 2
          2 2 2 2 2 2
          2 2 2 2 2 2
          2 2 2 2 2 2
          2 2 2 2 2
        </DataArray>
        <DataArray type="Float64" Name="gradient_marker" format="ascii" RangeMin="0" RangeMax="1">
          0.5 0.5 0.5 0.5 0.5 1
          1 1 1 1 1 1
          1 0 0 0.5 0.5 0.5
          0 0.6666666666666666 0 0 0.5 0
          1 1 1 1 1 1
          1 1 1 1 1 1
          1 1 1 1 1 1
          1 1 1 1 1 1
          1 1 1 1 1 1
          1 1 1 1 1 1
          1 1 1 1 1 1
          1 1 1 1 1 1
          1 1 1 1 1 1
          1 1 1 1 1 1
          1 1 1 1 1 1
          1 1 1 1 1 1
          1 1 1 1 1 1
          1 1 1 1 1 1
          1 1 1 1 1 1
          1 1 1 1 1 1
          1 1 1 1 1 1
          1 1 1 1 1 1
          1 1 1 1 1 1
          1 1 1 1 1 1
          1 1 1 1 1 1
          1 1 1 1 1 1
          1 1 1 1 1 1
          1 1 1 1 1 1
          1 1 1 1 1 1
          1 1 1 1 1 1
          1 1 1 1 1 1
          1 1 1 1 1 1
          1 1 1 1 1 1
          1 1 1 1 1 1
          1 1 1 1 1 1
          1 1 1 1 1 1
          1 1 1 1 1 1
          1 1 1 1 1 1
          1 1 1 1 1 1
          1 1 1 1 1 1
          1 1 1 1 1 1
          1 1 1 1 1 1
          1 1 1 1 1 1
          1 1 1 1 1 1
          1 1 1 1 1 1
          1 1 1 1 1 1
          1 1 1 1 1 1
          1 1 1 1 1 1
          1 1 1 1 1 1
          1 1 1 1 1 1
          1 0.75 1 1 1 1
          1 1 0.5 0.75 0.75 0.5
          0.625 0.25 1 1 1 1
          1 1 1 1 1 1
          1 1 1 1 1 1
          1 1 1 1 1 1
          1 1 1 1 1 1
          1 1 1 1 1 1
          1 1 1 1 1 1
          1 1 1 1 1 1
          1 1 1 1 1 1
          1 1 1 1 1 1
          1 1 1 1 1 1
          1 1 1 1 1 1
          1 1 1 1 1 1
          1 1 1 1 1 1
          1 1 1 1 1 1
          1 1 1 1 1 1
          1 1 1 1 1 1
          1 1 1 1 1 1
          1 1 1 1 1 1
          1 1 1 1 1 1
          1 1 1 1 1 1
          1 1 1 1 1
        </DataArray>
        <DataArray type="Float64" Name="gradient_matprop_marker" format="ascii" RangeMin="0" RangeMax="0">
          0 0 0 0 0 0
          0 0 0 0 0 0
          0 0 0 0 0 0
          0 0 0 0 0 0
          0 0 0 0 0 0
          0 0 0 0 0 0
          0 0 0 0 0 0
          0 0 0 0 0 0
          0 0 0 0 0 0
          0 0 0 0 0 0
          0 0 0 0 0 0
          0 0 0 0 0 0
          0 0 0 0 0 0
          0 0 0 0 0 0
          0 0 0 0 0 0
          0 0 0 0 0 0
          0 0 0 0 0 0
          0 0 0 0 0 0
          0 0 0 0 0 0
          0 0 0 0 0 0
          0 0 0 0 0 0
          0 0 0 0 0 0
          0 0 0 0 0 0
          0 0 0 0 0 0
          0 0 0 0 0 0
          0 0 0 0 0 0
          0 0 0 0 0 0
          0 0 0 0 0 0
          0 0 0 0 0 0
          0 0 0 0 0 0
          0 0 0 0 0 0
          0 0 0 0 0 0
          0 0 0 0 0 0
          0 0 0 0 0 0
          0 0 0 0 0 0
          0 0 0 0 0 0
          0 0 0 0 0 0
          0 0 0 0 0 0
          0 0 0 0 0 0
          0 0 0 0 0 0
          0 0 0 0 0 0
          0 0 0 0 0 0
          0 0 0 0 0 0
          0 0 0 0 0 0
          0 0 0 0 0 0
          0 0 0 0 0 0
          0 0 0 0 0 0
          0 0 0 0 0 0
          0 0 0 0 0 0
          0 0 0 0 0 0
          0 0 0 0 0 0
          0 0 0 0 0 0
          0 0 0 0 0 0
          0 0 0 0 0 0
          0 0 0 0 0 0
          0 0 0 0 0 0
          0 0 0 0 0 0
          0 0 0 0 0 0
          0 0 0 0 0 0
          0 0 0 0 0 0
          0 0 0 0 0 0
          0 0 0 0 0 0
          0 0 0 0 0 0
          0 0 0 0 0 0
          0 0 0 0 0 0
          0 0 0 0 0 0
          0 0 0 0 0 0
          0 0 0 0 0 0
          0 0 0 0 0 0
          0 0 0 0 0 0
          0 0 0 0 0 0
          0 0 0 0 0 0
          0 0 0 0 0 0
          0 0 0 0 0
        </DataArray>
        <DataArray type="Float64" Name="combo" format="ascii" RangeMin="0" RangeMax="2">
          0.5 0.5 0.5 0.5 0.5 1
          1 1 1 1 1 2
          1 0 0 0.5 0.5 0.5
          0 0.6666666666666666 0 0 0.5 0
          1 1 1 1 1 1
          1 1 1 1 1 1
          1 1 1 1 1 1
          1 1 1 1 1 1
          1 1 1 1 1 1
          1 1 1 1.25 1.125 1
          1.25 1 1 1 1 1
          1 1 1 1 1 1
          1 1 1 1 1 1
          1 1 1 1 1 1
          1 1 1 1 1 1
          1 1 1 1 1 1
          1 1 1 1 1 1
          1 1 1 1 1 1
          1 1 1 1 1 1
          1 1 1 1 1 1
          1 1 1 1 1 1
          1 1 1 1 1 1
          1 1 1 1 1 1
          1 1 1 1 1 1
          1 1 1 1 1 1
          1 1 1 1 1 1
          1 1 1 1 1 1
          1 1 1 1 1 1
          1 1 1 1 1 1
          1 1 1 1 1 1
          1 1 1 1 1 1
          1 1 1 1 1 1
          1 1 1 1 1 1
          1 1 1 1 1 1
          1 1 1 1 1 1
          1 1 1 1 1 1
          1 1 1 1 1 1
          1 1 1 1 1 1
          1 1 1 1 1 1
          1.5 1.375 1.125 1.25 1.125 1
          1 1 1 1.75 1.625 1.25
          1.25 1 1 1 1 1
          1 1 1 1 2 2
          1.75 1.625 1.625 1.25 2 2
          1.75 1.75 1.125 1 1 1
          1.25 1 1 1 1 1
          1 1 1 1 1 1
          1 1 1 1 1 1.25
          1.125 1 1 1 1 1.5
          1.25 1 1 1 1 1
          1 0.75 1 1 1 1
          1 1 0.5 0.75 0.75 0.5
          0.625 0.25 1 1 1 1
          1 1 1 1 1 1
          1 1 1 1 1 1
          1 1 1 1 1 1
          1 1 1 1 1 1
          1 1 1 1 1 1
          1 1 1 1 1 1
          1 1 1 1 1 1
          1 1 1 1 1 1
          1 1 1 1 1 1
          1 1 1 1 1 1
          1 1 1 1 1 1
          1 1 1 1 1 1
          1 1.5 1.5 1.375 2 2
          1.875 2 1.5 1.875 1.125 1
          1.125 1.375 1 1 2 2
          1.875 2 2 2 1.375 1
          1.5 1 1 1 1 1
          1 1 1 1 1 1
          1 1 1 1 1 1
          1 1 1 1 1 1
          1 1 1 1 1
        </DataArray>
        <DataArray type="Float64" Name="dHdT" format="ascii" RangeMin="25.809984169821945" RangeMax="54.76800989733255">
          26.31107029156657 25.81065594540414 25.81746602848974 25.82573918238752 26.07980319470171 25.811782137540025
          25.812919835161992 25.874091036677903 25.839022171930534 31.531497835580595 27.12965308038705 54.76800989733255
          31.96449938288083 25.94119781889281 25.93172282959376 25.828028137357293 25.866663319106777 25.864230024180763
          25.922247840294713 25.85463695890117 26.709269243526794 26.589018670239412 26.240719957677268 26.450529654758043
          25.818283481133186 25.81835322172142 25.82524811369176 25.824550780521424 25.813849417325315 25.816822579619213
          25.81627846810272 25.818722054206457 25.826994234770606 25.965840871221125 25.93834937187559 25.86173177690534
          25.88387242067104 25.81224558201599 25.812270391667088 25.813974034947567 25.81370327480213 25.833757445553445
          25.829234286894273 27.417861763652297 27.01251000209177 26.554519671715813 26.357150148056085 26.358912890470506
          26.043881912564913 36.06613126594789 33.07655149537206 29.778080541807192 28.706068823659308 26.109617172864898
          26.027283458315416 28.14924486604823 27.37523015457038 43.38377200604215 37.73681218521593 30.106017524926827
          43.968346126005486 34.38131086784044 31.67101902793407 37.01798315708996 34.3476926090694 25.85708855530381
          25.897547759107937 25.89390024649839 25.886051213591575 26.100207481406876 25.855959750037655 25.87842571695408