<?xml version="1.0"?>
<VTKFile type="UnstructuredGrid" version="0.1" byte_order="LittleEndian" header_type="UInt32" compressor="vtkZLibDataCompressor">
  <UnstructuredGrid>
    <Piece NumberOfPoints="487" NumberOfCells="261">
      <PointData>
        <DataArray type="Int32" Name="libmesh_node_id" format="ascii" RangeMin="385" RangeMax="4070">
          486 488 489 492 494 498
          499 673 679 909 910 911
          914 917 919 920 921 922
          926 927 929 930 932 948
          955 956 959 961 963 964
          966 967 968 969 970 971
          972 996 1554 1556 1557 1558
          1559 1560 1561 1562 1563 1564
          1565 1571 1610 1611 1614 1672
          1673 1674 1675 1676 1677 1678
          1682 1683 1684 1685 1686 1687
          1688 1722 1726 1727 1728 1729
          1730 1731 1732 1733 1734 1735
          1736 1737 1738 1739 1788 1789
          1792 1793 1795 1797 1828 1829
          1830 1832 1833 1834 1924 1925
          1928 1929 1931 1932 1933 2079
          2080 2081 2082 2083 2084 2085
          2086 2089 2090 2099 2100 2103
          2104 2840 2841 2842 2843 2844
          2845 2846 2847 2848 2849 2851
          2852 2853 3014 3016 3017 3018
          3027 3029 3030 3031 3032 3033
          3034 3035 3036 3037 3038 3254
          3255 3256 3257 3258 3259 3260
          3261 3262 3263 3264 3265 3268
          3269 3271 3273 3274 3275 3276
          3277 3278 3279 3280 3281 3282
          3283 3284 3285 3286 3287 3289
          3290 3291 3293 3295 3297 3298
          3299 3300 3301 3302 3303 3304
          3305 3306 3309 3310 3312 3314
          3506 3507 3508 3510 3511 3512
          3514 3516 3517 3518 3519 3520
          3521 3522 3523 3524 3525 3526
          3528 3530 3531 3532 3534 3535
          3536 3538 3539 3540 3541 3542
          3543 3544 3545 3546 3547 3548
          3549 3550 3551 3552 3553 3554
          3555 3556 3557 3558 3559 3560
          3565 3567 3579 3589 3591 3593
          3595 3603 3605 3607 3609 4020
          4021 4022 4023 4024 4025 4026
          4027 4028 4029 4030 4031 4034
          4035 4037 4039 4040 4041 4042
          4043 4044 4045 4046 4047 4048
          4049 4050 4051 4052 4053 4064
          4065 4066 4067 4068 4069 4070
          487 490 386 493 495 654
          657 658 655 385 675 394
          680 923 924 925 928 931
          938 947 965 497 952 974
          980 976 981 1011 1015 1012
          1016 1018 1020 1566 1567 1568
          1569 1570 1572 1573 1574 1575
          1577 1590 1652 1653 1591 1654
          1655 1656 1593 1657 1662 1663
          1666 936 1661 1679 1616 944
          1680 1681 1667 1671 1689 946
          1690 1691 1719 1720 1721 1723
          1724 1725 1715 1790 986 1791
          1794 1926 1927 1930 1935 1939
          1941 1943 2046 2043 1747 1748
          2087 1749 2088 2091 1753 984
          2101 2102 2105 991 3076 2819
          3133 3134 3137 1772 3086 3140
          3266 3141 3267 3270 3144 1773
          3272 2836 3167 3168 3171 3288
          2850 1777 3174 3175 3292 3294
          3178 988 3296 1796 3307 3308
          3311 3313 3391 3392 3505 3013
          3395 1812 3509 3015 3398 3399
          3513 3515 3402 1813 3527 3529
          1831 3425 3426 3533 3026 3429
          1817 3537 3028 3432 3433 3436
          994 3459 3561 3463 3460 3562
          1822 3566 3563 3564 1835 3575
          3576 3580 3577 3581 3578 1837
          3493 3494 3590 3592 3497 1827
          3594 1839 3604 3606 3608 1841
          4032 4033 4036 4038 4061 4062
          4063
        </DataArray>
        <DataArray type="Float64" Name="bounds" format="ascii" RangeMin="0" RangeMax="0">
          0 0 0 0 0 0
          0 0 0 0 0 0
          0 0 0 0 0 0
          0 0 0 0 0 0
          0 0 0 0 0 0
          0 0 0 0 0 0
          0 0 0 0 0 0
          0 0 0 0 0 0
          0 0 0 0 0 0
          0 0 0 0 0 0
          0 0 0 0 0 0
          0 0 0 0 0 0
          0 0 0 0 0 0
          0 0 0 0 0 0
          0 0 0 0 0 0
          0 0 0 0 0 0
          0 0 0 0 0 0
          0 0 0 0 0 0
          0 0 0 0 0 0
          0 0 0 0 0 0
          0 0 0 0 0 0
          0 0 0 0 0 0
          0 0 0 0 0 0
          0 0 0 0 0 0
          0 0 0 0 0 0
          0 0 0 0 0 0
          0 0 0 0 0 0
          0 0 0 0 0 0
          0 0 0 0 0 0
          0 0 0 0 0 0
          0 0 0 0 0 0
          0 0 0 0 0 0
          0 0 0 0 0 0
          0 0 0 0 0 0
          0 0 0 0 0 0
          0 0 0 0 0 0
          0 0 0 0 0 0
          0 0 0 0 0 0
          0 0 0 0 0 0
          0 0 0 0 0 0
          0 0 0 0 0 0
          0 0 0 0 0 0
          0 0 0 0 0 0
          0 0 0 0 0 0
          0 0 0 0 0 0
          0 0 0 0 0 0
          0 0 0 0 0 0
          0 0 0 0 0 0
          0 0 0 0 0 0
          0 0 0 0 0 0
          0 0 0 0 0 0
          0 0 0 0 0 0
          0 0 0 0 0 0
          0 0 0 0 0 0
          0 0 0 0 0 0
          0 0 0 0 0 0
          0 0 0 0 0 0
          0 0 0 0 0 0
          0 0 0 0 0 0
          0 0 0 0 0 0
          0 0 0 0 0 0
          0 0 0 0 0 0
          0 0 0 0 0 0
          0 0 0 0 0 0
          0 0 0 0 0 0
          0 0 0 0 0 0
          0 0 0 0 0 0
          0 0 0 0 0 0
          0 0 0 0 0 0
          0 0 0 0 0 0
          0 0 0 0 0 0
          0 0 0 0 0 0
          0 0 0 0 0 0
          0 0 0 0 0 0
          0 0 0 0 0 0
          0 0 0 0 0 0
          0 0 0 0 0 0
          0 0 0 0 0 0
          0 0 0 0 0 0
          0 0 0 0 0 0
          0 0 0 0 0 0
          0
        </DataArray>
        <DataArray type="Float64" Name="gradient_error" format="ascii" RangeMin="7.492369172928837e-11" RangeMax="2.627068073735525e-7">
          6.404975166267746e-9 1.0381243954033601e-7 6.393606867711841e-8 1.0680440403919663e-8 1.5984142439311595e-8 2.8453426243955303e-8
          6.438634011645288e-9 1.4820152111328176e-9 2.1464239232960197e-9 5.712786300548617e-9 5.066097872272078e-8 4.0060553977730307e-8
          2.946012923273983e-8 7.340909962454266e-8 2.891525081554757e-9 2.821788720085195e-9 1.9298102223497853e-8 1.6693361290895816e-8
          2.7520523586156334e-9 1.4278857027392069e-8 5.446938827345087e-8 3.7642353074068244e-8 3.5312276752540355e-8 1.8538855953714393e-8
          6.67776257472963e-8 1.1360896207567735e-7 8.90368040895412e-9 1.6044029840405843e-7 3.497820214650493e-8 4.958425748789768e-8
          7.129708289812351e-9 3.949857664366303e-9 3.760835567753473e-9 2.0214196384188396e-9 6.544634375768237e-8 2.8334772117172727e-9
          3.5718134711406434e-9 9.807872446769886e-10 1.0065249328790929e-7 3.6260438766754386e-9 5.2928463399221456e-9 4.6467578100745e-9
          4.000669280226855e-9 9.275166516844503e-8 8.277407671187662e-8 4.448643084759115e-8 5.83862819738235e-8 2.5345981446251915e-9
          2.437686518568717e-9 2.340774892512242e-9 4.186244976187563e-8 8.115582571127166e-8 5.017193695028556e-8 3.236517927576369e-8
          6.822419214858924e-8 2.348250751051594e-8 5.38764259106035e-8 2.0754282859188577e-8 3.963028839217955e-8 2.940235190527514e-8
          1.587558843383911e-8 3.953610641117582e-8 4.6668764894132645e-9 1.737720700799415e-8 8.908388970793976e-9 2.037319539767323e-8
          6.460299758766719e-9 2.3942871924629394e-8 1.4175217384158152e-8 1.778049843836644e-8 1.3693836430491352e-8 2.138577949257473e-8
          1.1352812695746792e-8 1.4076883599334029e-8 4.045196126545107e-9 5.925632038683472e-9 7.918815351897707e-9 9.201318764673885e-9
          3.2884243999157168e-9 1.680095450292126e-8 6.906307014068369e-9 1.0483822177450062e-8 5.814752170169805e-10 1.1572006529236272e-9
          6.956230701708898e-10 1.0904913696347608e-9 4.184019417061051e-9 1.2790913363157447e-9 9.848374088593543e-9 4.78839830918395e-9
          1.8249702543483758e-9 1.3088789402535355e-8 6.538635664499843e-9 2.3350647981982363e-9 1.1784378031920617e-9 8.277046128672231e-10
          1.1364306505467597e-9 1.2550041070933525e-9 8.914794371837742e-10 3.3885765928387854e-10 1.2809346901827286e-9 4.352409310039916e-10
          6.415844823249467e-10 4.4432895632646937e-10 1.1499294037852262e-9 1.7501667134168926e-9 1.2480562352190472e-9 2.761069876338097e-10
          4.4362753624525975e-10 2.061809243856391e-10 3.0162622946559074e-10 7.411988406082133e-10 1.1653926167082868e-9 5.185854785641577e-10
          7.811866278268505e-10 1.1405989985061586e-9 1.5442493338594722e-9 9.308734149723351e-10 3.746815110033771e-9 4.1686724705898806e-10
          5.29164991611146e-10 4.312952958229559e-10 1.1343341687776553e-9 7.273182335366127e-9 4.2818247402212704e-9 2.191826494238411e-9
          1.6819546592075172e-9 3.6866373422300592e-9 1.214493183890577e-8 5.610718501077649e-9 2.8484681793957e-9 7.330023820195985e-9
          2.0474890456164638e-8 8.617825086901015e-9 4.44437153558628e-9 9.180212238190052e-9 7.802408417199512e-10 1.0107038321817765e-9
          7.85855539579975e-10 1.384566351686579e-9 1.6163641608236667e-9 1.285300556720916e-9 1.7047624409177775e-9 8.357160667430621e-10
          1.2442149469935007e-9 4.235394228866767e-10 7.636754669258585e-10 5.147111927770824e-10 7.38377337323583e-10 5.04954299306574e-10
          3.0317059332832212e-9 1.9147816583865584e-9 1.7356799185428986e-9 2.581338868457635e-10 4.765646680674672e-10 2.0471370680025264e-10
          3.4438335187454325e-10 1.250406098510214e-9 7.818898825830066e-10 3.1860036138907677e-10 4.190114478447021e-10 2.2033347571916545e-10
          3.0885790407825815e-10 2.6023283972501526e-10 3.3373403772392915e-10 2.361727796249024e-10 8.956153403051095e-10 6.201693068845086e-10
          6.51760824041366e-10 6.137029548093322e-9 4.236997229103546e-9 3.479184966738859e-9 2.2188578083987755e-9 8.219637820236968e-9
          6.245738515960971e-9 2.9151850511951405e-9 1.4571578290707023e-9 5.887979386006611e-9 2.8367528287530022e-9 1.7597459667395002e-9
          1.0759467893060186e-9 1.2605150520227624e-9 6.749541362112193e-10 3.03563048537498e-9 1.959036057915719e-9 1.7401063624569864e-9
          4.4486592998535265e-10 6.749207597869169e-10 2.928596648875417e-10 4.172838865245645e-10 1.2642008846635122e-9 6.241985973547058e-10
          1.3772400392830142e-8 1.0138247633482151e-8 6.909269687676143e-9 1.9820585155020207e-8 1.4062369801586662e-8 1.0157598116086522e-8
          4.795870336541324e-9 1.4893927258497263e-8 1.0698258342842457e-8 6.980309497432405e-9 4.701126818102157e-9 3.1464785620295487e-9
          2.233827874622766e-9 1.3247244040677617e-9 6.297744858470836e-9 4.407506338604091e-9 2.9964348547949117e-9 2.072806956444736e-9
          8.443592520242595e-10 2.9544278470678005e-9 1.9422708858479336e-9 1.181390052295959e-9 2.464407579021827e-8 1.7306493444027808e-8
          1.2184107624210196e-8 2.650074906798149e-8 1.872231909818666e-8 1.8684824533545e-8 1.3538073607968888e-8 8.730285272892507e-9
          6.049555885385e-9 2.0145585364914318e-8 1.4629442066619868e-8 9.401693899238159e-9 7.525460876969344e-9 5.407553871855441e-9
          3.5433769443188595e-9 2.1947523160509828e-9 8.03410848962048e-9 5.795310859234308e-9 3.763752230450765e-9 3.6574406419446446e-9
          2.4192228776237957e-9 1.4367459828232223e-9 9.171528889391986e-10 3.928213322904618e-9 2.603008815823945e-9 1.5339865231517809e-9
          7.278759952408404e-9 3.136664497962526e-9 1.2394188010768933e-9 9.30784684694062e-9 3.989399965401584e-9 1.009228546562056e-8
          4.32249246811427e-9 1.550456765584364e-9 5.68512334457252e-10 1.6704385774820971e-9 6.083952117676678e-10 6.696563444940418e-10
          8.483129793961717e-10 4.500482726957398e-10 5.514518249701203e-10 4.943660816894936e-10 5.945699529493928e-10 3.280024880754539e-10
          1.1533572014051178e-9 7.41010810280957e-10 7.915996390938935e-10 2.7989656783139285e-10 3.39457957535468e-10 1.9133071357014188e-10
          2.0428330724525483e-10 4.543047118274468e-10 2.4635413636747157e-10 1.3554449226242737e-9 8.810998355133093e-10 9.37410308497753e-10
          4.76167174231825e-10 1.4311450567366133e-9 9.330334277092058e-10 9.863951630170112e-10 5.430026102480651e-10 3.3801582999553656e-10
          2.9276786536277083e-10 1.8264544121077026e-10 5.764151440807797e-10 3.5920372959142823e-10 3.100633589109663e-10 2.0490100454760654e-10
          1.5210158299853226e-10 1.2318165372256972e-10 1.0379386756008071e-10 2.181702350303962e-10 1.6222411617653265e-10 1.3091857543231115e-10
          1.723676741268195e-8 3.498592039891136e-9 3.416515247502419e-9 1.9083764639626473e-8 3.5586933734816166e-9 4.2500113707598986e-9
          9.015500911540104e-10 8.198780752295583e-10 3.9764896117317745e-9 1.2508397714582305e-9 6.948861099854343e-10 1.9490918893075202e-9
          8.463975091385607e-10 1.0334085862477714e-9 8.28773831900813e-10 2.7094440905701627e-9 3.159263535731905e-9 9.29577876614903e-9
          1.6464660508475984e-7 8.4476240531814e-8 7.719500988115091e-9 2.627068073735525e-7 1.4032312617910926e-7 2.2564051985633294e-10
          2.965252484661005e-10 1.5178976952298315e-10 3.142327601681819e-10 4.12488277772336e-10 4.5028857853469554e-10 6.137826195950013e-10
          9.211429212839234e-10 8.757088896501239e-10 1.266866868535218e-9 4.0107279819341765e-9 3.586583383871281e-9 8.439607636867716e-10
          1.5249531453859522e-9 1.4366416940019947e-9 3.162438785808385e-9 1.176797110638372e-9 2.8848499297051713e-8 2.5509715294020455e-8
          2.239488349295421e-8 2.2673833084704495e-7 2.2123838957477935e-7 1.9745021430202087e-7 2.05865925659346e-7 2.0354258146231278e-7
          1.785462879728827e-7 1.3524006746713067e-7 1.485666174719524e-7 1.1595024719969221e-7 1.7305024588264342e-7 1.4928520192613433e-7
          9.21095876971518e-8 2.063441991346557e-7 2.0040914311246201e-7 1.6418733084687166e-7 1.7891454988092717e-7 1.8166841732881365e-7
          1.4095234805486216e-7 9.26141201315059e-8 4.262273200657592e-8 1.504082424988907e-7 1.1175232135449447e-7 7.591517481917014e-8
          5.185780848910841e-8 3.964812699213924e-8 1.5591373596965705e-7 9.773276551638932e-8 5.388617795224719e-8 1.5297861550932508e-7
          1.2008160851754212e-7 6.421916632856176e-8 8.980957872597222e-8 3.816097993019203e-10 4.760022689998021e-10 5.93157558558547e-10
          5.546586575105417e-10 3.983430060642353e-10 2.899480982124941e-10 4.264347313105739e-10 2.0894821587488985e-10 1.333877273636414e-10
          2.5207659296838776e-10 1.5334943687795353e-10 3.490922704966226e-10 5.658987879400207e-10 3.4367376889577774e-10 4.043741672372605e-10
          7.492369172928837e-11 1.415848975338791e-10 1.6511195152196361e-10 1.0884342750479612e-10 5.771882149648802e-10 2.3763760428170546e-10
          2.2334965799564017e-10 3.889030105655054e-10 2.0294275081041374e-10 5.125748456362154e-10 9.204546714236523e-10 2.2639197896531572e-9
          1.8781539159878682e-9 1.2259613498147448e-9 4.901796750612802e-9 3.2403710280751258e-9 3.066272638583799e-10 7.898196106134779e-10
          1.6140136115319776e-10 5.07137067949796e-10 3.00320840959826e-10 2.1400433002426727e-10 2.1850252182504556e-9 1.4494721372682906e-9
          8.096913134730466e-10 1.1854511480351502e-8 1.0222388056401595e-8 7.409493946840084e-9 1.8607630729847757e-8 1.1292400809137087e-8
          1.3065229543750202e-8 1.4582655768481848e-8 5.3002240140951756e-9 3.6515648023701173e-9 1.9508876884659372e-9 9.454128388074746e-10
          1.0920036569003247e-8 7.793618597360797e-9 4.055121203147714e-9 1.8833353232540426e-9 2.7628869197255723e-10 4.2711405017382925e-10
          2.6159375208275753e-10 8.141887000681591e-10 3.0580327598809355e-8 2.4626725263167407e-8 1.8565108364719856e-8 2.1389885154183907e-8
          4.305000217398416e-8 3.558855268665527e-8 2.585075200176487e-8 2.9243207120450003e-8 1.8894164918571513e-8 1.381708521378112e-8
          7.1692104359550965e-9 3.2417829308397955e-9 2.7675069045215562e-8 2.048364218235956e-8 1.3497714120167187e-9 5.341785717973915e-10
          7.502369554550209e-10 5.2429050087253964e-8 4.4082341077006786e-8 3.197502693549553e-8 3.614581789026584e-8 5.585513775774164e-8
          4.7230359045450066e-8 3.4657326035491e-8 3.9455166880376596e-8 3.4571093899431437e-8 2.5769121146370377e-8 3.715736557887149e-8
          2.778712995990585e-8 9.566468260670816e-9 4.798515011403588e-9 1.4413153783463029e-8 6.2239714851312176e-9 3.035652860123011e-9
          9.563642096521767e-9 4.660428797901573e-9 2.1028278016445587e-9 1.3025681857392973e-9 1.9554349545635435e-9 8.55658421014576e-10
          5.223902573787693e-10 7.601172567028006e-10 3.288555877516038e-10 4.6376583537311434e-10 2.3771716063552627e-10 3.732193011136906e-10
          1.8275853495889722e-8 1.2262968699989039e-8 6.016251755472659e-9 2.497625387611528e-9 1.9756406614828333e-8 1.3294899521278626e-8
          6.547825980092727e-9 2.7099574552151955e-9 9.533546320646548e-10 4.145556460022646e-10 1.027802147041089e-9 4.805201353761183e-10
          1.7258451819734883e-10 2.0967350736993156e-10 1.2546860087004855e-10 2.817952134710795e-10 1.7063650191514944e-10 1.264184311047765e-10
          1.028806848596421e-10
        </DataArray>
        <DataArray type="Float64" Name="gradient_matprop_error" format="ascii" RangeMin="0" RangeMax="0">
          0 0 0 0 0 0
          0 0 0 0 0 0
          0 0 0 0 0 0
          0 0 0 0 0 0
          0 0 0 0 0 0
          0 0 0 0 0 0
          0 0 0 0 0 0
          0 0 0 0 0 0
          0 0 0 0 0 0
          0 0 0 0 0 0
          0 0 0 0 0 0
          0 0 0 0 0 0
          0 0 0 0 0 0
          0 0 0 0 0 0
          0 0 0 0 0 0
          0 0 0 0 0 0
          0 0 0 0 0 0
          0 0 0 0 0 0
          0 0 0 0 0 0
          0 0 0 0 0 0
          0 0 0 0 0 0
          0 0 0 0 0 0
          0 0 0 0 0 0
          0 0 0 0 0 0
          0 0 0 0 0 0
          0 0 0 0 0 0
          0 0 0 0 0 0
          0 0 0 0 0 0
          0 0 0 0 0 0
          0 0 0 0 0 0
          0 0 0 0 0 0
          0 0 0 0 0 0
          0 0 0 0 0 0
          0 0 0 0 0 0
          0 0 0 0 0 0
          0 0 0 0 0 0
          0 0 0 0 0 0
          0 0 0 0 0 0
          0 0 0 0 0 0
          0 0 0 0 0 0
          0 0 0 0 0 0
          0 0 0 0 0 0
          0 0 0 0 0 0
          0 0 0 0 0 0
          0 0 0 0 0 0
          0 0 0 0 0 0
          0 0 0 0 0 0
          0 0 0 0 0 0
          0 0 0 0 0 0
          0 0 0 0 0 0
          0 0 0 0 0 0
          0 0 0 0 0 0
          0 0 0 0 0 0
          0 0 0 0 0 0
          0 0 0 0 0 0
          0 0 0 0 0 0
          0 0 0 0 0 0
          0 0 0 0 0 0
          0 0 0 0 0 0
          0 0 0 0 0 0
          0 0 0 0 0 0
          0 0 0 0 0 0
          0 0 0 0 0 0
          0 0 0 0 0 0
          0 0 0 0 0 0
          0 0 0 0 0 0
          0 0 0 0 0 0
          0 0 0 0 0 0
          0 0 0 0 0 0
          0 0 0 0 0 0
          0 0 0 0 0 0
          0 0 0 0 0 0
          0 0 0 0 0 0
          0 0 0 0 0 0
          0 0 0 0 0 0
          0 0 0 0 0 0
          0 0 0 0 0 0
          0 0 0 0 0 0
          0 0 0 0 0 0
          0 0 0 0 0 0
          0 0 0 0 0 0
          0
        </DataArray>
        <DataArray type="Float64" Name="initial_marker" format="ascii" RangeMin="0" RangeMax="2">
          0 2 0.5 0.25 0 2
          0 0 0 0 1 0.5
          0 1.5 0 0 0.5 0.25
          0 0 2 1.5 0.6666666666666666 1.25
          0 0.5 0 1 0 0.25
          0 0 0 0 0.5 0
          0 2 2 0 1 1
          1 2 2 2 2 0
          0 0 2 2 2 2
          2 2 2 2 2 2
          2 2 0.6666666666666666 2 2 2
          0.6666666666666666 2 1 1 0 1
          1 1 0.3333333333333333 0.5 0 0
          0 1 0.5 0 0 1.75
          0 0 2 1 2 2
          2 2 2 2 0 0
          0 0 0 0 0 0
          0 0 0 0 0 0
          0 0 0 0 0 0
          0 1 1.5 1 2 0
          0.5 0 1 2 2 1.5
          1 2 2 2 1.5 2
          2 2 2 2 0 0.5
          0 1 1 0 1 1
          1.5 1 1.5 0 1 1
          2 2 2 1 1.5 0
          1 2 2 0 0.5 0
          0.5 0 0 0 1 1
          0 2 2 2 2 2
          2 2 2 2 2 1.5
          1.5 1 1 2 2 1.3333333333333333
          1 1.5 0 1 2 1.3333333333333333
          2 2 2 2 2 2
          2 2 2 2 2 2
          1.5 1.5 2 2 2 2
          1.5 2 2 2 2 2
          2 2 2 2 2 2
          2 2 2 2 2 2
          2 2 2 2 2 2
          2 2 2 2 2 2
          2 2 2 2 2 2
          2 2 2 2 2 0
          0.5 0 0.5 0 0 0
          1 1 0 0 0.5 0
          0 1 0 1 1 0
          0 1 1 0 1 1
          0 0 1 1 0 1
          1 0 0 1 1 0
          0 0 0 0 0 0
          0 0 0 0 0 0
          0 0 0 0 0 1.25
          1.5 1.5 0 2 2 0
          0 0 0 0 0 0
          0 0 0 1 1 0
          0.5 0.5 1 0.3333333333333333 2 2
          2 2 2 2 2 2
          2 2 2 2 2 2
          2 2 2 2 2 2
          2 2 2 2 2 2
          2 2 2 2 2 2
          2 2 2 0 0 1.5
          0 0 0 0 0 0
          0 0 0 0 0 0
          0 0 0 0 1 1
          0 0 0 1 1.3333333333333333 2
          2 2 2 2 1.3333333333333333 2
          1 2 1.5 1 2 2
          2 2 2 2 2 2
          2 2 2 2 2 2
          2 2 2 2 1 1.5
          1 2 2 2 2 2
          2 2 2 2 2 2
          2 2 2 2 2 1.5
          2 2 2 2 2 2
          2 2 2 2 2 2
          2 2 2 2 2 2
          2 2 2 2 2 2
          2 2 1.25 1.75 1.3333333333333333 1.25
          2 2 2 2 2 2
          2 2 2 2 2 1.5
          0 0.5 0 1 0.75 0.5
          0
        </DataArray>
        <DataArray type="Float64" Name="markers_norefine" format="ascii" RangeMin="0" RangeMax="0.5">
          0 0 0 0 0 0
          0 0 0 0 0 0
          0 0 0 0 0 0
          0 0 0 0 0 0
          0 0 0 0 0 0
          0 0 0 0 0 0
          0 0 0 0 0 0
          0 0 0 0 0 0
          0 0 0 0 0 0
          0 0 0 0 0 0
          0 0 0 0 0 0
          0 0 0 0 0 0
          0 0 0 0 0 0
          0 0 0 0 0 0
          0 0 0 0 0 0
          0 0 0 0 0 0
          0 0 0 0 0 0
          0 0 0 0 0 0
          0 0 0 0 0 0
          0 0 0 0 0 0
          0 0 0 0 0 0
          0 0 0 0 0 0
          0 0 0 0 0 0
          0 0 0 0 0 0
          0 0 0 0 0 0
          0 0 0 0 0 0
          0 0 0 0 0 0
          0 0 0 0 0 0
          0 0 0 0 0 0
          0 0 0 0 0 0
          0 0 0 0 0 0
          0 0 0 0 0 0
          0 0 0 0 0 0
          0 0 0 0 0 0
          0 0 0 0 0 0
          0 0 0 0 0 0
          0 0 0 0 0 0
          0 0 0 0 0 0
          0 0 0 0 0 0
          0 0 0 0 0 0
          0 0 0 0 0 0
          0 0 0 0 0 0
          0 0 0 0 0 0
          0 0 0 0 0 0
          0 0 0 0 0 0
          0 0 0 0 0 0
          0 0 0 0 0 0
          0 0 0 0 0 0
          0 0 0 0 0 0
          0 0 0 0 0 0
          0 0 0 0 0 0
          0 0 0 0 0 0
          0 0 0 0 0 0
          0 0 0 0 0 0
          0 0 0 0 0 0
          0 0 0 0 0 0
          0 0 0 0 0 0
          0 0 0 0 0 0
          0 0 0 0 0 0
          0 0 0 0 0 0
          0 0 0 0 0 0
          0 0 0 0 0 0
          0 0 0 0 0 0
          0 0 0 0 0 0
          0 0 0 0 0 0
          0 0 0 0 0 0
          0 0 0 0 0 0
          0 0 0 0 0 0
          0 0 0 0 0 0
          0 0 0 0 0 0
          0 0 0 0 0 0
          0 0 0 0 0 0
          0 0 0 0 0 0
          0 0.25 0 0 0 0.5
          0 0 0 0 0 0
          0 0 0 0 0 0
          0 0 0 0 0 0
          0 0 0 0 0 0
          0 0 0 0 0 0
          0 0 0 0 0 0
          0 0 0 0 0 0
          0
        </DataArray>
        <DataArray type="Float64" Name="markers_mustrefine" format="ascii" RangeMin="0" RangeMax="2">
          0 2 0.5 0.25 0 2
          0 0 0 0 1 0.5
          0 1.5 0 0 0.5 0.25
          0 0 2 1.5 0.6666666666666666 1.25
          0 0.5 0 1 0 0.25
          0 0 0 0 0.5 0
          0 2 2 0 1 1
          1 2 2 2 2 0
          0 0 2 2 2 2
          2 2 2 2 2 2
          2 2 0.6666666666666666 2 2 2
          0.6666666666666666 2 1 1 0 1
          1 1 0.3333333333333333 0.5 0 0
          0 1 0.5 0 0 1.75
          0 0 2 1 2 2
          2 2 2 2 0 0
          0 0 0 0 0 0
          0 0 0 0 0 0
          0 0 0 0 0 0
          0 1 1.5 1 2 0
          0.5 0 1 2 2 1.5
          1 2 2 2 1.5 2
          2 2 2 2 0 0.5
          0 1 1 0 1 1
          1.5 1 1.5 0 1 1
          2 2 2 1 1.5 0
          1 2 2 0 0.5 0
          0.5 0 0 0 1 1
          0 2 2 2 2 2
          2 2 2 2 2 1.5
          1.5 1 1 2 2 1.3333333333333333
          1 1.5 0 1 2 1.3333333333333333
          2 2 2 2 2 2
          2 2 2 2 2 2
          1.5 1.5 2 2 2 2
          1.5 2 2 2 2 2
          2 2 2 2 2 2
          2 2 2 2 2 2
          2 2 2 2 2 2
          2 2 2 2 2 2
          2 2 2 2 2 2
          2 2 2 2 2 0
          0.5 0 0.5 0 0 0
          1 1 0 0 0.5 0
          0 1 0 1 1 0
          0 1 1 0 1 1
          0 0 1 1 0 1
          1 0 0 1 1 0
          0 0 0 0 0 0
          0 0 0 0 0 0
          0 0 0 0 0 1.25
          1.5 1.5 0 2 2 0
          0 0 0 0 0 0
          0 0 0 1 1 0
          0.5 0.5 1 0.3333333333333333 2 2
          2 2 2 2 2 2
          2 2 2 2 2 2
          2 2 2 2 2 2
          2 2 2 2 2 2
          2 2 2 2 2 2
          2 2 2 0 0 1.5
          0 0 0 0 0 0
          0 0 0 0 0 0
          0 0 0 0 1 1
          0 0 0 1 1.3333333333333333 2
          2 2 2 2 1.3333333333333333 2
          1 2 1.5 1 2 2
          2 2 2 2 2 2
          2 2 2 2 2 2
          2 2 2 2 1 1.5
          1 2 2 2 2 2
          2 2 2 2 2 2
          2 2 2 2 2 1.5
          2 2 2 2 2 2
          2 2 2 2 2 2
          2 2 2 2 2 2
          2 2 2 2 2 2
          2 2 1.25 1.75 1.3333333333333333 1.25
          2 2 2 2 2 2
          2 2 2 2 2 1.5
          0 0.5 0 1 0.75 0.5
          0
        </DataArray>
        <DataArray type="Float64" Name="gradient_marker" format="ascii" RangeMin="0" RangeMax="1">
          0.5 0.5 0.375 0.625 0.75 0.5
          0.5 1 1 0 0.25 0.125
          0 0.125 0 0 0 0
          0 0 0 0 0 0.5
          0.25 0.375 0 0.5 0 0.125
          0.5 0 0 0.5 0.25 0.5
          0 1 0.25 0 0 0
          0 0 0 0 0 0
          0 0 0 0.25 0 0
          0.25 0 0.125 0 0 0
          0 0 0.6666666666666666 0.5 0 0
          0.6666666666666666 0.5 0 0 0 0
          0 0 0.6666666666666666 0.5 0 0
          0.5 0 0.5 0 1 1
          1 1 1 1 1 1
          1 1 1 1 1 1
          1 1 1 1 1 1
          1 1 1 1 1 1
          1 1 1 1 1 1
          1 1 1 1 1 1
          1 1 1 1 1 1
          1 1 1 1 1 1
          1 1 1 1 1 1
          1 1 1 1 1 1
          1 1 1 1 1 1
          1 1 1 1 1 1
          1 1 1 1 1 1
          1 1 1 1 1 1
          1 1 1 1 1 1
          1 1 1 1 1 1
          1 1 1 1 1 1
          1 1 1 1 1 1
          1 1 1 1 1 1
          1 1 1 1 1 1
          1 1 1 1 1 1
          1 1 1 1 1 1
          1 1 1 1 1 1
          1 1 1 1 1 1
          1 1 1 1 1 1
          1 1 1 1 1 1
          1 1 1 1 1 1
          1 1 1 1 1 1
          1 1 1 1 1 1
          1 1 1 1 1 1
          1 1 1 1 1 1
          1 1 1 1 1 1
          1 1 1 1 1 1
          1 1 1 1 1 1
          0.75 0.875 1 1 0.875 1
          1 1 1 0.75 1 0.75
          1 0.5 0.5 0.5 0.6666666666666666 0.5
          0.625 0.125 0.6666666666666666 1 0.75 1
          1 1 1 1 1 1
          1 1 1 0 0 0.5
          0.5 0.5 0 0.6666666666666666 0 0
          0 0.75 0.5 0.5 0.625 0.5
          0.5 0.5 0.5 0.375 0.5 0.5
          0.25 0.75 0.75 0.625 0.75 0.625
          0.375 0.25 0.625 0.5 0.25 0.75
          0.625 0 0.5 0.75 0.125 0.5
          0.75 0.25 0.3333333333333333 1 1 1
          1 1 1 1 1 1
          1 1 1 1 1 1
          1 1 1 1 1 1
          1 1 1 1 1 1
          1 1 1 1 1 1
          1 1 1 1 1 1
          1 1 1 1 1 1
          1 1 1 1 1 1
          1 1 1 1 1 1
          1 1 1 1 1 1
          1 1 1 1 1 1
          1 1 1 1 1 1
          1 1 1 1 1 1
          1 1 1 1 1 1
          1 1 1 1 1 1
          1 1 1 1 1 1
          1 1 1 1 1 1
          1 1 1 1 1 1
          1 1 1 1 1 1
          1 1 1 1 1 1
          1
        </DataArray>
        <DataArray type="Float64" Name="gradient_matprop_marker" format="ascii" RangeMin="0" RangeMax="0">
          0 0 0 0 0 0
          0 0 0 0 0 0
          0 0 0 0 0 0
          0 0 0 0 0 0
          0 0 0 0 0 0
          0 0 0 0 0 0
          0 0 0 0 0 0
          0 0 0 0 0 0
          0 0 0 0 0 0
          0 0 0 0 0 0
          0 0 0 0 0 0
          0 0 0 0 0 0
          0 0 0 0 0 0
          0 0 0 0 0 0
          0 0 0 0 0 0
          0 0 0 0 0 0
          0 0 0 0 0 0
          0 0 0 0 0 0
          0 0 0 0 0 0
          0 0 0 0 0 0
          0 0 0 0 0 0
          0 0 0 0 0 0
          0 0 0 0 0 0
          0 0 0 0 0 0
          0 0 0 0 0 0
          0 0 0 0 0 0
          0 0 0 0 0 0
          0 0 0 0 0 0
          0 0 0 0 0 0
          0 0 0 0 0 0
          0 0 0 0 0 0
          0 0 0 0 0 0
          0 0 0 0 0 0
          0 0 0 0 0 0
          0 0 0 0 0 0
          0 0 0 0 0 0
          0 0 0 0 0 0
          0 0 0 0 0 0
          0 0 0 0 0 0
          0 0 0 0 0 0
          0 0 0 0 0 0
          0 0 0 0 0 0
          0 0 0 0 0 0
          0 0 0 0 0 0
          0 0 0 0 0 0
          0 0 0 0 0 0
          0 0 0 0 0 0
          0 0 0 0 0 0
          0 0 0 0 0 0
          0 0 0 0 0 0
          0 0 0 0 0 0
          0 0 0 0 0 0
          0 0 0 0 0 0
          0 0 0 0 0 0
          0 0 0 0 0 0
          0 0 0 0 0 0
          0 0 0 0 0 0
          0 0 0 0 0 0
          0 0 0 0 0 0
          0 0 0 0 0 0
          0 0 0 0 0 0
          0 0 0 0 0 0
          0 0 0 0 0 0
          0 0 0 0 0 0
          0 0 0 0 0 0
          0 0 0 0 0 0
          0 0 0 0 0 0
          0 0 0 0 0 0
          0 0 0 0 0 0
          0 0 0 0 0 0
          0 0 0 0 0 0
          0 0 0 0 0 0
          0 0 0 0 0 0
          0 0 0 0 0 0
          0 0 0 0 0 0
          0 0 0 0 0 0
          0 0 0 0 0 0
          0 0 0 0 0 0
          0 0 0 0 0 0
          0 0 0 0 0 0
          0 0 0 0 0 0
          0
        </DataArray>
        <DataArray type="Float64" Name="combo" format="ascii" RangeMin="0" RangeMax="1.25">
          0.5 0.5 0.375 0.625 0.75 0.5
          0.5 1 1 0 0.25 0.125
          0 0.125 0 0 0 0
          0 0 0 0 0 0.5
          0.25 0.375 0 0.5 0 0.125
          0.5 0 0 0.5 0.25 0.5
          0 1 0.25 0 0 0
          0 0 0 0 0 0
          0 0 0 0.25 0 0
          0.25 0 0.125 0 0 0
          0 0 0.6666666666666666 0.5 0 0
          0.6666666666666666 0.5 0 0 0 0
          0 0 0.6666666666666666 0.5 0 0
          0.5 0 0.5 0 1 1
          1 1 1 1 1 1
          1 1 1 1 1 1
          1 1 1 1 1 1