<?xml version="1.0"?>
<VTKFile type="UnstructuredGrid" version="0.1" byte_order="LittleEndian" header_type="UInt32" compressor="vtkZLibDataCompressor">
  <UnstructuredGrid>
    <Piece NumberOfPoints="607" NumberOfCells="369">
      <PointData>
        <DataArray type="Int32" Name="libmesh_node_id" format="ascii" RangeMin="338" RangeMax="5920">
          338 340 436 439 442 452
          457 627 630 632 635 639
          641 643 1009 1011 1028 1041
          1043 1045 1060 1076 1080 1082
          1083 1084 1089 1094 1105 1106
          1107 1108 1109 1110 1111 1274
          1275 1278 1280 1676 1776 1810
          1845 1847 1849 1863 1864 1867
          1869 1879 1881 1883 1893 1895
          1897 1963 1971 1973 1994 1995
          1996 1997 2005 2007 2030 2031
          2034 2035 2037 2039 2041 2064
          2065 2068 2069 2071 2073 2075
          2113 2114 2115 2116 2117 2118
          2119 2120 2122 2124 2125 2126
          2127 2128 2129 2130 2131 2132
          2133 2134 2135 2136 2137 2138
          2139 2140 2192 2193 2194 2195
          2196 2197 2198 2199 2200 2201
          2288 2289 2290 2291 2292 2293
          2294 2295 2296 2297 2298 2299
          2300 2301 2302 2303 2304 2305
          2306 2307 2308 2309 2310 2311
          2312 2313 2314 3452 3539 3540
          3541 3543 3544 3555 3556 3557
          3558 3562 3563 4060 4087 4088
          4298 4326 4378 4379 4380 4381
          4382 4383 4391 4392 4394 4395
          4396 4405 4406 4407 4408 4410
          4419 4420 4422 4424 4498 4500
          4502 4512 4514 4516 4526 4528
          4530 4540 4542 4544 4906 4907
          4910 4913 4914 4915 4916 4917
          4954 4966 4967 4968 5013 5014
          5015 5016 5017 5018 5019 5020
          5021 5022 5023 5024 5025 5026
          5027 5028 5029 5037 5038 5039
          5192 5193 5196 5197 5198 5199
          5200 5201 5202 5203 5220 5221
          5224 5225 5226 5227 5228 5229
          5230 5231 5234 5235 5238 5246
          5247 5248 5249 5250 5251 5252
          5262 5263 5266 5273 5274 5275
          5276 5277 5278 5279 5280 5285
          5287 5440 5441 5444 5445 5446
          5447 5448 5449 5450 5451 5468
          5469 5472 5473 5474 5475 5476
          5477 5478 5479 5480 5481 5482
          5483 5484 5485 5486 5487 5489
          5491 5493 5494 5495 5496 5497
          5498 5499 5500 5501 5503 5505
          5507 5508 5509 5510 5511 5512
          5513 5514 5515 5517 5519 5521
          5522 5523 5524 5525 5526 5527
          5528 5529 5531 5533 5535 5734
          5735 5736 5737 5738 5739 5740
          5741 5742 5743 5744 5745 5746
          5747 5748 5749 5750 5751 5752
          5753 5754 5755 5756 5757 5758
          5759 5760 5761 5762 5763 5764
          5765 5766 5767 5768 5769 5770
          5771 5772 5773 5774 5775 5776
          5777 5778 5779 5780 5781 5782
          5783 5784 5785 5786 5787 5788
          5789 5790 5791 5792 5793 5794
          5795 5796 5797 5798 5799 5800
          5801 5802 5803 5804 5805 5806
          5807 5808 5809 5817 5819 5820
          5821 5822 5823 5824 5825 5826
          5827 5828 5829 5830 5831 5832
          5833 5834 5835 5836 5837 5838
          5839 5840 5841 5842 5843 5844
          5845 5846 5847 5848 5849 5850
          5851 5852 5853 5854 5855 5856
          5857 5858 5859 5860 5861 5862
          5863 5864 5865 5866 5867 5868
          5869 5870 5871 5872 5873 5874
          5875 5876 5877 5878 5879 5880
          5881 5882 5883 5885 5887 5889
          5890 5891 5892 5893 5894 5895
          5896 5897 5898 5899 5900 5901
          5902 5903 5904 5905 5906 5907
          5909 5911 5913 5914 5915 5916
          5917 5918 5919 5920 1006 1988
          1990 1992 1989 1991 1993 1672
          1674 3425 3426 1633 3427 3449
          3450 3451 3453 3454 3455 3529
          3528 3538 3530 3542 4057 4058
          4059 4061 4062 4063 4085 4086
          4377 4877 4879 4904 4878 1959
          4905 4908 4909 4887 4889 4911
          4888 1960 4912 4893 4899 1961
          4903 4900 1962 5010 5011 5012
          5190 5191 5194 5195 5179 5185
          5186 2028 5189 2029 5218 5219
          4090 5222 5223 5207 5213 5214
          2032 5217 2033 4296 5438 5439
          4300 5442 5443 5427 5433 5434
          2062 5437 2063 4324 5466 5467
          4328 5470 5471 5455 5461 5462
          2066 5465 2067 5432 5436 5460
          5464
        </DataArray>
        <DataArray type="Float64" Name="bounds" format="ascii" RangeMin="0" RangeMax="0">
          0 0 0 0 0 0
          0 0 0 0 0 0
          0 0 0 0 0 0
          0 0 0 0 0 0
          0 0 0 0 0 0
          0 0 0 0 0 0
          0 0 0 0 0 0
          0 0 0 0 0 0
          0 0 0 0 0 0
          0 0 0 0 0 0
          0 0 0 0 0 0
          0 0 0 0 0 0
          0 0 0 0 0 0
          0 0 0 0 0 0
          0 0 0 0 0 0
          0 0 0 0 0 0
          0 0 0 0 0 0
          0 0 0 0 0 0
          0 0 0 0 0 0
          0 0 0 0 0 0
          0 0 0 0 0 0
          0 0 0 0 0 0
          0 0 0 0 0 0
          0 0 0 0 0 0
          0 0 0 0 0 0
          0 0 0 0 0 0
          0 0 0 0 0 0
          0 0 0 0 0 0
          0 0 0 0 0 0
          0 0 0 0 0 0
          0 0 0 0 0 0
          0 0 0 0 0 0
          0 0 0 0 0 0
          0 0 0 0 0 0
          0 0 0 0 0 0
          0 0 0 0 0 0
          0 0 0 0 0 0
          0 0 0 0 0 0
          0 0 0 0 0 0
          0 0 0 0 0 0
          0 0 0 0 0 0
          0 0 0 0 0 0
          0 0 0 0 0 0
          0 0 0 0 0 0
          0 0 0 0 0 0
          0 0 0 0 0 0
          0 0 0 0 0 0
          0 0 0 0 0 0
          0 0 0 0 0 0
          0 0 0 0 0 0
          0 0 0 0 0 0
          0 0 0 0 0 0
          0 0 0 0 0 0
          0 0 0 0 0 0
          0 0 0 0 0 0
          0 0 0 0 0 0
          0 0 0 0 0 0
          0 0 0 0 0 0
          0 0 0 0 0 0
          0 0 0 0 0 0
          0 0 0 0 0 0
          0 0 0 0 0 0
          0 0 0 0 0 0
          0 0 0 0 0 0
          0 0 0 0 0 0
          0 0 0 0 0 0
          0 0 0 0 0 0
          0 0 0 0 0 0
          0 0 0 0 0 0
          0 0 0 0 0 0
          0 0 0 0 0 0
          0 0 0 0 0 0
          0 0 0 0 0 0
          0 0 0 0 0 0
          0 0 0 0 0 0
          0 0 0 0 0 0
          0 0 0 0 0 0
          0 0 0 0 0 0
          0 0 0 0 0 0
          0 0 0 0 0 0
          0 0 0 0 0 0
          0 0 0 0 0 0
          0 0 0 0 0 0
          0 0 0 0 0 0
          0 0 0 0 0 0
          0 0 0 0 0 0
          0 0 0 0 0 0
          0 0 0 0 0 0
          0 0 0 0 0 0
          0 0 0 0 0 0
          0 0 0 0 0 0
          0 0 0 0 0 0
          0 0 0 0 0 0
          0 0 0 0 0 0
          0 0 0 0 0 0
          0 0 0 0 0 0
          0 0 0 0 0 0
          0 0 0 0 0 0
          0 0 0 0 0 0
          0 0 0 0 0 0
          0 0 0 0 0 0
          0
        </DataArray>
        <DataArray type="Float64" Name="gradient_error" format="ascii" RangeMin="9.349653526110895e-12" RangeMax="2.92009022049935e-9">
          1.1176742754641346e-9 2.494529910194121e-9 2.962586519725447e-10 7.594635142999064e-10 1.6462348222061171e-9 2.4419905404966163e-10
          9.56337111318938e-11 1.4041109534741541e-9 1.9935603713540215e-9 1.7231717108501881e-9 4.5057181019234795e-10 5.139843330799931e-10
          4.171792438020287e-10 6.648987822461232e-10 6.09953618236756e-10 2.1357486332215476e-10 1.0614975194261044e-9 2.481019696362395e-10
          9.545857194424276e-10 2.4380325796620293e-10 3.926668852161735e-11 1.2373497627810657e-10 2.0937183491625893e-10 1.2339893116723647e-10
          5.71558877124122e-11 2.3138628942300862e-10 1.4017213108509712e-10 2.1733459884974705e-10 8.056752985316952e-11 4.493650464704748e-11
          2.2621285759563102e-10 9.492708087201588e-11 7.405596116148236e-11 2.975530150367911e-11 2.400788012681425e-10 1.0325814768005013e-9
          1.2733670035099197e-9 8.898142970912598e-10 1.4820857264630384e-9 1.3004468843726426e-10 6.185352918324962e-10 1.474529624030599e-9
          2.1306108473594106e-10 2.416282104822206e-10 3.47534263475164e-10 2.4718597166959493e-10 2.999330218672465e-10 2.0553411325155328e-10
          2.9832488476061083e-10 4.682556873812527e-10 2.2439078536176948e-10 5.173995613194831e-10 2.623506914821296e-10 2.934018898080359e-10
          2.800400524223459e-10 1.1416949935930569e-10 2.9333756091350583e-11 1.8472338561589508e-11 4.691747976623338e-11 7.367502832654835e-11
          3.3185636173421807e-11 1.0086869086303826e-10 2.4226250928583246e-11 2.847978576652552e-11 2.398198420880546e-10 8.192555184936829e-11
          4.1278267322676694e-10 6.477463937428817e-11 2.870919239729636e-11 1.159332218175272e-10 4.18001338518175e-11 5.748046610710931e-10
          1.9463121726554594e-10 6.424836875147595e-10 1.6558214183692035e-10 5.774436651580538e-11 1.8667225875232802e-10 6.433739285851631e-11
          8.207596527135609e-11 4.305511292313508e-11 9.699210055944641e-11 6.083916404548104e-11 1.3403334099100447e-10 5.4897728025050615e-11
          1.3919182869893604e-10 3.501665837787925e-11 4.94069537570073e-11 3.158487256055977e-11 1.9745790457776575e-11 4.0818394084285405e-11
          1.8035886486391185e-10 6.246421289722307e-11 1.7294297915859725e-10 6.783121914618426e-11 1.993681224713175e-10 6.902034437322252e-11
          1.8661565618911484e-10 2.8236405217538924e-11 2.5140259019241543e-11 3.3388047204093055e-11 2.6101173501419236e-11 3.1025168625171304e-11
          2.7415541746360322e-11 3.6333966293307887e-11 2.6727829611601315e-10 3.134768588544718e-10 1.4810909902677472e-10 1.5220915656106437e-10
          2.2517791666489052e-10 2.6339061678281835e-10 1.5035204706137985e-10 3.596754215929304e-10 1.5630921409535402e-10 3.0160331690074623e-10
          9.775494123339733e-11 1.2166399699447898e-10 6.168555484744885e-11 7.504682867398365e-11 7.039335835991131e-11 8.363655709022868e-11
          5.776980962135164e-11 1.6430312288543116e-10 8.214782452246539e-11 1.0360799477292458e-10 1.9503336985787726e-10 8.534052162006579e-11
          1.137032372178092e-10 5.980899100869384e-11 2.0703354670045287e-10 9.166335770669272e-11 1.1707024071031527e-10 2.918404356101802e-11
          3.164071508775335e-11 1.9392500850887673e-11 1.8903741589806617e-11 2.3190351082811457e-11 2.475132404447403e-11 1.7758595192935447e-11
          3.4097386614488677e-11 1.8414982328725554e-11 2.631229700613661e-11 1.9189584673806953e-10 1.1996375049643e-10 1.1736911839516062e-10
          8.397923816416799e-11 1.8153171895995676e-10 1.7382444846313342e-10 5.948199510494034e-11 7.326827216376378e-11 4.7705162891634644e-11
          5.7476956592608417e-11 1.0572548032190572e-10 7.426244742198153e-11 4.3811874574973167e-10 1.270810985468685e-9 8.313661960943621e-10
          1.285363365718185e-9 1.6014825937389026e-9 2.6285244807979247e-10 2.4556195165088575e-10 1.559739860625863e-10 5.633138385527205e-10
          3.639816867386293e-10 3.3305297482266284e-10 1.4622128050290643e-10 9.196856096062456e-11 6.894284210323777e-11 1.9481375099521677e-10
          1.2292890052387527e-10 7.436052965963923e-10 4.820357537718286e-10 4.3402960372671737e-10 2.784511091483642e-10 6.079902110886042e-10
          2.5164210658480324e-10 1.5908176062624993e-10 1.1472255733688722e-10 1.9819550805940425e-10 7.293069632123229e-10 4.1343824059365097e-10
          8.310902536899036e-10 2.353963917134303e-10 1.5081762514970562e-10 2.658836493697455e-10 8.990902179441484e-10 5.046467546062118e-10
          9.230084218865781e-10 2.856580146608627e-10 1.8195763373038498e-10 2.924240440301039e-10 1.206520636971108e-10 7.360604626625848e-11
          1.865045649979351e-10 4.3536611124597816e-11 2.5175251980026787e-11 1.1014291116812207e-10 6.327685042174764e-11 6.793994200596082e-11
          5.50805034828488e-11 3.534388965734313e-11 1.9015559413861138e-11 2.212497075016747e-11 7.455699410544817e-11 4.529724522552059e-11
          5.651755020993894e-11 3.449279268654024e-11 1.1322654778739259e-10 6.925718173322604e-11 7.576453575165706e-11 2.0532325018047702e-11
          2.6659610697270672e-11 1.1996025433604617e-11 1.549795789526161e-11 1.605048019093193e-11 2.022841974354644e-11 1.1806089120208323e-11
          4.121519104729792e-11 2.384885374081245e-11 2.755999807253998e-11 1.3378968967824801e-11 9.602732123572537e-12 1.0053399485641747e-11
          2.7655785391446605e-10 1.694753592495461e-10 3.912085803305189e-10 1.6660091948297183e-10 9.53990149025738e-11 1.0074685951295035e-10
          5.810423874305992e-11 2.398470559963515e-10 1.3689417830243876e-10 1.4240619305981123e-10 5.266559858957129e-10 3.228591095691315e-10
          6.73362699567524e-10 3.2785346422729025e-10 1.8659111463675372e-10 1.9148718397468755e-10 1.099239034085959e-10 4.246094654229355e-10
          2.411482588627696e-10 2.445772454538824e-10 8.445326562136299e-11 4.471371617627248e-11 1.230705676915618e-10 5.3048021535512575e-11
          2.8395673226085958e-11 3.256363416438813e-11 2.026525299046428e-11 7.572660374787573e-11 4.0391544136512546e-11 4.57337538205698e-11
          1.7005858385641896e-10 8.905137976824275e-11 2.222984900154021e-10 5.842116660372121e-11 1.0266919512307503e-10 5.463157408269208e-11
          6.113764281727342e-11 3.2745151165409913e-11 1.3221739819737945e-10 7.0147095803035e-11 7.774900887210053e-11 3.616597821520394e-11
          2.1870713440720165e-11 8.163712811916214e-10 5.00475073214074e-10 9.374747648836102e-10 5.201162760383494e-10 2.949785210731171e-10
          2.9634260553611603e-10 1.696620912678611e-10 6.017598615747303e-10 3.4096933949883703e-10 3.402149091010414e-10 1.0188964722469936e-9
          6.248254513221393e-10 1.0476272479772131e-9 6.569954034595169e-10 3.7207066245735826e-10 3.697358743257187e-10 2.1141260490862164e-10
          6.76547456537894e-10 3.830776874797238e-10 3.8015872367776654e-10 4.562912879215697e-10 2.3300662242149457e-10 2.7435302424034713e-10
          1.426419925754745e-10 5.34933778451844e-10 2.725640823862911e-10 3.1917526142468326e-10 1.1461938674184691e-10 7.164412523702196e-11
          1.3367735230746142e-10 8.293843953514624e-11 1.6141620444283192e-10 8.543403141041719e-11 9.400217566330778e-11 5.0457213941891454e-11
          1.8630573879822465e-10 9.841855072002348e-11 1.0771822566538715e-10 4.392761099595593e-11 2.6324483331200528e-11 5.049220045860619e-11
          3.007238407854435e-11 5.887005079868833e-10 2.995782237453448e-10 3.4964633329367186e-10 1.8115141845263085e-10 6.078330602961583e-10
          3.0918653178392965e-10 3.6045908292647924e-10 1.466706006274672e-10 9.058972454064632e-11 1.5128866316498594e-10 9.330011334736706e-11
          2.0311772124468136e-10 1.0717407412939487e-10 1.169253080203175e-10 6.262160882745394e-11 2.090642697740734e-10 1.1026758275084305e-10
          1.2016874556054804e-10 5.4909371653954827e-11 3.2575640825072913e-11 5.6465273371871806e-11 3.3452791050239564e-11 1.650963276511889e-10
          1.0117250391826142e-10 9.694845914766227e-11 5.931674331275722e-11 2.2943070400605677e-10 1.4085157900049015e-10 1.337220598993228e-10
          6.048454052274556e-11 3.4933099947018386e-11 3.558334075020719e-11 2.3885337301228222e-11 8.434516091597505e-11 4.8715584829762693e-11
          4.9279578278098276e-11 4.662133582370227e-11 5.631252314473017e-11 2.8231023353736556e-11 3.43511729969184e-11 3.599922225443708e-11
          4.1834706480606465e-11 2.545029210708739e-11 7.665225914085386e-11 4.72326615051593e-11 5.5131824868192487e-11 1.7693636115139397e-11
          2.1017106545581897e-11 1.4670823792562632e-11 1.6455733562961466e-11 1.4405674894460135e-11 1.619978140111273e-11 1.3536746851879902e-11
          2.8341812264559742e-11 2.1201502215641277e-11 2.0983086281742747e-11 3.0428304816451755e-10 1.8683417887300863e-10 1.749801982924105e-10
          1.0743969750709398e-10 3.8415039202683315e-10 2.3575824933578687e-10 2.1851194861316256e-10 1.1177191747823868e-10 6.452445492918009e-11
          6.441443481195713e-11 4.3035027160695466e-11 1.4070294108013292e-10 8.11774978249583e-11 8.018487038753294e-11 9.914733238787029e-11
          6.101560286940367e-11 7.091926067900926e-11 4.393326846266188e-11 1.2296526589582656e-10 7.510898293159838e-11 8.7776032578718e-11
          3.659105838989478e-11 2.736187743205707e-11 2.6954837025621065e-11 2.1198568545209032e-11 4.512966447961794e-11 2.923969570065567e-11
          3.279701156399952e-11 1.937098212467071e-11 1.3755173610943618e-11 1.444064879042857e-11 1.0580420508366749e-11 2.6920731585510747e-11
          1.6347600651277567e-11 1.9885309660639724e-11 3.5800507051197785e-11 1.9274851183508995e-11 2.6260965932787688e-11 1.436502004521532e-11
          4.52595701218891e-11 2.458538773313816e-11 2.8545217876296603e-11 1.274986928876536e-11 9.349653526110895e-12 4.6114331417154393e-10
          2.828688547380485e-10 2.6003279173658825e-10 1.5930029969604124e-10 5.258271120031747e-10 3.224881355807273e-10 2.946076368533724e-10
          1.6836806276054115e-10 9.715881861083214e-11 9.50666903160555e-11 5.4838887654572936e-11 1.9174064937656007e-10 1.1065438597673814e-10
          1.0752228602289385e-10 1.4551356021324314e-10 8.836326343266944e-11 1.0370264928498196e-10 6.226415034520383e-11 1.641254356314141e-10
          9.928641213894244e-11 1.1679269580129948e-10 5.297669242142169e-11 3.0933545536818725e-11 3.773949993923688e-11 2.2821059950658463e-11
          5.926330453328603e-11 3.482921009523868e-11 4.153247230934072e-11 5.691016660492459e-10 3.4904104840281576e-10 3.1759877519446224e-10
          1.9442092080241196e-10 5.84335012925992e-10 3.5839340504172796e-10 3.256684252411065e-10 2.0751334491540103e-10 1.1973661652127733e-10
          1.1591802155293972e-10 6.732500111125432e-11 2.1305474289041453e-10 1.2291322562899133e-10 1.1885468802453942e-10 1.7636997393407066e-10
          1.0661876847419959e-10 1.2531599060276394e-10 7.447029877432367e-11 1.8057952219993716e-10 1.0921047904124549e-10 1.2814488534386625e-10
          6.359100352723659e-11 3.732452705935657e-11 4.440586447357653e-11 2.6466500004296223e-11 6.518852309820303e-11 3.827887833398566e-11
          4.5569150474468316e-11 5.449850639746448e-11 2.952620008874811e-11 3.0821195938222755e-11 1.967786684332481e-11 6.22017636916228e-11
          3.366371908132492e-11 3.5401888958726725e-11 1.524041472518484e-11 1.1154080116295671e-11 1.73174991782429e-11 1.263600208656749e-11
          1.5792786152314838e-11 1.723130310228029e-11 1.1630020273881079e-11 1.2410346741406608e-11 1.22049193224221e-11 1.2822450973487115e-11
          9.37427165616438e-12 1.966602000267101e-11 1.408248416068992e-11 1.4191121831957688e-11 6.727221670022089e-11 3.6392568365087304e-11
          3.8147432409516373e-11 2.416034162523757e-11 6.904608904768597e-11 3.734626464849996e-11 3.909025890972599e-11 1.8702716969651288e-11
          1.36324562065037e-11 1.9187662296364717e-11 1.398022595310677e-11 2.1128153328755382e-11 1.5225575139548116e-11 1.5248401629767458e-11
          1.158624708866151e-11 2.1594086704414498e-11 1.5476855166648532e-11 1.5554542220171674e-11 3.0669421315626737e-10 5.6873853694256974e-11
          3.9594078899706055e-11 5.80763911421266e-11 7.821314641806847e-11 4.0424952142113006e-11 1.1571356066295294e-10 1.1256128536263965e-10
          1.8720501395336947e-10 2.868676028042251e-10 1.8451960612048818e-10 1.1936247715599403e-10 1.872101567672069e-10 4.695899585297481e-10
          3.0407640633197535e-10 2.986990016786077e-10 7.38436440915423e-10 4.80885844683536e-10 4.585880753138576e-10 7.614781288514599e-11
          1.2049618390998268e-10 1.8880587855947713e-10 8.595915318814931e-11 2.836522598435179e-10 1.1102953557172523e-9 7.268414641056749e-10
          6.748596449275473e-10 1.5896243037890971e-9 1.045740064581212e-9 9.488330167538522e-10 2.1600933587605482e-9 1.4276868890442065e-9
          4.082629047668646e-10 1.1613893042937154e-10 7.479137845549727e-11 1.9175983586062612e-10 7.088959795320188e-11 5.357477957653385e-11
          1.1734852433198047e-10 3.0374580615788973e-10 1.858476342020625e-10 4.1843725026006054e-11 3.015207718715062e-11 6.953274165094266e-11
          2.4112208513593337e-11 2.7711853641379708e-11 4.0024408933507765e-11 1.835594481789823e-10 1.084056912441271e-10 2.9867687646723977e-10
          1.7597531535818742e-10 6.195982852778038e-11 1.001438091272537e-10 4.708205805960696e-11 3.243907739009492e-11 3.630384246272949e-11
          4.6019234220830363e-10 2.8160519120029475e-10 6.635740978167664e-10 4.0609466456670707e-10 4.630823246647788e-10 2.7225687034670134e-10
          1.5432333343091183e-10 6.814916035888556e-10 4.000277764200036e-10 2.259713341024697e-10 9.079910205644052e-10 5.558411327265193e-10
          1.8453825333901875e-9 1.17634673960202e-9 7.205126291130883e-10 9.488642953808534e-10 5.564615400609301e-10 3.1349018934800604e-10
          1.2469290944586162e-9 7.310592582105053e-10 4.1107247384875977e-10 2.255023788294349e-9 1.4406062141074782e-9 8.829992118720416e-10
          2.6030433931634664e-9 1.665924185029989e-9 1.0218227173791674e-9 1.543969601324076e-9 9.053906802471e-10 5.084899607500793e-10
          1.7994543246165534e-9 1.055652345830628e-9 5.924719396174195e-10 2.8373667456304353e-9 1.8180400314873204e-9 1.1156933825938379e-9
          2.92009022049935e-9 1.87182116836562e-9 1.1489104638289162e-9 1.972914681972276e-9 1.1578533041957702e-9 6.496104806659627e-10
          2.0344135864093606e-9 1.194123442326169e-9 6.698935376818936e-10 8.572880973410668e-10 1.0062925381450216e-9 1.108172659957536e-9
          1.1444255386950878e-9
        </DataArray>
        <DataArray type="Float64" Name="gradient_matprop_error" format="ascii" RangeMin="0" RangeMax="0">
          0 0 0 0 0 0
          0 0 0 0 0 0
          0 0 0 0 0 0
          0 0 0 0 0 0
          0 0 0 0 0 0
          0 0 0 0 0 0
          0 0 0 0 0 0
          0 0 0 0 0 0
          0 0 0 0 0 0
          0 0 0 0 0 0
          0 0 0 0 0 0
          0 0 0 0 0 0
          0 0 0 0 0 0
          0 0 0 0 0 0
          0 0 0 0 0 0
          0 0 0 0 0 0
          0 0 0 0 0 0
          0 0 0 0 0 0
          0 0 0 0 0 0
          0 0 0 0 0 0
          0 0 0 0 0 0
          0 0 0 0 0 0
          0 0 0 0 0 0
          0 0 0 0 0 0
          0 0 0 0 0 0
          0 0 0 0 0 0
          0 0 0 0 0 0
          0 0 0 0 0 0
          0 0 0 0 0 0
          0 0 0 0 0 0
          0 0 0 0 0 0
          0 0 0 0 0 0
          0 0 0 0 0 0
          0 0 0 0 0 0
          0 0 0 0 0 0
          0 0 0 0 0 0
          0 0 0 0 0 0
          0 0 0 0 0 0
          0 0 0 0 0 0
          0 0 0 0 0 0
          0 0 0 0 0 0
          0 0 0 0 0 0
          0 0 0 0 0 0
          0 0 0 0 0 0
          0 0 0 0 0 0
          0 0 0 0 0 0
          0 0 0 0 0 0
          0 0 0 0 0 0
          0 0 0 0 0 0
          0 0 0 0 0 0
          0 0 0 0 0 0
          0 0 0 0 0 0
          0 0 0 0 0 0
          0 0 0 0 0 0
          0 0 0 0 0 0
          0 0 0 0 0 0
          0 0 0 0 0 0
          0 0 0 0 0 0
          0 0 0 0 0 0
          0 0 0 0 0 0
          0 0 0 0 0 0
          0 0 0 0 0 0
          0 0 0 0 0 0
          0 0 0 0 0 0
          0 0 0 0 0 0
          0 0 0 0 0 0
          0 0 0 0 0 0
          0 0 0 0 0 0
          0 0 0 0 0 0
          0 0 0 0 0 0
          0 0 0 0 0 0
          0 0 0 0 0 0
          0 0 0 0 0 0
          0 0 0 0 0 0
          0 0 0 0 0 0
          0 0 0 0 0 0
          0 0 0 0 0 0
          0 0 0 0 0 0
          0 0 0 0 0 0
          0 0 0 0 0 0
          0 0 0 0 0 0
          0 0 0 0 0 0
          0 0 0 0 0 0
          0 0 0 0 0 0
          0 0 0 0 0 0
          0 0 0 0 0 0
          0 0 0 0 0 0
          0 0 0 0 0 0
          0 0 0 0 0 0
          0 0 0 0 0 0
          0 0 0 0 0 0
          0 0 0 0 0 0
          0 0 0 0 0 0
          0 0 0 0 0 0
          0 0 0 0 0 0
          0 0 0 0 0 0
          0 0 0 0 0 0
          0 0 0 0 0 0
          0 0 0 0 0 0
          0 0 0 0 0 0
          0 0 0 0 0 0
          0
        </DataArray>
        <DataArray type="Float64" Name="initial_marker" format="ascii" RangeMin="0" RangeMax="2">
          0 0 2 0 2 0
          0 0 0 0 0 0
          0 0 0 0 2 1
          0 1.5 2 0 0 0
          0 0 2 2 0 0
          0 0 0 0 0 0
          0 0 0 1.75 2 2
          2 0.75 2 0 0 0
          0 2 1.5 2 0 0
          0 2 2 0.75 0 1.25
          0.25 0 0 0 2 2
          2 2 1.75 2 2 2
          2 2 2 2 2 2
          2 1.25 0 0 2 1.75
          0.75 0 0 0.5 0 0
          2 2 1 0 2 2
          1 0.75 0 0 0 1
          0 0 0 0 0 0
          0 0 0 0 0 0
          0 0 0 0 0 0
          0 0 0 0 0 0
          0 0 0 0 0 0
          0 0 0 0 0 0
          0 0 0 2 2 1.5
          1.6666666666666667 2 2 0 0.5 0
          0.5 1.25 1 2 2 2
          2 2 2 2 2 2
          2 2 1.75 1.25 0.5 2
          1.75 2 2 2 2 2
          2 2 2 2 2 2
          2 2 1.6666666666666667 2 2 2
          2 2 2 2 2 2
          2 1.75 1.5 2 2 2
          2 2 1.75 1.5 2 1.75
          2 1.5 2 2 2 0.5
          1 0 0.5 0 0.5 0
          1.75 1.25 1 0.5 0 0
          2 2 2 2 2 2
          2 2 2 2 2 2
          2 2 2 2 2 2
          2 2 2 2 2 2
          2 1.75 1.6666666666666667 2 2 2
          2 2 2 2 2 2
          2 2 2 2 2 2
          1.75 2 2 2 2 2
          2 2 2 2 2 2
          2 2 2 2 2 2
          2 2 2 2 2 2
          2 2 2 2 2 2
          2 2 2 2 2 2
          2 2 2 2 2 2
          2 2 2 2 2 2
          2 2 2 2 2 2
          2 2 2 2 2 2
          2 2 2 2 2 2
          2 2 1.75 2 2 2
          2 1.75 1.25 1 2 2
          1.75 1 1 0.5 0.75 0
          0 0 1.25 1 0.5 0
          0.25 0 0 0 0 0
          0.75 0.5 0 2 2 2
          2 2 2 2 2 2
          2 2 2 2 2 1.75
          1.25 1.5 0.5 2 1.75 2
          1 1 0 0 1.25 1
          0.5 1 0.5 0.5 0 1.5
          1 1 1.75 1.25 1.5 0.5
          2 1.5 1.6666666666666667 0.75 0 2
          2 2 2 2 2 2
          2 2 2 2 2 2
          2 2 2 2 2 2
          2 2 1.5 1 1 0
          1.5 1 1 2 2 2
          2 2 2 2 2 2
          2 2 2 2 2 2
          2 2 2 2 2 2
          1.5 1 1 0 1.5 1
          1 2 1.5 1.5 0.6666666666666666 2
          1.75 1.5 1 0 1.25 0.5
          0.5 0.5 0 0 0 0
          0 0.5 0 0 2 2
          1.5 1.3333333333333333 2 2 1.5 1.5
          1 1.5 1 0.5 0 0
          0 0.5 0 0 0 0
          0 0 0.25 0 0 0.75
          0 2 2 2 2 2
          2 2 2 2 2 1.75
          2 2 1.3333333333333333 2 2 2
          2 2 2 2 2 2
          2 2 2 2 2 1.75
          2 2 2 2 1.6666666666666667 2
          1.75 0.75 2 2 2 2
          2 2 2 1.5 1.3333333333333333 1
          2 2 2 2 2 2
          2 2 2 2 2 2
          2 2 2 2 2 2
          2 2 2 2 2 2
          2 2 2 2 2 2
          2 2 2 2 2 2
          2 2 2 2 2 2
          2 2 2 2 2 2
          2
        </DataArray>
        <DataArray type="Float64" Name="markers_norefine" format="ascii" RangeMin="0" RangeMax="0">
          0 0 0 0 0 0
          0 0 0 0 0 0
          0 0 0 0 0 0
          0 0 0 0 0 0
          0 0 0 0 0 0
          0 0 0 0 0 0
          0 0 0 0 0 0
          0 0 0 0 0 0
          0 0 0 0 0 0
          0 0 0 0 0 0
          0 0 0 0 0 0
          0 0 0 0 0 0
          0 0 0 0 0 0
          0 0 0 0 0 0
          0 0 0 0 0 0
          0 0 0 0 0 0
          0 0 0 0 0 0
          0 0 0 0 0 0
          0 0 0 0 0 0
          0 0 0 0 0 0
          0 0 0 0 0 0
          0 0 0 0 0 0
          0 0 0 0 0 0
          0 0 0 0 0 0
          0 0 0 0 0 0
          0 0 0 0 0 0
          0 0 0 0 0 0
          0 0 0 0 0 0
          0 0 0 0 0 0
          0 0 0 0 0 0
          0 0 0 0 0 0
          0 0 0 0 0 0
          0 0 0 0 0 0
          0 0 0 0 0 0
          0 0 0 0 0 0
          0 0 0 0 0 0
          0 0 0 0 0 0
          0 0 0 0 0 0
          0 0 0 0 0 0
          0 0 0 0 0 0
          0 0 0 0 0 0
          0 0 0 0 0 0
          0 0 0 0 0 0
          0 0 0 0 0 0
          0 0 0 0 0 0
          0 0 0 0 0 0
          0 0 0 0 0 0
          0 0 0 0 0 0
          0 0 0 0 0 0
          0 0 0 0 0 0
          0 0 0 0 0 0
          0 0 0 0 0 0
          0 0 0 0 0 0
          0 0 0 0 0 0
          0 0 0 0 0 0
          0 0 0 0 0 0
          0 0 0 0 0 0
          0 0 0 0 0 0
          0 0 0 0 0 0
          0 0 0 0 0 0
          0 0 0 0 0 0
          0 0 0 0 0 0
          0 0 0 0 0 0
          0 0 0 0 0 0
          0 0 0 0 0 0
          0 0 0 0 0 0
          0 0 0 0 0 0
          0 0 0 0 0 0
          0 0 0 0 0 0
          0 0 0 0 0 0
          0 0 0 0 0 0
          0 0 0 0 0 0
          0 0 0 0 0 0
          0 0 0 0 0 0
          0 0 0 0 0 0
          0 0 0 0 0 0
          0 0 0 0 0 0
          0 0 0 0 0 0
          0 0 0 0 0 0
          0 0 0 0 0 0
          0 0 0 0 0 0
          0 0 0 0 0 0
          0 0 0 0 0 0
          0 0 0 0 0 0
          0 0 0 0 0 0
          0 0 0 0 0 0
          0 0 0 0 0 0
          0 0 0 0 0 0
          0 0 0 0 0 0
          0 0 0 0 0 0
          0 0 0 0 0 0
          0 0 0 0 0 0
          0 0 0 0 0 0
          0 0 0 0 0 0
          0 0 0 0 0 0
          0 0 0 0 0 0
          0 0 0 0 0 0
          0 0 0 0 0 0
          0 0 0 0 0 0
          0 0 0 0 0 0
          0 0 0 0 0 0
          0
        </DataArray>
        <DataArray type="Float64" Name="markers_mustrefine" format="ascii" RangeMin="0" RangeMax="2">
          0 0 2 0 2 0
          0 0 0 0 0 0
          0 0 0 0 2 1
          0 1.5 2 0 0 0
          0 0 2 2 0 0
          0 0 0 0 0 0
          0 0 0 1.75 2 2
          2 0.75 2 0 0 0
          0 2 1.5 2 0 0
          0 2 2 0.75 0 1.25
          0.25 0 0 0 2 2
          2 2 1.75 2 2 2
          2 2 2 2 2 2
          2 1.25 0 0 2 1.75
          0.75 0 0 0.5 0 0
          2 2 1 0 2 2
          1 0.75 0 0 0 1
          0 0 0 0 0 0
          0 0 0 0 0 0
          0 0 0 0 0 0
          0 0 0 0 0 0
          0 0 0 0 0 0
          0 0 0 0 0 0
          0 0 0 2 2 1.5
          1.6666666666666667 2 2 0 0.5 0
          0.5 1.25 1 2 2 2
          2 2 2 2 2 2
          2 2 1.75 1.25 0.5 2
          1.75 2 2 2 2 2
          2 2 2 2 2 2
          2 2 1.6666666666666667 2 2 2
          2 2 2 2 2 2
          2 1.75 1.5 2 2 2
          2 2 1.75 1.5 2 1.75
          2 1.5 2 2 2 0.5
          1 0 0.5 0 0.5 0
          1.75 1.25 1 0.5 0 0
          2 2 2 2 2 2