<?xml version="1.0"?>
<VTKFile type="UnstructuredGrid" version="0.1" byte_order="LittleEndian" header_type="UInt32" compressor="vtkZLibDataCompressor">
  <UnstructuredGrid>
    <Piece NumberOfPoints="642" NumberOfCells="386">
      <PointData>
        <DataArray type="Int32" Name="libmesh_node_id" format="ascii" RangeMin="253" RangeMax="4596">
          438 443 625 629 631 633
          999 1001 1007 1008 1010 1012
          1034 1036 1038 1040 1042 1044
          1046 1268 1269 1270 1271 1272
          1273 1276 1277 1279 1281 1642
          1643 1666 1667 1668 1669 1670
          1673 1675 1677 1779 1809 1813
          1817 1818 1819 1820 1821 1822
          1823 1831 1832 1833 1834 1835
          1836 1837 1838 1839 1840 1841
          1842 1843 1844 1846 1848 1850
          1851 1852 1853 1854 1855 1856
          1857 1858 1859 1860 1861 1862
          1865 1866 1868 1870 1871 1872
          1873 1874 1875 1876 1877 1878
          1880 1882 1884 1885 1886 1887
          1888 1889 1890 1891 1892 1894
          1896 1898 2182 2183 2184 2185
          2186 2187 2188 2189 2190 2191
          2216 2217 2218 2219 2220 2221
          2222 2223 2224 2225 2226 2227
          2228 2229 2230 2231 2232 3491
          3495 3496 3499 3500 3501 3502
          3503 3504 3505 3506 3507 3508
          3509 3510 3511 3512 3513 3533
          3534 3537 3545 3546 3547 3548
          3549 3550 3551 3552 3553 3554
          3559 3560 3561 3564 4080 4081
          4084 4091 4290 4291 4294 4297
          4301 4318 4319 4322 4325 4329
          4331 4332 4335 4336 4337 4338
          4339 4340 4341 4342 4343 4344
          4345 4346 4347 4348 4349 4350
          4351 4352 4353 4354 4355 4356
          4357 4358 4359 4360 4361 4362
          4363 4364 4365 4366 4367 4368
          4369 4372 4373 4374 4375 4376
          4384 4385 4386 4387 4388 4389
          4390 4393 4397 4398 4399 4400
          4401 4402 4403 4404 4409 4411
          4412 4413 4414 4415 4416 4417
          4418 4421 4423 4425 4426 4427
          4428 4429 4430 4431 4432 4433
          4434 4435 4436 4437 4438 4439
          4440 4441 4442 4443 4444 4445
          4446 4447 4448 4449 4450 4451
          4452 4453 4454 4455 4456 4457
          4458 4459 4460 4461 4462 4463
          4464 4465 4466 4467 4468 4469
          4470 4471 4472 4473 4474 4475
          4476 4477 4478 4479 4480 4481
          4482 4483 4484 4485 4486 4487
          4488 4489 4490 4491 4492 4493
          4494 4495 4496 4497 4499 4501
          4503 4504 4505 4506 4507 4508
          4509 4510 4511 4513 4515 4517
          4518 4519 4520 4521 4522 4523
          4524 4525 4527 4529 4531 4532
          4533 4534 4535 4536 4537 4538
          4539 4541 4543 4545 4546 4547
          4548 4549 4550 4551 4552 4553
          4554 4555 4556 4557 4558 4559
          4560 4561 4562 4563 4564 4565
          4566 4567 4568 4569 4570 4571
          4572 4573 4574 4575 4576 4577
          4578 4579 4580 4581 4582 4583
          4584 4585 4586 4587 4588 4589
          4590 4591 4592 4593 4594 4595
          4596 322 335 517 509 253
          340 523 514 319 437 624
          596 425 597 628 600 626
          627 630 325 602 632 993
          995 997 994 996 998 973
          974 978 433 1000 1002 1003
          1004 1005 330 1006 1009 1017
          1018 1033 1035 1022 441 1037
          1039 612 613 1135 1133 1249
          1252 1256 1250 1254 1257 439
          1274 1043 1275 1278 338 1280
          1640 1651 1653 1641 1664 1652
          1665 1551 1625 1629 1661 1663
          1671 1662 1672 1674 1708 1768
          1772 1011 1863 1847 1864 1867
          1041 1869 1742 1802 1806 1893
          1895 1897 3482 3487 3489 3490
          3493 3488 3494 3492 3497 3498
          3518 3520 3531 3519 3532 3535
          3536 3528 3530 3538 3540 3542
          3544 3555 3556 3557 3558 3562
          3563 4014 4054 4056 1769 4030
          4078 4032 4055 1775 4079 4034
          4082 1027 4083 4061 4063 4085
          4087 4089 4086 4088 4090 1028
          4244 4288 4246 4289 4248 4292
          1803 4293 4295 4296 4298 4299
          4300 1810 4268 4316 4270 4317
          4272 4320 1032 4321 4323 4324
          4326 4327 4328 442 4330 4333
          4334 4007 4011 4015 4012 4027
          4031 4035 4370 4371 4052 4053
          4377 4379 4059 4381 4383 4391
          4392 4394 4395 4396 4405 4407
          4406 4410 4408 1849 4419 4420
          4422 4424 4241 4245 4249 4265
          4269 4273 4498 4500 4502 1879
          4512 4514 4516 1881 4526 4528
          4530 1883 4540 4542 4544 1045
        </DataArray>
        <DataArray type="Float64" Name="bounds" format="ascii" RangeMin="0" RangeMax="0">
          0 0 0 0 0 0
          0 0 0 0 0 0
          0 0 0 0 0 0
          0 0 0 0 0 0
          0 0 0 0 0 0
          0 0 0 0 0 0
          0 0 0 0 0 0
          0 0 0 0 0 0
          0 0 0 0 0 0
          0 0 0 0 0 0
          0 0 0 0 0 0
          0 0 0 0 0 0
          0 0 0 0 0 0
          0 0 0 0 0 0
          0 0 0 0 0 0
          0 0 0 0 0 0
          0 0 0 0 0 0
          0 0 0 0 0 0
          0 0 0 0 0 0
          0 0 0 0 0 0
          0 0 0 0 0 0
          0 0 0 0 0 0
          0 0 0 0 0 0
          0 0 0 0 0 0
          0 0 0 0 0 0
          0 0 0 0 0 0
          0 0 0 0 0 0
          0 0 0 0 0 0
          0 0 0 0 0 0
          0 0 0 0 0 0
          0 0 0 0 0 0
          0 0 0 0 0 0
          0 0 0 0 0 0
          0 0 0 0 0 0
          0 0 0 0 0 0
          0 0 0 0 0 0
          0 0 0 0 0 0
          0 0 0 0 0 0
          0 0 0 0 0 0
          0 0 0 0 0 0
          0 0 0 0 0 0
          0 0 0 0 0 0
          0 0 0 0 0 0
          0 0 0 0 0 0
          0 0 0 0 0 0
          0 0 0 0 0 0
          0 0 0 0 0 0
          0 0 0 0 0 0
          0 0 0 0 0 0
          0 0 0 0 0 0
          0 0 0 0 0 0
          0 0 0 0 0 0
          0 0 0 0 0 0
          0 0 0 0 0 0
          0 0 0 0 0 0
          0 0 0 0 0 0
          0 0 0 0 0 0
          0 0 0 0 0 0
          0 0 0 0 0 0
          0 0 0 0 0 0
          0 0 0 0 0 0
          0 0 0 0 0 0
          0 0 0 0 0 0
          0 0 0 0 0 0
          0 0 0 0 0 0
          0 0 0 0 0 0
          0 0 0 0 0 0
          0 0 0 0 0 0
          0 0 0 0 0 0
          0 0 0 0 0 0
          0 0 0 0 0 0
          0 0 0 0 0 0
          0 0 0 0 0 0
          0 0 0 0 0 0
          0 0 0 0 0 0
          0 0 0 0 0 0
          0 0 0 0 0 0
          0 0 0 0 0 0
          0 0 0 0 0 0
          0 0 0 0 0 0
          0 0 0 0 0 0
          0 0 0 0 0 0
          0 0 0 0 0 0
          0 0 0 0 0 0
          0 0 0 0 0 0
          0 0 0 0 0 0
          0 0 0 0 0 0
          0 0 0 0 0 0
          0 0 0 0 0 0
          0 0 0 0 0 0
          0 0 0 0 0 0
          0 0 0 0 0 0
          0 0 0 0 0 0
          0 0 0 0 0 0
          0 0 0 0 0 0
          0 0 0 0 0 0
          0 0 0 0 0 0
          0 0 0 0 0 0
          0 0 0 0 0 0
          0 0 0 0 0 0
          0 0 0 0 0 0
          0 0 0 0 0 0
          0 0 0 0 0 0
          0 0 0 0 0 0
          0 0 0 0 0 0
          0 0 0 0 0 0
          0 0 0 0 0 0
        </DataArray>
        <DataArray type="Float64" Name="gradient_error" format="ascii" RangeMin="4.7110930110538536e-11" RangeMax="2.7816597312069125e-7">
          3.976363987101282e-8 6.367942917567591e-8 2.795116087945977e-8 3.831880320920986e-9 3.981061537754852e-8 4.011580022333948e-9
          8.71699266182805e-9 7.165463619023058e-8 1.5455772487984493e-9 1.8083767352134072e-9 1.1215913996727914e-9 2.2983290189945703e-9
          1.376295237861078e-7 3.160663789339973e-8 1.7017095446112576e-7 7.307405563677117e-10 3.6783570591659586e-9 1.0086959505863188e-9
          4.391944461448337e-9 4.611798087434442e-9 7.211999024957419e-9 5.486343604162813e-9 8.6197049669882e-9 2.983723278016284e-9
          4.641994235414688e-9 2.1881722899489786e-9 3.4447715059205373e-9 5.510417395411885e-9 4.1247005805830595e-9 5.023642696574214e-9
          1.6373491477865967e-8 3.234183128247969e-9 9.606593347560356e-10 8.88061288022876e-9 6.684905662223243e-10 5.329672303934272e-9
          3.569418856905541e-10 2.704465978422007e-10 4.0378436485026773e-10 2.3864012078281287e-9 3.2714116480504777e-9 3.6336819996233036e-9
          2.7955880814079736e-8 1.4588210891079166e-8 3.926408728406296e-8 3.9097679757475165e-9 5.722859504334432e-9 4.402351318955149e-9
          7.340400378967349e-9 4.887377460713534e-8 2.5012661040693046e-8 5.338748578538822e-8 8.4889627483722e-9 6.590967586046163e-9
          8.970953643066942e-9 1.5173662241945643e-8 1.2064767379625416e-9 8.180768178607248e-9 1.0049207769995554e-9 2.1409440327638053e-8
          1.86905332880352e-9 1.0952586977821224e-8 5.128997347384299e-10 4.294307873317096e-10 8.239358181858585e-10 3.466586899596766e-10
          2.9447245474497723e-9 3.807010609495241e-9 1.3604688494148839e-9 1.2519880321774353e-9 2.062296478790936e-9 3.034923738666797e-9
          1.1644192712042938e-9 4.427801122515109e-9 9.243896287558223e-10 3.946043398130812e-9 5.225616866862296e-10 5.486200758494403e-10
          3.653068473546215e-10 4.814536529870721e-10 4.392217747476272e-10 6.054507801715427e-10 2.6720804101684673e-8 2.4452052432891637e-9
          1.3503252123878542e-8 9.278386356805195e-10 2.9196607624599426e-8 2.6798776871911956e-9 1.4676150289198097e-8 1.0993089836531933e-9
          3.674370895349299e-10 1.210982664802639e-9 4.009547731872433e-10 5.146159682678509e-9 1.0980887477297235e-9 4.585556703971926e-9
          1.7882015546801986e-9 5.442930353639059e-9 1.1632504121379852e-9 4.829486665575022e-9 4.385007716805082e-10 7.217642608822685e-10
          4.689765767416368e-10 7.699191824735701e-10 1.7707579315472232e-9 2.5950305117447355e-9 1.8968105283358647e-9 1.1356215789893512e-9
          1.6647485298022132e-9 5.004852264314794e-10 7.344665478596908e-10 8.270396680919262e-10 1.2192709083659336e-9 5.417312883960024e-10
          1.7464574049704408e-9 2.397051626026926e-9 1.8097477629452533e-9 1.2949757603449173e-9 1.7770142002306946e-9 5.840894937034657e-10
          8.07586136244997e-10 9.546614701003654e-10 1.279933502120719e-9 5.386732608811409e-10 2.443095255006683e-10 3.312278082294373e-10
          1.6393417931379927e-10 2.042601184033438e-10 1.9359690442330206e-10 2.492977571052596e-10 1.7136823374442192e-10 9.958964855228962e-10
          7.918282809275551e-10 4.727589629563356e-10 1.1044794566751688e-9 5.385349143818482e-10 6.464094479218351e-10 5.400840578228295e-10
          9.045173362386638e-10 4.3877317713726234e-10 5.221906526061787e-10 2.619767196000575e-10 3.132742227923144e-10 3.6906824663712783e-10
          4.3084723843698715e-10 2.500795035391359e-10 7.24859543898012e-10 4.349565250774567e-10 5.90967604816987e-10 2.923325819629929e-10
          1.8513056655401232e-10 4.222907872681135e-10 1.5490522256309434e-10 1.8834889047404945e-10 9.806363656849811e-11 1.185903901944557e-10
          1.2772726945755741e-10 1.491293845847653e-10 9.426744387554154e-11 2.652517053732119e-10 1.672989691742667e-10 2.031671252228858e-10
          4.8679075197300156e-11 5.796781835960902e-11 4.7110930110538536e-11 8.065912634869533e-11 2.727134504904006e-9 1.8850753496889723e-9
          3.4242866407855787e-9 1.6174882497461327e-9 4.0868944510984635e-9 2.8684282505265166e-9 4.634134433775437e-9 1.9532683694495636e-9
          2.235876158587979e-9 4.994224126328404e-9 3.5395970995661963e-9 5.119693107549024e-9 2.4249602567052575e-9 2.4915025835498976e-9
          1.8625816924895556e-9 3.403462602385488e-9 1.4891931851533993e-9 9.139651512817698e-10 2.8409665576210153e-9 1.9015543442085008e-9
          1.927651374616821e-9 1.2173183799034501e-9 1.0119112392214733e-9 1.5691044741872496e-9 9.77345433451891e-10 5.905306554618503e-10
          7.978936877121079e-10 4.6085209991598364e-10 1.2627285519449487e-9 7.723037596656651e-10 9.262947510060423e-10 4.266654984409518e-9
          2.975768617648725e-9 5.134217260468752e-9 3.589367939727456e-9 2.444424464849922e-9 2.412813727815562e-9 1.53278059136366e-9
          4.351243280155125e-9 3.008956972778889e-9 2.9004447207504215e-9 1.958263430791037e-9 1.3369702873894478e-9 2.3211387927727453e-9
          1.5762287258966237e-9 9.71080641578565e-10 1.050814836117396e-9 6.099910120197606e-10 1.8789987330603827e-9 1.1729569271528338e-9
          1.2562727274831314e-9 5.863190288001996e-10 3.7972045489266434e-10 1.2750197690806082e-9 8.536426881744292e-10 7.848180981732774e-10
          3.6330842475314457e-10 2.3046732224565496e-10 2.769136239345367e-10 1.7369004830114942e-10 4.82665639892597e-10 3.075837043420308e-10
          3.248921997143625e-10 1.0881747593577099e-10 1.4259902631458966e-10 1.6597889807494158e-9 1.120734416720258e-9 1.009019791517576e-9
          6.647998139344304e-10 2.063863186663779e-9 1.403630522535644e-9 1.242145522017715e-9 9.355389251194545e-10 5.403621051758938e-10
          6.162525570021045e-10 3.958711210755306e-10 3.713044773633025e-10 2.663671081448255e-10 7.507815510200476e-10 4.861361828768562e-10
          4.515780716042998e-10 1.8364535905233362e-10 3.1203266671899483e-10 1.9554853826455804e-10 7.465270037217008e-10 8.462044263105288e-10
          7.063545323456223e-10 1.0125833916304615e-9 6.062189300314376e-10 6.702075907541423e-10 3.5315074982621307e-10 3.836986287923049e-10
          5.047999898519857e-10 5.434721846254835e-10 2.9422673822220257e-10 7.897370308407746e-10 4.4838189416020506e-10 6.272313903579478e-10
          2.014148085791818e-10 2.235896359546442e-10 1.6243897384711187e-10 1.7399276952243438e-10 1.6467461427217618e-10 1.7495084863787617e-10
          1.4203805773669209e-10 2.669461545181751e-10 1.7963525008906424e-10 1.9998721524979934e-10 5.983248546019138e-9 4.10807056028858e-9
          6.68289886757921e-9 5.0832531359127415e-9 3.539833231513472e-9 3.36273107671278e-9 2.184405446056759e-9 5.686635833326662e-9
          3.9779798176841e-9 3.746267111937913e-9 2.6420088541177002e-9 1.8182602691096106e-9 2.9085488646195197e-9 2.15152049451576e-9
          1.3595225340426064e-9 1.4286908228028516e-9 8.394330203704324e-10 2.3769459304878674e-9 1.5128530840341297e-9 1.5700232896563169e-9
          7.137703727357692e-9 4.878414695257814e-9 7.321700542057252e-9 6.082994159755315e-9 4.2691275322078465e-9 4.0040877682119144e-9
          2.618840351520209e-9 6.2345074534065384e-9 4.371456985123499e-9 4.103827159965001e-9 3.0981844477065474e-9 2.1209244058085097e-9
          3.1792152708629354e-9 2.5338638357341013e-9 1.6156972733626238e-9 1.670041090554679e-9 9.87445757634531e-10 2.596459588489426e-9
          1.6520933430156917e-9 1.7102985361754375e-9 2.446953321286382e-9 1.6738705545093698e-9 1.4616203047414537e-9 9.745694495190564e-10
          2.764181839269131e-9 1.8988606069362254e-9 1.6429937353453391e-9 1.119878513442958e-9 6.414330958084e-10 1.274111686911428e-9
          7.253704813851943e-10 8.737443754029937e-10 5.685515433051627e-10 5.213040451687035e-10 3.277703455018478e-10 9.753914187259065e-10
          6.368001784477902e-10 5.787149136218961e-10 3.6899045280454214e-10 2.0720572428092898e-10 4.155760990948059e-10 2.344215522261611e-10
          2.9742690944048168e-9 2.0482536950929766e-9 1.7632804102180654e-9 1.1819959688102118e-9 3.0478577627929036e-9 2.1006199389560892e-9
          1.805484382834035e-9 1.3769275604413472e-9 7.81061066124701e-10 1.41304805719593e-9 8.005698656332531e-10 1.043641316313693e-9
          6.826467563358083e-10 6.170555111491018e-10 3.923085081539441e-10 1.06750527530535e-9 6.985525600628387e-10 6.304160459059177e-10
          4.4605606847804136e-10 2.504679250951592e-10 4.5657837170132706e-10 2.5601434998879575e-10 1.138452401069189e-9 9.400939264918877e-10
          1.2405637870062398e-9 8.921636123756426e-10 5.105677178643354e-10 7.088811374434021e-10 3.747124517535078e-10 9.740072817152168e-10
          5.600978602187301e-10 7.731201133318897e-10 1.3158724901986163e-9 1.0897647638306013e-9 1.3482372741615642e-9 1.0326933633859116e-9
          5.93550548694612e-10 8.190642877874746e-10 4.30640099942879e-10 1.0564215778879723e-9 6.055235321184209e-10 8.373322224810599e-10
          3.0618852916738726e-10 1.9010177068162435e-10 2.2593226788653745e-10 1.438392624042785e-10 3.3738631530733196e-10 2.1167309001840437e-10
          2.458033826268694e-10 1.0867630628908627e-10 1.1652884634550618e-10 8.648524384503513e-11 8.997059761596374e-11 8.740473174831998e-11
          8.916225492650877e-11 7.075396570543644e-11 1.296552864225081e-10 9.799207940960511e-11 9.487581408723484e-11 3.579191195188927e-10
          2.2469322807813918e-10 2.5977251301446653e-10 1.6439948276148362e-10 3.653148210516527e-10 2.2956422494800033e-10 2.650554490522466e-10
          1.378447705219703e-10 1.0455446310943105e-10 1.0092126647181147e-10 7.967220530817854e-11 1.4076035460085042e-10 1.0658071878654419e-10
          1.030106828738508e-10 4.92604137505693e-9 1.2995887154444394e-9 9.034271023646466e-10 2.7361650317331622e-9 6.091753406000893e-9
          2.494529910194121e-9 1.4463600936233389e-9 3.894315959330945e-9 4.231930482431139e-8 1.3071433365195735e-8 9.370535388533178e-9
          2.8175279175933004e-8 1.3470918273795121e-7 8.469195205846247e-8 2.5233125040704843e-9 5.662561416775109e-9 9.789598295643769e-10
          1.4041109534741541e-9 1.9935603713540215e-9 2.2835753459727974e-7 1.1923424619798526e-7 1.7231717108501881e-9 2.4094586779818625e-8
          7.269839298801704e-9 1.2736182143673377e-8 5.883280793737041e-8 2.4242365669328426e-8 2.7337205744573325e-8 1.633350734210419e-7
          7.304980864484302e-8 2.586713239120547e-7 1.2455735022726253e-7 1.6773181618729294e-7 6.678466655663949e-8 1.1230024499796403e-9
          1.3670610405886425e-9 3.1227283259048694e-10 7.194721777488482e-10 3.0669421315626737e-10 6.09953618236756e-10 2.6089236330367216e-7
          1.7855604418698882e-7 2.30234208402875e-7 1.1288366390589519e-7 2.7816597312069125e-7 2.3527017640568465e-7 2.207737697272194e-7
          1.341362240439847e-7 4.359101428667107e-9 4.3484098401098446e-10 4.775348564401243e-10 1.396390839498515e-9 8.936822664256818e-10
          5.99169640297549e-10 4.68523762245659e-10 6.687875078473382e-10 1.942370563028799e-10 1.7583292804255876e-10 7.594635142999064e-10
          1.0325814768005013e-9 9.545857194424276e-10 1.2733670035099197e-9 8.898142970912598e-10 1.1176742754641346e-9 1.4820857264630384e-9
          4.739569301410166e-9 2.861475311527972e-9 2.29725327770063e-9 8.889688514774409e-9 5.011074672303601e-9 6.199025251272885e-10
          6.398567381040558e-10 1.823247335993633e-8 9.852522215627606e-9 1.750072542710264e-8 2.4747144190847667e-10 3.5595877255317354e-10
          2.3315426291227455e-10 1.2144966616860333e-10 1.1256128536263965e-10 1.8720501395336947e-10 6.467267587550004e-8 2.874761178102709e-8
          4.168306879798893e-8 2.1357486332215476e-10 2.4718597166959493e-10 2.416282104822206e-10 2.999330218672465e-10 2.0553411325155328e-10
          2.481019696362395e-10 2.9832488476061083e-10 1.234809726442118e-7 5.350544077952836e-8 5.8816160157609856e-8 2.623506914821296e-10
          2.934018898080359e-10 2.800400524223459e-10 1.0210778375626493e-9 8.120444137865895e-10 6.180538748576932e-10 1.4435952864066502e-9
          1.1606024533318193e-9 4.840749307408608e-10 7.145237231681228e-10 1.9815550908439746e-9 1.6134987410544828e-9 1.0239115515647307e-9
          2.9850095576430363e-10 2.1836104389210123e-10 4.53290769083649e-10 1.8940152910146485e-10 2.923648913986625e-10 6.64064638710111e-10
          4.3490812992812756e-10 1.2049618390998268e-10 8.595915318814931e-11 1.8880587855947713e-10 1.1736911839516062e-10 2.836522598435179e-10
          1.7382444846313342e-10 5.948199510494034e-11 7.326827216376378e-11 4.7705162891634644e-11 5.7476956592608417e-11 1.0572548032190572e-10
          7.426244742198153e-11 4.643608792012601e-9 3.3264805368844373e-9 2.0677203574978257e-9 2.9796974434815392e-9 6.10790476124976e-9
          4.437733612051992e-9 3.876195118876571e-9 2.3344816488883943e-9 1.4160414372275224e-9 3.148326796298496e-9 7.634614904229351e-9
          5.6171909793376235e-9 4.809089378033991e-9 4.0238765836617665e-9 1.5896243037890971e-9 9.488330167538522e-10 2.1600933587605482e-9
          1.270810985468685e-9 2.77981114859463e-9 1.4276868890442065e-9 8.313661960943621e-10 1.8453825333901875e-9 1.0614975194261044e-9
          9.05750445354155e-9 6.740587460229111e-9 5.681752574593305e-9 4.869010294985183e-9 1.0197921139725696e-8 7.670530879075986e-9
          6.3959913844431294e-9 5.577052422919018e-9 3.3836665626794557e-9 2.255023788294349e-9 1.285363365718185e-9 3.8937500774166885e-9
          2.6030433931634664e-9 1.474529624030599e-9 1.0919938982798109e-8 8.283907419892258e-9 6.866675285404178e-9 6.048901987454124e-9
          1.1164152980786728e-8 8.497784295545381e-9 7.031241010890707e-9 6.214609666769677e-9 4.2356620961369885e-9 2.8373667456304353e-9
          1.6014825937389026e-9 4.356070585772605e-9 2.92009022049935e-9 1.6462348222061171e-9 2.647324738956922e-9 2.1808523850333637e-9
          1.4209150351966618e-9 3.934832567360543e-9 3.2696093594284503e-9 4.334185051103933e-9 2.1925125707456644e-9 6.569361220325102e-9
          5.554428359639688e-9 6.779178522430557e-9 9.38425984170071e-10 6.220800808432372e-10 1.497050291821195e-9 1.0142008183760236e-9
          4.082629047668646e-10 2.4556195165088575e-10 6.748596449275473e-10 5.633138385527205e-10 3.3305297482266284e-10 1.4622128050290643e-10
          9.196856096062456e-11 6.894284210323777e-11 1.9481375099521677e-10 1.2292890052387527e-10 7.436052965963923e-10 4.3402960372671737e-10
          4.820357537718286e-10 6.079902110886042e-10 2.784511091483642e-10 3.47534263475164e-10 2.5164210658480324e-10 1.5908176062624993e-10
          1.1472255733688722e-10 1.9819550805940425e-10 9.257024194805298e-9 7.920368426927317e-9 8.849955521157462e-9 1.102715411258069e-8
          9.473887178883407e-9 9.717700125574967e-9 7.293069632123229e-10 4.1343824059365097e-10 8.310902536899036e-10 4.682556873812527e-10
          2.353963917134303e-10 1.5081762514970562e-10 2.658836493697455e-10 2.2439078536176948e-10 8.990902179441484e-10 5.046467546062118e-10
          9.230084218865781e-10 5.173995613194831e-10 2.856580146608627e-10 1.8195763373038498e-10 2.924240440301039e-10 2.4380325796620293e-10
        </DataArray>
        <DataArray type="Float64" Name="gradient_matprop_error" format="ascii" RangeMin="0" RangeMax="0">
          0 0 0 0 0 0
          0 0 0 0 0 0
          0 0 0 0 0 0
          0 0 0 0 0 0
          0 0 0 0 0 0
          0 0 0 0 0 0
          0 0 0 0 0 0
          0 0 0 0 0 0
          0 0 0 0 0 0
          0 0 0 0 0 0
          0 0 0 0 0 0
          0 0 0 0 0 0
          0 0 0 0 0 0
          0 0 0 0 0 0
          0 0 0 0 0 0
          0 0 0 0 0 0
          0 0 0 0 0 0
          0 0 0 0 0 0
          0 0 0 0 0 0
          0 0 0 0 0 0
          0 0 0 0 0 0
          0 0 0 0 0 0
          0 0 0 0 0 0
          0 0 0 0 0 0
          0 0 0 0 0 0
          0 0 0 0 0 0
          0 0 0 0 0 0
          0 0 0 0 0 0
          0 0 0 0 0 0
          0 0 0 0 0 0
          0 0 0 0 0 0
          0 0 0 0 0 0
          0 0 0 0 0 0
          0 0 0 0 0 0
          0 0 0 0 0 0
          0 0 0 0 0 0
          0 0 0 0 0 0
          0 0 0 0 0 0
          0 0 0 0 0 0
          0 0 0 0 0 0
          0 0 0 0 0 0
          0 0 0 0 0 0
          0 0 0 0 0 0
          0 0 0 0 0 0
          0 0 0 0 0 0
          0 0 0 0 0 0
          0 0 0 0 0 0
          0 0 0 0 0 0
          0 0 0 0 0 0
          0 0 0 0 0 0
          0 0 0 0 0 0
          0 0 0 0 0 0
          0 0 0 0 0 0
          0 0 0 0 0 0
          0 0 0 0 0 0
          0 0 0 0 0 0
          0 0 0 0 0 0
          0 0 0 0 0 0
          0 0 0 0 0 0
          0 0 0 0 0 0
          0 0 0 0 0 0
          0 0 0 0 0 0
          0 0 0 0 0 0
          0 0 0 0 0 0
          0 0 0 0 0 0
          0 0 0 0 0 0
          0 0 0 0 0 0
          0 0 0 0 0 0
          0 0 0 0 0 0
          0 0 0 0 0 0
          0 0 0 0 0 0
          0 0 0 0 0 0
          0 0 0 0 0 0
          0 0 0 0 0 0
          0 0 0 0 0 0
          0 0 0 0 0 0
          0 0 0 0 0 0
          0 0 0 0 0 0
          0 0 0 0 0 0
          0 0 0 0 0 0
          0 0 0 0 0 0
          0 0 0 0 0 0
          0 0 0 0 0 0
          0 0 0 0 0 0
          0 0 0 0 0 0
          0 0 0 0 0 0
          0 0 0 0 0 0
          0 0 0 0 0 0
          0 0 0 0 0 0
          0 0 0 0 0 0
          0 0 0 0 0 0
          0 0 0 0 0 0
          0 0 0 0 0 0
          0 0 0 0 0 0
          0 0 0 0 0 0
          0 0 0 0 0 0
          0 0 0 0 0 0
          0 0 0 0 0 0
          0 0 0 0 0 0
          0 0 0 0 0 0
          0 0 0 0 0 0
          0 0 0 0 0 0
          0 0 0 0 0 0
          0 0 0 0 0 0
          0 0 0 0 0 0
          0 0 0 0 0 0
          0 0 0 0 0 0
        </DataArray>
        <DataArray type="Float64" Name="initial_marker" format="ascii" RangeMin="0" RangeMax="2">
          0.25 0.5 0 0 0 0
          0 1.25 0 0 0.5 0
          2 0.6666666666666666 2 2 0 2
          0 0 0 0 0 0
          0 0 0 0 0 0.5
          2 0.25 0 2 2 1
          0 2 0.5 2 2 2
          2 1.5 2 0 0.5 0
          1 2 2 2 1 0
          1 2 2 1.5 1.5 2
          2 2 2 1 2 1.75
          0 0.25 0 0 0 0
          0 0.5 0 0 0 0
          0 0 0 0 2 2
          2 2 2 2 2 2
          2 2 2 0.5 0 0
          0 0.5 0 0 0 0
          0 0 0 0 0 0
          0 0 0 0 0 0
          0 0 0 0 0 0
          0 0 0 0 0 0
          0 0 0 0 0 2
          2 2 2 1 1.5 1
          2 1 1.25 1 1 0
          0.5 0 1.75 1.5 1.5 2
          1.75 2 1 1 0.5 0.75
          0 0 0 1.5 1.5 1
          0 0 0 0.5 2 2
          2 2 2 2 2 2
          2 2 2 2 2 2
          2 2 2 2 2 2
          2 2 2 2 2 2
          2 2 2 2 2 2
          2 2 2 2 2 2
          2 2 2 2 2 2
          2 2 2 2 2 2
          2 2 2 2 2 2
          2 2 2 2 2 2
          1.6666666666666667 1.5 2 2 2 2
          2 2 2 2 2 2
          2 2 1.75 1.6666666666666667 2 2
          2 2 2 1.6666666666666667 1 1
          0 1 1 1 1 1
          0 0 0 1 1 0
          0.5 0.75 0 0.5 0 0
          0 1 1 0 2 2
          2 2 2 2 2 2
          2 2 2 2 2 2
          2 2 2 2 2 2
          2 2 2 2 2 2
          2 2 2 2 2 2
          2 2 2 2 2 2
          2 2 2 2 2 2
          2 2 2 2 2 2
          2 2 2 2 2 2
          2 2 2 1.75 2 2
          2 2 2 2 2 2
          2 2 2 2 2 2
          2 2 2 2 2 2
          2 2 2 2 1 0
          1 1 1 0 0 1
          1 0 1 0 1 1
          1 0 0 1 1 0
          1 1 0 0 1 1
          0 0.5 0.75 0 0.5 0
          0 0 1 1 0 1
          1 0 0 1 1 0
          1 1 0 0 1 1
          0 0 0 0 0 0
          0 0 0 0 0 0
          0 0.5 0 0 0 0
          0 0 1 0 0 1
          0.3333333333333333 0 1 0.5 0 2
          2 2 2 1.5 1 0
          0 0 0 0 0 2
          2 2 2 2 2 2
          2 0 0 0 0 0
          0 0 0 0 0 0
          0 0 0 0 0 0
          1 0.75 0 1.5 1.5 0.25
          1.5 2 2 2 0 0
          1.25 0 0.75 0 2 2
          2 0 0 0.75 0 0
          1 0 2 2 2 0
          0 0 2 2 2 2
          2 2 2 2 2 2
          2 2 2 2 2 2
          2 2 1.3333333333333333 2 1.5 2
          2 0 0.5 0 0.5 1.25
          1 2 2 2 2 2
          2 2 2 2 2 2
          2 2 2 2 2 2
          2 2 2 2 2 2
          2 2 2 2 2 2
          2 2 2 2 2 2
          2 2 2 2 2 2
          2 2 2 2 2 2
          2 2 2 2 2 2
          2 2 2 2 2 2
          2 2 2 2 2 2
          2 2 2 2 2 1.75
          1.25 0.5 2 1.75 2 2
          2 2 2 2 2 2
          2 2 2 2 2 2
          2 2 2 2 2 2
          2 1.6666666666666667 2 1.5 2 2
          2 2 2 2 2 1.5
        </DataArray>
        <DataArray type="Float64" Name="markers_norefine" format="ascii" RangeMin="0" RangeMax="0">
          0 0 0 0 0 0
          0 0 0 0 0 0
          0 0 0 0 0 0
          0 0 0 0 0 0
          0 0 0 0 0 0
          0 0 0 0 0 0
          0 0 0 0 0 0
          0 0 0 0 0 0
          0 0 0 0 0 0
          0 0 0 0 0 0
          0 0 0 0 0 0
          0 0 0 0 0 0
          0 0 0 0 0 0
          0 0 0 0 0 0
          0 0 0 0 0 0
          0 0 0 0 0 0
          0 0 0 0 0 0
          0 0 0 0 0 0
          0 0 0 0 0 0
          0 0 0 0 0 0
          0 0 0 0 0 0
          0 0 0 0 0 0
          0 0 0 0 0 0
          0 0 0 0 0 0
          0 0 0 0 0 0
          0 0 0 0 0 0
          0 0 0 0 0 0
          0 0 0 0 0 0
          0 0 0 0 0 0
          0 0 0 0 0 0
          0 0 0 0 0 0
          0 0 0 0 0 0
          0 0 0 0 0 0
          0 0 0 0 0 0
          0 0 0 0 0 0
          0 0 0 0 0 0
          0 0 0 0 0 0
          0 0 0 0 0 0
          0 0 0 0 0 0
          0 0 0 0 0 0
          0 0 0 0 0 0
          0 0 0 0 0 0
          0 0 0 0 0 0
          0 0 0 0 0 0
          0 0 0 0 0 0
          0 0 0 0 0 0
          0 0 0 0 0 0
          0 0 0 0 0 0
          0 0 0 0 0 0
          0 0 0 0 0 0
          0 0 0 0 0 0
          0 0 0 0 0 0
          0 0 0 0 0 0
          0 0 0 0 0 0
          0 0 0 0 0 0
          0 0 0 0 0 0
          0 0 0 0 0 0
          0 0 0 0 0 0
          0 0 0 0 0 0
          0 0 0 0 0 0
          0 0 0 0 0 0
          0 0 0 0 0 0
          0 0 0 0 0 0
          0 0 0 0 0 0
          0 0 0 0 0 0
          0 0 0 0 0 0
          0 0 0 0 0 0
          0 0 0 0 0 0
          0 0 0 0 0 0
          0 0 0 0 0 0
          0 0 0 0 0 0
          0 0 0 0 0 0
          0 0 0 0 0 0
          0 0 0 0 0 0
          0 0 0 0 0 0
          0 0 0 0 0 0
          0 0 0 0 0 0
          0 0 0 0 0 0
          0 0 0 0 0 0
          0 0 0 0 0 0
          0 0 0 0 0 0
          0 0 0 0 0 0
          0 0 0 0 0 0
          0 0 0 0 0 0
          0 0 0 0 0 0
          0 0 0 0 0 0
          0 0 0 0 0 0
          0 0 0 0 0 0
          0 0 0 0 0 0
          0 0 0 0 0 0
          0 0 0 0 0 0
          0 0 0 0 0 0
          0 0 0 0 0 0
          0 0 0 0 0 0
          0 0 0 0 0 0
          0 0 0 0 0 0
          0 0 0 0 0 0
          0 0 0 0 0 0
          0 0 0 0 0 0
          0 0 0 0 0 0
          0 0 0 0 0 0
          0 0 0 0 0 0
          0 0 0 0 0 0
          0 0 0 0 0 0
          0 0 0 0 0 0
          0 0 0 0 0 0
          0 0 0 0 0 0
        </DataArray>