<?xml version="1.0"?>
<VTKFile type="UnstructuredGrid" version="0.1" byte_order="LittleEndian" header_type="UInt32" compressor="vtkZLibDataCompressor">
  <UnstructuredGrid>
    <Piece NumberOfPoints="363" NumberOfCells="194">
      <PointData>
        <DataArray type="Int32" Name="libmesh_node_id" format="ascii" RangeMin="307" RangeMax="3127">
          307 377 396 605 608 613
          629 637 1274 1275 1281 1283
          1284 1285 1286 1287 1288 1289
          1293 1294 1295 1319 1320 1325
          1327 1328 1329 1330 1333 1334
          1335 1371 1372 1373 1374 1375
          1376 1377 1381 1382 1383 1507
          1508 1509 1510 1511 1512 1513
          1524 1525 1526 1527 1528 1529
          1530 1531 1532 1533 1534 1535
          1536 1537 2597 2598 2599 2602
          2605 2619 2620 2623 2625 2639
          2640 2642 2645 2655 2661 2662
          2663 2664 2665 2666 2667 2668
          2669 2670 2671 2672 2673 2674
          2675 2676 2677 2678 2679 2680
          2681 2682 2683 2684 2685 2686
          2687 2688 2689 2690 2691 2692
          2699 2700 2701 2702 2703 2704
          2705 2761 2762 2764 2765 2766
          2767 2768 2793 2794 2795 2796
          2797 2798 2799 2800 2801 2802
          2817 2818 2819 2820 2821 2822
          2823 2824 2825 2826 2827 2828
          2829 2830 2831 2832 2833 2834
          2835 2836 2851 2852 2853 2854
          2855 2856 2857 2858 2859 2860
          2861 2862 2863 2864 2865 2866
          2867 2868 2869 2870 3053 3054
          3055 3056 3057 3058 3059 3060
          3061 3062 3063 3064 3065 3066
          3067 3068 3069 3070 3071 3072
          3073 3074 3075 3076 3077 3078
          3079 3080 3083 3084 3089 3091
          3092 3093 3094 3095 3096 3097
          3098 3099 3100 3101 3102 3103
          3104 3105 3106 3107 3108 3109
          3110 3112 3116 3118 3119 3120
          3121 3122 3123 3124 3125 3126
          3127 627 388 631 628 632
          633 630 855 858 859 856
          603 607 604 1273 1290 1291
          1278 1292 1378 1380 1379 1468
          1469 1478 1479 1486 1487 639
          1514 1515 1516 609 638 2593
          2594 2595 2596 2600 2601 2603
          2604 2606 2617 2618 2621 2622
          2624 2626 2637 2638 2641 2643
          2644 2646 2654 2657 2656 2659
          2658 606 2660 2693 2694 2695
          2696 2697 2698 1296 2706 2707
          2708 2759 2760 2763 2751 2752
          1317 2757 2754 1318 2777 2776
          2770 2780 2774 2781 2785 2786
          2788 1323 2791 1324 2810 2804
          2811 2814 2808 2815 2837 2838
          2841 2842 2844 2845 2848 2849
          2871 2872 2875 2876 2878 2879
          2882 2883 3081 3082 3085 3087
          3086 3088 3090 3111 3114 3113
          3115 1384 3117
        </DataArray>
        <DataArray type="Float64" Name="bounds" format="ascii" RangeMin="0" RangeMax="0">
          0 0 0 0 0 0
          0 0 0 0 0 0
          0 0 0 0 0 0
          0 0 0 0 0 0
          0 0 0 0 0 0
          0 0 0 0 0 0
          0 0 0 0 0 0
          0 0 0 0 0 0
          0 0 0 0 0 0
          0 0 0 0 0 0
          0 0 0 0 0 0
          0 0 0 0 0 0
          0 0 0 0 0 0
          0 0 0 0 0 0
          0 0 0 0 0 0
          0 0 0 0 0 0
          0 0 0 0 0 0
          0 0 0 0 0 0
          0 0 0 0 0 0
          0 0 0 0 0 0
          0 0 0 0 0 0
          0 0 0 0 0 0
          0 0 0 0 0 0
          0 0 0 0 0 0
          0 0 0 0 0 0
          0 0 0 0 0 0
          0 0 0 0 0 0
          0 0 0 0 0 0
          0 0 0 0 0 0
          0 0 0 0 0 0
          0 0 0 0 0 0
          0 0 0 0 0 0
          0 0 0 0 0 0
          0 0 0 0 0 0
          0 0 0 0 0 0
          0 0 0 0 0 0
          0 0 0 0 0 0
          0 0 0 0 0 0
          0 0 0 0 0 0
          0 0 0 0 0 0
          0 0 0 0 0 0
          0 0 0 0 0 0
          0 0 0 0 0 0
          0 0 0 0 0 0
          0 0 0 0 0 0
          0 0 0 0 0 0
          0 0 0 0 0 0
          0 0 0 0 0 0
          0 0 0 0 0 0
          0 0 0 0 0 0
          0 0 0 0 0 0
          0 0 0 0 0 0
          0 0 0 0 0 0
          0 0 0 0 0 0
          0 0 0 0 0 0
          0 0 0 0 0 0
          0 0 0 0 0 0
          0 0 0 0 0 0
          0 0 0 0 0 0
          0 0 0 0 0 0
          0 0 0
        </DataArray>
        <DataArray type="Float64" Name="gradient_error" format="ascii" RangeMin="1.1115582837555795e-12" RangeMax="4.9931759690736015e-9">
          8.093659075856141e-11 4.5861822470277073e-11 1.5136350091646603e-12 3.8184950233980674e-10 2.579838200015126e-11 1.6206337531019963e-9
          4.927505659130171e-12 3.5895562611932883e-12 9.514622692288296e-11 8.032550738022545e-11 2.989260656181727e-10 8.112445326105491e-11
          7.101581523847648e-11 5.34740707325656e-11 4.627743879826017e-11 2.0755531713899766e-11 2.1980317903334456e-11 1.922351689257851e-11
          9.40493851384834e-11 7.424976594220392e-11 2.105317645194391e-11 1.2061048132415714e-9 9.353172155758856e-10 1.3224816600743967e-9
          2.909097339278558e-10 2.2458975774358846e-10 5.76516767797701e-11 4.484430399561979e-11 4.041487343901155e-10 3.2095584313841565e-10
          6.369902500320705e-11 1.253749266818619e-11 1.2014076518687695e-11 9.67896862150792e-12 8.733575394748923e-12 5.399082858814973e-12
          2.7581772289621772e-12 3.806513925519051e-12 1.352758534564645e-11 1.067183570653525e-11 2.9080554967658073e-12 6.257723096976012e-12
          5.9707918547376476e-12 1.3353681433900928e-11 1.1762885096902333e-11 4.366620350966129e-12 6.304435039369706e-12 5.650012206987673e-12
          1.8575144218837206e-12 1.6544879959431567e-12 2.2937379222391065e-12 2.0183661165599444e-12 1.1115582837555795e-12 1.1516630949091053e-12
          1.1613739176711608e-12 1.4514615700025928e-12 1.742994310880782e-12 1.1710847404332158e-12 2.7299614225944928e-12 2.3822442371767317e-12
          1.211189551586742e-12 2.034527051758971e-12 2.4901372299441168e-11 3.844740873712471e-11 3.693010755833152e-11 3.2800386430169154e-11
          8.173568239258091e-11 2.0192828495182472e-11 2.8110053027399148e-11 2.6032139573998315e-11 5.6562769856967876e-11 1.707225428930609e-10
          1.6178161965579716e-10 1.3780818065619276e-10 3.5904672880368024e-10 1.0603422199609302e-10 5.218005947370865e-11 4.976355584358872e-11
          8.717271889818249e-11 8.267529581192892e-11 2.4637405109651146e-11 4.2902901975503276e-11 4.073126906345928e-11 4.319824061304543e-11
          7.061960099669747e-11 3.496511186947439e-11 1.935665046931786e-10 1.8216637426345503e-10 8.862120365160151e-11 1.5206085934584724e-10
          1.2649552418691957e-11 1.2080915551790413e-11 2.034200631604376e-11 1.934309908844073e-11 8.232234584944634e-12 1.2924111816673589e-11
          1.2314744604608627e-11 1.0587364668779612e-11 1.668882496818675e-11 1.0640406414816356e-11 4.397315714185296e-11 4.149958793581161e-11
          2.2148981016525914e-11 3.4937958585199e-11 3.4435985432572617e-11 5.470253318930457e-11 1.748034808592563e-11 2.712930127154817e-11
          8.771033412994437e-12 1.3058909768495874e-11 6.125821317575865e-12 8.657444990987317e-12 7.879616173318523e-12 1.1084361461455952e-11
          7.739454544885585e-12 7.540719340350293e-10 7.063880107110008e-10 5.799748045806589e-10 2.2583632890064713e-9 2.1286934596062196e-9
          1.134079891596013e-9 1.764607078444704e-9 2.803926587811127e-9 2.679767844220283e-9 1.5249422364244278e-9 1.4493458304764604e-9
          2.2822115520865207e-9 1.2201545469584351e-9 2.948748309913909e-9 2.8426598473327455e-9 1.5506535787068694e-9 2.461601048305906e-9
          3.790435030005536e-10 3.551311494430211e-10 1.8179374675079237e-10 1.7045187221729108e-10 2.9193218395892176e-10 1.4050289886966503e-10
          6.082092047862803e-10 5.710675897068019e-10 2.7299037392157777e-10 4.698538537438102e-10 8.360376605432518e-11 7.848724167418599e-11
          3.668489119120515e-11 3.450459980005554e-11 6.496347191988005e-11 2.8709565846798504e-11 1.324672154787115e-10 1.243360697885614e-10
          5.417244998150896e-11 1.0249565925103841e-10 7.786191252567922e-10 7.370728800275642e-10 3.752486816371395e-10 3.5428009643283295e-10
          6.157228067252863e-10 2.9461896569488264e-10 8.339392158784303e-10 7.935271667809258e-10 3.830659151711568e-10 6.695215165694509e-10
          1.715350035626132e-10 1.6169899782491717e-10 7.470362573216977e-11 7.03815357913141e-11 1.342370567419132e-10 5.847469862302675e-11
          1.854312542061434e-10 1.753064461745514e-10 7.640252700706881e-11 1.463241069187056e-10 1.095448783801291e-11 1.0367857074494745e-11
          1.5299263112995608e-11 1.4440379102322343e-11 4.37294694503349e-12 6.284345335162341e-12 5.8790795597594236e-12 8.779175146369719e-12
          1.2116406581024667e-11 5.7717455154933725e-12 2.406151565455001e-11 2.267825379144031e-11 9.057876724022481e-12 1.8908077283698717e-11
          1.9255202436226723e-12 1.8575877543219677e-12 2.5379677228872683e-12 2.4003018448809e-12 1.3067842811288431e-12 1.4897243072504221e-12
          1.5566010246676378e-12 1.7896552650212626e-12 2.2626359668745316e-12 1.6234777420848535e-12 3.7942773752617634e-12 3.5458700100151007e-12
          2.0852217366875633e-12 3.202830087132354e-12 4.245615084092984e-12 5.481325063157936e-12 6.60952949005001e-12 3.112066552967301e-11
          2.934353867388974e-11 1.2471088741942072e-11 1.1745438021027794e-11 2.4457870438593023e-11 9.780849167078677e-12 3.3762338138224304e-11
          3.184347089504882e-11 1.2760334768495982e-11 2.6553224325468227e-11 4.843235842057405e-12 4.551114959489925e-12 2.67335746243557e-12
          2.545836537760521e-12 3.798383184370659e-12 2.197705515637823e-12 5.248332135743145e-12 4.953505834389482e-12 2.7276473703523493e-12
          4.1603295724066875e-12 7.217261062699916e-12 7.878745411436262e-12 2.5591776867008877e-12 2.811939407511452e-12 1.7279334732238791e-12
          1.7394789369881117e-12 2.10479040154159e-12 2.2861065232040332e-12 1.5018624557860505e-12 3.0647011283220166e-12 1.7510244007523443e-12
          2.467422644866476e-12 1.1563469274772821e-11 5.371349520135618e-12 5.325949589225201e-12 1.063786414116305e-11 3.081134496431892e-12
          4.0598263071474245e-12 6.86294767497341e-12 8.289029091799641e-11 4.5061097141504376e-11 4.298464956668669e-11 1.309476307986831e-10
          8.703493439651876e-11 3.8873531238071233e-11 1.3669802454460613e-10 7.177316857029633e-11 4.928223760633659e-11 3.697482495386001e-11
          7.015599539749759e-11 1.9669667080168073e-11 8.93580970402804e-12 5.6999049862080085e-12 6.5907395524398706e-12 1.2355284190625638e-11
          1.1872230194835162e-11 1.1758055628421417e-12 1.2389569284279274e-12 1.1713983587577252e-12 1.3108820496823135e-12 3.498484699399182e-12
          5.222144796967339e-12 8.439526435281176e-12 4.184035041167787e-12 1.7898823618611548e-11 5.693565065923203e-12 3.3365197670242255e-11
          3.2177359643760956e-11 5.4051229952701977e-11 5.194089881479898e-11 2.8822337402933656e-11 4.61517121662295e-11 1.3221530730758013e-10
          1.2621636975511705e-10 1.0986910875029382e-10 2.5635469487207704e-11 3.812844020346537e-11 2.4615785785827758e-11 3.378402375136773e-11
          8.671636029299354e-11 7.2957510590499e-11 3.1839870759571357e-10 3.015255488397355e-10 2.5639631148531794e-10 7.204596413703684e-10
          6.771603370894145e-10 5.628751238117678e-10 1.9667828378046162e-10 7.425513588990082e-11 1.3719198688731513e-10 2.2166675805628364e-10
          4.1590580671969313e-10 1.4812354316409835e-10 2.764673962293346e-10 2.523581315561183e-11 3.8613502844813216e-11 2.2195437826661348e-11
          1.1346378692661675e-10 5.5556973011526514e-11 7.645968730393319e-11 4.248359839088311e-11 2.61739311100669e-11 1.422123144008199e-11
          2.026255889164884e-11 1.4257184661169534e-9 1.3362544780641866e-9 1.0978034281231171e-9 2.551416284585726e-9 2.394447824201546e-9
          3.973288620590605e-9 3.758556225416525e-9 1.9728251599362344e-9 3.141300078351807e-9 4.1785668420237947e-10 7.899271507128155e-10
          1.422572340834759e-9 1.2666227115360378e-9 2.272608345328372e-9 6.690347750675847e-10 4.813256623531074e-9 4.6339552894111544e-9
          4.009319977150932e-9 4.9931759690736015e-9 4.860900643281093e-9 4.2956015325599155e-9 1.666809017324059e-9 2.9714291626204614e-9
          8.829224403500702e-10 1.8189605574569466e-9 3.232132483659134e-9 9.653931108437047e-10 2.1128332810132642e-10 1.0231449272403171e-10
          3.3617102079892876e-10 1.612364106611972e-10 4.757719242496807e-11 2.123056016952549e-11 7.40483441858225e-11 3.2690011556787664e-11
          4.4354790735553934e-10 2.1213242525207742e-10 4.853619364086769e-10 2.3208532306394154e-10 9.694312524510406e-11 4.250319804919046e-11
          1.0594287087236278e-10 4.635018049593297e-11 6.7269920510564076e-12 9.095399551674656e-12 4.685259411820263e-12 3.782678953817116e-12
          6.172469419676993e-12 1.3955001492004538e-11 9.193834160656328e-12 1.798447662171087e-11 5.658357288020288e-12 1.1695248755077924e-11
          1.9522757311705568e-11 6.923494769793357e-12 1.2662508616376918e-11
        </DataArray>
        <DataArray type="Float64" Name="gradient_matprop_error" format="ascii" RangeMin="0" RangeMax="0">
          0 0 0 0 0 0
          0 0 0 0 0 0
          0 0 0 0 0 0
          0 0 0 0 0 0
          0 0 0 0 0 0
          0 0 0 0 0 0
          0 0 0 0 0 0
          0 0 0 0 0 0
          0 0 0 0 0 0
          0 0 0 0 0 0
          0 0 0 0 0 0
          0 0 0 0 0 0
          0 0 0 0 0 0
          0 0 0 0 0 0
          0 0 0 0 0 0
          0 0 0 0 0 0
          0 0 0 0 0 0
          0 0 0 0 0 0
          0 0 0 0 0 0
          0 0 0 0 0 0
          0 0 0 0 0 0
          0 0 0 0 0 0
          0 0 0 0 0 0
          0 0 0 0 0 0
          0 0 0 0 0 0
          0 0 0 0 0 0
          0 0 0 0 0 0
          0 0 0 0 0 0
          0 0 0 0 0 0
          0 0 0 0 0 0
          0 0 0 0 0 0
          0 0 0 0 0 0
          0 0 0 0 0 0
          0 0 0 0 0 0
          0 0 0 0 0 0
          0 0 0 0 0 0
          0 0 0 0 0 0
          0 0 0 0 0 0
          0 0 0 0 0 0
          0 0 0 0 0 0
          0 0 0 0 0 0
          0 0 0 0 0 0
          0 0 0 0 0 0
          0 0 0 0 0 0
          0 0 0 0 0 0
          0 0 0 0 0 0
          0 0 0 0 0 0
          0 0 0 0 0 0
          0 0 0 0 0 0
          0 0 0 0 0 0
          0 0 0 0 0 0
          0 0 0 0 0 0
          0 0 0 0 0 0
          0 0 0 0 0 0
          0 0 0 0 0 0
          0 0 0 0 0 0
          0 0 0 0 0 0
          0 0 0 0 0 0
          0 0 0 0 0 0
          0 0 0 0 0 0
          0 0 0
        </DataArray>
        <DataArray type="Float64" Name="initial_marker" format="ascii" RangeMin="0" RangeMax="2">
          2 0 0 2 1.5 2
          0 1 1 1 2 0
          0 0.5 0.5 0 0 0
          2 2 1.5 2 2 2
          2 2 2 2 2 2
          2 0.5 0.25 2 1.75 0
          0 0 2 2 0 0
          0 0 0 0 0 0
          0 0 0 0 0 0
          0 0 0 0 0 0
          0 0 0 0 0 0
          1.3333333333333333 0 0 0 1.3333333333333333 2
          2 2 2 2 2 2
          2 2 1 1.5 1.5 2
          2 1.5 2 2 2 2
          0 0 1 1 0 1
          1 0 1 1 2 2
          2 2 1.5 1.75 0.5 1.25
          0 0.75 0 0.5 0 0.5
          0 2 2 2 2 2
          2 2 2 2 2 2
          2 2 2 2 2 2
          2 2 2 2 2 2
          2 2 2 2 2 2
          2 2 2 2 2 2
          2 2 2 2 2 2
          2 2 2 2 2 2
          2 2 2 2 2 2
          2 2 2 2 2 2
          2 2 1 1.5 1.5 1.5
          1.75 1.3333333333333333 2 2 2 2
          0 0 0.5 0.5 0 0
          0 0 0.5 0 1 1
          0 1 0 1 1.6666666666666667 2
          2 2 2 2 2 2
          2 2 2 1.5 1.25 1
          0.5 1 0 2 1.5 1
          1 1.5 1.5 0.5 0.5 0
          0 0 0 0 0.5 0
          0 0 0 0 0 0
          0 0 0 0 0 0
          0 0 0 0 0 0
          0.5 0 0 0 0.5 0
          0 0 0 0 0 0
          0 0 0 0.5 0 0
          0 0.5 0.5 0 0.5 1.5
          1.5 1.5 0 0.25 0 0
          1.25 1 2 2 2 2
          2 2 2 1.5 1.75 2
          2 2 2 0.5 1.25 1
          2 2 2 1.75 1.75 1.6666666666666667
          1.3333333333333333 2 2 2 2 2
          2 2 2 2 2 2
          2 2 2 2 2 2
          2 2 2 2 2 2
          2 2 2 2 2 2
          2 2 2 2 2 2
          2 2 2 2 2 2
          2 2 1 1.5 0.5 0.5
          1 2 1.5 2 0.6666666666666666 1.5
          2 0.5 1.5
        </DataArray>
        <DataArray type="Float64" Name="markers_norefine" format="ascii" RangeMin="0" RangeMax="0">
          0 0 0 0 0 0
          0 0 0 0 0 0
          0 0 0 0 0 0
          0 0 0 0 0 0
          0 0 0 0 0 0
          0 0 0 0 0 0
          0 0 0 0 0 0
          0 0 0 0 0 0
          0 0 0 0 0 0
          0 0 0 0 0 0
          0 0 0 0 0 0
          0 0 0 0 0 0
          0 0 0 0 0 0
          0 0 0 0 0 0
          0 0 0 0 0 0
          0 0 0 0 0 0
          0 0 0 0 0 0
          0 0 0 0 0 0
          0 0 0 0 0 0
          0 0 0 0 0 0
          0 0 0 0 0 0
          0 0 0 0 0 0
          0 0 0 0 0 0
          0 0 0 0 0 0
          0 0 0 0 0 0
          0 0 0 0 0 0
          0 0 0 0 0 0
          0 0 0 0 0 0
          0 0 0 0 0 0
          0 0 0 0 0 0
          0 0 0 0 0 0
          0 0 0 0 0 0
          0 0 0 0 0 0
          0 0 0 0 0 0
          0 0 0 0 0 0
          0 0 0 0 0 0
          0 0 0 0 0 0
          0 0 0 0 0 0
          0 0 0 0 0 0
          0 0 0 0 0 0
          0 0 0 0 0 0
          0 0 0 0 0 0
          0 0 0 0 0 0
          0 0 0 0 0 0
          0 0 0 0 0 0
          0 0 0 0 0 0
          0 0 0 0 0 0
          0 0 0 0 0 0
          0 0 0 0 0 0
          0 0 0 0 0 0
          0 0 0 0 0 0
          0 0 0 0 0 0
          0 0 0 0 0 0
          0 0 0 0 0 0
          0 0 0 0 0 0
          0 0 0 0 0 0
          0 0 0 0 0 0
          0 0 0 0 0 0
          0 0 0 0 0 0
          0 0 0 0 0 0
          0 0 0
        </DataArray>
        <DataArray type="Float64" Name="markers_mustrefine" format="ascii" RangeMin="0" RangeMax="2">
          2 0 0 2 1.5 2
          0 1 1 1 2 0
          0 0.5 0.5 0 0 0
          2 2 1.5 2 2 2
          2 2 2 2 2 2
          2 0.5 0.25 2 1.75 0
          0 0 2 2 0 0
          0 0 0 0 0 0
          0 0 0 0 0 0
          0 0 0 0 0 0
          0 0 0 0 0 0
          1.3333333333333333 0 0 0 1.3333333333333333 2
          2 2 2 2 2 2
          2 2 1 1.5 1.5 2
          2 1.5 2 2 2 2
          0 0 1 1 0 1
          1 0 1 1 2 2
          2 2 1.5 1.75 0.5 1.25
          0 0.75 0 0.5 0 0.5
          0 2 2 2 2 2
          2 2 2 2 2 2
          2 2 2 2 2 2
          2 2 2 2 2 2
          2 2 2 2 2 2
          2 2 2 2 2 2
          2 2 2 2 2 2
          2 2 2 2 2 2
          2 2 2 2 2 2
          2 2 2 2 2 2
          2 2 1 1.5 1.5 1.5
          1.75 1.3333333333333333 2 2 2 2
          0 0 0.5 0.5 0 0
          0 0 0.5 0 1 1
          0 1 0 1 1.6666666666666667 2
          2 2 2 2 2 2
          2 2 2 1.5 1.25 1
          0.5 1 0 2 1.5 1
          1 1.5 1.5 0.5 0.5 0
          0 0 0 0 0.5 0
          0 0 0 0 0 0
          0 0 0 0 0 0
          0 0 0 0 0 0
          0.5 0 0 0 0.5 0
          0 0 0 0 0 0
          0 0 0 0.5 0 0
          0 0.5 0.5 0 0.5 1.5
          1.5 1.5 0 0.25 0 0
          1.25 1 2 2 2 2
          2 2 2 1.5 1.75 2
          2 2 2 0.5 1.25 1
          2 2 2 1.75 1.75 1.6666666666666667
          1.3333333333333333 2 2 2 2 2
          2 2 2 2 2 2
          2 2 2 2 2 2
          2 2 2 2 2 2
          2 2 2 2 2 2
          2 2 2 2 2 2
          2 2 2 2 2 2
          2 2 1 1.5 0.5 0.5
          1 2 1.5 2 0.6666666666666666 1.5
          2 0.5 1.5
        </DataArray>
        <DataArray type="Float64" Name="gradient_marker" format="ascii" RangeMin="1" RangeMax="1">
          1 1 1 1 1 1
          1 1 1 1 1 1
          1 1 1 1 1 1
          1 1 1 1 1 1
          1 1 1 1 1 1
          1 1 1 1 1 1
          1 1 1 1 1 1
          1 1 1 1 1 1
          1 1 1 1 1 1
          1 1 1 1 1 1
          1 1 1 1 1 1
          1 1 1 1 1 1
          1 1 1 1 1 1
          1 1 1 1 1 1
          1 1 1 1 1 1
          1 1 1 1 1 1
          1 1 1 1 1 1
          1 1 1 1 1 1
          1 1 1 1 1 1
          1 1 1 1 1 1
          1 1 1 1 1 1
          1 1 1 1 1 1
          1 1 1 1 1 1
          1 1 1 1 1 1
          1 1 1 1 1 1
          1 1 1 1 1 1
          1 1 1 1 1 1
          1 1 1 1 1 1
          1 1 1 1 1 1
          1 1 1 1 1 1
          1 1 1 1 1 1
          1 1 1 1 1 1
          1 1 1 1 1 1
          1 1 1 1 1 1
          1 1 1 1 1 1
          1 1 1 1 1 1
          1 1 1 1 1 1
          1 1 1 1 1 1
          1 1 1 1 1 1
          1 1 1 1 1 1
          1 1 1 1 1 1
          1 1 1 1 1 1
          1 1 1 1 1 1
          1 1 1 1 1 1
          1 1 1 1 1 1
          1 1 1 1 1 1
          1 1 1 1 1 1
          1 1 1 1 1 1
          1 1 1 1 1 1
          1 1 1 1 1 1
          1 1 1 1 1 1
          1 1 1 1 1 1
          1 1 1 1 1 1
          1 1 1 1 1 1
          1 1 1 1 1 1
          1 1 1 1 1 1
          1 1 1 1 1 1
          1 1 1 1 1 1
          1 1 1 1 1 1
          1 1 1 1 1 1
          1 1 1
        </DataArray>
        <DataArray type="Float64" Name="gradient_matprop_marker" format="ascii" RangeMin="0" RangeMax="0">
          0 0 0 0 0 0
          0 0 0 0 0 0
          0 0 0 0 0 0
          0 0 0 0 0 0
          0 0 0 0 0 0
          0 0 0 0 0 0
          0 0 0 0 0 0
          0 0 0 0 0 0
          0 0 0 0 0 0
          0 0 0 0 0 0
          0 0 0 0 0 0
          0 0 0 0 0 0
          0 0 0 0 0 0
          0 0 0 0 0 0
          0 0 0 0 0 0
          0 0 0 0 0 0
          0 0 0 0 0 0
          0 0 0 0 0 0
          0 0 0 0 0 0
          0 0 0 0 0 0
          0 0 0 0 0 0
          0 0 0 0 0 0
          0 0 0 0 0 0
          0 0 0 0 0 0
          0 0 0 0 0 0
          0 0 0 0 0 0
          0 0 0 0 0 0
          0 0 0 0 0 0
          0 0 0 0 0 0
          0 0 0 0 0 0
          0 0 0 0 0 0
          0 0 0 0 0 0
          0 0 0 0 0 0
          0 0 0 0 0 0
          0 0 0 0 0 0
          0 0 0 0 0 0
          0 0 0 0 0 0
          0 0 0 0 0 0
          0 0 0 0 0 0
          0 0 0 0 0 0
          0 0 0 0 0 0
          0 0 0 0 0 0
          0 0 0 0 0 0
          0 0 0 0 0 0
          0 0 0 0 0 0
          0 0 0 0 0 0
          0 0 0 0 0 0
          0 0 0 0 0 0
          0 0 0 0 0 0
          0 0 0 0 0 0
          0 0 0 0 0 0
          0 0 0 0 0 0
          0 0 0 0 0 0
          0 0 0 0 0 0
          0 0 0 0 0 0
          0 0 0 0 0 0
          0 0 0 0 0 0
          0 0 0 0 0 0
          0 0 0 0 0 0
          0 0 0 0 0 0
          0 0 0
        </DataArray>
        <DataArray type="Float64" Name="combo" format="ascii" RangeMin="1" RangeMax="1">
          1 1 1 1 1 1
          1 1 1 1 1 1
          1 1 1 1 1 1
          1 1 1 1 1 1
          1 1 1 1 1 1
          1 1 1 1 1 1
          1 1 1 1 1 1
          1 1 1 1 1 1
          1 1 1 1 1 1
          1 1 1 1 1 1
          1 1 1 1 1 1
          1 1 1 1 1 1
          1 1 1 1 1 1
          1 1 1 1 1 1
          1 1 1 1 1 1
          1 1 1 1 1 1
          1 1 1 1 1 1
          1 1 1 1 1 1
          1 1 1 1 1 1
          1 1 1 1 1 1
          1 1 1 1 1 1
          1 1 1 1 1 1
          1 1 1 1 1 1
          1 1 1 1 1 1
          1 1 1 1 1 1
          1 1 1 1 1 1
          1 1 1 1 1 1
          1 1 1 1 1 1
          1 1 1 1 1 1
          1 1 1 1 1 1
          1 1 1 1 1 1
          1 1 1 1 1 1
          1 1 1 1 1 1
          1 1 1 1 1 1
          1 1 1 1 1 1
          1 1 1 1 1 1
          1 1 1 1 1 1
          1 1 1 1 1 1
          1 1 1 1 1 1
          1 1 1 1 1 1
          1 1 1 1 1 1
          1 1 1 1 1 1
          1 1 1 1 1 1
          1 1 1 1 1 1
          1 1 1 1 1 1
          1 1 1 1 1 1
          1 1 1 1 1 1
          1 1 1 1 1 1
          1 1 1 1 1 1
          1 1 1 1 1 1
          1 1 1 1 1 1
          1 1 1 1 1 1
          1 1 1 1 1 1
          1 1 1 1 1 1
          1 1 1 1 1 1
          1 1 1 1 1 1
          1 1 1 1 1 1
          1 1 1 1 1 1
          1 1 1 1 1 1
          1 1 1 1 1 1
          1 1 1
        </DataArray>
        <DataArray type="Float64" Name="dHdT" format="ascii" RangeMin="25.8114628557814" RangeMax="27.8371151777487">
          25.83542138234389 25.812434617402978 25.811495804619287 25.905229385770227 25.816131048359594 26.386487639419027
          25.81171407853396 25.81195450090039 25.828705482066468 25.82604009850759 25.883954204240005 25.814920143108097
          25.81460286992886 25.81671052112571 25.816014986301017 25.81261406515587 25.813046419890053 25.812873548679782
          25.83434221483012 25.829434996983068 25.815222878823988 26.16190321648457 26.063884823250522 26.216537514710755
          25.891527598147047 25.869806751540835 25.82677825103289 25.822881982459087 25.941240868198125 25.90348779264577
          25.82884933032348 25.812566412886397 25.812380289719584 25.81401940860282 25.813389491866616 25.81177899252276
          25.811839756737058 25.81181600165894 25.815236061102063 25.814303924664276 25.811865579095215 25.81191940419183
          25.8118929162032 25.81212734004995 25.812062906689977 25.811715121088646 25.811789773172734 25.81176251180225
          25.811574349336503 25.811570430975735 25.811588473829495 25.811581892714372 25.81152149150095 25.811519680125755
          25.81152202494014 25.811566512614974 25.81157531159925 25.811524369754522 25.811602598322487 25.811593354453002
          25.811522558379323 25.811584110583524 25.818264772317537 25.82207087582593 25.821716600664878 25.820808608010477
          25.83183037702541 25.817395595941242 25.819784915776737 25.819314941036346 25.82617420242663 25.852837826732326
          25.850655674776675 25.844908956519916 25.899290332669242 25.837453890546218 25.824761307345128 25.824174074138423
          25.83292967393465 25.831833043594777 25.81820822501256 25.82231247877212 25.82178251682889 25.822627133602747
          25.828944078590467 25.82038328594106 25.8586699236005 25.85575630870566 25.832975864147773 25.848214207702593
          25.815098226563656 25.814955657951234 25.81678748107623 25.81653948887956 25.813852458139916 25.814935265119413
          25.81477754755412 25.81457889856482 25.815891041375096 25.814375152710685 25.82214008756626 25.82152630224831
          25.81690869474996 25.81993972545071 25.820547707768043 25.825158462481582 25.816385590037406 25.818554753701996
          25.814108978950266 25.81508771196857 25.813328920092708 25.813906903154837 25.813873250109708 25.814684837869823
          25.81368333087713 26.007239587953556 25.992985186490575 25.95677003712414 26.485272024603848 26.431652950827015
          26.13394459514353 26.297064038606585 26.78596514232597 26.70456317171997 26.31844768575006 26.27603968719714
          26.502101639139184 26.170506809437075 26.916953910420155 26.823163298794015 26.337729890271238 26.590594142008197
          25.908279453832787 25.90133851397504 25.85729072580123 25.854097562016367 25.883744123596834 25.845980140194303
          25.98341032580796 25.969749194059776 25.88532907612988 25.935655955117802 25.8322927512188 25.83089146237153
          25.820618173402345 25.82002594487613 25.8273199535397 25.818517110765125 25.847176327395886 25.844497957540668
          25.82567252389257 25.837766342474065 26.05978680788256 26.03904800534861 25.926137492074538 25.916717588929977
          25.987454723609055 25.893335770048015 26.093070065137947 26.06925404616755 25.930377229982582 26.00991839234916
          25.86201038978422 25.857977231360625 25.832815388941484 25.83117303084576 25.847931032899353 25.827063409507378
          25.868450187670568 25.863812187694236 25.83354118001786 25.852293021213946 25.814377854526484 25.81421175591425
          25.815426188715126 25.815178061655068 25.81273002883234 25.81316408908442 25.813069535852037 25.813796412699258
          25.814550044014187 25.813020532901856 25.817808107095114 25.81736617388262 25.813855991845696 25.81624874502878
          25.81205964855381 25.812042018596784 25.81218127987832 25.8121604449596 25.811834159005514 25.811890467825357
          25.81188981156651 25.812024388639756 25.812139610040877 25.811889155307664 25.81246820578386 25.81242522456538
          25.812012291271195 25.81235687874465 25.812636804514298 25.812888528843878 25.813147984428625 25.8201426923505
          25.819503646304547 25.81487212500179 25.81463721043202 25.817897527839886 25.81404361468847 25.82114369341454
          25.820419312239746 25.81497148004438 25.818601240951335 25.812758146074284 25.81268171466121 25.812162584447798
          25.812129133958337 25.81248486752776 25.812040459378043 25.81288279178368 25.81279185151408 25.812179149501787
          25.812561832659537 25.81332639179083 25.813500933525447 25.81219197113797 25.812242970363087 25.811915690377305
          25.811931287582162 25.812077792735774 25.812121488918798 25.811877339877103 25.812293969588204 25.811946884787012
          25.812165185101822 25.811635898678166 25.811500243273947 25.811515753027738 25.81162600204882 25.811501817862897
          25.811508925255882 25.81168794794095 25.812799031660806 25.811975688211227 25.811975093402268 25.81305579355434
          25.815838991562533 25.812275007018318 25.815417602192454 25.816543665830512 25.813919722380465 25.81459994352597
          25.82097643752674 25.81265153503001 25.81207757113714 25.8117965673559 25.812414996775228 25.811604477585316
          25.811610294624252 25.811464195087435 25.811466820955687 25.8114628557814 25.811466128688863 25.8115089358146
          25.811843474772026 25.8119407214156 25.811713897272526 25.81370379021064 25.81174822692295 25.820917676168058
          25.820652130936324 25.826165346810345 25.82565969982481 25.820005349794634 25.824352946643074 25.844480221637504
          25.843030826399644 25.839178615540757 25.81941587113965 25.822846406666898 25.819207628394622 25.82214097288693
          25.834148905086636 25.831234412441432 25.889094564291838 25.884909785172876 25.87388793655206 25.990306896221117
          25.97883788474362 25.94912111335293 25.859618221587155 25.83020276448805 25.845748035622165 25.864865054945657
          25.912197994790233 25.84729697817997 25.878429406756883 25.81845023336433 25.821448933252334 25.81746349352909