<?xml version="1.0"?>
<VTKFile type="UnstructuredGrid" version="0.1" byte_order="LittleEndian" header_type="UInt32" compressor="vtkZLibDataCompressor">
  <UnstructuredGrid>
    <Piece NumberOfPoints="1333" NumberOfCells="917">
      <PointData>
        <DataArray type="Int32" Name="libmesh_node_id" format="ascii" RangeMin="764" RangeMax="12465">
          764 771 772 775 1135 1138
          1164 1165 1167 1168 1169 1447
          1452 1469 1471 1473 1474 1475
          1476 1477 2509 2525 2533 2534
          2536 2621 2634 2636 2701 2702
          2703 2711 2712 2713 2715 2717
          2718 2719 2721 2722 2723 2724
          2725 2726 2727 2728 2729 2730
          2731 2732 2733 2734 2735 2736
          2737 2738 2739 2740 2741 2742
          2743 2744 2745 2746 2747 2779
          2781 2786 2791 2802 2804 2806
          2808 2812 2813 2814 2819 2820
          2821 2822 2823 2824 2829 2830
          2831 2832 2836 2837 2838 2839
          2899 3146 3147 3150 3151 3152
          3153 3154 3170 3171 4051 4056
          4057 4058 4065 4070 4071 4072
          4073 4074 4075 4076 4079 4080
          4081 4082 4083 4084 4085 4086
          4089 4090 4091 4092 4093 4094
          4095 4096 4097 4098 4099 4100
          4101 4102 4103 4104 4105 4106
          4107 4108 4109 4110 4111 4112
          4113 4114 4115 4116 4117 4118
          4119 4120 4121 4122 4123 4124
          4125 4126 4127 4128 4129 4130
          4131 4132 4133 4134 4135 4136
          4137 4138 4139 4140 4141 4142
          4143 4144 4145 4146 4147 4148
          4149 4150 4151 4152 4153 4154
          4155 4156 4157 4158 4159 4160
          4161 4162 4163 4164 4165 4166
          4167 4168 4169 4170 4171 4172
          4173 4174 4277 4278 4283 4284
          4286 4297 4298 4299 4300 4301
          4302 4303 4311 4312 4315 4317
          4318 4320 4331 4332 4333 4334
          4335 4336 4337 4382 4383 4384
          4385 4386 4387 4388 4399 4400
          4401 4402 4403 4404 4405 4428
          4436 4437 4439 4475 4476 4477
          4478 4479 4480 4481 4482 4483
          4484 4485 4486 4487 4488 4489
          4490 4491 4492 4493 4494 4495
          4496 4497 4498 4499 4500 4501
          4502 4503 4504 4505 4506 4507
          4508 4519 4520 4521 4522 4523
          4524 4536 4537 4543 4544 4545
          4553 4554 4555 4556 4557 4558
          4559 4560 4561 4562 4563 4564
          4565 4566 4583 4591 4593 4595
          4805 4806 4809 4811 4812 4814
          4825 4827 4829 4831 4941 4943
          4945 4947 4969 4971 4973 5402
          5403 5404 5405 5406 5407 5408
          5409 5410 5411 5413 5466 5467
          5468 5469 5470 5471 5472 5473
          5474 5475 5476 5477 5478 5479
          5480 5481 5482 5483 5484 5485
          5486 5487 5488 5489 5541 5542
          5543 5544 5545 5546 5547 5548
          5549 5550 5551 5552 5553 5554
          5555 5556 5561 5562 5563 5564
          8247 8251 8252 8253 8254 8255
          8256 8257 8264 8265 8266 8267
          8274 8275 8276 8277 8292 8293
          8294 8295 8296 8297 8298 8299
          8300 8301 8302 8303 8304 8305
          8306 8307 8308 8309 8310 8311
          8312 8313 8314 8315 8316 8317
          8318 8319 8320 8321 8322 8323
          8324 8325 8331 8332 8333 8334
          8335 8336 8337 8344 8351 8356
          8357 8358 8363 8364 8365 8366
          8367 8368 8369 8370 8371 8372
          8373 8374 8375 8376 8377 8378
          8379 8380 8381 8382 8383 8384
          8385 8386 8387 8388 8389 8390
          8391 8392 8393 8394 8395 8396
          8397 8398 8399 8400 8401 8402
          8403 8404 8405 8406 8407 8408
          8409 8410 8411 8412 8413 8414
          8415 8416 8417 8418 8419 8420
          8421 8422 8423 8424 8425 8426
          8427 8428 8429 8430 8431 8432
          8433 8434 8435 8436 8437 8438
          8439 8440 8441 8442 8443 8444
          8445 8446 8447 8448 8449 8450
          8451 8452 8453 8454 8455 8456
          8457 8458 8459 8460 8461 8462
          8463 8464 8465 8466 8467 8468
          8469 8470 8471 8472 8473 8474
          8475 8476 8477 8478 8479 8480
          8481 8482 8483 8484 8485 8486
          8487 8488 8489 8490 8491 8492
          8493 8494 8495 8496 8497 8498
          8499 8500 8501 8502 8503 8504
          8505 8506 8507 8508 8509 8510
          8511 8512 8513 8514 8515 8516
          8517 8518 8519 8520 8521 8522
          8523 8524 8525 8526 8527 8528
          8529 8530 8531 8532 8533 8534
          8535 8536 8537 8538 8539 8540
          8541 8542 8543 8546 8547 8548
          8549 8550 8551 8552 8553 8558
          8559 8560 8565 8566 8567 8568
          8569 8570 8571 8572 8573 8574
          8575 8576 8577 8578 8579 8580
          8581 8582 8583 8584 8585 8586
          8587 8588 8589 8590 8591 8592
          8593 8594 8595 8596 8597 8598
          8599 8600 8601 8602 8603 8604
          8605 8606 8607 8608 8609 8610
          8611 8612 8613 8614 8615 8616
          8617 8618 8619 8620 8621 8622
          8623 8624 8625 8626 8627 8628
          8629 8630 8631 8632 8633 8634
          8635 8636 8637 8638 8639 8640
          8641 8642 8643 8644 8645 8646
          8647 8648 8649 8650 8651 8652
          8653 8654 8655 8656 8657 8658
          8659 8660 8661 8662 8663 8664
          8665 8666 8667 8668 8669 9102
          9103 9104 9105 9130 9131 9132
          9133 9134 9135 9136 9137 9138
          9139 9144 9149 9150 9151 9152
          9153 9154 9155 9156 9157 9159
          9161 9163 9238 9245 9250 9251
          9252 9257 9258 9259 9260 9261
          9262 9263 9264 9265 9266 9267
          9269 9270 9271 9273 9274 9275
          9276 9277 9278 9279 9280 9281
          9282 9283 9284 9285 9286 9287
          9347 9348 9349 9350 9351 9352
          9353 9354 9355 9356 9361 9366
          9367 9368 9369 9370 9371 9372
          9373 9374 9376 9378 9380 9381
          9382 9383 9384 9385 9386 9387
          9388 9389 9390 9395 9400 9401
          9402 9403 9404 9405 9406 9407
          9408 9410 9412 9414 9483 9484
          9485 9486 9487 9488 9489 9490
          9492 9493 9494 9496 9497 9498
          9499 9500 9501 9502 9503 9504
          9505 9506 9507 9508 9509 9510
          9511 9512 9513 9514 9515 9516
          9517 9518 9520 9521 9522 9524
          9525 9526 9527 9528 9529 9530
          9531 9532 9533 9534 9535 9536
          9537 9538 9776 9777 9778 9786
          9787 9788 9789 9790 9791 9792
          9793 9794 9795 9796 9797 9798
          9799 9800 9801 9802 9813 9814
          9815 9816 9817 9818 9819 9820
          9821 9822 9823 9824 9825 9826
          9827 9828 9829 9830 9831 9832
          9833 9834 9835 9836 9837 9838
          9839 9840 9841 9842 9843 9844
          9845 9846 9847 9848 9849 9850
          9851 9852 9853 9854 9855 9856
          9857 9858 9859 9860 9861 9862
          9863 9864 9865 9866 9867 10068
          10069 10070 10071 10072 10073 10074
          10079 10080 10081 10084 10086 10087
          10088 10089 10090 10091 10092 10093
          10094 10095 10096 10097 10098 10099
          10100 10101 10102 10103 10104 10105
          10106 10107 10108 10109 10110 10111
          10112 10113 10114 10115 10116 10117
          10118 10119 10120 10121 10122 10123
          10124 10125 10126 10127 10128 10129
          10130 10131 10132 10133 10134 10135
          10136 10137 10138 10139 10140 10141
          10142 10143 10144 10145 10146 10147
          10148 10149 10150 10151 10152 10153
          10154 10155 10156 10157 10158 10159
          10160 10161 10162 10163 10164 10165
          10166 10167 10168 10169 10170 10171
          10172 10173 10174 10175 10176 10177
          10178 10179 10180 10181 10182 10183
          10184 10185 10186 10187 10188 10189
          10190 10191 10192 10193 10194 10195
          10196 10197 10198 10199 10200 10201
          10202 10203 10204 10205 10206 10207
          10208 10209 10210 10211 10212 10213
          10214 10215 10216 10217 10218 10219
          10220 10221 10222 10223 10224 10237
          10238 10240 10248 10249 10287 10288
          10289 10290 10291 10292 10295 10297
          10298 10299 10300 10301 10302 10303
          10304 10305 10306 10307 10308 10309
          10310 10312 10314 10315 10316 10317
          10318 10319 10320 10355 10356 10367
          10368 10369 10370 10372 10374 10375
          10376 10377 10378 10379 10380 10423
          10424 10425 10426 10427 10428 10429
          10430 10431 10432 10433 10434 10435
          10436 10437 10438 10439 10440 10441
          10442 10443 10444 10445 10446 10447
          10448 10449 10450 10451 10452 10453
          10454 10455 10456 10457 10458 10459
          10460 10461 10462 10463 10464 10465
          10466 10467 10468 10469 10470 10471
          10472 10473 10474 10475 10476 10477
          10478 10479 10480 10481 10482 10483
          10484 10485 10486 10487 10488 10489
          10490 11609 11610 11611 11612 11613
          11614 11615 11616 11617 11618 11629
          11630 11631 11632 11633 11634 11635
          11643 11644 11645 11646 11647 11648
          11649 11650 11651 11652 11663 11664
          11665 11666 11667 11668 11669 11745
          11746 11747 11748 11749 11750 11751
          11759 11760 11761 11762 11763 11764
          11765 11773 11774 11775 11776 11777
          11778 11779 11787 11788 11789 11790
          11791 11792 11793 12417 12418 12419
          12420 12421 12422 12423 12431 12432
          12433 12434 12435 12436 12437 12445
          12446 12447 12448 12449 12450 12451
          12459 12460 12461 12462 12463 12464
          12465
        </DataArray>
        <DataArray type="Float64" Name="bounds" format="ascii" RangeMin="0" RangeMax="0">
          0 0 0 0 0 0
          0 0 0 0 0 0
          0 0 0 0 0 0
          0 0 0 0 0 0
          0 0 0 0 0 0
          0 0 0 0 0 0
          0 0 0 0 0 0
          0 0 0 0 0 0
          0 0 0 0 0 0
          0 0 0 0 0 0
          0 0 0 0 0 0
          0 0 0 0 0 0
          0 0 0 0 0 0
          0 0 0 0 0 0
          0 0 0 0 0 0
          0 0 0 0 0 0
          0 0 0 0 0 0
          0 0 0 0 0 0
          0 0 0 0 0 0
          0 0 0 0 0 0
          0 0 0 0 0 0
          0 0 0 0 0 0
          0 0 0 0 0 0
          0 0 0 0 0 0
          0 0 0 0 0 0
          0 0 0 0 0 0
          0 0 0 0 0 0
          0 0 0 0 0 0
          0 0 0 0 0 0
          0 0 0 0 0 0
          0 0 0 0 0 0
          0 0 0 0 0 0
          0 0 0 0 0 0
          0 0 0 0 0 0
          0 0 0 0 0 0
          0 0 0 0 0 0
          0 0 0 0 0 0
          0 0 0 0 0 0
          0 0 0 0 0 0
          0 0 0 0 0 0
          0 0 0 0 0 0
          0 0 0 0 0 0
          0 0 0 0 0 0
          0 0 0 0 0 0
          0 0 0 0 0 0
          0 0 0 0 0 0
          0 0 0 0 0 0
          0 0 0 0 0 0
          0 0 0 0 0 0
          0 0 0 0 0 0
          0 0 0 0 0 0
          0 0 0 0 0 0
          0 0 0 0 0 0
          0 0 0 0 0 0
          0 0 0 0 0 0
          0 0 0 0 0 0
          0 0 0 0 0 0
          0 0 0 0 0 0
          0 0 0 0 0 0
          0 0 0 0 0 0
          0 0 0 0 0 0
          0 0 0 0 0 0
          0 0 0 0 0 0
          0 0 0 0 0 0
          0 0 0 0 0 0
          0 0 0 0 0 0
          0 0 0 0 0 0
          0 0 0 0 0 0
          0 0 0 0 0 0
          0 0 0 0 0 0
          0 0 0 0 0 0
          0 0 0 0 0 0
          0 0 0 0 0 0
          0 0 0 0 0 0
          0 0 0 0 0 0
          0 0 0 0 0 0
          0 0 0 0 0 0
          0 0 0 0 0 0
          0 0 0 0 0 0
          0 0 0 0 0 0
          0 0 0 0 0 0
          0 0 0 0 0 0
          0 0 0 0 0 0
          0 0 0 0 0 0
          0 0 0 0 0 0
          0 0 0 0 0 0
          0 0 0 0 0 0
          0 0 0 0 0 0
          0 0 0 0 0 0
          0 0 0 0 0 0
          0 0 0 0 0 0
          0 0 0 0 0 0
          0 0 0 0 0 0
          0 0 0 0 0 0
          0 0 0 0 0 0
          0 0 0 0 0 0
          0 0 0 0 0 0
          0 0 0 0 0 0
          0 0 0 0 0 0
          0 0 0 0 0 0
          0 0 0 0 0 0
          0 0 0 0 0 0
          0 0 0 0 0 0
          0 0 0 0 0 0
          0 0 0 0 0 0
          0 0 0 0 0 0
          0 0 0 0 0 0
          0 0 0 0 0 0
          0 0 0 0 0 0
          0 0 0 0 0 0
          0 0 0 0 0 0
          0 0 0 0 0 0
          0 0 0 0 0 0
          0 0 0 0 0 0
          0 0 0 0 0 0
          0 0 0 0 0 0
          0 0 0 0 0 0
          0 0 0 0 0 0
          0 0 0 0 0 0
          0 0 0 0 0 0
          0 0 0 0 0 0
          0 0 0 0 0 0
          0 0 0 0 0 0
          0 0 0 0 0 0
          0 0 0 0 0 0
          0 0 0 0 0 0
          0 0 0 0 0 0
          0 0 0 0 0 0
          0 0 0 0 0 0
          0 0 0 0 0 0
          0 0 0 0 0 0
          0 0 0 0 0 0
          0 0 0 0 0 0
          0 0 0 0 0 0
          0 0 0 0 0 0
          0 0 0 0 0 0
          0 0 0 0 0 0
          0 0 0 0 0 0
          0 0 0 0 0 0
          0 0 0 0 0 0
          0 0 0 0 0 0
          0 0 0 0 0 0
          0 0 0 0 0 0
          0 0 0 0 0 0
          0 0 0 0 0 0
          0 0 0 0 0 0
          0 0 0 0 0 0
          0 0 0 0 0 0
          0 0 0 0 0 0
          0 0 0 0 0 0
          0 0 0 0 0 0
          0 0 0 0 0 0
          0 0 0 0 0 0
          0 0 0 0 0 0
          0 0 0 0 0 0
          0 0 0 0 0 0
          0 0 0 0 0 0
          0 0 0 0 0 0
          0 0 0 0 0 0
          0 0 0 0 0 0
          0 0 0 0 0 0
          0 0 0 0 0 0
          0 0 0 0 0 0
          0 0 0 0 0 0
          0 0 0 0 0 0
          0 0 0 0 0 0
          0 0 0 0 0 0
          0 0 0 0 0 0
          0 0 0 0 0 0
          0 0 0 0 0 0
          0 0 0 0 0 0
          0 0 0 0 0 0
          0 0 0 0 0 0
          0 0 0 0 0 0
          0 0 0 0 0 0
          0 0 0 0 0 0
          0 0 0 0 0 0
          0 0 0 0 0 0
          0 0 0 0 0 0
          0 0 0 0 0 0
          0 0 0 0 0 0
          0 0 0 0 0 0
          0 0 0 0 0 0
          0 0 0 0 0 0
          0 0 0 0 0 0
          0 0 0 0 0 0
          0 0 0 0 0 0
          0 0 0 0 0 0
          0 0 0 0 0 0
          0 0 0 0 0 0
          0 0 0 0 0 0
          0 0 0 0 0 0
          0 0 0 0 0 0
          0 0 0 0 0 0
          0 0 0 0 0 0
          0 0 0 0 0 0
          0 0 0 0 0 0
          0 0 0 0 0 0
          0 0 0 0 0 0
          0 0 0 0 0 0
          0 0 0 0 0 0
          0 0 0 0 0 0
          0 0 0 0 0 0
          0 0 0 0 0 0
          0 0 0 0 0 0
          0 0 0 0 0 0
          0 0 0 0 0 0
          0 0 0 0 0 0
          0 0 0 0 0 0
          0 0 0 0 0 0
          0 0 0 0 0 0
          0 0 0 0 0 0
          0 0 0 0 0 0
          0 0 0 0 0 0
          0 0 0 0 0 0
          0 0 0 0 0 0
          0 0 0 0 0 0
          0 0 0 0 0 0
          0 0 0 0 0 0
          0 0 0 0 0 0
          0 0 0 0 0 0
          0 0 0 0 0 0
          0
        </DataArray>
        <DataArray type="Float64" Name="gradient_error" format="ascii" RangeMin="1.6407548291769444e-12" RangeMax="4.2588308329890476e-7">
          8.269062962309704e-8 8.84528674404858e-9 1.0085766896903793e-10 2.840444963515138e-10 6.51114697314293e-8 3.786269145310636e-7
          2.4091666462846633e-9 9.232398232284502e-11 1.3924798920780708e-7 1.767116289376194e-10 8.229950205683871e-9 5.2987101379697245e-9
          1.5126641008055308e-8 1.8905007404231434e-9 1.1297383442716335e-10 7.683237985876083e-10 1.0387165300578773e-10 4.6841473846164455e-9
          1.3590956520803543e-10 1.3507744191909095e-9 1.2589135516451623e-8 1.571830293288141e-7 3.269261560650135e-8 2.2324328044294252e-8
          8.746555290691086e-8 3.6708681350926296e-7 1.67050149449993e-7 4.7662165270588496e-8 9.083770636789485e-9 3.1150440817469327e-9
          5.351010851553692e-9 3.1016254015311406e-10 3.3651453555023276e-11 3.7911342143284105e-10 2.816169362440128e-7 1.5253202799024094e-7
          1.105761345271047e-7 5.231791036179265e-8 4.2588308329890476e-7 2.486644207717139e-7 2.869015532565929e-7 2.4612451665651605e-8
          1.3082449906580636e-8 2.511483625710217e-9 7.923067132682708e-10 1.888648159267144e-9 4.948290921607156e-11 7.103491650651371e-8
          4.3219306445936195e-8 3.1700064287667543e-9 5.9426486599522115e-9 2.4343446003870436e-8 8.866456917082292e-9 1.4467897763812875e-8
          3.0523798644108918e-9 5.1659588200870365e-8 2.0579406871905615e-8 2.164656214668514e-8 7.369039972695235e-10 2.1857873029674248e-11
          6.948555437662679e-10 6.174418761404749e-11 1.673730732568358e-9 4.115744982247133e-11 1.4958296073736527e-9 1.0930964479937525e-11
          1.817336559919436e-11 7.818653250512504e-12 2.852983924813708e-11 1.2506196036398327e-11 1.9714643404792233e-11 7.452722707273676e-12
          2.3867284831784758e-11 2.3244928858431748e-7 3.010665138446985e-7 1.5020550880214685e-7 7.938828118736841e-8 1.0235541632505303e-7
          2.0361838864515418e-8 8.926271952030048e-9 1.3729725726251088e-8 4.820533335874053e-10 1.1222709221144434e-7 4.5804746135339464e-8
          2.6173686302091425e-8 7.399154566601168e-9 1.998880017259112e-9 5.492246663735024e-11 1.3348727829728188e-9 1.37919482632786e-10
          3.249767892463556e-11 4.261568405665281e-10 7.86277734389591e-10 3.0315653873006053e-10 5.245305931833374e-10 1.1439216939885399e-10
          1.671912108103548e-10 2.119951927758853e-10 3.046920153021176e-11 4.48693384926387e-11 4.767810672264299e-11 7.19903033272642e-9
          3.2426603101272315e-9 1.4868038750512734e-8 5.048430182598743e-8 2.690727775122326e-8 1.1875775921959913e-8 4.415811026806534e-8
          2.2573381678338503e-8 1.968743607699506e-8 1.212269994560519e-8 1.0485999620754261e-8 4.682514656673353e-8 4.120111322215967e-8
          2.1695613626348426e-8 2.5938283305106566e-8 1.8204399930073054e-9 1.5487838433256146e-9 1.1458784784409222e-9 9.30278656371179e-10
          3.859360044785179e-9 3.4139111718779174e-9 2.098270124702702e-9 1.469798596820337e-9 5.9152701154175105e-9 2.5035800784793295e-9
          2.503782199930596e-9 9.472154275812534e-10 1.2214315509293616e-8 5.176378643540342e-9 5.0267916654886475e-9 1.9884240398129876e-10
          9.164977817107968e-11 5.952077121482385e-11 2.3663593074242554e-11 4.265846820927469e-10 1.9953186058126845e-10 1.2197189973128643e-10
          8.126763988339996e-8 7.352834587358772e-8 4.369942868443678e-8 3.9764532258432944e-8 4.7886318225666873e-8 2.4915744684708954e-8
          1.2798756566656652e-7 1.1984922803900937e-7 6.650262555199881e-8 8.105777341397968e-8 7.291489213968106e-9 6.803651687657245e-9
          4.978000840211543e-9 4.319410316693915e-9 3.0042483876458757e-9 1.6522080251566763e-9 1.2198411854242263e-8 1.2166097039205491e-8
          8.051746284922226e-9 5.6114213566080035e-9 2.249459383972533e-8 9.816975245517233e-9 9.171598802977043e-9 3.479205812177724e-9
          3.782092057574691e-8 1.7146506139723636e-8 1.534679141485893e-8 8.526831500702825e-10 4.0525484806930396e-10 2.3362294744499307e-10
          9.671562337749526e-11 1.5825541006202903e-9 7.658584001792099e-10 4.1797482120924104e-10 9.232143367743496e-10 6.787766498157976e-10
          1.6571267968618375e-9 2.7877916948467013e-9 1.9872305333227118e-9 4.478022592064826e-9 7.571692690864711e-10 3.2672983390746725e-10
          4.829980753452942e-10 1.4121014191587797e-10 1.380472764303174e-9 5.932648635870229e-10 8.36506483588961e-10 3.2655125140133285e-11
          1.3432465289388747e-11 4.475286494910834e-11 2.0652279249388785e-11 3.515029426475181e-11 1.4435312708539192e-11 5.039594134885511e-11
          2.3654338822042743e-9 1.0450989481430026e-9 1.393273250346833e-9 3.5736233136659117e-10 3.8484717917681705e-9 1.7332202318774789e-9
          2.2405454888051707e-9 6.406832757932883e-11 2.3612248082535195e-11 8.236360764986291e-11 2.6572581600248412e-11 1.0988047217284535e-10
          4.159207544294418e-11 1.2136294002169074e-10 5.9898339693057e-10 4.622510950045203e-10 1.3453595354649178e-9 1.056569106156729e-9
          3.717725807743714e-10 4.007863041303942e-11 1.5668799692496336e-11 9.623359088267983e-12 4.21275862909854e-12 8.767802341551312e-11
          3.4282399872063134e-11 2.031331013626655e-11 2.7628854031528328e-9 2.2193993831425147e-9 7.814123771289589e-10 5.158683566753249e-9
          4.2639019680458305e-9 1.5181004664332028e-9 1.7893222910202798e-10 6.990183392158899e-11 4.005548187875883e-11 1.5459956431488748e-11
          3.4005219081830353e-10 1.3276775745921417e-10 7.377460606730213e-11 7.367700677355401e-12 3.63690379624774e-12 1.1680314205692055e-11
          4.817117108708322e-12 9.382775498808516e-12 5.384257352268467e-12 1.1641574455604358e-11 1.0520370057982454e-11 6.6437628677910095e-12
          1.074680056032509e-11 8.196524738945573e-12 1.6311008239667947e-11 7.076337963608167e-12 1.4408083955100566e-11 1.4972228435309889e-7
          6.728895436177233e-8 3.013367134987969e-8 1.0569525692306098e-7 1.9265033284540175e-7 1.8613585379683305e-7 1.0751474088387563e-7
          1.0323191241014584e-7 1.2914114820365376e-7 6.929608356485488e-8 1.2930793032464676e-7 1.9888925794957958e-7 1.1431496857334082e-7
          1.9122824840902326e-7 1.839435133501798e-8 1.9561585393330532e-8 1.4000973788143986e-8 1.3521450223599397e-8 9.538222498945703e-9
          5.565319543101137e-9 2.7074236337370424e-8 2.966759929131976e-8 2.0613037393842947e-8 1.472450472428011e-8 5.8885096277886256e-8
          2.7587279846742783e-8 2.3726468192807086e-8 9.361140358100817e-9 8.500597962121046e-8 4.120116755319172e-8 3.252819273437507e-8
          2.719057516762632e-9 1.3429296246643464e-9 6.984586955708398e-10 3.018033977896079e-10 4.313375324536082e-9 2.180491901542614e-9
          1.0948016209929608e-9 3.1872687191430915e-8 4.156958129378612e-8 2.9081969656805264e-8 2.964594897623131e-8 2.0946565383359147e-8
          1.3145191328997782e-8 6.361068069573164e-9 3.2844239932726056e-9 6.7651567574672746e-9 4.883868310468702e-9 1.0996418193511928e-8
          5.900480608659153e-9 2.7152771086897735e-9 3.4572957284335286e-9 8.647040304201139e-10 9.240462259882422e-9 4.041395154279528e-9
          4.3067038268485795e-9 1.7808267589481526e-10 6.889091342795445e-11 1.6864500741729667e-10 5.800259616651998e-11 2.737297100551318e-10
          1.0776015934855437e-10 1.3849668186129657e-10 5.024726064030754e-10 1.7397085237845666e-10 6.22016475080437e-11 1.7070547765095138e-10
          8.723236370390058e-9 7.46069322932452e-9 2.7167870797306964e-9 1.3332877625682914e-8 1.1871645716203686e-8 4.4683080832797264e-9
          6.006189617319202e-10 1.2688625606875915e-10 9.846020542218119e-10 2.0382783571475734e-10 2.7309567376312914e-11 2.0391022225143175e-11
          4.297672225062237e-11 2.7359138816300922e-11 3.0055085728580584e-11 1.2363254195910837e-11 1.742880698144602e-11 1.5220700941150127e-10
          2.0585669763570272e-10 1.5874877954781995e-10 1.1330652522491992e-10 1.570854177380765e-10 4.705313455120864e-11 6.824247908431876e-11
          8.291971402262596e-11 1.0824398272788949e-10 3.880831029217349e-11 1.8360172068852076e-11 4.3265705964242616e-11 5.808623979448675e-11
          4.2714924863100193e-11 1.0320316653407926e-10 3.023096013448592e-11 3.970115636578188e-11 1.719621430472922e-11 2.1316072937077016e-11
          2.3142607308890375e-11 2.99244835896431e-11 1.7134042316186006e-11 6.905095579057735e-11 2.7762514681887052e-11 5.123971761881451e-11
          1.680640820532975e-10 1.2234374476960181e-10 2.4283220800062913e-10 1.1170323476764154e-10 3.6717167754347776e-11 8.262066382348469e-11
          2.837297299144768e-11 1.6208261222814216e-10 5.4501904025561205e-11 1.19340955292783e-10 9.664321861234031e-12 1.2658531103035312e-11
          5.838589770957837e-12 7.2251141793606475e-12 8.234990714291845e-12 1.025224839497539e-11 6.6561336844229664e-12 1.9124011010786225e-11
          8.33936310620178e-12 1.4376492117407632e-11 3.294287268890578e-10 2.4234350520100035e-10 2.185020174560543e-10 7.156610954659447e-11
          1.5771659766901292e-10 4.814018842528076e-11 2.4995214434727395e-11 9.643662343281419e-12 1.7080079431760254e-11 7.175405844945384e-12
          2.3840908161267104e-9 3.6179321716744614e-9 3.4330777523914313e-9 3.0232859161481663e-9 4.965807391760047e-9 2.433399274008762e-9
          1.556992877080013e-9 3.5748248988650372e-9 2.2641012461950557e-9 2.174793853817776e-9 1.7859144209012302e-9 1.8931485194307093e-9
          1.4719259818003571e-9 1.4361573905484177e-9 1.1094057850523412e-9 1.2254186477796794e-9 3.2794626629599583e-9 3.172515613915265e-9
          2.686932802333801e-9 2.6548162217062497e-9 2.797315499824622e-9 2.32705957662913e-9 4.708723663316799e-9 4.58278291062883e-9
          3.845140936138755e-9 4.084753662464485e-9 2.1895705943579703e-9 2.1500461158069744e-9 1.7168482444543018e-9 1.6711586639581722e-9
          1.8520751560468518e-9 1.4124806981494984e-9 3.1756168303030215e-9 3.1411199330710303e-9 2.459554628169038e-9 2.7363568102864013e-9
          2.146350356667572e-9 1.6557388719344725e-9 1.3498853781895966e-9 9.96282167741807e-10 3.1556840070180646e-9 2.4442920470851986e-9
          1.9843304184933605e-9 1.2765944521304746e-9 9.506114432049283e-10 7.364270046022853e-10 5.327086867022824e-10 1.8957050035488223e-9
          1.4174002485280254e-9 1.0917742774144285e-9 2.11274614613391e-10 8.917056142912897e-10 5.472226935273211e-10 1.3011022214337498e-9
          3.0321591459987104e-10 1.8445265107606035e-10 4.32275486820142e-10 3.064007812394498e-10 1.3499368309147204e-10 1.7181576700984663e-10
          1.0874292273086104e-10 1.0154887340606851e-10 7.055811211474285e-11 4.641974935292593e-11 3.715147078406574e-11 7.648086918765949e-10
          5.466391004729351e-10 4.484163965145878e-10 2.937444770908628e-10 1.117149120615395e-9 8.014413369445849e-10 6.493946927246201e-10
          3.88844133626174e-10 2.727837361842594e-10 2.0031265812588203e-10 1.3638789056663861e-10 5.726554230521931e-10 4.028568661802607e-10
          2.9222205926738984e-10 2.48037376752222e-10 1.5879014899515583e-10 1.451933222217472e-10 8.591111298441523e-11 3.543474885880054e-10
          2.280806964218757e-10 2.0533897491197405e-10 1.0353446295245001e-10 6.834242932810829e-11 5.3938673998060805e-11 3.450785940695108e-11
          1.4943695912617284e-10 9.896636239680738e-11 7.70266887132835e-11 7.111204507752175e-9 6.823305835064916e-9 6.1600684694445145e-9
          9.177246395154567e-9 5.06476870513129e-9 3.251940815350114e-9 7.040754505549137e-9 1.2154369274270843e-8 1.1884247392005751e-8
          1.1182434998116363e-8 1.5171323410366328e-8 9.503712036225086e-9 6.175410135542009e-9 1.2498270351691809e-8 6.473840113323117e-9
          6.356317277171058e-9 5.386553854759376e-9 5.4186015923054145e-9 5.757879006966562e-9 4.884156413132334e-9 8.664173278149159e-9
          8.594664525510752e-9 7.4166289913783316e-9 7.932123974275931e-9 4.483372289083836e-9 4.471728957357123e-9 3.5826558025073797e-9
          3.5327192831676016e-9 3.947053564009889e-9 3.046648653881136e-9 6.154036757586921e-9 6.1959972053292414e-9 4.946511825477118e-9
          5.552093852959854e-9 4.500091265970232e-9 3.5271670836498366e-9 2.837913058337061e-9 2.124196515852369e-9 6.2810513383625316e-9
          4.968399236827808e-9 3.980113375466487e-9 2.754102722496349e-9 2.0692780297202283e-9 1.586644863522623e-9 1.1556901774989732e-9
          3.910345631554008e-9 2.95534048987958e-9 2.258496186313443e-9 1.1197071313949027e-8 1.1237222055762622e-8 9.580354903723596e-9
          9.863712369433993e-9 1.0597454867115825e-8 9.22418423423898e-9 1.4185719531199081e-8 1.4378167738181723e-8 1.2734341578679635e-8
          1.3810127429993083e-8 8.204311960972883e-9 8.347715751716282e-9 6.7300594644492816e-9 6.745045301930771e-9 7.608329431120616e-9
          5.97362073727786e-9 1.0613187051881791e-8 1.0926625868948717e-8 8.94956926781465e-9 1.014860159308386e-8 8.527358978495851e-9
          6.825232859774029e-9 5.441624335019464e-9 4.154197440213918e-9 1.1279570893824765e-8 9.137401440754631e-9 7.266911766799273e-9
          5.42026815343759e-9 4.125292373612638e-9 3.146045175214191e-9 2.313387603503621e-9 7.328125016205834e-9 5.623060549278318e-9
          4.2849873048396634e-9 1.8433559977377877e-9 1.1172670778462848e-9 2.5739734193297454e-9 6.012332423657941e-10 3.6054915273584094e-10
          8.240272095813141e-10 3.5052711004146456e-9 2.1073533298633575e-9 4.683445131547649e-9 1.105383501954299e-9 6.552689984788548e-10
          1.4581853724828541e-9 1.591428114182297e-9 1.153115925271135e-9 9.192501195428259e-10 6.086560122787184e-10 2.229327380579786e-9
          1.6268453106174906e-9 1.2799615537746324e-9 8.279241152990492e-10 5.842096822750911e-10 4.1892193170985693e-10 2.8688548226175716e-10
          1.1744394541498323e-9 8.315369285134565e-10 5.89918565449496e-10 4.953378057252178e-10 3.2206569328826797e-10 2.847283047661783e-10
          1.7026120073224492e-10 6.815046901650759e-10 4.468503400956816e-10 3.8843825866529327e-10 2.1207814325632727e-10 1.4091784173496505e-10
          1.0815425401058138e-10 6.976711017770627e-11 2.9585541149692417e-10 1.9725950936771398e-10 1.493137051814258e-10 3.0516722650262743e-9
          2.2493614814771706e-9 1.7448366184472542e-9 1.1725932776105268e-9 4.095285972297166e-9 3.046234671738254e-9 2.3348682757726257e-9
          1.6336553290167604e-9 1.1611220141411892e-9 8.157225353789583e-10 5.62245478156935e-10 2.2269923691451394e-9 1.5897609638638862e-9
          1.1072094528540911e-9 9.19057473984758e-10 6.091221486618355e-10 5.199044599182496e-10 3.151421928009904e-10 1.218377840845721e-9
          8.157625859786518e-10 6.84215035853515e-10 4.0563316591952076e-10 2.7140629892771316e-10 2.0270289876841924e-10 1.3183312006942368e-10
          5.46475557450381e-10 3.669558238385518e-10 2.705982514046071e-10 7.121923583320135e-11 1.0052322997662472e-10 5.929384294614836e-11
          1.3989983325744167e-10 2.5390189188531323e-11 3.078178543284364e-11 2.497900817176408e-11 4.301944771650637e-11 5.618191723572804e-11
          3.264896481189721e-11 3.6919385201252456e-11 1.954237164409079e-11 1.208633241521021e-11 1.1606839542450089e-11 7.960841279431234e-11