<?xml version="1.0"?>
<VTKFile type="UnstructuredGrid" version="0.1" byte_order="LittleEndian" header_type="UInt32" compressor="vtkZLibDataCompressor">
  <UnstructuredGrid>
    <Piece NumberOfPoints="397" NumberOfCells="192">
      <PointData>
        <DataArray type="Int32" Name="libmesh_node_id" format="ascii" RangeMin="117" RangeMax="3080">
          117 119 130 131 143 144
          145 146 147 157 158 170
          171 172 173 184 185 189
          190 191 192 193 194 195
          196 197 198 199 200 201
          202 203 204 205 206 207
          208 209 211 212 215 216
          219 221 236 237 238 239
          240 241 242 243 244 245
          246 247 248 249 250 251
          252 253 254 255 256 258
          262 263 264 268 276 300
          301 302 303 305 306 309
          311 312 313 314 317 318
          319 321 322 324 325 326
          327 328 329 330 331 332
          335 336 337 338 339 340
          343 346 347 348 349 350
          351 352 353 354 355 356
          357 358 359 360 361 362
          373 374 375 376 377 378
          379 380 381 382 383 384
          385 386 387 388 389 390
          391 392 393 394 395 396
          397 398 399 400 401 402
          403 404 405 406 407 409
          410 411 412 413 414 415
          416 417 418 419 423 424
          425 428 430 431 433 444
          445 446 447 450 451 452
          543 544 545 546 548 549
          588 589 590 591 592 593
          594 595 596 597 608 609
          610 611 612 613 614 615
          616 617 618 619 620 621
          622 623 624 625 626 627
          628 629 630 631 632 633
          634 635 636 637 638 639
          640 641 676 677 678 679
          680 681 682 683 684 685
          686 687 688 689 690 691
          692 693 694 695 696 697
          698 699 700 701 702 703
          704 705 706 707 708 709
          710 711 712 713 714 715
          716 717 718 719 720 721
          722 723 724 725 726 727
          728 729 730 732 734 735
          736 771 772 773 774 775
          776 777 778 779 780 781
          782 783 784 785 786 789
          811 812 813 814 815 816
          817 818 819 820 821 822
          823 834 835 836 837 838
          839 840 841 842 843 854
          855 856 857 858 859 860
          861 862 863 874 875 876
          877 878 879 880 1269 1270
          1271 1272 1273 1274 1275 3051
          3052 3053 3054 3055 3056 3057
          3058 3059 3060 3061 3062 3063
          3064 3065 3066 3067 3068 3069
          3070 3071 3072 3073 3074 3075
          3076 3077 3078 3079 3080 333
          334 210 259 341 342 344
          345 270 465 466 731 467
          733
        </DataArray>
        <DataArray type="Float64" Name="bounds" format="ascii" RangeMin="0" RangeMax="0">
          0 0 0 0 0 0
          0 0 0 0 0 0
          0 0 0 0 0 0
          0 0 0 0 0 0
          0 0 0 0 0 0
          0 0 0 0 0 0
          0 0 0 0 0 0
          0 0 0 0 0 0
          0 0 0 0 0 0
          0 0 0 0 0 0
          0 0 0 0 0 0
          0 0 0 0 0 0
          0 0 0 0 0 0
          0 0 0 0 0 0
          0 0 0 0 0 0
          0 0 0 0 0 0
          0 0 0 0 0 0
          0 0 0 0 0 0
          0 0 0 0 0 0
          0 0 0 0 0 0
          0 0 0 0 0 0
          0 0 0 0 0 0
          0 0 0 0 0 0
          0 0 0 0 0 0
          0 0 0 0 0 0
          0 0 0 0 0 0
          0 0 0 0 0 0
          0 0 0 0 0 0
          0 0 0 0 0 0
          0 0 0 0 0 0
          0 0 0 0 0 0
          0 0 0 0 0 0
          0 0 0 0 0 0
          0 0 0 0 0 0
          0 0 0 0 0 0
          0 0 0 0 0 0
          0 0 0 0 0 0
          0 0 0 0 0 0
          0 0 0 0 0 0
          0 0 0 0 0 0
          0 0 0 0 0 0
          0 0 0 0 0 0
          0 0 0 0 0 0
          0 0 0 0 0 0
          0 0 0 0 0 0
          0 0 0 0 0 0
          0 0 0 0 0 0
          0 0 0 0 0 0
          0 0 0 0 0 0
          0 0 0 0 0 0
          0 0 0 0 0 0
          0 0 0 0 0 0
          0 0 0 0 0 0
          0 0 0 0 0 0
          0 0 0 0 0 0
          0 0 0 0 0 0
          0 0 0 0 0 0
          0 0 0 0 0 0
          0 0 0 0 0 0
          0 0 0 0 0 0
          0 0 0 0 0 0
          0 0 0 0 0 0
          0 0 0 0 0 0
          0 0 0 0 0 0
          0 0 0 0 0 0
          0 0 0 0 0 0
          0
        </DataArray>
        <DataArray type="Float64" Name="gradient_error" format="ascii" RangeMin="6.646119565555048e-10" RangeMax="0.0000013346314300621415">
          1.8635355669510348e-8 9.059525291235986e-9 2.9046296581374294e-8 1.3716157606513143e-8 7.5326374280835e-8 1.891999727127588e-7
          1.525580085436486e-8 6.006212578583068e-8 1.4215048077011718e-9 2.7793220894760478e-8 1.2484914941260899e-8 9.770480770473726e-7
          1.5505941436213796e-7 1.9852265403587057e-7 2.993232921285828e-8 6.529879229563372e-9 1.4816196688333024e-9 3.8504121317689554e-8
          1.311338086957933e-7 2.077038073040551e-7 8.039504797746788e-7 9.506624975073315e-7 5.034702985683193e-7 5.698693646813937e-7
          6.376611605187031e-8 1.862685797872773e-7 2.521373981700898e-7 1.486830373379138e-7 1.4239120998859787e-7 2.39598314945307e-7
          6.65259266904751e-8 8.334803580569315e-7 7.218438009989401e-7 9.018320236594396e-7 2.9084814121608294e-7 8.16520546065294e-8
          4.694931176380706e-9 2.0737050142652248e-8 3.99319112025086e-8 4.26042527369483e-9 2.4810863103609956e-8 2.2288818492342705e-8
          8.778282235393857e-8 1.0102056941905426e-8 6.054007369163539e-7 5.960460133813232e-7 7.94072999817327e-7 0.0000011873470834247085
          6.576331974175542e-7 6.388331426099302e-7 0.0000010676876996923782 2.5212275334572956e-7 3.1475855892889133e-7 3.562667795515269e-7
          4.823024755749611e-7 4.888329364127684e-7 6.97633737098729e-7 3.153107832466017e-7 2.283892090387397e-7 3.3305398907169186e-7
          8.68108398124408e-7 3.4244534957746923e-7 3.5568867267014005e-7 1.1912072523133693e-7 8.413808105946677e-8 2.050456804011763e-7
          6.628308981775425e-8 1.2647579002385756e-7 5.807057293349758e-8 1.9251563035152935e-7 1.035476646674876e-8 1.052385298873358e-8
          3.4103995074907532e-9 3.3117021865334255e-9 9.323866240207597e-9 1.015486239055387e-9 1.1201084847168426e-9 8.123879491681615e-9
          2.4955966485065772e-9 3.967753454697235e-9 4.0083495796856585e-9 9.371789220765344e-9 1.3458146822292454e-9 1.005213319392375e-9
          2.245495947857549e-9 5.521102510864739e-9 1.4775824986833455e-8 6.646119565555048e-10 5.549415383975052e-9 9.42433562376797e-9
          1.7890265070102728e-8 1.1394905522339046e-7 6.811750783587169e-8 5.408905985179887e-8 9.117000313870882e-8 4.969739055291435e-9
          1.3299255863560887e-8 4.006061186772603e-8 6.839095105402716e-8 1.9855142198301637e-8 2.504150947838918e-9 2.712876611568182e-9
          1.3134960493631227e-9 2.9216022752974457e-9 7.16044788026188e-9 2.288262774538986e-9 6.157652887083662e-8 1.0408698492198281e-7
          9.112388729988058e-8 1.532654318883888e-7 2.944297771692525e-8 4.3187763878775914e-8 1.7806648918642074e-8 1.7417538793048562e-8
          3.20734125146392e-8 9.389564003894927e-9 1.2067124572892452e-7 2.0244387885479475e-7 5.693255004062659e-8 1.7028428667455047e-8
          3.717963128589872e-7 3.52922883314506e-7 3.23277003189269e-7 2.950751633859334e-7 3.6274560818267255e-7 3.9277155970879614e-7
          3.2161936580961947e-7 2.917123480421952e-7 2.3598881589474872e-7 2.520739147331929e-7 3.1880227758399605e-7 3.74866214689935e-7
          3.1960388341685475e-7 3.139439398288825e-7 2.956853367939994e-7 3.611936440825675e-7 2.8697846917256607e-7 2.382182919624609e-7
          3.961319312245488e-7 1.3450066480928473e-7 1.2445540024153008e-7 1.4834634095013183e-7 2.586443676002234e-7 2.606055921965434e-7
          2.3324223582344588e-7 2.3441365477025953e-7 9.683770854515094e-8 2.47823496886278e-7 2.1780216534063596e-7 9.740059897357428e-8
          1.6494354876218941e-7 1.8455684028008045e-7 1.4511447850715147e-7 2.3568036112028439e-7 2.0812099288191994e-7 2.1322977427987952e-7
          7.685765426143132e-8 6.861079535306166e-8 2.144913904473861e-7 1.848507693475993e-7 4.302971670283936e-8 1.1254338983865093e-7
          9.554821733527427e-8 4.8032663299334494e-8 1.1583107256979954e-7 6.358826467978808e-8 1.749302856093992e-7 9.18146753467994e-8
          9.286955789664305e-8 1.8293903885985568e-7 6.808664457337839e-8 9.383203144790812e-8 1.6998770474804133e-7 1.2961906050161841e-7
          1.6188768238439857e-7 1.7214946161609245e-7 1.610712202016141e-7 6.224118727703382e-8 9.839089692759954e-8 1.3809018434380985e-7
          3.5866780474898606e-8 2.1455576390423195e-8 1.7476385060684555e-8 2.5345780630316157e-8 1.3497193730945917e-8 1.4824780785733704e-8
          8.776859516647253e-9 2.0897584837538568e-8 2.2221410967320883e-8 4.704285702543919e-8 4.914784174845753e-9 4.21619457418189e-9
          6.538328983072211e-9 3.566596241799451e-8 7.318812921333982e-8 3.517604973518028e-9 2.3895752536986686e-8 3.03776396007675e-8
          4.665357611955818e-8 2.088153323047094e-7 1.6012608439908582e-7 1.3306913482708023e-7 1.7691714183400985e-7 3.6859526664548316e-8
          1.0601218525507465e-7 1.450189513633102e-7 8.821295597984088e-7 7.592609070805018e-7 7.08887721356662e-7 0.0000010529561823363472
          0.000001296173196241942 0.0000012442836987139063 0.0000010480081996102586 5.495912682446381e-7 8.443607106478183e-7 7.789370965110768e-7
          0.000001272203039834571 0.0000013346314300621415 0.0000010763703114968763 0.0000010068624822502598 1.535546268009263e-7 2.0185740408121917e-7
          2.1617487234413538e-7 2.686999380045262e-7 5.2304122551317065e-8 5.558822800267853e-8 8.62229455196134e-8 2.7879511788734447e-7
          3.3554247192783313e-7 5.887233345404e-8 1.87149749715476e-7 1.7347017643603475e-7 1.8788804364682392e-7 2.456679791590452e-7
          2.5046824793105246e-7 2.274832338650109e-7 2.225992641606426e-7 1.597906031565935e-7 2.0449821979896942e-7 1.9953054916224002e-7
          2.9329071350707854e-7 2.8589219864067873e-7 2.4676185598949825e-7 2.3761171323392248e-7 2.525103983471247e-7 2.6615590745698573e-7
          2.4098527838013104e-7 2.5442531722636076e-7 2.666825904451725e-7 2.3930996174465706e-7 2.1173008318717076e-7 2.4641961627329273e-7
          2.3520870077076387e-7 2.789398636639842e-7 2.350230230343298e-7 2.2320970440747942e-7 2.6243718372212763e-7 2.4490477516789536e-7
          2.0664176041869438e-7 2.7587971871442823e-7 1.8173812085672107e-7 1.97939449299305e-7 1.9876535173538664e-7 1.8931350211448573e-7
          2.898513444099255e-7 2.665998459283113e-7 3.096849611093935e-7 2.141407777418889e-7 2.636830077254964e-8 3.980304096057583e-8
          5.3030119515056754e-8 7.308916422600217e-8 1.598959377967337e-8 3.3619332112907525e-8 1.7035211391122305e-8 2.9608242138326946e-8
          4.373020523269528e-8 1.8083927688097718e-8 1.830546570764349e-7 2.2810755723375534e-7 1.1699483947601529e-7 1.6968279040010592e-7
          2.185554508471056e-7 1.9235366361423182e-7 8.241984272020848e-9 3.6398490961428834e-9 5.505720063633635e-9 9.329503871081032e-9
          4.133262758978016e-9 6.856785178936191e-8 7.287624827426842e-8 7.083956982846632e-8 6.826024739753235e-8 6.891933044781199e-8
          5.946121469217307e-8 6.385720624236405e-8 5.999680907232759e-8 6.939741059232924e-8 6.128631245191087e-8 6.30828607338116e-8
          6.978775286092978e-8 6.143834843956999e-8 7.303233975064385e-8 7.136858279514048e-8 7.552305610918424e-8 8.195745876941015e-8
          7.550969834677953e-8 7.304270642140246e-8 7.81683276997915e-8 7.650430493257775e-8 9.007912760244252e-8 8.834682042199163e-8
          6.785972507640815e-8 7.276815943660229e-8 8.20794529392775e-8 7.590910690288804e-8 7.668673954300197e-8 9.333030948735876e-8
          7.79056809288438e-8 6.061321340237611e-8 6.600621395036814e-8 6.325181918689522e-8 7.095137369998156e-8 5.608269114796132e-8
          6.131639119289569e-8 6.435835476294887e-8 7.431699346228768e-8 8.427822323982726e-8 7.028699725000364e-8 6.533563504236637e-8
          6.952191579874285e-8 7.810397135942945e-8 8.535404068888165e-8 7.768066138702502e-8 9.481257786055868e-8 5.96800133317601e-8
          6.563625595523477e-8 7.878364447761888e-8 7.722655471315882e-8 7.930561738320493e-8 9.19304953731498e-8 7.695810854747915e-8
          7.88394130228011e-8 8.137646234019466e-8 9.395547247971298e-8 7.98923138327811e-8 6.230928892144952e-8 7.702729864807292e-8
          9.480542837090935e-8 1.0640181363261512e-7 4.422751556952593e-8 6.560263866778825e-8 7.949899030558027e-8 6.117317365394037e-8
          6.728076774808291e-8 9.069349680583036e-8 2.8295242341619523e-7 2.5264447030072256e-7 2.159333072717079e-7 2.4441142589775665e-7
          7.338836184222543e-8 1.7922214424269324e-7 2.058704283793181e-7 2.404861675110489e-7 2.673919293021332e-7 3.0787680804039827e-7
          3.332569523759813e-7 1.0498303901337307e-7 1.194263959710304e-7 1.5169992861397913e-7 3.752674485697476e-7 3.9912197544982935e-7
          1.3386975292868774e-7 2.0636994209690133e-7 1.9658594134406985e-7 2.2589876256669872e-7 2.1637487750761293e-7 1.8238293351536014e-7
          1.9823376080989937e-7 1.9848867505225138e-7 2.454275830364961e-7 2.36163813671156e-7 2.140845881044386e-7 3.109119375751996e-8
          2.547316797791079e-8 5.342854470434613e-8 3.7868329423344216e-8 1.1209584777927781e-8 9.18501632909483e-9 3.2197914996229584e-9
          2.754027137080972e-9 1.1009793039888265e-8 1.5421555820629323e-8 1.8852318102833424e-8 1.711962449224293e-8 7.130181390692792e-9
          6.733984650796511e-9
        </DataArray>
        <DataArray type="Float64" Name="gradient_matprop_error" format="ascii" RangeMin="0" RangeMax="0">
          0 0 0 0 0 0
          0 0 0 0 0 0
          0 0 0 0 0 0
          0 0 0 0 0 0
          0 0 0 0 0 0
          0 0 0 0 0 0
          0 0 0 0 0 0
          0 0 0 0 0 0
          0 0 0 0 0 0
          0 0 0 0 0 0
          0 0 0 0 0 0
          0 0 0 0 0 0
          0 0 0 0 0 0
          0 0 0 0 0 0
          0 0 0 0 0 0
          0 0 0 0 0 0
          0 0 0 0 0 0
          0 0 0 0 0 0
          0 0 0 0 0 0
          0 0 0 0 0 0
          0 0 0 0 0 0
          0 0 0 0 0 0
          0 0 0 0 0 0
          0 0 0 0 0 0
          0 0 0 0 0 0
          0 0 0 0 0 0
          0 0 0 0 0 0
          0 0 0 0 0 0
          0 0 0 0 0 0
          0 0 0 0 0 0
          0 0 0 0 0 0
          0 0 0 0 0 0
          0 0 0 0 0 0
          0 0 0 0 0 0
          0 0 0 0 0 0
          0 0 0 0 0 0
          0 0 0 0 0 0
          0 0 0 0 0 0
          0 0 0 0 0 0
          0 0 0 0 0 0
          0 0 0 0 0 0
          0 0 0 0 0 0
          0 0 0 0 0 0
          0 0 0 0 0 0
          0 0 0 0 0 0
          0 0 0 0 0 0
          0 0 0 0 0 0
          0 0 0 0 0 0
          0 0 0 0 0 0
          0 0 0 0 0 0
          0 0 0 0 0 0
          0 0 0 0 0 0
          0 0 0 0 0 0
          0 0 0 0 0 0
          0 0 0 0 0 0
          0 0 0 0 0 0
          0 0 0 0 0 0
          0 0 0 0 0 0
          0 0 0 0 0 0
          0 0 0 0 0 0
          0 0 0 0 0 0
          0 0 0 0 0 0
          0 0 0 0 0 0
          0 0 0 0 0 0
          0 0 0 0 0 0
          0 0 0 0 0 0
          0
        </DataArray>
        <DataArray type="Float64" Name="initial_marker" format="ascii" RangeMin="0" RangeMax="2">
          0 0 0 0 0 0
          0 0 0 0 0 0
          0 2 0 0 0 0
          0 0 0 0 0 0
          0 0 0 0 0 0
          0 0 0 0 0 0
          0 0 0 0 0 0
          0 0 0 0 0 0
          0.5 0 0 0 1 0.25
          0 0 0 0 1 0
          0 1 0 0 0 0
          0 0 0 0 0 0
          0 0 0 0 0 0
          0 0 0 0 0 0
          0 0 0 0 0 0
          0 0 0 0 0 0
          0 0 0 0 0 0
          0 0 0 0 0 0
          0 0 0 0 0 0
          0 0 0 0 0 0
          1 0.75 0.3333333333333333 1 2 1.5
          0.5 0.75 2 2 0.3333333333333333 0.5
          0 0.75 2 1.5 0.5 2
          0.5 0 0 0 0 0.5
          0.25 0 0 1 0.5 0
          0 0 0 1.5 1.25 0
          0 0 1 0.75 0 0.5
          0.5 0 0.25 0.25 0.75 2
          2 0.75 2 2 1 0
          0 0.25 0 0 0 0
          0 0 0 0 0 0
          0 0 0 0 0 0
          0 0 0 0 0 0
          0 0 0 0 0 0
          0 0 0 0 0 0
          0 0 0 0 0 0
          0 0 0 0 0 0
          0 0 0 0 0 0
          0 0 0 0 0 0
          0 0 0 0 0 0
          0 0 0 0 0 0
          0 0 0 0 0 0
          0 0 0 0 0 0
          0 0 0 0 0 0
          0 0 0 0 0 0
          0 0 0 0 0 0
          0 0 0 0 0 0
          0 0 0 0 0 0
          0 2 2 2 1.5 2
          0 0.5 0 1.5 2 2
          2 2 2 2 2 2
          2 2 2 2 2 2
          1.5 1.75 2 2 2 2
          2 0.5 0.75 1 1.25 0
          0 0.5 1.5 1.75 1 2
          2 2 2 2 2 2
          2 2 2 2 2 2
          1.3333333333333333 2 2 2 0 0
          0 0 0 0 0 0
          0 0 0 0 0 0
          0 0 0 0 0 0
          0 0 0 0 0 0
          0 0 0 0 0 0
          0 0 0 0 0 0
          0 0 0 0 0 0
          0 0 0 0 0 0
          0
        </DataArray>
        <DataArray type="Float64" Name="markers_norefine" format="ascii" RangeMin="0" RangeMax="0">
          0 0 0 0 0 0
          0 0 0 0 0 0
          0 0 0 0 0 0
          0 0 0 0 0 0
          0 0 0 0 0 0
          0 0 0 0 0 0
          0 0 0 0 0 0
          0 0 0 0 0 0
          0 0 0 0 0 0
          0 0 0 0 0 0
          0 0 0 0 0 0
          0 0 0 0 0 0
          0 0 0 0 0 0
          0 0 0 0 0 0
          0 0 0 0 0 0
          0 0 0 0 0 0
          0 0 0 0 0 0
          0 0 0 0 0 0
          0 0 0 0 0 0
          0 0 0 0 0 0
          0 0 0 0 0 0
          0 0 0 0 0 0
          0 0 0 0 0 0
          0 0 0 0 0 0
          0 0 0 0 0 0
          0 0 0 0 0 0
          0 0 0 0 0 0
          0 0 0 0 0 0
          0 0 0 0 0 0
          0 0 0 0 0 0
          0 0 0 0 0 0
          0 0 0 0 0 0
          0 0 0 0 0 0
          0 0 0 0 0 0
          0 0 0 0 0 0
          0 0 0 0 0 0
          0 0 0 0 0 0
          0 0 0 0 0 0
          0 0 0 0 0 0
          0 0 0 0 0 0
          0 0 0 0 0 0
          0 0 0 0 0 0
          0 0 0 0 0 0
          0 0 0 0 0 0
          0 0 0 0 0 0
          0 0 0 0 0 0
          0 0 0 0 0 0
          0 0 0 0 0 0
          0 0 0 0 0 0
          0 0 0 0 0 0
          0 0 0 0 0 0
          0 0 0 0 0 0
          0 0 0 0 0 0
          0 0 0 0 0 0
          0 0 0 0 0 0
          0 0 0 0 0 0
          0 0 0 0 0 0
          0 0 0 0 0 0
          0 0 0 0 0 0
          0 0 0 0 0 0
          0 0 0 0 0 0
          0 0 0 0 0 0
          0 0 0 0 0 0
          0 0 0 0 0 0
          0 0 0 0 0 0
          0 0 0 0 0 0
          0
        </DataArray>
        <DataArray type="Float64" Name="markers_mustrefine" format="ascii" RangeMin="0" RangeMax="2">
          0 0 0 0 0 0
          0 0 0 0 0 0
          0 2 0 0 0 0
          0 0 0 0 0 0
          0 0 0 0 0 0
          0 0 0 0 0 0
          0 0 0 0 0 0
          0 0 0 0 0 0
          0.5 0 0 0 1 0.25
          0 0 0 0 1 0
          0 1 0 0 0 0
          0 0 0 0 0 0
          0 0 0 0 0 0
          0 0 0 0 0 0
          0 0 0 0 0 0
          0 0 0 0 0 0
          0 0 0 0 0 0
          0 0 0 0 0 0
          0 0 0 0 0 0
          0 0 0 0 0 0
          1 0.75 0.3333333333333333 1 2 1.5
          0.5 0.75 2 2 0.3333333333333333 0.5
          0 0.75 2 1.5 0.5 2
          0.5 0 0 0 0 0.5
          0.25 0 0 1 0.5 0
          0 0 0 1.5 1.25 0
          0 0 1 0.75 0 0.5
          0.5 0 0.25 0.25 0.75 2
          2 0.75 2 2 1 0
          0 0.25 0 0 0 0
          0 0 0 0 0 0
          0 0 0 0 0 0
          0 0 0 0 0 0
          0 0 0 0 0 0
          0 0 0 0 0 0
          0 0 0 0 0 0
          0 0 0 0 0 0
          0 0 0 0 0 0
          0 0 0 0 0 0
          0 0 0 0 0 0
          0 0 0 0 0 0
          0 0 0 0 0 0
          0 0 0 0 0 0
          0 0 0 0 0 0
          0 0 0 0 0 0
          0 0 0 0 0 0
          0 0 0 0 0 0
          0 0 0 0 0 0
          0 2 2 2 1.5 2
          0 0.5 0 1.5 2 2
          2 2 2 2 2 2
          2 2 2 2 2 2
          1.5 1.75 2 2 2 2
          2 0.5 0.75 1 1.25 0
          0 0.5 1.5 1.75 1 2
          2 2 2 2 2 2
          2 2 2 2 2 2
          1.3333333333333333 2 2 2 0 0
          0 0 0 0 0 0
          0 0 0 0 0 0
          0 0 0 0 0 0
          0 0 0 0 0 0
          0 0 0 0 0 0
          0 0 0 0 0 0
          0 0 0 0 0 0
          0 0 0 0 0 0
          0
        </DataArray>
        <DataArray type="Float64" Name="gradient_marker" format="ascii" RangeMin="0" RangeMax="1">
          1 1 1 1 1 1
          1 1 1 1 1 1
          1 0.5 1 1 1 1
          1 1 1 1 1 1
          1 1 0.875 1 1 1
          1 1 1 1 1 1
          1 1 0.75 1 1 1
          0.75 1 1 1 1 1
          1 1 1 1 0.75 0.875
          1 1 1 1 1 1
          1 1 1 1 0.625 0.75
          0.6666666666666666 0.75 0.5 1 1 1
          1 1 1 1 1 1
          1 1 1 1 1 1
          1 1 1 1 1 1
          1 1 1 1 1 1
          1 1 1 1 1 1
          1 1 1 1 1 1
          1 1 1 1 1 1
          1 1 1 1 1 1
          1 1 1 1 1 1
          1 0.75 0.75 0.625 1 1
          1 0.75 1 1 1 0.75
          1 1 1 1 1 1
          1 1 0.75 1 0.875 0.75
          0.875 1 0.625 1 0.75 0.75
          0.5 0.25 0.75 0.625 0 0.25
          0.25 0 0.5 0.25 0.75 1
          1 0.75 0.5 1 0.75 0.625
          0.75 0.75 0.75 0.25 0.75 1
          1 1 1 1 1 1
          1 1 1 1 1 1
          1 1 1 1 1 1
          1 1 1 1 1 1
          1 1 1 1 1 1
          1 1 1 1 1 1
          1 1 1 1 1 1
          1 1 1 1 1 1
          1 1 1 1 1 1
          1 1 1 1 1 1
          1 1 1 1 1 1
          1 1 1 1 1 1
          1 1 1 1 1 1
          1 1 1 1 1 1
          1 1 1 1 0 0
          0.25 0.25 0 0.125 0 0
          0 0 0.875 0.875 0.75 1
          0.75 1 0.5 1 0.5 0.5
          1 0 0.5 0.25 0 0.25
          0 0 0 0.25 0 0
          0.5 0 0.75 0.5 1 1
          0.5 0.5 0.75 0.625 1 1
          0.25 0.375 0.75 0.75 0.625 1
          0.625 0 0.125 0 0.375 0
          0 0.25 0.5 0.875 0.25 0.25
          0.375 0.75 0.875 0.75 1 0
          0.25 0.75 0.75 0.875 1 0.75
          0.6666666666666666 1 1 1 0.25 0.5
          0.5 0.75 0 0.25 0.5 1
          1 1 1 1 1 1
          1 1 1 1 1 1
          1 1 1 1 1 1
          1 1 1 1 1 1
          1 1 1 1 1 1
          1 0.5 0.5 1 1 1
          1 1 0.5 0.5 0.5 1
          1
        </DataArray>
        <DataArray type="Float64" Name="gradient_matprop_marker" format="ascii" RangeMin="0" RangeMax="0">
          0 0 0 0 0 0
          0 0 0 0 0 0
          0 0 0 0 0 0
          0 0 0 0 0 0
          0 0 0 0 0 0
          0 0 0 0 0 0
          0 0 0 0 0 0
          0 0 0 0 0 0
          0 0 0 0 0 0
          0 0 0 0 0 0
          0 0 0 0 0 0
          0 0 0 0 0 0
          0 0 0 0 0 0
          0 0 0 0 0 0
          0 0 0 0 0 0
          0 0 0 0 0 0
          0 0 0 0 0 0
          0 0 0 0 0 0
          0 0 0 0 0 0
          0 0 0 0 0 0
          0 0 0 0 0 0
          0 0 0 0 0 0
          0 0 0 0 0 0
          0 0 0 0 0 0
          0 0 0 0 0 0
          0 0 0 0 0 0
          0 0 0 0 0 0
          0 0 0 0 0 0
          0 0 0 0 0 0
          0 0 0 0 0 0
          0 0 0 0 0 0
          0 0 0 0 0 0
          0 0 0 0 0 0
          0 0 0 0 0 0
          0 0 0 0 0 0
          0 0 0 0 0 0
          0 0 0 0 0 0
          0 0 0 0 0 0
          0 0 0 0 0 0
          0 0 0 0 0 0
          0 0 0 0 0 0
          0 0 0 0 0 0
          0 0 0 0 0 0
          0 0 0 0 0 0
          0 0 0 0 0 0
          0 0 0 0 0 0
          0 0 0 0 0 0
          0 0 0 0 0 0
          0 0 0 0 0 0
          0 0 0 0 0 0
          0 0 0 0 0 0
          0 0 0 0 0 0
          0 0 0 0 0 0
          0 0 0 0 0 0
          0 0 0 0 0 0
          0 0 0 0 0 0
          0 0 0 0 0 0
          0 0 0 0 0 0
          0 0 0 0 0 0
          0 0 0 0 0 0
          0 0 0 0 0 0
          0 0 0 0 0 0
          0 0 0 0 0 0
          0 0 0 0 0 0
          0 0 0 0 0 0
          0 0 0 0 0 0
          0
        </DataArray>
        <DataArray type="Float64" Name="combo" format="ascii" RangeMin="0" RangeMax="1">
          1 1 1 1 1 1
          1 1 1 1 1 1
          1 0.5 1 1 1 1
          1 1 1 1 1 1
          1 1 0.875 1 1 1
          1 1 1 1 1 1
          1 1 0.75 1 1 1
          0.75 1 1 1 1 1
          1 1 1 1 0.75 0.875
          1 1 1 1 1 1
          1 1 1 1 0.625 0.75
          0.6666666666666666 0.75 0.5 1 1 1
          1 1 1 1 1 1
          1 1 1 1 1 1
          1 1 1 1 1 1
          1 1 1 1 1 1
          1 1 1 1 1 1
          1 1 1 1 1 1
          1 1 1 1 1 1
          1 1 1 1 1 1
          1 1 1 1 1 1
          1 0.75 0.75 0.625 1 1
          1 0.75 1 1 1 0.75
          1 1 1 1 1 1
          1 1 0.75 1 0.875 0.75
          0.875 1 0.625 1 0.75 0.75
          0.5 0.25 0.75 0.625 0 0.25
          0.25 0 0.5 0.25 0.75 1
          1 0.75 0.5 1 0.75 0.625
          0.75 0.75 0.75 0.25 0.75 1
          1 1 1 1 1 1
          1 1 1 1 1 1
          1 1 1 1 1 1
          1 1 1 1 1 1
          1 1 1 1 1 1
          1 1 1 1 1 1
          1 1 1 1 1 1
          1 1 1 1 1 1
          1 1 1 1 1 1
          1 1 1 1 1 1
          1 1 1 1 1 1
          1 1 1 1 1 1
          1 1 1 1 1 1
          1 1 1 1 1 1
          1 1 1 1 0 0
          0.25 0.25 0 0.125 0 0
          0 0 0.875 0.875 0.75 1
          0.75 1 0.5 1 0.5 0.5
          1 0 0.5 0.25 0 0.25
          0 0 0 0.25 0 0
          0.5 0 0.75 0.5 1 1
          0.5 0.5 0.75 0.625 1 1
          0.25 0.375 0.75 0.75 0.625 1
          0.625 0 0.125 0 0.375 0
          0 0.25 0.5 0.875 0.25 0.25
          0.375 0.75 0.875 0.75 1 0
          0.25 0.75 0.75 0.875 1 0.75
          0.6666666666666666 1 1 1 0.25 0.5
          0.5 0.75 0 0.25 0.5 1
          1 1 1 1 1 1
          1 1 1 1 1 1
          1 1 1 1 1 1
          1 1 1 1 1 1
          1 1 1 1 1 1
          1 0.5 0.5 1 1 1
          1 1 0.5 0.5 0.5 1
          1
        </DataArray>
        <DataArray type="Float64" Name="dHdT" format="ascii" RangeMin="25.81474787246147" RangeMax="39.500841777801334">
          25.815121272449883 25.81474787246147 25.815277420173764 25.81482665576341 25.897068842373546 25.857272556573225
          25.825439154465393 25.826621993057095 25.81642613712048 25.816450690311473 25.81564052536529 32.09631368385976
          25.985824977157172 37.09437812672642 25.846613377631122 25.815118190599204 25.81563483260987 25.850544493598605
          25.855545628122645 25.890330642596254 27.881512451379503 27.84297736219942 26.502766431717163 26.683729316390462
          25.83288917005696 26.73856670781184 26.1578887934986 25.847294862902476 25.872780297384967 25.919536592507253
          25.840457209645677 35.86288982653346 27.97096894455745 28.227060216213598 27.133553224201076 25.903202976020218
          25.81882465962216 25.82110926137202 25.8732102520434 25.816777910021475 25.820707841763447 25.823800220993125
          26.17817854742005 25.82566281547444 27.40674078516378 27.011433379473306 27.361718671998133 31.63985496505752
          32.841677079455565 29.995048794559388 29.894185945078938 26.523270354407796 33.438796503259084 29.71264989011464
          26.538556643325574 26.986284311402322 27.383628372126992 26.690898073094374 38.80242822504053 33.96018319261732
          32.42733121766703 34.329824225919 27.49253061473904 26.37699940317455 26.18543753725933 28.619491680461465
          25.98192356137039 26.30776454302664 26.027667531772217 26.649739836934977 25.840813017605285 25.815370002240385
          25.81515649154437 25.815161606541388 25.81517847096775 25.815065918122173 25.815100717436593 25.81498693969512
          25.816168639915443 25.81682916208372 25.816564381628467 25.817982042180528 25.81548500891102 25.815534415494007
          25.815668734017276 25.816960123341488 25.819134922277335 25.815583822077002 25.82540940452285 25.82806406898908
          25.83882124391576 25.983992627396294 25.911553586479435 25.893547387180988 25.952769920952587 25.822832702383717
          25.830718733455303 25.875541187882533 25.921547214508884 25.84448543163444 25.819552314831647 25.8196884735396
          25.817477184250343 25.819824632247556 25.82705272330537 25.819595026436026 25.90256572851624 25.967214495498407
          25.94298212355237 26.036313936469238 25.857295048718882 25.8759507834078 25.842497498211642 25.84432567820714
          25.866781973037703 25.831588914879635 25.9833985185885 26.105413377440076 25.89460651809672 25.846153858202644
          33.373844496993826 32.45242302375835 33.01402506099161 37.21836847099941 37.04214307995454 36.00442382572415
          35.97131519551362 32.2968927951684 37.113904304658924 36.86219649078258 31.002749637844047 32.92491824656447
          32.79307129160164 32.91126474986272 38.139974173434226 37.26397172799983 37.52825261944055 37.138582622182525
          34.10399365667468 27.061116010321427 26.934491738519444 27.211049196033944 29.009411417999743 28.715774729350702
          28.291110407732226 28.59877231427857 26.651875314553468 28.270681957557734 27.871741002897515 26.644398105790756
          27.42682941772266 27.84340967729611 27.07694196552156 33.4065730134201 32.0003672341463 29.16708611210352
          26.463221672974097 26.39043272402623 27.693829645891178 27.365819892837187 26.166515429752167 26.953909772578783
          26.74658065569321 26.219844611242202 26.726668442821463 26.348538596464646 27.93593134464615 37.219059837270414
          37.36122742456273 32.82870031060976 39.500841777801334 37.197963296270004 34.79832082045203 26.84607872716224
          27.24184730716741 27.466717915687916 27.879152012344388 26.336580295187417 26.62189471702723 26.981087238454116
          25.81941601400299 25.816360744856944 25.815687296784528 25.817779477720087 25.815013848712113 25.816142941437178
          25.8183593317665 25.821683474310678 25.821195872104088 25.827565641693848 25.815995313257616 25.815762400163756
          25.815701158823067 25.824032412441674 25.833447809077015 25.815529487069895 25.854731383120242 25.857118149190676
          25.883147928019007 26.168099710109292 26.070594548594606 26.026836263116625 26.111285596909998 25.859504915261113
          25.983077977638644 26.054471483710707 27.878675430831628 27.44217823087598 27.487574026715897 30.557553109369547