<?xml version="1.0"?>
<VTKFile type="UnstructuredGrid" version="0.1" byte_order="LittleEndian" header_type="UInt32" compressor="vtkZLibDataCompressor">
  <UnstructuredGrid>
    <Piece NumberOfPoints="318" NumberOfCells="190">
      <PointData>
        <DataArray type="Int32" Name="libmesh_node_id" format="ascii" RangeMin="279" RangeMax="2634">
          279 488 489 494 1054 1055
          1056 1057 1082 1083 1084 1085
          1086 1087 1088 1089 1090 1091
          1112 1113 1115 1150 1151 1154
          1156 1157 1159 1170 1174 1827
          1828 1830 1833 1835 1836 1837
          1838 1839 1840 1841 1842 1843
          1844 1846 1848 1850 1852 1853
          1854 1855 1856 1857 1858 2035
          2036 2038 2039 2040 2041 2042
          2043 2044 2045 2046 2047 2048
          2049 2050 2051 2052 2054 2056
          2057 2058 2059 2060 2061 2062
          2063 2064 2065 2066 2067 2068
          2069 2070 2071 2072 2073 2074
          2075 2076 2077 2078 2079 2080
          2081 2082 2083 2084 2085 2086
          2087 2088 2089 2090 2091 2092
          2093 2094 2095 2096 2097 2098
          2099 2100 2142 2145 2146 2148
          2149 2152 2153 2169 2170 2173
          2174 2176 2177 2180 2181 2231
          2232 2233 2234 2235 2236 2237
          2238 2239 2240 2241 2242 2245
          2247 2248 2250 2251 2252 2253
          2254 2255 2256 2257 2258 2260
          2262 2264 2445 2446 2447 2448
          2449 2450 2451 2452 2453 2454
          2455 2456 2459 2461 2462 2464
          2465 2466 2467 2468 2469 2470
          2471 2472 2474 2476 2478 2479
          2480 2481 2482 2483 2484 2485
          2486 2487 2488 2489 2490 2493
          2495 2496 2498 2499 2500 2501
          2502 2503 2504 2505 2506 2508
          2510 2512 2581 2582 2584 2585
          2586 2588 2590 2592 2594 2609
          2610 2612 2613 2614 2616 2618
          2620 2622 1048 1807 1808 1799
          1050 1809 1810 1049 1051 1822
          1816 1823 1824 1052 1053 1914
          1908 1944 1938 1915 1945 1948
          1942 1949 1950 1069 2150 2144
          1070 2151 2154 1099 1100 2147
          2172 2171 1103 2175 2178 2179
          2182 1104 2203 2204 1106 2205
          2206 1107 2213 2214 2216 2221
          2222 2223 1110 2228 2230 2354
          2377 2355 2378 2381 2382 2364
          2384 2388 2383 2583 1137 2587
          2390 2396 2395 2596 2595 2600
          2599 2405 2602 2606 2611 2615
          2624 2623 2628 2627 2630 2634
        </DataArray>
        <DataArray type="Float64" Name="bounds" format="ascii" RangeMin="0" RangeMax="0">
          0 0 0 0 0 0
          0 0 0 0 0 0
          0 0 0 0 0 0
          0 0 0 0 0 0
          0 0 0 0 0 0
          0 0 0 0 0 0
          0 0 0 0 0 0
          0 0 0 0 0 0
          0 0 0 0 0 0
          0 0 0 0 0 0
          0 0 0 0 0 0
          0 0 0 0 0 0
          0 0 0 0 0 0
          0 0 0 0 0 0
          0 0 0 0 0 0
          0 0 0 0 0 0
          0 0 0 0 0 0
          0 0 0 0 0 0
          0 0 0 0 0 0
          0 0 0 0 0 0
          0 0 0 0 0 0
          0 0 0 0 0 0
          0 0 0 0 0 0
          0 0 0 0 0 0
          0 0 0 0 0 0
          0 0 0 0 0 0
          0 0 0 0 0 0
          0 0 0 0 0 0
          0 0 0 0 0 0
          0 0 0 0 0 0
          0 0 0 0 0 0
          0 0 0 0 0 0
          0 0 0 0 0 0
          0 0 0 0 0 0
          0 0 0 0 0 0
          0 0 0 0 0 0
          0 0 0 0 0 0
          0 0 0 0 0 0
          0 0 0 0 0 0
          0 0 0 0 0 0
          0 0 0 0 0 0
          0 0 0 0 0 0
          0 0 0 0 0 0
          0 0 0 0 0 0
          0 0 0 0 0 0
          0 0 0 0 0 0
          0 0 0 0 0 0
          0 0 0 0 0 0
          0 0 0 0 0 0
          0 0 0 0 0 0
          0 0 0 0 0 0
          0 0 0 0 0 0
          0 0 0 0 0 0
        </DataArray>
        <DataArray type="Float64" Name="gradient_error" format="ascii" RangeMin="7.346461534582748e-10" RangeMax="4.0458167680659074e-8">
          2.835385692318809e-8 1.7302861141316715e-8 8.20600430153364e-9 1.6363237038067347e-8 2.6797792839217053e-8 2.2763484979685264e-8
          1.4495634437584412e-8 1.344320061495548e-8 3.428702087020419e-8 3.614751600349799e-8 2.7103049867574423e-8 2.4561906967038754e-8
          2.1803686586661313e-8 1.374548892850733e-8 2.6310271304391738e-8 3.8734254025842475e-8 2.8790921209239062e-8 2.5834238690023434e-8
          9.299057890868037e-9 7.580870573602892e-9 4.112026548778527e-9 1.5577910849088974e-8 1.3492551109860585e-8 7.1275162340025915e-9
          1.7310324975974005e-8 1.601844974885749e-8 8.608270308940967e-9 2.7817518641526256e-9 3.2534436034033898e-9 1.8372197086389304e-8
          1.763102035318443e-8 1.5544878000021916e-8 2.581150249533127e-8 1.4919323837564035e-8 1.429545379386992e-8 1.1607052414512367e-8
          1.1091240175791516e-8 1.2536524359432332e-8 9.653677619368773e-9 2.1979877344830037e-8 2.1123953409384397e-8 1.6599790656455374e-8
          1.854332206725415e-8 1.2611990248041494e-8 9.546647024272185e-9 1.819982497524931e-8 1.0067268890485836e-8 7.67057240414536e-9
          7.513641623642971e-9 5.657167831195218e-9 1.472910791915056e-8 1.1402747647054608e-8 1.0748040940034914e-8 3.377386060283641e-8
          3.3332492049972345e-8 3.049505544413163e-8 3.432351738229273e-8 3.705058637033555e-8 3.5932811171221805e-8 3.9578562485166495e-8
          2.8836920863385868e-8 2.8125023212759522e-8 2.304276703981272e-8 2.2334920991323814e-8 2.5181856792811355e-8 1.9809159445995113e-8
          3.217734644373686e-8 3.259101341433727e-8 2.6838942225288603e-8 3.0874950184067917e-8 2.4516680460832203e-8 1.7741310552116916e-8
          3.502768066418589e-8 3.0347687638795334e-8 2.584988100098221e-8 1.9972144225947456e-8 1.5604305852686624e-8 1.4324978256509458e-8
          1.1066163133255066e-8 2.4923509246887857e-8 1.9528818654883573e-8 1.7669519670827755e-8 2.7748909293916303e-8 3.288879745015414e-8
          2.933826005156795e-8 3.366531047401374e-8 4.0458167680659074e-8 3.839754247670256e-8 2.470067219180381e-8 3.066835320085668e-8
          3.185471897717324e-8 4.0226068244020134e-8 3.091766514894598e-8 3.320581938639069e-8 2.84049148470043e-8 2.9017119026281972e-8
          3.413106791900639e-8 2.7723152051134613e-8 2.9368579982670442e-8 3.2650456728536497e-8 2.946221507614511e-8 3.5043536727518217e-8
          3.8828488705849084e-8 3.4241608256477305e-8 2.9213458639065258e-8 2.475562529757852e-8 4.002079846239878e-8 3.555048602526466e-8
          3.0430097061960126e-8 2.8440433368784865e-8 2.2341694741920514e-8 2.009052705780736e-8 1.5664857974415713e-8 2.9692122009188916e-8
          2.3367806876115353e-8 2.0980355906732277e-8 1.2151440775449702e-8 1.756550174996541e-8 1.4625899611691524e-8 9.658126709996377e-9
          7.33666241745492e-9 1.171838466951955e-8 8.972889516900486e-9 1.9634392595927563e-8 1.6378799414351282e-8 2.0392926936450082e-8
          1.7015870955063354e-8 1.3174845679039006e-8 1.0139768009948657e-8 1.3701391513240743e-8 1.05635095964564e-8 8.567873430735001e-9
          8.164599622899262e-9 5.972092711309381e-9 5.67935560270185e-9 7.057364946263739e-9 4.8852167345841865e-9 1.3052615386103883e-8
          1.2475023686886746e-8 8.850200034827691e-9 1.0789865077497411e-8 3.928789311766716e-9 3.731534669356961e-9 3.2015838463380197e-9
          6.2087912708895845e-9 5.890848853825135e-9 5.012516224883207e-9 5.559530330618187e-9 3.827317023292396e-9 4.064609903380484e-9
          2.7848630650018803e-9 8.384738094308514e-9 5.831704470998184e-9 5.960496456413102e-9 2.503948769883654e-9 1.8217505506887294e-9
          3.8336193084753596e-9 2.6952899273668016e-9 1.758878391471945e-8 1.6987653252596254e-8 1.2843772722002474e-8 1.2324517101510047e-8
          1.493718147269208e-8 1.0678604110816075e-8 2.091305884659238e-8 2.0558496342690645e-8 1.5179208372922454e-8 1.860826322969188e-8
          8.784569627477475e-9 8.374288214053675e-9 7.157208641286389e-9 1.0978419666244391e-8 1.0576544799533323e-8 9.188307081433645e-9
          1.162465390075329e-8 8.182552120563085e-9 8.123835925147723e-9 5.647224537463805e-9 1.4662040361783656e-8 1.0435054878329496e-8
          1.0179847714014228e-8 5.419770839041568e-9 3.7150858573809737e-9 6.9711441961696364e-9 4.708782625741812e-9 2.2465131148057162e-8
          2.2535498321972264e-8 1.6961854252751875e-8 1.6813738090710218e-8 2.1040365310852124e-8 1.537351128003808e-8 2.280139261019174e-8
          2.3097700604500157e-8 1.729739491632995e-8 2.1873857803642274e-8 1.227253301377099e-8 1.1969620821256297e-8 1.0608258164236917e-8
          1.2661297957217185e-8 1.241985312523026e-8 1.1109884950366822e-8 1.6813111451784797e-8 1.2052318193218924e-8 1.1664681452201805e-8
          8.210291740511486e-9 1.758751444390026e-8 1.2637398962578165e-8 1.2206342356853305e-8 8.108382201419612e-9 5.442135533689924e-9
          8.525487512197518e-9 5.713065841393182e-9 5.310562113481992e-9 3.6583693405609108e-9 2.297424961136535e-9 6.537538165088282e-9
          4.523575201850398e-9 2.400156314112154e-9 1.5064566910423401e-9 2.9729172804151375e-9 1.8238895788236836e-9 7.420487074974989e-9
          5.1506715077579256e-9 3.1276077988077517e-9 7.742760380540909e-9 5.380483575246431e-9 3.390280413343542e-9 2.0512795209079944e-9
          3.5437259922373654e-9 2.134211792412354e-9 1.1664025727058425e-8 9.2992908988157e-9 8.919805303047964e-9 1.1215068646943651e-8
          7.073122610535832e-9 6.7708113931564975e-9 7.879799896870896e-9 9.973510878649256e-9 5.948698706011112e-9 6.449606525141159e-9
          8.243505094658531e-9 4.830622268440365e-9 4.954882730154379e-9 6.408954656362643e-9 3.677682321098036e-9 3.625199990615249e-9
          4.749917920970833e-9 5.325737670839973e-9 6.873476363089284e-9 2.666804268518418e-9 3.961923276924991e-9 7.407434840632613e-9
          9.42830793872297e-9 5.571152221393605e-9 4.933713397182003e-9 6.3954396923436286e-9 6.2932279574734035e-9 8.076799784775019e-9
          3.656491768794463e-9 4.701066025539186e-9 7.51267488570307e-9 9.569642966659474e-9 5.648950465487227e-9 1.172256691476624e-8
          1.0603715480074703e-8 1.2927518829565014e-8 1.0973927621800662e-8 1.3358916494534125e-8 8.363053754713297e-9 6.3151774883610346e-9
          8.668445186028769e-9 6.555377112398001e-9 5.118131996237094e-9 4.891856562681653e-9 3.5188628332610135e-9 3.3601083120071778e-9
          4.280204002395055e-9 2.9330293038679076e-9 2.2986921462629857e-9 2.1945181636730865e-9 1.915154151415581e-9 3.4563906752968186e-9
          2.361893435740616e-9 2.6154712930665434e-9 1.7822142488873187e-9 1.5429688514307333e-9 1.1655713108957849e-9 1.8906550956192195e-9
          2.82686304212336e-9 1.2826298353572495e-9 1.930817278573153e-9 4.001504878336283e-9 2.7433580065766567e-9 8.356581537814115e-10
          1.262797141978249e-9 1.797635579731422e-9 2.599013160131183e-9 3.359976762941048e-9 1.7728279613864655e-9 4.057407908847938e-9
          1.1631780739199357e-9 1.115535962646632e-9 1.6452205822466454e-9 1.4131627712723697e-9 2.0879114483445826e-9 1.6892686166233895e-9
          2.488360237295151e-9 7.346461534582748e-10 9.260240115420943e-10 1.1005897488497522e-9 4.551669441741172e-9 4.730701730938603e-9
          1.887852994460284e-9 2.7689742016953033e-9 1.9608742148854515e-9 2.870583135479992e-9 1.2252148242782275e-9 1.2707536537353157e-9
        </DataArray>
        <DataArray type="Float64" Name="gradient_matprop_error" format="ascii" RangeMin="0" RangeMax="0">
          0 0 0 0 0 0
          0 0 0 0 0 0
          0 0 0 0 0 0
          0 0 0 0 0 0
          0 0 0 0 0 0
          0 0 0 0 0 0
          0 0 0 0 0 0
          0 0 0 0 0 0
          0 0 0 0 0 0
          0 0 0 0 0 0
          0 0 0 0 0 0
          0 0 0 0 0 0
          0 0 0 0 0 0
          0 0 0 0 0 0
          0 0 0 0 0 0
          0 0 0 0 0 0
          0 0 0 0 0 0
          0 0 0 0 0 0
          0 0 0 0 0 0
          0 0 0 0 0 0
          0 0 0 0 0 0
          0 0 0 0 0 0
          0 0 0 0 0 0
          0 0 0 0 0 0
          0 0 0 0 0 0
          0 0 0 0 0 0
          0 0 0 0 0 0
          0 0 0 0 0 0
          0 0 0 0 0 0
          0 0 0 0 0 0
          0 0 0 0 0 0
          0 0 0 0 0 0
          0 0 0 0 0 0
          0 0 0 0 0 0
          0 0 0 0 0 0
          0 0 0 0 0 0
          0 0 0 0 0 0
          0 0 0 0 0 0
          0 0 0 0 0 0
          0 0 0 0 0 0
          0 0 0 0 0 0
          0 0 0 0 0 0
          0 0 0 0 0 0
          0 0 0 0 0 0
          0 0 0 0 0 0
          0 0 0 0 0 0
          0 0 0 0 0 0
          0 0 0 0 0 0
          0 0 0 0 0 0
          0 0 0 0 0 0
          0 0 0 0 0 0
          0 0 0 0 0 0
          0 0 0 0 0 0
        </DataArray>
        <DataArray type="Float64" Name="initial_marker" format="ascii" RangeMin="1.5" RangeMax="2">
          2 2 2 2 2 2
          2 2 2 2 2 2
          2 2 2 2 2 2
          2 2 2 2 2 2
          2 2 2 2 2 2
          2 2 2 2 2 2
          2 2 2 2 2 2
          2 2 2 2 2 2
          2 2 2 2 2 2
          2 2 2 2 2 2
          2 2 2 2 2 2
          2 2 2 2 2 2
          2 2 2 2 2 2
          2 2 2 2 2 2
          2 2 2 2 2 2
          2 2 2 2 2 2
          2 2 2 2 2 2
          2 2 2 2 2 2
          2 2 2 2 2 2
          2 2 2 2 2 2
          2 2 2 2 2 2
          2 2 2 2 2 2
          2 2 2 2 2 2
          2 2 2 2 2 2
          2 2 2 2 2 2
          2 2 2 2 2 2
          2 2 2 2 2 2
          2 2 2 2 2 2
          2 2 2 2 2 2
          2 2 2 2 2 2
          2 2 2 2 2 2
          2 2 2 2 2 2
          2 2 2 2 2 2
          2 2 2 2 2 2
          2 2 2 2 2 2
          2 2 2 2 2 2
          2 2 2 2 2 2
          2 2 2 2 2 2
          2 2 2 2 2 2
          2 2 2 2 2 2
          2 2 2 2 2 2
          2 2 2 2 2 2
          2 2 2 2 2 2
          2 2 2 2 2 2
          2 2 2 2 2 2
          2 2 2 2 2 2
          2 2 2 2 2 2
          2 2 2 2 2 2
          2 2 2 2 2 2
          2 2 2 2 2 2
          2 1.75 2 2 2 2
          2 1.5 2 2 2 2
          2 2 2 2 2 2
        </DataArray>
        <DataArray type="Float64" Name="markers_norefine" format="ascii" RangeMin="0" RangeMax="2">
          0 0 0 0 0 0
          0 0 0.5 0.25 0 0
          0 0 2 0.5 0 0
          0 0 0 0 0 0
          0 0 0 0 0 0
          0 0 0 0 0 0
          0 0 0 0 0 0
          0 0 0 0 0 0
          0 0 0 0 0 0
          0 0 1.5 1.25 0.5 0.5
          0 0 0 0 0 0
          0 0 0 0 0 0
          0 0 0 0 0 0
          0 0 0 0 2 2
          1.5 1.25 1.25 0.5 2 2
          1.5 1.5 0.5 0.25 0 0
          0 0 1 0.5 0 0
          0.25 0 0 0 0.5 0
          0 0 0 0 0 0
          0 0 0 0 0 0
          0 0 0 0 0 0
          0 0 0 0 0 0
          0 0 0 0 0 0
          0 0 0 0 0 0
          0 0 0 0 0 0
          0 0 0 0 0 0
          0 0 0 0 0 0
          0 0 0 0 0 0
          0 0 0 0 0 0
          0 0 0 0 0 0
          0 0 0 0 0 0
          0 0 0 0 0 0
          0 0 0 0 0 0
          0 0 0 0 0 0
          0 0 0 0 0 0
          0 0 0 0 0 0
          0 0 0 0 0 0
          0 0 0 0 0 0
          0 0 0 0 0 0
          0 0 0 0 0 0
          0 0 0 0 0 0
          0 0 0 0 0 0
          0 0 0 0 0 0
          0 0 0 0 0 0
          0 0 0 0 0 0
          0 0 0 0 0 0
          0 0 0 0 0 0
          0 0 0 0 0 0
          0 0 0 0 0 0
          0 0 0 0 0 0
          0 0 0 0 0 0
          0 0 0 0 0 0
          0 0 0 0 0 0
        </DataArray>
        <DataArray type="Float64" Name="markers_mustrefine" format="ascii" RangeMin="1.5" RangeMax="2">
          2 2 2 2 2 2
          2 2 2 2 2 2
          2 2 2 2 2 2
          2 2 2 2 2 2
          2 2 2 2 2 2
          2 2 2 2 2 2
          2 2 2 2 2 2
          2 2 2 2 2 2
          2 2 2 2 2 2
          2 2 2 2 2 2
          2 2 2 2 2 2
          2 2 2 2 2 2
          2 2 2 2 2 2
          2 2 2 2 2 2
          2 2 2 2 2 2
          2 2 2 2 2 2
          2 2 2 2 2 2
          2 2 2 2 2 2
          2 2 2 2 2 2
          2 2 2 2 2 2
          2 2 2 2 2 2
          2 2 2 2 2 2
          2 2 2 2 2 2
          2 2 2 2 2 2
          2 2 2 2 2 2
          2 2 2 2 2 2
          2 2 2 2 2 2
          2 2 2 2 2 2
          2 2 2 2 2 2
          2 2 2 2 2 2
          2 2 2 2 2 2
          2 2 2 2 2 2
          2 2 2 2 2 2
          2 2 2 2 2 2
          2 2 2 2 2 2
          2 2 2 2 2 2
          2 2 2 2 2 2
          2 2 2 2 2 2
          2 2 2 2 2 2
          2 2 2 2 2 2
          2 2 2 2 2 2
          2 2 2 2 2 2
          2 2 2 2 2 2
          2 2 2 2 2 2
          2 2 2 2 2 2
          2 2 2 2 2 2
          2 2 2 2 2 2
          2 2 2 2 2 2
          2 2 2 2 2 2
          2 2 2 2 2 2
          2 1.75 2 2 2 2
          2 1.5 2 2 2 2
          2 2 2 2 2 2
        </DataArray>
        <DataArray type="Float64" Name="gradient_marker" format="ascii" RangeMin="1" RangeMax="1">
          1 1 1 1 1 1
          1 1 1 1 1 1
          1 1 1 1 1 1
          1 1 1 1 1 1
          1 1 1 1 1 1
          1 1 1 1 1 1
          1 1 1 1 1 1
          1 1 1 1 1 1
          1 1 1 1 1 1
          1 1 1 1 1 1
          1 1 1 1 1 1
          1 1 1 1 1 1
          1 1 1 1 1 1
          1 1 1 1 1 1
          1 1 1 1 1 1
          1 1 1 1 1 1
          1 1 1 1 1 1
          1 1 1 1 1 1
          1 1 1 1 1 1
          1 1 1 1 1 1
          1 1 1 1 1 1
          1 1 1 1 1 1
          1 1 1 1 1 1
          1 1 1 1 1 1
          1 1 1 1 1 1
          1 1 1 1 1 1
          1 1 1 1 1 1
          1 1 1 1 1 1
          1 1 1 1 1 1
          1 1 1 1 1 1
          1 1 1 1 1 1
          1 1 1 1 1 1
          1 1 1 1 1 1
          1 1 1 1 1 1
          1 1 1 1 1 1
          1 1 1 1 1 1
          1 1 1 1 1 1
          1 1 1 1 1 1
          1 1 1 1 1 1
          1 1 1 1 1 1
          1 1 1 1 1 1
          1 1 1 1 1 1
          1 1 1 1 1 1
          1 1 1 1 1 1
          1 1 1 1 1 1
          1 1 1 1 1 1
          1 1 1 1 1 1
          1 1 1 1 1 1
          1 1 1 1 1 1
          1 1 1 1 1 1
          1 1 1 1 1 1
          1 1 1 1 1 1
          1 1 1 1 1 1
        </DataArray>
        <DataArray type="Float64" Name="gradient_matprop_marker" format="ascii" RangeMin="0" RangeMax="0">
          0 0 0 0 0 0
          0 0 0 0 0 0
          0 0 0 0 0 0
          0 0 0 0 0 0
          0 0 0 0 0 0
          0 0 0 0 0 0
          0 0 0 0 0 0
          0 0 0 0 0 0
          0 0 0 0 0 0
          0 0 0 0 0 0
          0 0 0 0 0 0
          0 0 0 0 0 0
          0 0 0 0 0 0
          0 0 0 0 0 0
          0 0 0 0 0 0
          0 0 0 0 0 0
          0 0 0 0 0 0
          0 0 0 0 0 0
          0 0 0 0 0 0
          0 0 0 0 0 0
          0 0 0 0 0 0
          0 0 0 0 0 0
          0 0 0 0 0 0
          0 0 0 0 0 0
          0 0 0 0 0 0
          0 0 0 0 0 0
          0 0 0 0 0 0
          0 0 0 0 0 0
          0 0 0 0 0 0
          0 0 0 0 0 0
          0 0 0 0 0 0
          0 0 0 0 0 0
          0 0 0 0 0 0
          0 0 0 0 0 0
          0 0 0 0 0 0
          0 0 0 0 0 0
          0 0 0 0 0 0
          0 0 0 0 0 0
          0 0 0 0 0 0
          0 0 0 0 0 0
          0 0 0 0 0 0
          0 0 0 0 0 0
          0 0 0 0 0 0
          0 0 0 0 0 0
          0 0 0 0 0 0
          0 0 0 0 0 0
          0 0 0 0 0 0
          0 0 0 0 0 0
          0 0 0 0 0 0
          0 0 0 0 0 0
          0 0 0 0 0 0
          0 0 0 0 0 0
          0 0 0 0 0 0
        </DataArray>
        <DataArray type="Float64" Name="combo" format="ascii" RangeMin="1" RangeMax="2">
          1 1 1 1 1 1
          1 1 1.25 1.125 1 1
          1 1 2 1.25 1 1
          1 1 1 1 1 1
          1 1 1 1 1 1
          1 1 1 1 1 1
          1 1 1 1 1 1
          1 1 1 1 1 1
          1 1 1 1 1 1
          1 1 1.75 1.625 1.25 1.25
          1 1 1 1 1 1
          1 1 1 1 1 1
          1 1 1 1 1 1
          1 1 1 1 2 2
          1.75 1.625 1.625 1.25 2 2
          1.75 1.75 1.25 1.125 1 1
          1 1 1.5 1.25 1 1
          1.125 1 1 1 1.25 1
          1 1 1 1 1 1
          1 1 1 1 1 1
          1 1 1 1 1 1
          1 1 1 1 1 1
          1 1 1 1 1 1
          1 1 1 1 1 1
          1 1 1 1 1 1
          1 1 1 1 1 1
          1 1 1 1 1 1
          1 1 1 1 1 1
          1 1 1 1 1 1
          1 1 1 1 1 1
          1 1 1 1 1 1
          1 1 1 1 1 1
          1 1 1 1 1 1
          1 1 1 1 1 1
          1 1 1 1 1 1
          1 1 1 1 1 1
          1 1 1 1 1 1
          1 1 1 1 1 1
          1 1 1 1 1 1
          1 1 1 1 1 1
          1 1 1 1 1 1
          1 1 1 1 1 1
          1 1 1 1 1 1
          1 1 1 1 1 1
          1 1 1 1 1 1
          1 1 1 1 1 1
          1 1 1 1 1 1
          1 1 1 1 1 1
          1 1 1 1 1 1
          1 1 1 1 1 1
          1 1 1 1 1 1
          1 1 1 1 1 1
          1 1 1 1 1 1
        </DataArray>
        <DataArray type="Float64" Name="dHdT" format="ascii" RangeMin="26.025854683583766" RangeMax="62.340797867033295">
          37.83557842663042 32.025596044176346 28.06385231631195 31.125834517642573 35.95159252534913 34.34671496340769
          30.409377684514762 30.211505304537262 47.36169515004276 39.7851677422056 37.01115044019828 35.17954746124838
          33.82720119765874 29.993723872008818 62.340797867033295 45.48804757393738 36.60241659924524 35.151801858525715
          28.391074479171518 27.787675984022435 26.85235968469118 31.939885222311233 30.03082258599455 27.639131181993317
          34.25105046899543 31.511991281811586 28.060461591915306 26.541140587131206 26.65891598315233 32.698427839296116
          32.293288672420175 31.207312675205117 35.57161926076948 30.844867782331256 30.511940451210872 29.269623146365753
          29.056752981826733 29.692432058592548 28.52797796286866 34.27522230964582 33.779210788660045 31.564367693762204
          32.38960760881684 29.865946291054623 28.707326683833962 32.32750678123583 28.753533277611503 27.902732695867925
          27.942392775032616 27.339493323767442 30.56573380830821 29.10818118282679 28.991375433857197 39.22827882053249
          38.390509915525726 36.795260182310315 55.34923203848784 52.04223660151181 44.697968287926216 44.60378597275499
          36.77357905930355 36.4280533914733 35.20011354678028 34.62098629350711 35.17093498912088 32.96866211384682
          39.77754408992829 38.75597665194579 36.62813976059663 36.950742020679726 34.82946218060093 32.1221585775193
          38.593501754321004 36.54436147508113 35.47516222541418 32.87604160002226 30.797622820940266 30.385040284270392
          28.983122670763212 34.809626090540476 32.59272969219348 31.855137629436705 59.025194710906064 57.543707992791646
          57.85950777880055 53.07100071957707 50.36489061718153 43.707121300959145 57.40132071979612 57.714250996797894
          56.6318352989845 52.319519027482286 45.09513739436219 42.5175612461854 37.62419453814739 37.375656402043376
          38.42518334049742 36.30860291619398 48.032997380578415 44.73982902223197 37.56783430255107 39.26093387052329
          40.87874219337971 37.77216952075059 36.24165310677149 34.835530368865875 41.89405145054011 38.33643606623091
          36.45840649401734 35.83827132670127 33.84870295762928 32.909173924928645 30.81310090471981 36.12938716601863
          34.2732604010781 33.274170842238235 29.703608007800245 32.47348300489928 30.77782777136798 28.63921879730504
          27.825364236111714 29.368079165759806 28.318087825459372 33.41887906215182 31.60968004224509 33.73366200784115
          31.918255264700534 29.94225126707964 28.692646918258635 30.164595646793856 28.83348230288265 28.147558190622696
          28.01306825031192 27.350066245992885 27.26515886458263 27.67239862805815 27.047806067523126 29.883991833425142
          29.580415085503564 28.216945609208825 28.853588373298212 26.790585752045416 26.738422998682232 26.603565431502602
          27.418046860775767 27.31650654060843 27.06091763403795 27.257800306453024 26.778897412020143 26.874508994053997
          26.525903336231504 28.045500807282348 27.288568610735194 27.367397149847854 26.434559824221967 26.274069970065135
          26.755666752971997 26.482711258834755 32.526794306663945 31.972725879379738 29.95856932931103 29.617608213313776
          30.603321288867598 28.812704949076668 35.14732255822368 34.45770276871839 31.366727965416523 32.58858522372097
          28.29624786011287 28.112389608886186 27.664344517925706 29.330548656414567 29.035979894798864 28.33652824439435
          29.109056330738408 27.94280709267578 27.969104432279348 27.2423986183539 30.334583599939407 28.65891248689418
          28.599426540538357 27.1567555433759 26.72908738049538 27.57964787314011 26.97516586515386 36.64053634561915
          35.99381677993094 33.62203151465857 32.87629280298341 34.05179240495174 31.088398141283683 37.052819076379826
          36.45232851743867 33.457771206274884 34.558661611193685 30.232227745085712 29.831028924795007 28.895520118334936
          30.600491480472698 30.152909905768226 29.116853379698327 31.34699128016162 29.248809466163085 29.100769934688316
          27.94485781972463 31.734667326645148 29.481862664195674 29.29462716632853 27.915341619794283 27.16230054302209
          28.04461926305861 27.232806503293823 27.20792302951071 26.749082246979132 26.420753904837692 27.53915082917546
          26.96683020526379 26.418286819987596 26.208944628579804 26.55710222447663 26.286743336234373 27.785889803202842
          27.127761794562662 26.62736330514027 27.877503773548263 27.187581330897455 26.659317549348536 26.34226528798437
          26.697384864088683 26.36252714148728 29.524810688428325 28.52482766798761 28.393225662521267 29.3378672204813
          27.745907473697 27.65525561699919 28.053774616382867 28.860739880079453 27.41842356467471 27.624627272887885
          28.26692399770075 27.114376268901765 27.205498791801958 27.696486709319263 26.81348956066268 26.847148341932616
          27.21509315422665 27.31812475788559 27.85007001428562 26.55461118881893 26.894359091360634 27.92498174588577
          28.684179237033593 27.32753972180773 27.221179245530294 27.719549818005135 27.610950998452147 28.25188372736496
          26.825167236350524 27.10486327496921 27.97693869342921 28.759738616606512 27.364742719576135 29.756486554502917
          29.13763125738994 30.289581283298673 29.279309188214754 30.49183701649765 28.244897763757358 27.552595807167194
          28.344258541762105 27.621294112309144 27.150495458010205 27.08917386825575 26.706912798941783 26.666254194662656
          26.927741163565813 26.559553035418503 26.387097951006176 26.36159639520282 26.294266377947842 26.718240895600772
          26.420709133347092 26.509339049992874 26.2815270391732 26.206015644201905 26.117235201625704 26.32884655234335
          26.56622970130014 26.16070589082275 26.320117565846367 26.86698691074153 26.521978175029773 26.040644155329414
          26.14272836710931 26.272625845051678 26.518916906789382 26.71366440017483 26.289857410258556 26.893579917092964
          26.124146772441605 26.135075604777843 26.28542082618649 26.2093767456988 26.39520327993658 26.274998558171404
          26.494109043103823 26.025854683583766 26.07432982511832 26.117171830045532 27.02286214767903 27.070100490758467
          26.32045647617997 26.563940481971954 26.336761113192132 26.589108715850386 26.14669858916516 26.157235943032212
        </DataArray>
        <DataArray type="Float64" Name="dk/dtemperature" format="ascii" RangeMin="0.0072803253594130295" RangeMax="0.02741517584454606">
          0.008001164829828189 0.010261929785573073 0.013147534951975862 0.010863258778868732 0.007815068123921621 0.008741086094822638
          0.011304376330849566 0.011372247137671945 0.01008925902287734 0.008153024207751826 0.007301817509832866 0.008152568694594521
          0.00902141011841127 0.011574091646791402 0.02741517584454606 0.013928798495255282 0.007458240777006514 0.008119673299093124
          0.012846494976685309 0.01340265855860847 0.014511221038238585 0.010346468860034083 0.011502261204078377 0.013564940477628924
          0.008930831540760797 0.01058146437146888 0.013093818946428751 0.01493737394780382 0.014754900184775922 0.009823388911450175
          0.010089897471929052 0.010767963216221295 0.00800456754152223 0.01098264354351091 0.011201911746233067 0.012047037286618873
          0.012238692796056553 0.01176153314749411 0.012716731662956738 0.008758830690616996 0.009065800398097722 0.010558819727056256
          0.009984916338097775 0.011600510082935642 0.012484190111636321 0.010033664605970084 0.012457332533118832 0.013314848894795773
          0.013209050594412129 0.013938507889977695 0.011155114236095163 0.012229321500242186 0.012252218057041854 0.007890809964820568
          0.007704146377987807 0.0075925413044555835 0.019977438490764388 0.019795499613206792 0.009490491449312723 0.013977211272311024
          0.007430569020845731 0.00747080898338205 0.008129985914774483 0.008552503013655607 0.008190702019028216 0.009670494032396866
          0.008225888413806923 0.007825744500018272 0.007371649363361855 0.007394064489920289 0.008498610696942143 0.010187519808268668
          0.007632541385649971 0.007622956315392275 0.007963065456942683 0.009743585252714121 0.011038749223047704 0.011297018381870031
          0.012307191220026705 0.008421996718574012 0.009845908292582844 0.010387732529819772 0.025859955583578252 0.027143415629866184
          0.01940526624130997 0.016984134731176496 0.018755925316464046 0.011340750763375446 0.02489474143302164 0.025790704815682658
          0.02336608640827425 0.018036981140857868 0.010070504682138574 0.009179526138647887 0.007802880160975152 0.007442528653857894
          0.007691049362269896 0.007485132857004654 0.011108833653158994 0.009840147194814552 0.007616732285977471 0.007979125932601873
          0.008092078912070958 0.007559713994108101 0.007600618969548754 0.008296862514359078 0.008331268174469926 0.007700002401285808
          0.007502715389258639 0.007799527041192177 0.009050038832946156 0.009660038450805354 0.01105780855050321 0.007755495701850623
          0.008835745523932025 0.009385478114932285 0.011728324024756983 0.010005989012388115 0.011018244037261992 0.012576401947761424
          0.013378061996752238 0.011982375780795827 0.012890458890584579 0.00934043935266692 0.010523595560460034 0.009073867891890545