<?xml version="1.0"?>
<VTKFile type="UnstructuredGrid" version="0.1" byte_order="LittleEndian" header_type="UInt32" compressor="vtkZLibDataCompressor">
  <UnstructuredGrid>
    <Piece NumberOfPoints="375" NumberOfCells="184">
      <PointData>
        <DataArray type="Int32" Name="libmesh_node_id" format="ascii" RangeMin="213" RangeMax="2933">
          224 232 233 274 283 285
          287 288 289 292 293 294
          295 296 498 526 528 530
          531 532 535 536 538 644
          645 652 653 654 655 660
          662 663 665 737 739 741
          742 743 746 747 748 749
          750 751 752 753 754 755
          756 757 758 759 760 763
          764 767 769 1120 1121 1122
          1214 1215 1216 1217 1218 1219
          1220 1224 1225 1226 1240 1241
          1246 1248 1249 1250 1251 1252
          1253 1254 1255 1256 1257 1258
          1259 1260 1261 1290 1291 1292
          1348 1349 1350 1351 1352 1353
          1354 1355 1356 1357 1358 1359
          1360 1361 1362 1363 1364 1365
          1366 1367 1378 1379 1380 1381
          1382 1383 1384 1385 1386 1387
          2279 2280 2281 2282 2283 2284
          2285 2286 2287 2288 2289 2290
          2291 2292 2303 2304 2305 2306
          2307 2308 2309 2325 2326 2328
          2331 2764 2765 2766 2767 2768
          2769 2770 2771 2772 2773 2774
          2775 2776 2777 2778 2779 2780
          2781 2782 2783 2784 2785 2786
          2788 2789 2790 2791 2792 2793
          2794 2795 2796 2797 2798 2799
          2800 2801 2812 2813 2814 2815
          2816 2817 2818 2819 2820 2842
          2843 2844 2845 2846 2847 2848
          2849 2850 2851 2859 2860 2863
          2864 2876 2877 2878 2879 2880
          2881 2882 2883 2884 2885 2893
          2894 2897 2898 2900 2901 2902
          2903 2904 2905 2906 2907 2908
          2909 2910 2911 2912 2913 2914
          2915 2916 2917 2918 2919 2920
          2921 2922 2923 2924 2925 2926
          2927 2928 2929 2930 2931 2932
          2933 284 286 291 527 533
          529 534 344 345 213 273
          738 476 477 740 478 744
          745 761 762 765 766 539
          768 770 1221 484 1222 1125
          1223 1243 1286 1287 1288 1289
          1293 1295 1294 1116 1117 1123
          1236 1263 1265 537 1267 2269
          2270 2271 2274 1118 2277 1119
          2295 2296 2299 2310 2301 2311
          2312 1124 2315 2323 2324 2316
          2327 2318 2329 2330 1128 2332
          2340 2334 2341 2345 2344 2523
          2525 2526 2524 2528 2527 2787
          2802 2803 2804 2805 2809 2810
          2808 2821 1227 2832 2833 2834
          2835 2836 2837 1238 2840 1239
          2853 2852 2861 2855 2862 2857
          2865 1242 2868 2869 2871 1244
          2874 1245 2887 2895 2889 2896
          2891 2899 1247
        </DataArray>
        <DataArray type="Float64" Name="bounds" format="ascii" RangeMin="0" RangeMax="0">
          0 0 0 0 0 0
          0 0 0 0 0 0
          0 0 0 0 0 0
          0 0 0 0 0 0
          0 0 0 0 0 0
          0 0 0 0 0 0
          0 0 0 0 0 0
          0 0 0 0 0 0
          0 0 0 0 0 0
          0 0 0 0 0 0
          0 0 0 0 0 0
          0 0 0 0 0 0
          0 0 0 0 0 0
          0 0 0 0 0 0
          0 0 0 0 0 0
          0 0 0 0 0 0
          0 0 0 0 0 0
          0 0 0 0 0 0
          0 0 0 0 0 0
          0 0 0 0 0 0
          0 0 0 0 0 0
          0 0 0 0 0 0
          0 0 0 0 0 0
          0 0 0 0 0 0
          0 0 0 0 0 0
          0 0 0 0 0 0
          0 0 0 0 0 0
          0 0 0 0 0 0
          0 0 0 0 0 0
          0 0 0 0 0 0
          0 0 0 0 0 0
          0 0 0 0 0 0
          0 0 0 0 0 0
          0 0 0 0 0 0
          0 0 0 0 0 0
          0 0 0 0 0 0
          0 0 0 0 0 0
          0 0 0 0 0 0
          0 0 0 0 0 0
          0 0 0 0 0 0
          0 0 0 0 0 0
          0 0 0 0 0 0
          0 0 0 0 0 0
          0 0 0 0 0 0
          0 0 0 0 0 0
          0 0 0 0 0 0
          0 0 0 0 0 0
          0 0 0 0 0 0
          0 0 0 0 0 0
          0 0 0 0 0 0
          0 0 0 0 0 0
          0 0 0 0 0 0
          0 0 0 0 0 0
          0 0 0 0 0 0
          0 0 0 0 0 0
          0 0 0 0 0 0
          0 0 0 0 0 0
          0 0 0 0 0 0
          0 0 0 0 0 0
          0 0 0 0 0 0
          0 0 0 0 0 0
          0 0 0 0 0 0
          0 0 0
        </DataArray>
        <DataArray type="Float64" Name="gradient_error" format="ascii" RangeMin="7.19883550748634e-12" RangeMax="3.2197914996229584e-9">
          3.365034703335928e-10 4.663552395610251e-11 4.100135697935659e-10 2.0026033760347682e-10 6.459066971038046e-10 1.2405259134540188e-10
          2.8910929408008387e-10 1.24663550040183e-10 2.0558316081369198e-10 3.546393231035748e-10 2.9866709926288944e-11 1.9371211050715486e-10
          1.721228103369781e-10 1.0008584871376741e-9 3.487978490163866e-10 8.045151149805106e-11 2.8090204139914135e-11 1.130606512266144e-10
          2.8297320305797453e-11 5.809132400817122e-11 1.4112645834544393e-10 3.458638696896406e-11 3.2845910510390975e-11 7.89886236387806e-10
          7.060885557574318e-10 6.65003437253793e-11 7.268222309746968e-11 5.7207746541825615e-11 7.439461655638111e-11 9.15814865709366e-11
          4.791514935827194e-11 7.610701001529254e-11 1.0429887067231314e-10 3.2975016535018204e-10 2.1233829659685523e-10 2.2796423462927456e-10
          1.7886298844897317e-10 2.0221354818550644e-10 2.2556410792203974e-10 3.1774997860474406e-11 3.672252236426961e-11 3.014175307109887e-11
          3.6524158399212056e-11 3.042329312886256e-11 2.0851230139053078e-11 2.8264994288572867e-11 4.1670046868064807e-11 4.2906563727325234e-11
          3.5678758438092656e-11 2.8508508281723336e-11 3.63257944341545e-11 2.6106695448283172e-11 4.414308058658567e-11 2.853938451933191e-10
          2.989097282141729e-10 3.486572586946779e-10 3.124256112350266e-10 2.1113889980108815e-10 1.4414638340040355e-10 1.501423143250908e-10
          9.331664317916624e-11 1.2189238250543349e-10 5.88741657554208e-11 8.634511758947395e-11 6.66924115611025e-11 4.932956816801749e-11
          4.639280263790589e-11 8.358954572966864e-11 7.06794969723206e-11 3.033244477506003e-11 2.931266963000307e-11 3.019002494089201e-11
          2.9191699167454104e-11 2.2594655024058288e-11 2.8257641905043915e-11 1.352333647237296e-11 2.0178868404201174e-11 1.891209222409626e-11
          1.8737621962684873e-11 1.9185729000318946e-11 3.2994823246294255e-11 3.018460756982634e-11 2.0404942368676614e-11 1.4606681267007774e-11
          1.372870371344024e-11 1.913417179365685e-11 2.506956935688092e-11 1.6539040502598963e-10 2.531705964939878e-10 2.3318163829050396e-10
          2.3930771632126203e-11 2.260176809778372e-11 2.8313297646720092e-11 2.6586735630115285e-11 1.801212712752728e-11 1.7302232742591873e-11
          1.829951268436938e-11 2.1272764563441235e-11 2.4860173613510482e-11 1.9296792626146886e-11 3.094729990577942e-11 3.427940602278932e-11
          2.4683397870679768e-11 2.4965194054504986e-11 3.065344601227248e-11 3.438706035334643e-11 2.8754339409609763e-11 3.761151213979922e-11
          2.5246990238330203e-11 3.8120674694420374e-11 8.389159578187004e-11 8.184651918962975e-11 1.0251065287636279e-10 9.839523637371875e-11
          6.443260918024904e-11 6.20454937780586e-11 6.806005511126547e-11 7.980144259738945e-11 9.427981987107471e-11 7.407461644447232e-11
          1.1599776454546316e-10 1.1265748428171096e-10 1.581760822173515e-10 1.529590606639401e-10 6.561764723577318e-11 8.867495307517985e-11
          8.480033939392929e-11 1.0351385760228253e-10 1.3871977417977062e-10 8.559817710891945e-11 2.682310801472015e-10 2.580428472426922e-10
          1.3769494682457664e-10 2.3004075526415402e-10 9.136896253915353e-11 1.178339027789528e-10 7.263259130244435e-11 8.967732954305799e-11
          8.502741389170077e-11 1.059702963088931e-10 8.441157918471508e-11 2.2966421474613348e-10 2.1962551514115568e-10 1.9270466575259905e-10
          3.31763891059042e-10 3.737711933162483e-11 3.7006335085404816e-11 4.830826672729431e-11 4.672100481704972e-11 2.954031081731112e-11
          3.459573091395149e-11 3.5571030295767953e-11 3.66355508391848e-11 4.513374290680513e-11 3.654632967758441e-11 7.63158174426305e-11
          7.281331788483038e-11 4.3730463325160953e-11 7.017499247475041e-11 1.1715279199493743e-10 1.1204293404681727e-10 5.775919722939157e-11
          5.562772755174552e-11 9.859760246027164e-11 4.99266674943713e-11 1.7277200737790128e-10 1.6490388309659357e-10 8.008120340194629e-11
          2.2420782327785557e-11 2.1711536786571198e-11 2.8019533109525795e-11 2.7051142468707748e-11 1.5788249790713598e-11 1.9032760599470193e-11
          1.838427908301109e-11 1.9966926187117123e-11 2.4584314511183873e-11 1.6789621449800498e-11 3.9943616800946334e-11 3.8434036764328515e-11
          2.0217928836820038e-11 3.441623854641808e-11 1.76766086937001e-11 2.1161135480095108e-11 1.3865155180726257e-11 1.5608445193417583e-11
          1.642165625852279e-11 1.9236393765712164e-11 1.537344505378616e-11 2.876158847590796e-11 1.975736571444951e-11 5.269762545505896e-11
          5.0639383783840496e-11 2.3847325840216078e-11 2.265846582163452e-11 4.497737956224743e-11 2.3269357824008738e-11 6.499080114960344e-11
          6.227709962344862e-11 2.787613576982393e-11 5.482378922087373e-11 3.712226295989336e-11 2.4548030203820252e-11 4.475910023239133e-11
          2.3282857236392368e-11 7.428073296488453e-11 7.091768675092218e-11 3.317080085961299e-11 3.169875305759254e-11 6.185938653481058e-11
          2.778786213341745e-11 7.770616483005349e-11 7.408261644481537e-11 3.3125427151230513e-11 6.439517949478303e-11 5.006259998645424e-11
          2.2626596738014336e-11 5.1974010742586716e-11 2.3795439713865323e-11 9.528204927123673e-12 9.108024828202906e-12 1.0936253842151441e-11
          1.0451806220271102e-11 7.19883550748634e-12 7.37472996574563e-12 7.697711329262482e-12 8.687844729282138e-12 9.967358598390765e-12
          8.020692692779335e-12 1.3337067848438317e-11 1.2776208704639624e-11 8.64004274714505e-12 1.1895452865817e-11 1.4891473134834427e-11
          1.4323215330007767e-11 9.29686670744091e-12 9.188262280105451e-12 1.278040942453234e-11 8.646730304129606e-12 1.545311332997143e-11
          1.4889600863075584e-11 9.293026216959429e-12 1.3341075784088877e-11 1.0060748618212665e-11 1.0551240138803364e-11 8.13109892417286e-12
          7.835303471185883e-12 8.865837760656206e-12 9.296618953723157e-12 7.456804186882543e-12 1.1041731659394062e-11 7.539508018198903e-12
          9.727400146790106e-12 8.143026690840638e-10 4.850652739426417e-10 1.042142242853785e-9 1.711499610096212e-10 3.097563017513264e-10
          6.503882203855261e-11 3.070678585743055e-10 3.2197914996229584e-9 2.754027137080972e-9 3.0554259856083106e-9 2.6623016881557393e-9
          3.0036831671217526e-10 9.035492090236432e-10 5.8785644215219e-10 2.6563934453532426e-10 5.782473231960181e-10 2.709864680741685e-10
          3.177731671171093e-10 4.027224657344917e-10 4.688117747805442e-10 3.8328159178040245e-10 4.4116784864584575e-10 3.3160105720555025e-10
          5.349010838265967e-10 4.990541055112891e-10 1.4683572221503812e-10 3.104670555221501e-10 1.0897824996328857e-10 1.9617304582789584e-10
          6.161358765494497e-11 3.1656527088337037e-11 3.216731940554637e-10 3.106775853804795e-10 5.746360764070489e-10 5.340597194531187e-10
          2.8554415651441894e-10 2.229703464112725e-10 4.4328925363901804e-10 5.142153097924095e-10 4.673988457972175e-10 4.2879948562691015e-10
          6.894398879585052e-11 5.86915234544274e-11 8.556870687273374e-11 2.96545845765645e-11 6.446905783810292e-11 1.9436681114435938e-10
          2.7930464163767203e-10 2.6939274095848963e-10 2.426268769096563e-10 4.85974216578006e-10 4.657411864458693e-10 4.1101183859678796e-10
          1.536454781661173e-10 2.0387096717548842e-10 1.8203550311544494e-10 1.8907876864282063e-10 3.359688868942882e-10 1.1915238991402563e-10
          1.6033145394162225e-10 3.1760366201338944e-10 8.122541578380017e-10 4.392538660122369e-10 4.194179946646784e-10 7.731384436064735e-10
          3.660508978709772e-10 6.688855385585098e-10 6.815986881911296e-10 6.466155277016691e-10 2.8657681174338314e-10 5.53739291745517e-10
          2.941593506029476e-10 5.325437143469097e-10 1.5678007385013618e-10 2.276468878365897e-10 4.3335230566412516e-10 9.776296744613538e-10
          4.933264229781163e-10 4.67565122988605e-10 9.247754398302299e-10 3.98964608185508e-10 7.831712511592989e-10 1.4391077845797216e-10
          6.5287844895272e-11 8.142324252875562e-11 3.4858323997387516e-11 4.1806348444396904e-11 1.1656988606224202e-10 5.791970247498018e-11
          3.819907990614896e-11 2.448918996557474e-11 5.57789049546188e-11 2.3997229382995017e-10 2.2814470415176472e-10 1.135429372277264e-10
          1.0840613197991227e-10 1.9666648750218233e-10 9.464974167143325e-11 1.427975811996954e-10 1.3596861975215637e-10 1.176916600418762e-10
          7.639477005539677e-11 1.5574288452427987e-10 2.8903181939419444e-11 5.777868727498083e-11 1.9939289360046325e-11 9.363299238573263e-11
          3.448108304186866e-11 6.974606419391496e-11 1.645005250309429e-10 1.5638407357801019e-10 1.3464494117608878e-10 1.7253767971843125e-10
          1.6394139981050154e-10 1.4090599754576008e-10 1.061621025295212e-10 3.8268018380944e-11 7.817429944145393e-11 2.0448438000429586e-11
          1.107627283398166e-10 3.967201524507823e-11 8.125491307354309e-11
        </DataArray>
        <DataArray type="Float64" Name="gradient_matprop_error" format="ascii" RangeMin="0" RangeMax="0">
          0 0 0 0 0 0
          0 0 0 0 0 0
          0 0 0 0 0 0
          0 0 0 0 0 0
          0 0 0 0 0 0
          0 0 0 0 0 0
          0 0 0 0 0 0
          0 0 0 0 0 0
          0 0 0 0 0 0
          0 0 0 0 0 0
          0 0 0 0 0 0
          0 0 0 0 0 0
          0 0 0 0 0 0
          0 0 0 0 0 0
          0 0 0 0 0 0
          0 0 0 0 0 0
          0 0 0 0 0 0
          0 0 0 0 0 0
          0 0 0 0 0 0
          0 0 0 0 0 0
          0 0 0 0 0 0
          0 0 0 0 0 0
          0 0 0 0 0 0
          0 0 0 0 0 0
          0 0 0 0 0 0
          0 0 0 0 0 0
          0 0 0 0 0 0
          0 0 0 0 0 0
          0 0 0 0 0 0
          0 0 0 0 0 0
          0 0 0 0 0 0
          0 0 0 0 0 0
          0 0 0 0 0 0
          0 0 0 0 0 0
          0 0 0 0 0 0
          0 0 0 0 0 0
          0 0 0 0 0 0
          0 0 0 0 0 0
          0 0 0 0 0 0
          0 0 0 0 0 0
          0 0 0 0 0 0
          0 0 0 0 0 0
          0 0 0 0 0 0
          0 0 0 0 0 0
          0 0 0 0 0 0
          0 0 0 0 0 0
          0 0 0 0 0 0
          0 0 0 0 0 0
          0 0 0 0 0 0
          0 0 0 0 0 0
          0 0 0 0 0 0
          0 0 0 0 0 0
          0 0 0 0 0 0
          0 0 0 0 0 0
          0 0 0 0 0 0
          0 0 0 0 0 0
          0 0 0 0 0 0
          0 0 0 0 0 0
          0 0 0 0 0 0
          0 0 0 0 0 0
          0 0 0 0 0 0
          0 0 0 0 0 0
          0 0 0
        </DataArray>
        <DataArray type="Float64" Name="initial_marker" format="ascii" RangeMin="0" RangeMax="2">
          0 0 0 0 0 0
          0 0 0 0 0 0
          0 0 2 0 0.5 0
          0 0 0 2 0 0
          0 0 0 0 0 0
          0 0 0 0 0 0
          0 0 0 0 0 0
          0 0 0 0 0 0
          0 0 0 0 0 0
          0 0 0 0 2 1.75
          0 0 0.5 0.5 0 0
          0 2 2 0.5 2 1.25
          2 0 0 0 0 0
          0 0 0 0 0 0
          0 0 0 0 0 0
          0 0 0 0 0 0
          0 0 0 0 0 0
          0 0 0 0 0 0
          0 0 0 0 0 0
          0 0 0 0 0 0
          1 1 1.5 1.5 0 1
          1 0.5 1.25 1 2 2
          2 2 0 0.75 0 0.5
          0 0.5 0 2 2 2
          2 0 0 0.5 0.5 0
          0 0 0 0.5 0 1.5
          1.5 0.6666666666666666 1.6666666666666667 2 2 1.5
          1.5 2 1.5 2 2 2
          0 0 0.5 0.5 0 0
          0 0 0.5 0 1.5 1.5
          0.6666666666666666 1.5 0 0.25 0 0
          0 0 0 1 0.5 2
          2 1.5 1.25 2 1.3333333333333333 2
          2 1.75 2 1.5 1 1.75
          1 2 2 2 2 2
          1.75 2 2 2 2 2
          1.25 2 1.5 0 0 0.5
          0.25 0 0 0 0 0
          0 1 0.75 0 0.3333333333333333 1
          1 0 0 0.75 0 1
          1 0 1 0 0.25 0
          0 0 0 0 0.5 0
          0 0 0 0 0 0
          0 0 0 0 0 0
          0 0 0 0 0 0
          0 0 0 0 0 0
          0 0 0 0 0 0.75
          0 0.25 0 0 0 0
          0 0 0 1 0.75 0
          0 0 0 0.5 0 2
          2 2 1.75 2 2 2
          0.5 1.25 1 1.75 2 1.6666666666666667
          1.6666666666666667 1.75 2 2 2 2
          2 2 2 2 2 2
          2 2 2 2 2 2
          2 2 2 2 2 2
          1.5 1.75 0.5 1 2 1.75
          0.3333333333333333 0.3333333333333333 1 2 2 2
          2 2 2 2 2 2
          2 2 0.75 1.75 0 2
          1.25 2 2 2 2 2
          2 2 2 1.5 2 0.6666666666666666
          2 1.5 2
        </DataArray>
        <DataArray type="Float64" Name="markers_norefine" format="ascii" RangeMin="0" RangeMax="0">
          0 0 0 0 0 0
          0 0 0 0 0 0
          0 0 0 0 0 0
          0 0 0 0 0 0
          0 0 0 0 0 0
          0 0 0 0 0 0
          0 0 0 0 0 0
          0 0 0 0 0 0
          0 0 0 0 0 0
          0 0 0 0 0 0
          0 0 0 0 0 0
          0 0 0 0 0 0
          0 0 0 0 0 0
          0 0 0 0 0 0
          0 0 0 0 0 0
          0 0 0 0 0 0
          0 0 0 0 0 0
          0 0 0 0 0 0
          0 0 0 0 0 0
          0 0 0 0 0 0
          0 0 0 0 0 0
          0 0 0 0 0 0
          0 0 0 0 0 0
          0 0 0 0 0 0
          0 0 0 0 0 0
          0 0 0 0 0 0
          0 0 0 0 0 0
          0 0 0 0 0 0
          0 0 0 0 0 0
          0 0 0 0 0 0
          0 0 0 0 0 0
          0 0 0 0 0 0
          0 0 0 0 0 0
          0 0 0 0 0 0
          0 0 0 0 0 0
          0 0 0 0 0 0
          0 0 0 0 0 0
          0 0 0 0 0 0
          0 0 0 0 0 0
          0 0 0 0 0 0
          0 0 0 0 0 0
          0 0 0 0 0 0
          0 0 0 0 0 0
          0 0 0 0 0 0
          0 0 0 0 0 0
          0 0 0 0 0 0
          0 0 0 0 0 0
          0 0 0 0 0 0
          0 0 0 0 0 0
          0 0 0 0 0 0
          0 0 0 0 0 0
          0 0 0 0 0 0
          0 0 0 0 0 0
          0 0 0 0 0 0
          0 0 0 0 0 0
          0 0 0 0 0 0
          0 0 0 0 0 0
          0 0 0 0 0 0
          0 0 0 0 0 0
          0 0 0 0 0 0
          0 0 0 0 0 0
          0 0 0 0 0 0
          0 0 0
        </DataArray>
        <DataArray type="Float64" Name="markers_mustrefine" format="ascii" RangeMin="0" RangeMax="2">
          0 0 0 0 0 0
          0 0 0 0 0 0
          0 0 2 0 0.5 0
          0 0 0 2 0 0
          0 0 0 0 0 0
          0 0 0 0 0 0
          0 0 0 0 0 0
          0 0 0 0 0 0
          0 0 0 0 0 0
          0 0 0 0 2 1.75
          0 0 0.5 0.5 0 0
          0 2 2 0.5 2 1.25
          2 0 0 0 0 0
          0 0 0 0 0 0
          0 0 0 0 0 0
          0 0 0 0 0 0
          0 0 0 0 0 0
          0 0 0 0 0 0
          0 0 0 0 0 0
          0 0 0 0 0 0
          1 1 1.5 1.5 0 1
          1 0.5 1.25 1 2 2
          2 2 0 0.75 0 0.5
          0 0.5 0 2 2 2
          2 0 0 0.5 0.5 0
          0 0 0 0.5 0 1.5
          1.5 0.6666666666666666 1.6666666666666667 2 2 1.5
          1.5 2 1.5 2 2 2
          0 0 0.5 0.5 0 0
          0 0 0.5 0 1.5 1.5
          0.6666666666666666 1.5 0 0.25 0 0
          0 0 0 1 0.5 2
          2 1.5 1.25 2 1.3333333333333333 2
          2 1.75 2 1.5 1 1.75
          1 2 2 2 2 2
          1.75 2 2 2 2 2
          1.25 2 1.5 0 0 0.5
          0.25 0 0 0 0 0
          0 1 0.75 0 0.3333333333333333 1
          1 0 0 0.75 0 1
          1 0 1 0 0.25 0
          0 0 0 0 0.5 0
          0 0 0 0 0 0
          0 0 0 0 0 0
          0 0 0 0 0 0
          0 0 0 0 0 0
          0 0 0 0 0 0.75
          0 0.25 0 0 0 0
          0 0 0 1 0.75 0
          0 0 0 0.5 0 2
          2 2 1.75 2 2 2
          0.5 1.25 1 1.75 2 1.6666666666666667
          1.6666666666666667 1.75 2 2 2 2
          2 2 2 2 2 2
          2 2 2 2 2 2
          2 2 2 2 2 2
          1.5 1.75 0.5 1 2 1.75
          0.3333333333333333 0.3333333333333333 1 2 2 2
          2 2 2 2 2 2
          2 2 0.75 1.75 0 2
          1.25 2 2 2 2 2
          2 2 2 1.5 2 0.6666666666666666
          2 1.5 2
        </DataArray>
        <DataArray type="Float64" Name="gradient_marker" format="ascii" RangeMin="1" RangeMax="1">
          1 1 1 1 1 1
          1 1 1 1 1 1
          1 1 1 1 1 1
          1 1 1 1 1 1
          1 1 1 1 1 1
          1 1 1 1 1 1
          1 1 1 1 1 1
          1 1 1 1 1 1
          1 1 1 1 1 1
          1 1 1 1 1 1
          1 1 1 1 1 1
          1 1 1 1 1 1
          1 1 1 1 1 1
          1 1 1 1 1 1
          1 1 1 1 1 1
          1 1 1 1 1 1
          1 1 1 1 1 1
          1 1 1 1 1 1
          1 1 1 1 1 1
          1 1 1 1 1 1
          1 1 1 1 1 1
          1 1 1 1 1 1
          1 1 1 1 1 1
          1 1 1 1 1 1
          1 1 1 1 1 1
          1 1 1 1 1 1
          1 1 1 1 1 1
          1 1 1 1 1 1
          1 1 1 1 1 1
          1 1 1 1 1 1
          1 1 1 1 1 1
          1 1 1 1 1 1
          1 1 1 1 1 1
          1 1 1 1 1 1
          1 1 1 1 1 1
          1 1 1 1 1 1
          1 1 1 1 1 1
          1 1 1 1 1 1
          1 1 1 1 1 1
          1 1 1 1 1 1
          1 1 1 1 1 1
          1 1 1 1 1 1
          1 1 1 1 1 1
          1 1 1 1 1 1
          1 1 1 1 1 1
          1 1 1 1 1 1
          1 1 1 1 1 1
          1 1 1 1 1 1
          1 1 1 1 1 1
          1 1 1 1 1 1
          1 1 1 1 1 1
          1 1 1 1 1 1
          1 1 1 1 1 1
          1 1 1 1 1 1
          1 1 1 1 1 1
          1 1 1 1 1 1
          1 1 1 1 1 1
          1 1 1 1 1 1
          1 1 1 1 1 1
          1 1 1 1 1 1
          1 1 1 1 1 1
          1 1 1 1 1 1
          1 1 1
        </DataArray>
        <DataArray type="Float64" Name="gradient_matprop_marker" format="ascii" RangeMin="0" RangeMax="0">
          0 0 0 0 0 0
          0 0 0 0 0 0
          0 0 0 0 0 0
          0 0 0 0 0 0
          0 0 0 0 0 0
          0 0 0 0 0 0
          0 0 0 0 0 0
          0 0 0 0 0 0
          0 0 0 0 0 0
          0 0 0 0 0 0
          0 0 0 0 0 0
          0 0 0 0 0 0
          0 0 0 0 0 0
          0 0 0 0 0 0
          0 0 0 0 0 0
          0 0 0 0 0 0
          0 0 0 0 0 0
          0 0 0 0 0 0
          0 0 0 0 0 0
          0 0 0 0 0 0
          0 0 0 0 0 0
          0 0 0 0 0 0
          0 0 0 0 0 0
          0 0 0 0 0 0
          0 0 0 0 0 0
          0 0 0 0 0 0
          0 0 0 0 0 0
          0 0 0 0 0 0
          0 0 0 0 0 0
          0 0 0 0 0 0
          0 0 0 0 0 0
          0 0 0 0 0 0
          0 0 0 0 0 0
          0 0 0 0 0 0
          0 0 0 0 0 0
          0 0 0 0 0 0
          0 0 0 0 0 0
          0 0 0 0 0 0
          0 0 0 0 0 0
          0 0 0 0 0 0
          0 0 0 0 0 0
          0 0 0 0 0 0
          0 0 0 0 0 0
          0 0 0 0 0 0
          0 0 0 0 0 0
          0 0 0 0 0 0
          0 0 0 0 0 0
          0 0 0 0 0 0
          0 0 0 0 0 0
          0 0 0 0 0 0
          0 0 0 0 0 0
          0 0 0 0 0 0
          0 0 0 0 0 0
          0 0 0 0 0 0
          0 0 0 0 0 0
          0 0 0 0 0 0
          0 0 0 0 0 0
          0 0 0 0 0 0
          0 0 0 0 0 0
          0 0 0 0 0 0
          0 0 0 0 0 0
          0 0 0 0 0 0
          0 0 0
        </DataArray>
        <DataArray type="Float64" Name="combo" format="ascii" RangeMin="1" RangeMax="1">
          1 1 1 1 1 1
          1 1 1 1 1 1
          1 1 1 1 1 1
          1 1 1 1 1 1
          1 1 1 1 1 1
          1 1 1 1 1 1
          1 1 1 1 1 1
          1 1 1 1 1 1
          1 1 1 1 1 1
          1 1 1 1 1 1
          1 1 1 1 1 1
          1 1 1 1 1 1
          1 1 1 1 1 1
          1 1 1 1 1 1
          1 1 1 1 1 1
          1 1 1 1 1 1
          1 1 1 1 1 1
          1 1 1 1 1 1
          1 1 1 1 1 1
          1 1 1 1 1 1
          1 1 1 1 1 1
          1 1 1 1 1 1
          1 1 1 1 1 1
          1 1 1 1 1 1
          1 1 1 1 1 1
          1 1 1 1 1 1
          1 1 1 1 1 1
          1 1 1 1 1 1
          1 1 1 1 1 1
          1 1 1 1 1 1
          1 1 1 1 1 1
          1 1 1 1 1 1
          1 1 1 1 1 1
          1 1 1 1 1 1
          1 1 1 1 1 1
          1 1 1 1 1 1
          1 1 1 1 1 1
          1 1 1 1 1 1
          1 1 1 1 1 1
          1 1 1 1 1 1
          1 1 1 1 1 1
          1 1 1 1 1 1
          1 1 1 1 1 1
          1 1 1 1 1 1
          1 1 1 1 1 1
          1 1 1 1 1 1
          1 1 1 1 1 1
          1 1 1 1 1 1
          1 1 1 1 1 1
          1 1 1 1 1 1
          1 1 1 1 1 1
          1 1 1 1 1 1
          1 1 1 1 1 1
          1 1 1 1 1 1
          1 1 1 1 1 1
          1 1 1 1 1 1
          1 1 1 1 1 1
          1 1 1 1 1 1
          1 1 1 1 1 1
          1 1 1 1 1 1
          1 1 1 1 1 1
          1 1 1 1 1 1
          1 1 1
        </DataArray>
        <DataArray type="Float64" Name="dHdT" format="ascii" RangeMin="25.815663093738173" RangeMax="26.050033039051563">
          25.81597911689976 25.81575361709833 25.81625790998705 25.833509863214715 25.81727708069432 25.81659566205131
          25.816199699148502 25.8159181753566 25.816095652479785 25.81639349497622 25.816403450858417 25.8171012181817
          25.81603193042729 25.818342140433998 25.897424988940763 25.81873525405064 25.820426541503004 25.817025849679755
          25.816407065090353 25.816674974392086 25.81738106348763 25.823959287554633 25.81651298146897 25.81685134489443
          25.81681124528199 25.815714630615012 25.815750055246095 25.815688862176593 25.815739763501693 25.815790664826793
          25.815663093738173 25.815729471757294 25.815795849776414 25.819539561305817 25.8188734765332 25.81792731416916
          25.817516096326933 25.817713258940763 25.81791042155459 25.8160258040996 25.816119281914442 25.81598561993847
          25.816080561104382 25.815953202590492 25.815836328585625 25.815913703234514 25.816212759729282 25.81617550227029
          25.8159910778834 25.815945435777337 25.816041840294318 25.81587420387853 25.8161382448113 25.81864657859589
          25.81869865482679 25.81910344432214 25.818750731057683 25.832217636506396 25.85168607471143 25.846539812084796
          25.822251009889605 25.822715598231373 25.825690228469675 25.82538835900348 25.819274175924694 25.819207386759874
          25.819126759148126 25.835671427594896 25.8329337509842 25.81996825459779 25.822847053317485 25.821841363035006
          25.82287080241063 25.81729447886799 25.817428766913185 25.817286544739215 25.817398614313692 25.816753722263677
          25.8167000690205 25.81674196175133 25.81759239487486 25.817588224940646 25.816858597153203 25.817382543732563
          25.8173218400898 25.81673136819827 25.81750733400271 25.82643543346063 25.828911953143074 25.828414233459846
          25.81724230618956 25.81726028204926 25.817315319532 25.81733926419699 25.816765238565562 25.81669065850891
          25.816760063894264 25.817278257908963 25.81736320886197 25.816829469279618 25.817768686978173 25.81781823626337
          25.817098366105988 25.81707906648178 25.81786631490295 25.817945612357853 25.81722479313931 25.81786778554857
          25.817059766857575 25.818024909812756 25.821060363600367 25.821065069432173 25.821538114102285 25.821545108769882
          25.819277413881764 25.819308483529127 25.81941899003395 25.82106977526398 25.821552103437487 25.819529496538767
          25.849897270812622 25.849018991737125 25.858391196683705 25.85709799573504 25.83548971719852 25.840117267900247
          25.839523485156594 25.846631798072117 25.85362204039327 25.839944345972487 25.88168793636391 25.879189883182786
          25.850485709287415 25.87258012604913 25.843484848351753 25.8491689218637 25.83681476500029 25.840573356709694
          25.841846813220894 25.846898557727247 25.839173080327782 25.870363759086413 25.868108701697082 25.8621884424154
          25.893441948917545 25.82746289599666 25.827399296199474 25.829463968330202 25.829354195567593 25.824459814492045
          25.825607324468635 25.825651042592757 25.82733569640229 25.82924442280499 25.82569476071687 25.834989566739925
          25.83458639868062 25.827256914267668 25.834433786153596 25.843864747801806 25.842886000961872 25.83012418339435
          25.829722843960596 25.840267553665743 25.82863163045067 25.856365785895456 25.854595623514513 25.834916104696617
          25.822239867829985 25.822130573560393 25.82318713914605 25.823020522247216 25.82034117093771 25.82086135710592
          25.82077318457884 25.821818610795987 25.822561217083553 25.820513957280333 25.82546364245572 25.825152871917957
          25.821059711766065 25.82433223044589 25.821390922501326 25.821967092837372 25.819914062849406 25.820197380909928
          25.82116590270148 25.821665656856013 25.820051859310954 25.823308783371683 25.820908611992696 25.828301100185584
          25.827805523151138 25.82173765925969 25.821554410356605 25.826526494210185 25.821672995115126 25.83113793184209
          25.83046597505357 25.822603477100852 25.82874176547814 25.82494544541485 25.82184115948646 25.82660794680705
          25.821776248611073 25.83326588286034 25.83246859629594 25.82365681164563 25.823370303692784 25.830422417835027
          25.822628681637298 25.83406522795834 25.83322101588514 25.82365550535797 25.831053655613502 25.827870794176974
          25.821677611705024 25.828342281999593 25.82186374747242 25.81854121796801 25.818520926848976 25.81871510055894
          25.81869503682435 25.81773173800343 25.8177521408627 25.817780913795982 25.818500635729944 25.818674973089763
          25.817809686729255 25.819063644259295 25.819022890076898 25.817888753070633 25.81895497887366 25.81934355443965
          25.819263717590985 25.818003979168832 25.81797965343295 25.819055834669513 25.81791943084714 25.819448803510582
          25.819350801827902 25.818011890313166 25.819103856253328 25.818773103795163 25.818801961046596 25.817893056042585
          25.817874329983034 25.818645542758354 25.81867613349649 25.817865125968865 25.81883081829803 25.817855603923487
          25.818706724234623 25.817525995164914 25.817430925928733 25.81814153263376 25.819080317683024 25.81982089089028