<?xml version="1.0"?>
<VTKFile type="UnstructuredGrid" version="0.1" byte_order="LittleEndian" header_type="UInt32" compressor="vtkZLibDataCompressor">
  <UnstructuredGrid>
    <Piece NumberOfPoints="629" NumberOfCells="353">
      <PointData>
        <DataArray type="Int32" Name="libmesh_node_id" format="ascii" RangeMin="360" RangeMax="5912">
          360 361 362 363 364 365
          389 390 391 417 418 419
          420 421 422 446 447 448
          474 475 476 477 478 479
          503 504 505 531 532 533
          534 536 560 561 562 570
          571 572 573 574 575 576
          577 578 579 580 581 582
          583 584 585 586 587 588
          589 590 591 592 593 594
          595 596 597 598 599 600
          601 602 645 646 649 650
          652 653 655 656 658 659
          660 661 662 663 664 665
          666 667 668 669 670 671
          672 673 674 675 676 677
          678 679 680 681 682 683
          684 685 686 687 688 689
          690 691 692 693 694 695
          696 697 698 699 700 701
          702 703 704 705 706 707
          708 709 710 711 712 713
          714 715 716 717 718 719
          804 805 806 807 808 809
          810 811 812 813 814 815
          816 817 848 849 850 851
          852 853 854 855 856 857
          858 859 860 861 862 863
          864 865 866 867 868 869
          870 871 936 937 938 939
          940 941 942 943 944 945
          946 947 948 949 950 951
          952 953 954 955 956 957
          958 959 960 961 962 963
          964 965 966 967 968 969
          970 971 972 973 974 975
          976 977 978 979 980 981
          982 983 984 985 986 987
          988 989 990 991 992 993
          994 995 996 997 998 999
          1000 1001 1002 1003 1004 1005
          1006 1007 1008 1009 1010 1011
          1012 1013 1014 1015 1016 1017
          1018 1019 1020 1021 1022 1023
          1024 1025 1026 1027 1028 1029
          1030 1031 1032 1033 1034 1035
          1036 1037 1038 1039 1040 1041
          1042 1043 1044 1045 1046 1047
          1048 1049 1050 1051 1052 1053
          1054 1055 1056 1057 1058 1059
          1060 1061 1062 1063 1064 1065
          1066 1067 1068 1069 1070 1071
          1072 1073 1074 1075 1076 1077
          1078 1079 1080 1081 1084 1085
          1086 1088 1090 1091 1092 1093
          1094 1095 1096 1097 1098 1099
          1100 1101 1102 1103 1104 1105
          1106 1107 1108 1109 1110 1341
          1342 1343 1344 1345 1346 1347
          1348 1349 1350 1351 1352 1353
          1354 1355 1356 1357 1358 1359
          1360 1361 1362 1363 1364 1395
          1396 1397 1398 1399 1400 1401
          1402 1403 1404 1405 1406 1407
          1408 1409 1410 1411 1412 1413
          1414 1415 1416 1417 1418 1419
          1420 1421 1422 1423 1424 1425
          1426 1427 1428 1429 1430 1431
          1432 1433 1434 1435 1436 1437
          1438 1439 1440 1441 1442 1443
          1444 1445 1446 1447 1448 1449
          1450 1451 1452 1453 1454 1455
          1456 1457 1458 1509 1510 1511
          1512 1513 1514 1515 1516 1517
          1518 1519 1520 1521 1522 1523
          1524 1525 1526 1527 1528 1529
          1530 1531 1532 1533 1534 1535
          1536 1537 1538 1539 1540 1541
          1542 1543 1544 1545 1546 1547
          1548 1549 1550 1551 1552 1553
          1554 1555 1556 1557 1558 1559
          1560 1561 1562 1563 1564 1565
          1566 1567 1568 1569 1570 1571
          1572 1573 1574 1575 1576 1577
          1578 1579 1580 1581 1582 1583
          1584 1585 1586 1587 1588 1589
          1590 1591 1592 1593 1594 1595
          1596 1597 1598 1599 1600 1601
          1602 1624 1626 1631 1737 1738
          1739 1740 1741 1742 1743 1744
          1745 1746 1747 1748 1749 1750
          2594 2595 2596 2597 2598 2599
          2600 2601 2602 2603 2604 2605
          2606 2607 2608 2609 2610 2611
          2612 2613 2614 2615 2616 2617
          2618 2619 2620 2621 2622 2623
          2624 2625 2626 2627 2628 2629
          2630 2631 2632 2633 2634 2635
          2636 2637 2638 2639 2640 2641
          2642 2643 2644 2645 2646 2647
          2648 2649 2650 2651 2652 2653
          2654 5855 5857 5859 5860 5862
          5864 5897 5898 5902 5905 5907
          5908 5909 5910 5911 5912 818
          822 819 823 825 827
        </DataArray>
        <DataArray type="Float64" Name="bounds" format="ascii" RangeMin="0" RangeMax="0">
          0 0 0 0 0 0
          0 0 0 0 0 0
          0 0 0 0 0 0
          0 0 0 0 0 0
          0 0 0 0 0 0
          0 0 0 0 0 0
          0 0 0 0 0 0
          0 0 0 0 0 0
          0 0 0 0 0 0
          0 0 0 0 0 0
          0 0 0 0 0 0
          0 0 0 0 0 0
          0 0 0 0 0 0
          0 0 0 0 0 0
          0 0 0 0 0 0
          0 0 0 0 0 0
          0 0 0 0 0 0
          0 0 0 0 0 0
          0 0 0 0 0 0
          0 0 0 0 0 0
          0 0 0 0 0 0
          0 0 0 0 0 0
          0 0 0 0 0 0
          0 0 0 0 0 0
          0 0 0 0 0 0
          0 0 0 0 0 0
          0 0 0 0 0 0
          0 0 0 0 0 0
          0 0 0 0 0 0
          0 0 0 0 0 0
          0 0 0 0 0 0
          0 0 0 0 0 0
          0 0 0 0 0 0
          0 0 0 0 0 0
          0 0 0 0 0 0
          0 0 0 0 0 0
          0 0 0 0 0 0
          0 0 0 0 0 0
          0 0 0 0 0 0
          0 0 0 0 0 0
          0 0 0 0 0 0
          0 0 0 0 0 0
          0 0 0 0 0 0
          0 0 0 0 0 0
          0 0 0 0 0 0
          0 0 0 0 0 0
          0 0 0 0 0 0
          0 0 0 0 0 0
          0 0 0 0 0 0
          0 0 0 0 0 0
          0 0 0 0 0 0
          0 0 0 0 0 0
          0 0 0 0 0 0
          0 0 0 0 0 0
          0 0 0 0 0 0
          0 0 0 0 0 0
          0 0 0 0 0 0
          0 0 0 0 0 0
          0 0 0 0 0 0
          0 0 0 0 0 0
          0 0 0 0 0 0
          0 0 0 0 0 0
          0 0 0 0 0 0
          0 0 0 0 0 0
          0 0 0 0 0 0
          0 0 0 0 0 0
          0 0 0 0 0 0
          0 0 0 0 0 0
          0 0 0 0 0 0
          0 0 0 0 0 0
          0 0 0 0 0 0
          0 0 0 0 0 0
          0 0 0 0 0 0
          0 0 0 0 0 0
          0 0 0 0 0 0
          0 0 0 0 0 0
          0 0 0 0 0 0
          0 0 0 0 0 0
          0 0 0 0 0 0
          0 0 0 0 0 0
          0 0 0 0 0 0
          0 0 0 0 0 0
          0 0 0 0 0 0
          0 0 0 0 0 0
          0 0 0 0 0 0
          0 0 0 0 0 0
          0 0 0 0 0 0
          0 0 0 0 0 0
          0 0 0 0 0 0
          0 0 0 0 0 0
          0 0 0 0 0 0
          0 0 0 0 0 0
          0 0 0 0 0 0
          0 0 0 0 0 0
          0 0 0 0 0 0
          0 0 0 0 0 0
          0 0 0 0 0 0
          0 0 0 0 0 0
          0 0 0 0 0 0
          0 0 0 0 0 0
          0 0 0 0 0 0
          0 0 0 0 0 0
          0 0 0 0 0 0
          0 0 0 0 0 0
          0 0 0 0 0
        </DataArray>
        <DataArray type="Float64" Name="gradient_error" format="ascii" RangeMin="1.1559895718423485e-10" RangeMax="8.799704698152304e-7">
          4.067210306140215e-9 2.307001022781567e-9 2.0211821984447384e-9 1.1721607269639621e-9 2.2339848332823678e-10 1.9243219432929046e-10
          5.467917394229185e-10 3.231392554831861e-10 1.614659053303441e-10 1.2189793139256401e-8 4.237190108527366e-9 2.534867421479163e-9
          1.904091405271092e-9 4.4046822214591306e-10 3.513788026584215e-10 3.1966721970134244e-9 1.5890251564199141e-9 4.643807096663327e-10
          1.9452561678620885e-7 3.619545755542562e-8 9.551707203929741e-9 9.615614087005262e-9 2.677731616052198e-9 8.331361014610165e-10
          3.888018735477754e-9 1.6321034094627303e-9 4.0104584257905873e-10 6.98531193402794e-8 2.990240380456324e-8 1.131992404173394e-7
          7.290974758204773e-9 7.644382144485277e-9 2.648163483757746e-9 1.8289379652100226e-9 5.483245143271569e-10 2.232048001652193e-8
          2.9548115062714963e-8 1.2705028817991062e-7 4.1867950933735147e-7 1.1157584722139503e-7 2.19024336182821e-7 3.0987083411793734e-7
          1.1301621553521584e-8 9.00253973719738e-8 1.8738155665023517e-7 2.654527879189906e-8 2.3390845491094335e-8 4.0006838480901735e-8
          1.07147489800866e-8 8.634164997497709e-8 2.567712020159031e-7 4.7461656098546186e-7 2.377561288594516e-7 1.7137196965505056e-8
          6.200827549135438e-9 4.775229813407599e-9 6.227395324189407e-8 3.471841771413578e-8 1.5956394904999578e-9 3.5011917732623995e-8
          1.7828178801431893e-8 3.855949815292947e-9 3.932174612346681e-9 1.8383749708269109e-9 1.6224056792723907e-7 2.0496655146812043e-7
          1.555051679106728e-7 7.222091306128177e-9 2.1203937655455006e-7 1.485516208304161e-7 5.961753385869727e-7 3.2939115685552014e-7
          6.635704178440785e-8 5.6560110799164045e-8 7.695152571573899e-7 6.537318972735067e-7 4.100798287913693e-8 1.1089778030346428e-7
          2.19776675638839e-7 3.992997483160983e-7 3.2321804728991335e-7 1.4540235294027304e-7 2.543299659893144e-7 4.499010750283917e-7
          2.159279650972701e-7 1.58904017569057e-7 2.603082456425599e-7 2.832048547054138e-7 3.224300373453933e-7 4.387341932844056e-7
          3.1288914071183574e-7 7.713302422547467e-8 1.4408237710573703e-7 3.414421791574942e-7 1.5825556708692157e-7 2.612461147698796e-7
          1.0193448782645495e-7 2.0592546011568041e-7 1.742390216204708e-7 2.6786563296424003e-7 1.9256196326697226e-7 1.9209490956995332e-7
          2.7467194990468655e-7 2.5796798770880117e-7 3.017808720655603e-7 2.864720606039836e-7 9.80504548873024e-8 1.751678671411967e-7
          1.953403560356792e-7 2.4882470488330903e-7 7.65730767380532e-8 1.1876533328725813e-7 2.1270011395417029e-7 2.2743185614910358e-7
          4.281241533015557e-8 2.361921431809694e-7 1.8632793271789657e-7 1.4063768274900927e-7 2.0930147948256377e-7 1.3030477950083843e-7
          1.3360979254213621e-7 2.1967244674691465e-7 2.4982417564808127e-7 2.232136770654616e-7 4.7784088915136515e-8 3.254209580134154e-8
          2.629875400629146e-7 1.975333852280099e-7 2.4242727438835875e-8 2.908295837388774e-7 2.0634745748638414e-7 3.337365412705688e-8
          1.1093717982585631e-7 8.912490348486251e-8 2.0385090685541264e-7 2.8653737629334464e-7 3.2944781926850887e-7 1.8231685238730388e-7
          5.221438174870923e-10 1.5229860415068322e-9 1.347313304835317e-9 3.150945964315488e-9 2.540676123205722e-10 7.845764760454329e-10
          2.430625787704437e-10 5.635088793335321e-10 1.2201570887901513e-9 3.417313564610677e-10 2.1724827921835415e-9 4.778905887124144e-9
          1.3150853397702938e-9 8.839551798966205e-10 5.5999835581921815e-8 6.740972124058375e-8 1.0363343011412612e-7 1.1771014814949113e-7
          4.665772273034255e-8 8.985690764036944e-8 3.0474190280191446e-9 5.241919707789794e-9 6.10675216962641e-9 6.9174055741291854e-9
          1.512670246463304e-7 1.680105750583985e-7 1.3305609255039636e-7 7.436420387560443e-9 3.6667517742231793e-8 7.401702671588732e-8
          2.5407910400729192e-8 5.595189368520698e-8 3.397675827846957e-9 8.32874016555893e-9 8.177766936070199e-9 1.1136653568954287e-7
          8.649587696968476e-8 1.3259804503270904e-8 8.799704698152304e-7 7.504810259077558e-7 5.210847571770862e-7 8.108890172210806e-7
          6.708647350118775e-7 7.259090849172612e-7 7.816505691676292e-7 4.173387779596057e-7 5.463572161413414e-7 5.358976004506229e-7
          4.5075244653364014e-7 7.017541982745706e-7 8.31581948817005e-7 6.753756543230771e-7 1.3861060301843288e-7 1.3560389763803347e-7
          1.3271714458189472e-7 1.0406853584998268e-7 1.0760820244015745e-7 1.23693234914385e-7 1.1896362000712485e-7 1.4290423537018606e-7
          1.1212187048580147e-7 1.291132648524705e-7 1.3166263473124053e-7 1.390477418069079e-7 1.336929117132559e-7 1.4633937421730398e-7
          7.254667949837343e-8 1.0167394388850714e-7 9.902231871055854e-8 1.0569966337655662e-7 1.3882106052529688e-7 1.5201127793937573e-7
          1.4927373910992362e-7 1.1796497346519018e-7 1.3587391243275627e-7 1.555545512419757e-7 1.2462089290443017e-7 1.43210784595504e-7
          1.4599584766215647e-7 1.5330443574284816e-7 1.6034863175287448e-7 8.14750209749445e-8 1.1118220292387238e-7 1.1750295814317143e-7
          1.508131413090109e-7 1.662848955670531e-7 1.6229963216676825e-7 1.3200320002070835e-7 1.513064481838896e-7 1.6956407621914665e-7
          1.402064322329774e-7 1.6025756505291652e-7 1.572869787033692e-7 1.6796869427087276e-7 1.7623480699311548e-7 9.184382945982586e-8
          1.2455587132010302e-7 1.32428975701435e-7 1.6634554949629426e-7 1.82829540843746e-7 1.7738991794921447e-7 1.493564893582545e-7
          1.701714791459244e-7 1.8583158961656075e-7 1.5961049149161413e-7 1.811797420874439e-7 1.7018014612977133e-7 1.8520569749918525e-7
          1.9495682111522422e-7 1.0510028267421861e-7 1.4125088063320593e-7 1.5118626625426023e-7 1.8480574122089892e-7 2.0206044983546355e-7
          1.9493925862654183e-7 1.7116330599835295e-7 1.934318179301046e-7 2.0459719017331863e-7 1.8444041395890818e-7 2.0665539577538587e-7
          1.8501645587894854e-7 2.0556203285168325e-7 2.1653905652693943e-7 1.2263268429039268e-7 1.6246134709310234e-7 1.7560787618598418e-7
          2.0686212438861346e-7 2.240335719018963e-7 2.147487635188503e-7 1.9982392339584803e-7 2.2108659834468378e-7 2.2544686126189374e-7
          2.1745700231663258e-7 2.3797798785248852e-7 1.7845215391990355e-7 2.2789576422958787e-7 2.406663681739362e-7 1.465225368754434e-7
          1.910783183475781e-7 2.0898683596796352e-7 2.3401642571056549e-7 1.5034951063520037e-7 1.4667682604657875e-7 1.6527670111179575e-7
          1.603013138457031e-7 1.3082292341595977e-7 1.7022145690130464e-7 1.2128578846879517e-7 1.3512966638208124e-7 1.3343797814423143e-7
          1.3623517834059397e-7 1.8020389158839108e-7 1.739258016448274e-7 1.8653432944490996e-7 1.4897354429536725e-7 1.2143478304396038e-7
          1.7498311919813695e-7 1.228837176940211e-7 1.795370156522152e-7 9.142921338391794e-8 1.3652398323061767e-7 1.3624026834490242e-7
          1.9288245543398474e-7 1.993596686653543e-7 1.5336615926655136e-7 2.4918788865207353e-7 2.3657882260746348e-7 2.3782279912266317e-7
          2.5781114631930525e-7 2.480976248504441e-7 2.606931162615264e-7 2.8014960332509714e-7 1.9225349110617103e-7 2.5500297533876054e-7
          2.705806913263468e-7 1.817211358256087e-7 2.299109497854906e-7 2.5386373810653793e-7 2.672091656192403e-7 2.7695527488627463e-7
          2.596777880787615e-7 2.330701412143675e-7 2.782908616001104e-7 2.7111924612752925e-7 2.0229184823304833e-7 2.871854385605169e-7
          3.0439810415878517e-7 2.2786204879291542e-7 3.0754266483492524e-7 1.2282408003723288e-7 1.8387982933830802e-7 1.2201405360177152e-7
          1.8785910112360112e-7 8.511093442497718e-8 1.355532015150423e-7 1.3416290998317644e-7 2.0587249372295005e-7 2.1217931056390945e-7
          1.554274199527919e-7 1.2040991659214545e-7 1.9131767600849514e-7 1.1790489649598429e-7 1.9416674281631295e-7 7.863643798944252e-8
          1.3180466666063688e-7 1.2827861814014877e-7 2.1815989627548247e-7 2.2375229589551128e-7 1.5386523752859623e-7 8.018271636400261e-9
          5.268088313808385e-9 1.0948393975031836e-8 5.0767448087842205e-8 2.1451084807166235e-8 1.449227179458533e-8 3.1644331558062825e-8
          1.5284812462879268e-9 4.6771404095432865e-9 4.151746140014219e-9 2.517904991216507e-9 7.533458782004424e-9 1.2521215028283448e-8
          3.626351870485153e-9 1.034952554134932e-9 7.37609010439764e-10 2.7930826409654577e-9 2.0445577725276435e-9 3.3101479326131106e-10
          1.415047722343455e-9 8.753929652557023e-10 4.402654667445959e-10 1.2960329040898287e-9 3.3573820816794953e-10 3.6164113082866974e-9
          6.090973130536898e-9 5.482084040606659e-9 7.221405814274693e-9 1.4041122304370428e-9 2.0063589941443303e-9 2.4612020342689533e-9
          7.34775677292662e-9 8.351838498012488e-9 2.608605757851618e-9 1.1073438760097029e-8 8.809253712541401e-9 9.629249169239229e-9
          6.977081193852005e-8 6.142606347325339e-8 4.2849040056958474e-8 5.1575374398023836e-8 7.957345570119916e-9 5.12756649303589e-8
          3.3218857590793436e-8 6.5450686649857735e-9 2.4272016640663566e-8 3.3379936857527624e-8 1.5162050251227973e-8 1.0411284657855708e-7
          1.1455038671328772e-7 1.5904576270684748e-7 1.6911954107339093e-7 9.254696904585591e-8 1.4671790811520324e-7 2.0663721690074453e-8
          2.7070166034364636e-8 3.6723611186711006e-8 1.8288568258239686e-8 2.139786788351379e-7 2.2368869543349417e-7 2.0088884718455055e-7
          3.347661037865482e-8 8.015735599563115e-8 1.325365331761217e-7 9.300389242590174e-9 1.0930240756687723e-8 1.8491571035661225e-7
          1.2560092270785274e-8 1.0338198005525902e-8 6.809633471920424e-9 3.964776916356392e-8 2.4945269507441794e-8 5.816762253317104e-9
          2.729211116676275e-8 1.8782519820165776e-8 3.281068938314945e-9 1.0242769851319662e-8 1.0272928473568806e-8 5.317149238894319e-9
          4.323938315345939e-9 1.641878719623841e-8 1.2085096182194808e-8 2.4257243255045367e-9 8.930647472884455e-9 6.642027081959857e-9
          3.3307273917975577e-9 7.751405168151208e-9 4.353406691035261e-9 1.2864220828937756e-7 1.2483462788002778e-7 1.3718572666071474e-7
          1.3289479742300733e-7 1.321659336571441e-7 1.4153273274561982e-7 1.1236927415322876e-7 1.2154543323605554e-7 1.1921550563054623e-7
          1.2416887827206856e-7 1.4572924503205195e-7 1.4095496696598683e-7 1.508995318340955e-7 1.3072159231888233e-7 9.287426644047474e-8
          9.121609366623647e-8 9.157974379586947e-8 1.2413751596254618e-7 1.2664074349649506e-7 1.1887916647604835e-7 1.1688511761599213e-7
          9.056189968254024e-8 1.2910296056439468e-7 1.2080194885821775e-7 8.955792089199821e-8 1.111175894556017e-7 1.0963271926943811e-7
          1.1250093715204079e-7 9.084599037404305e-8 8.945566181434649e-8 1.3144618800962234e-7 1.2257171002706636e-7 8.78252610761825e-8
          1.3363043302983263e-7 1.241576111943382e-7 8.806533325464995e-8 1.1369723204451039e-7 1.1468478935884383e-7 1.3574597433764074e-7
          1.4602681557015e-7 1.3937037788483216e-7 1.5066176871516726e-7 1.162597500981406e-7 1.2672593894562542e-7 1.291626213169592e-7
          1.5630765680265927e-7 1.6195315954550234e-7 1.371921277931102e-7 1.4301610389468696e-7 1.5542375482374966e-7 1.1939235950942594e-7
          1.3142258358272303e-7 1.6783140575281237e-7 1.4345280765602013e-7 8.680706902761643e-8 8.559579396596429e-8 1.3561702049611517e-7
          1.2553601122597053e-7 8.19923231463398e-8 1.3715900284358245e-7 1.2674189406409472e-7 8.438451890431216e-8 1.1545500195582589e-7
          1.047964851975536e-7 8.135026719149255e-8 7.668961146041728e-8 1.3814605053951623e-7 1.275461300781642e-7 7.127203975715077e-8
          1.3876248808832513e-7 1.2759831127196234e-7 6.26691166546835e-8 9.889916087294015e-8 9.751192900464928e-8 7.331121522915185e-8
          6.649661378605609e-8 1.3888126505679061e-7 1.2697145807393155e-7 6.159942003232723e-8 1.382437535674398e-7 1.2567960059477955e-7
          4.9111835057954206e-8 9.541101610600775e-8 9.284035082515504e-8 6.204630517334797e-8 5.620204243508284e-8 1.368978788002015e-7
          1.2362613273945958e-7 5.0316424102371325e-8 1.3479908636994475e-7 1.2074042216297065e-7 4.1363781251683365e-8 8.955963271583578e-8
          8.548682548148165e-8 2.2412023435587897e-8 4.682031334522092e-8 2.9348733683475095e-8 1.2626888328094463e-7 1.2477049632873944e-7
          1.1467336482690023e-7 1.0650092558545172e-7 1.0442858106428438e-7 1.1298533751702564e-7 1.0958714233726213e-7 1.2327210937653425e-7
          1.215420939697669e-7 1.1267335908907253e-7 8.258827884762412e-8 1.012001787053118e-7 1.0450091984762402e-7 1.1981207856299949e-7
          2.8150284418634472e-8 2.3634302809912058e-8 3.7021374836999886e-8 8.097075449560819e-8 7.708875862984476e-8 5.952263237503069e-8
          6.348909561945853e-8 1.9118321201189647e-8 4.195650612021661e-8 4.60074367433089e-8 1.0321833028596653e-7 9.902415564049742e-8
          1.0318902196901361e-7 1.1875014210874057e-7 1.1888490547044543e-7 1.1225971248815073e-7 1.1176530655365773e-7 9.339760241548644e-8
          1.1973115845014567e-7 1.133396034137371e-7 9.482998099502833e-8 1.0563451950585605e-7 1.047804709985749e-7 1.0694804837732854e-7
          9.376691063987514e-8 9.183063985751938e-8 1.216672702815954e-7 1.1490624806786324e-7 8.989436907516365e-8 1.0814522585413114e-7
          1.189982917743714e-7 1.152229113285996e-7 1.2819701887150032e-7 1.256544700037031e-7 1.0820306387028929e-7 1.1807682151779744e-7
          1.1794761319617245e-7 1.3739574596862923e-7 1.3608602867880658e-7 1.279505791653056e-7 4.138721294042365e-8 4.743385581887876e-8
          6.358649803302762e-8 6.604272867567971e-8 3.302770951507079e-8 5.954039113201842e-8 2.946514830082231e-8 4.6320883936987106e-8
          5.034557232791267e-8 4.0491058710337824e-8 2.9313710475759375e-8 5.653735279827957e-8 2.666815374968203e-8 5.357868463496617e-8
          2.008576317857067e-8 3.731432447561615e-8 3.459211524174151e-8 2.4341336300951234e-8 5.034285687186717e-8 1.631288979535344e-8
          3.1920834990780465e-8 7.464777829274097e-9 7.789946768169751e-9 2.5795173961976234e-9 2.53613410267375e-9 8.115115707065405e-9
          2.492750809149877e-9 1.3345187595249707e-7 1.8724934778217008e-7 5.51156157772723e-8 2.4104681961184314e-7 1.2426475731055746e-7
          1.7826176047911282e-7 3.484354070218481e-8 4.6179580714905554e-8 2.3225876364766818e-7 5.751562072762629e-8 2.458590419740928e-10
          1.1559895718423485e-10 7.135927493607603e-10 2.9368704935789933e-10 1.1813264567474279e-9 4.717751415315637e-10
        </DataArray>
        <DataArray type="Float64" Name="gradient_matprop_error" format="ascii" RangeMin="0" RangeMax="0">
          0 0 0 0 0 0
          0 0 0 0 0 0
          0 0 0 0 0 0
          0 0 0 0 0 0
          0 0 0 0 0 0
          0 0 0 0 0 0
          0 0 0 0 0 0
          0 0 0 0 0 0
          0 0 0 0 0 0
          0 0 0 0 0 0
          0 0 0 0 0 0
          0 0 0 0 0 0
          0 0 0 0 0 0
          0 0 0 0 0 0
          0 0 0 0 0 0
          0 0 0 0 0 0
          0 0 0 0 0 0
          0 0 0 0 0 0
          0 0 0 0 0 0
          0 0 0 0 0 0
          0 0 0 0 0 0
          0 0 0 0 0 0
          0 0 0 0 0 0
          0 0 0 0 0 0
          0 0 0 0 0 0
          0 0 0 0 0 0
          0 0 0 0 0 0
          0 0 0 0 0 0
          0 0 0 0 0 0
          0 0 0 0 0 0
          0 0 0 0 0 0
          0 0 0 0 0 0
          0 0 0 0 0 0
          0 0 0 0 0 0
          0 0 0 0 0 0
          0 0 0 0 0 0
          0 0 0 0 0 0
          0 0 0 0 0 0
          0 0 0 0 0 0
          0 0 0 0 0 0
          0 0 0 0 0 0
          0 0 0 0 0 0
          0 0 0 0 0 0
          0 0 0 0 0 0
          0 0 0 0 0 0
          0 0 0 0 0 0
          0 0 0 0 0 0
          0 0 0 0 0 0
          0 0 0 0 0 0
          0 0 0 0 0 0
          0 0 0 0 0 0
          0 0 0 0 0 0
          0 0 0 0 0 0
          0 0 0 0 0 0
          0 0 0 0 0 0
          0 0 0 0 0 0
          0 0 0 0 0 0
          0 0 0 0 0 0
          0 0 0 0 0 0
          0 0 0 0 0 0
          0 0 0 0 0 0
          0 0 0 0 0 0
          0 0 0 0 0 0
          0 0 0 0 0 0
          0 0 0 0 0 0
          0 0 0 0 0 0
          0 0 0 0 0 0
          0 0 0 0 0 0
          0 0 0 0 0 0
          0 0 0 0 0 0
          0 0 0 0 0 0
          0 0 0 0 0 0
          0 0 0 0 0 0
          0 0 0 0 0 0
          0 0 0 0 0 0
          0 0 0 0 0 0
          0 0 0 0 0 0
          0 0 0 0 0 0
          0 0 0 0 0 0
          0 0 0 0 0 0
          0 0 0 0 0 0
          0 0 0 0 0 0
          0 0 0 0 0 0
          0 0 0 0 0 0
          0 0 0 0 0 0
          0 0 0 0 0 0
          0 0 0 0 0 0
          0 0 0 0 0 0
          0 0 0 0 0 0
          0 0 0 0 0 0
          0 0 0 0 0 0
          0 0 0 0 0 0
          0 0 0 0 0 0
          0 0 0 0 0 0
          0 0 0 0 0 0
          0 0 0 0 0 0
          0 0 0 0 0 0
          0 0 0 0 0 0
          0 0 0 0 0 0
          0 0 0 0 0 0
          0 0 0 0 0 0
          0 0 0 0 0 0
          0 0 0 0 0 0
          0 0 0 0 0 0
          0 0 0 0 0
        </DataArray>
        <DataArray type="Float64" Name="initial_marker" format="ascii" RangeMin="0" RangeMax="2">
          0 0 0 0 0 0
          0 0 0 0 0 0
          0 0 0 0 0 0
          0 0 0 0 0 0
          0 0 0 1 0 2
          0 0 0 0 0 0
          0 0 0 0 0 0
          0 0 0 0 0 0
          0 2 0 0 0 0
          0 0 0 0 0 0
          0 0 0 0 2 0
          0 0 0 0 0 0
          0 0 0 0 0 0
          0 0 0 0 0 0
          0 0 0 0 0 0
          0 2 0.5 0 1 0
          0 0 1 0 0 1
          0.5 0 0 0 2 1
          1.5 0 0 0 1 0.5
          0 1 0.5 0 0 0
          2 2 2 0 0 0
          1 0.5 0 1 0.5 0
          0 0 2 2 2 0
          0 0 0 0 0 0
          0 0 0 0 0 0
          0 0 0 0 0 0
          0 0 0 0 0 0
          0 0 0 0 0 0
          0 0 0 0 0 0
          0 0 0 0 0 0
          0 0 0 0 0 0
          0 0 0 0 0 0
          0 0.5 1 0.5 0.25 0
          1 0.75 0 0 0 0.25
          2 1 0.5 1.5 0 0
          0 1 1 0 1 1
          0 0.5 0.5 2 2 2
          1 0.5 0.25 1.5 1.25 0.5
          2 1.5 0 0.5 0.5 2
          2 2 1 1 0.75 2
          1.75 1 2 2 0.3333333333333333 0.75
          1.25 2 2 2 1 1
          1 2 2 1 2 2
          0.6666666666666666 1.5 1.5 2 2 2
          2 1 1 2 2 1
          2 2 0.5 1.5 1.5 2
          2 2 2 0 0 0.5
          0.25 0 0.5 0 0 0
          0 1 0.5 1 0 0
          0.5 0 0.5 0 0 0
          1 1 0 1 1 2
          2 1 2 2 0.5 1.5
          1.5 2 2 2 2 1
          1 2 2 1 0.5 1.5
          1.5 2 2 0 0.5 0
          0.5 0 0 0 1 1
          0 0 0.5 0 0.5 0
          0 0 1 1 0 0
          0 0 0 0 0 0
          0 0 0 0 0 0
          0 0 0 0 0 0
          0 0 0 0 0 0
          0 0 0 0 0 0
          0 0 0 0 0 0
          0 0 0 0 0 0
          0 0 0 0 0 0
          0 0 0 0 0 0
          0 0 0 0 0 0
          0 0 0 0 0 0
          0 0 0 0 0 0
          0 0 0 0 0 0
          0 0 0 0 0 0
          0 0 0 0 0 0
          0 0 0 0 0 0
          0 0 0 0 0 0
          0 0 0 0 0 0
          0 0 0 0 0 0
          0 0 0 0 0 0
          0 0 0 0 0 0
          0 0 0 0 0 0
          0 0 0 0 0 0
          0 0 0 0 0 0
          0 0 0 0 0 0
          0 0 0 0 0 0
          0 0 0 0 0 0
          0 0 0 0 0 0
          0 0 0 0 0 0
          0 0 0 0 0 0
          0 0 0 0 0 0
          0 0 0 0 0 0
          0 0 0 0 0 0
          0 0 0 0 0 0
          0 0 0 0 0 0
          0 0 0 0 0 0
          0 0 0 0 0 0
          0 0 0 0 0 0
          0 0 0 0 0 0
          0 0 0 0 0 0
          0 0 0 0 0 0
          0 0 0 0 0 0
          0 0 0 0 0 0
          0 0 0 0 0 0
          0 0 0 0 0 0
          0 0 0 0 0 0
          0 0 0 0 0
        </DataArray>
        <DataArray type="Float64" Name="markers_norefine" format="ascii" RangeMin="0" RangeMax="0">
          0 0 0 0 0 0
          0 0 0 0 0 0
          0 0 0 0 0 0
          0 0 0 0 0 0
          0 0 0 0 0 0
          0 0 0 0 0 0
          0 0 0 0 0 0
          0 0 0 0 0 0
          0 0 0 0 0 0
          0 0 0 0 0 0
          0 0 0 0 0 0
          0 0 0 0 0 0
          0 0 0 0 0 0
          0 0 0 0 0 0
          0 0 0 0 0 0
          0 0 0 0 0 0
          0 0 0 0 0 0
          0 0 0 0 0 0
          0 0 0 0 0 0
          0 0 0 0 0 0
          0 0 0 0 0 0
          0 0 0 0 0 0
          0 0 0 0 0 0
          0 0 0 0 0 0
          0 0 0 0 0 0
          0 0 0 0 0 0
          0 0 0 0 0 0
          0 0 0 0 0 0
          0 0 0 0 0 0
          0 0 0 0 0 0
          0 0 0 0 0 0
          0 0 0 0 0 0
          0 0 0 0 0 0
          0 0 0 0 0 0
          0 0 0 0 0 0
          0 0 0 0 0 0
          0 0 0 0 0 0
          0 0 0 0 0 0
          0 0 0 0 0 0
          0 0 0 0 0 0
          0 0 0 0 0 0
          0 0 0 0 0 0
          0 0 0 0 0 0
          0 0 0 0 0 0
          0 0 0 0 0 0
          0 0 0 0 0 0
          0 0 0 0 0 0
          0 0 0 0 0 0
          0 0 0 0 0 0
          0 0 0 0 0 0
          0 0 0 0 0 0
          0 0 0 0 0 0
          0 0 0 0 0 0
          0 0 0 0 0 0
          0 0 0 0 0 0
          0 0 0 0 0 0
          0 0 0 0 0 0
          0 0 0 0 0 0
          0 0 0 0 0 0
          0 0 0 0 0 0
          0 0 0 0 0 0
          0 0 0 0 0 0
          0 0 0 0 0 0
          0 0 0 0 0 0
          0 0 0 0 0 0
          0 0 0 0 0 0
          0 0 0 0 0 0
          0 0 0 0 0 0
          0 0 0 0 0 0
          0 0 0 0 0 0
          0 0 0 0 0 0
          0 0 0 0 0 0
          0 0 0 0 0 0
          0 0 0 0 0 0
          0 0 0 0 0 0
          0 0 0 0 0 0
          0 0 0 0 0 0
          0 0 0 0 0 0
          0 0 0 0 0 0
          0 0 0 0 0 0
          0 0 0 0 0 0
          0 0 0 0 0 0
          0 0 0 0 0 0
          0 0 0 0 0 0
          0 0 0 0 0 0
          0 0 0 0 0 0
          0 0 0 0 0 0
          0 0 0 0 0 0
          0 0 0 0 0 0
          0 0 0 0 0 0
          0 0 0 0 0 0
          0 0 0 0 0 0
          0 0 0 0 0 0
          0 0 0 0 0 0
          0 0 0 0 0 0
          0 0 0 0 0 0
          0 0 0 0 0 0
          0 0 0 0 0 0
          0 0 0 0 0 0
          0 0 0 0 0 0
          0 0 0 0 0 0
          0 0 0 0 0 0
          0 0 0 0 0 0
          0 0 0 0 0 0
          0 0 0 0 0
        </DataArray>
        <DataArray type="Float64" Name="markers_mustrefine" format="ascii" RangeMin="0" RangeMax="2">
          0 0 0 0 0 0
          0 0 0 0 0 0
          0 0 0 0 0 0
          0 0 0 0 0 0
          0 0 0 1 0 2
          0 0 0 0 0 0
          0 0 0 0 0 0
          0 0 0 0 0 0
          0 2 0 0 0 0
          0 0 0 0 0 0
          0 0 0 0 2 0
          0 0 0 0 0 0
          0 0 0 0 0 0
          0 0 0 0 0 0
          0 0 0 0 0 0
          0 2 0.5 0 1 0
          0 0 1 0 0 1
          0.5 0 0 0 2 1
          1.5 0 0 0 1 0.5
          0 1 0.5 0 0 0
          2 2 2 0 0 0
          1 0.5 0 1 0.5 0
          0 0 2 2 2 0
          0 0 0 0 0 0
          0 0 0 0 0 0
          0 0 0 0 0 0
          0 0 0 0 0 0
          0 0 0 0 0 0
          0 0 0 0 0 0
          0 0 0 0 0 0
          0 0 0 0 0 0
          0 0 0 0 0 0
          0 0.5 1 0.5 0.25 0
          1 0.75 0 0 0 0.25
          2 1 0.5 1.5 0 0
          0 1 1 0 1 1
          0 0.5 0.5 2 2 2
          1 0.5 0.25 1.5 1.25 0.5
          2 1.5 0 0.5 0.5 2
          2 2 1 1 0.75 2