<?xml version="1.0"?>
<VTKFile type="UnstructuredGrid" version="0.1" byte_order="LittleEndian" header_type="UInt32" compressor="vtkZLibDataCompressor">
  <UnstructuredGrid>
    <Piece NumberOfPoints="883" NumberOfCells="439">
      <PointData>
        <DataArray type="Int32" Name="libmesh_node_id" format="ascii" RangeMin="60" RangeMax="6029">
          64 65 66 67 68 69
          70 71 72 73 74 75
          76 77 78 79 80 81
          82 83 84 85 86 87
          88 89 90 91 92 93
          94 95 96 97 98 99
          100 101 102 103 104 105
          106 107 108 109 110 111
          144 145 146 147 148 149
          150 151 152 153 154 155
          156 157 158 159 160 161
          162 163 164 165 166 167
          200 201 202 203 204 205
          206 207 208 209 210 211
          212 213 214 215 216 217
          218 219 220 221 222 223
          240 241 242 243 244 245
          246 247 248 249 250 251
          288 289 290 291 292 293
          294 295 296 297 298 299
          300 301 302 303 304 305
          306 307 326 327 328 329
          330 331 332 333 334 335
          372 374 375 376 377 378
          379 380 381 382 383 384
          385 386 387 388 389 390
          391 411 412 413 414 415
          416 417 418 419 458 459
          460 461 462 463 464 465
          466 467 468 469 470 471
          472 473 474 475 495 496
          497 498 499 500 501 502
          503 543 544 545 546 547
          548 549 550 551 552 553
          554 555 556 557 558 559
          579 580 581 582 583 584
          585 586 587 664 667 668
          669 670 671 672 675 677
          678 679 680 681 682 683
          684 685 686 688 689 690
          840 841 842 845 850 851
          853 854 855 856 857 858
          859 862 863 902 908 909
          910 911 912 913 914 915
          916 917 918 919 920 921
          922 923 924 925 926 927
          942 943 944 945 946 947
          948 949 950 951 952 953
          954 955 970 971 972 973
          974 975 976 977 978 979
          980 981 982 983 984 985
          986 987 988 989 1116 1117
          1118 1121 1134 1135 1138 1140
          1142 1143 1144 1145 1146 1147
          1148 1149 1150 1151 1152 1153
          1154 1155 1156 1157 1158 1159
          1160 1161 1162 1163 1164 1165
          1166 1167 1168 1169 1170 1171
          1172 1173 1174 1175 1707 1708
          1709 1712 1715 1749 1757 1758
          1759 1760 1761 1762 1763 1764
          1765 1766 1767 1768 1770 1771
          1772 1773 1774 1775 1776 1777
          1778 1779 1780 1782 1783 1784
          1797 1798 1799 1800 1803 1804
          1805 1807 1808 1809 1811 1813
          2156 2157 2160 2161 2162 2163
          2164 2165 2166 2167 2168 2169
          2170 2171 2172 2173 2174 2175
          2176 2177 2200 2201 2202 2205
          2206 2207 2208 2209 2210 2211
          2212 2213 2214 2215 2216 2217
          2218 2219 2220 2221 2222 2223
          2224 2225 2226 2227 2228 2229
          2788 2789 2790 2793 2796 2810
          2811 2813 2816 2830 2831 2834
          2836 2993 3015 3016 3017 3018
          3019 3020 3021 3022 3023 3024
          3025 3026 3027 3028 3029 3030
          3031 3032 3033 3034 3035 3036
          3037 3038 3048 3053 3054 3055
          3056 3057 3058 3059 3060 3061
          3062 3063 3065 3066 3067 3069
          3071 3074 3076 3077 3078 3079
          3080 3081 3082 3165 3166 3167
          3168 3169 3170 3171 3172 3173
          3174 3178 3179 3181 3182 3183
          3185 3187 3203 3204 3208 3210
          3212 3214 3246 3247 3248 3249
          3250 3251 3252 3253 3254 3255
          3307 3308 3309 3310 3311 3312
          3313 3314 3315 3316 3317 3318
          3319 3320 3321 3322 3323 3329
          3330 3333 3334 3335 3336 3337
          3338 3339 3340 3341 3342 3343
          3344 3345 3346 3347 3348 3349
          3350 3351 3352 3353 3354 3355
          3356 3357 3358 3359 3360 3361
          3362 3363 3364 3365 3366 3367
          3368 3369 3370 3371 3372 3373
          3374 3375 3376 3377 3378 3379
          3380 3381 3382 3383 3384 3385
          3386 3387 3388 3389 3390 3391
          3392 3394 3396 3407 3410 3412
          3414 3421 3422 3425 3426 3427
          3428 3429 3430 3431 3432 3433
          3434 3435 3436 3437 3438 3439
          3440 3441 3442 4854 4855 4856
          4859 4862 4876 4877 4880 4882
          4910 4911 4913 4916 4926 4928
          4930 4944 4945 4947 4950 4960
          4962 4964 4989 4990 4993 4995
          5005 5007 5009 5023 5024 5027
          5029 5785 5786 5787 5788 5789
          5790 5791 5792 5793 5794 5795
          5796 5797 5798 5799 5800 5801
          5802 5803 5804 5805 5806 5807
          5808 5809 5810 5811 5812 5813
          5814 5815 5816 5817 5818 5819
          5820 5821 5822 5823 5824 5825
          5826 5827 5828 5829 5830 5831
          5832 5833 5834 5835 5836 5837
          5838 5839 5840 5841 5842 5843
          5844 5845 5846 5847 5848 5849
          5850 5851 5852 5853 5854 5855
          5856 5857 5858 5859 5860 5861
          5862 5863 5864 5865 5866 5867
          5868 5869 5870 5871 5872 5873
          5874 5875 5876 5877 5878 5879
          5880 5881 5882 5883 5884 5885
          5886 5887 5888 5889 5890 5891
          5892 5893 5976 5977 5978 5979
          5980 5981 5982 5983 5984 5985
          5986 5987 5988 5989 5990 5991
          5992 5993 5994 5995 5996 5997
          5998 5999 6000 6001 6002 6003
          6004 6005 6006 6007 6008 6009
          6010 6011 6012 6013 6014 6015
          6016 6017 6018 6019 6020 6021
          6022 6023 6024 6025 6026 6027
          6028 6029 60 61 62 63
          142 143 198 199 239 282
          284 285 283 286 287 324
          323 325 370 373 371 410
          409 457 494 898 899 900
          903 904 901 905 907 906
          653 960 658 961 965 968
          578
        </DataArray>
        <DataArray type="Float64" Name="bounds" format="ascii" RangeMin="0" RangeMax="0">
          0 0 0 0 0 0
          0 0 0 0 0 0
          0 0 0 0 0 0
          0 0 0 0 0 0
          0 0 0 0 0 0
          0 0 0 0 0 0
          0 0 0 0 0 0
          0 0 0 0 0 0
          0 0 0 0 0 0
          0 0 0 0 0 0
          0 0 0 0 0 0
          0 0 0 0 0 0
          0 0 0 0 0 0
          0 0 0 0 0 0
          0 0 0 0 0 0
          0 0 0 0 0 0
          0 0 0 0 0 0
          0 0 0 0 0 0
          0 0 0 0 0 0
          0 0 0 0 0 0
          0 0 0 0 0 0
          0 0 0 0 0 0
          0 0 0 0 0 0
          0 0 0 0 0 0
          0 0 0 0 0 0
          0 0 0 0 0 0
          0 0 0 0 0 0
          0 0 0 0 0 0
          0 0 0 0 0 0
          0 0 0 0 0 0
          0 0 0 0 0 0
          0 0 0 0 0 0
          0 0 0 0 0 0
          0 0 0 0 0 0
          0 0 0 0 0 0
          0 0 0 0 0 0
          0 0 0 0 0 0
          0 0 0 0 0 0
          0 0 0 0 0 0
          0 0 0 0 0 0
          0 0 0 0 0 0
          0 0 0 0 0 0
          0 0 0 0 0 0
          0 0 0 0 0 0
          0 0 0 0 0 0
          0 0 0 0 0 0
          0 0 0 0 0 0
          0 0 0 0 0 0
          0 0 0 0 0 0
          0 0 0 0 0 0
          0 0 0 0 0 0
          0 0 0 0 0 0
          0 0 0 0 0 0
          0 0 0 0 0 0
          0 0 0 0 0 0
          0 0 0 0 0 0
          0 0 0 0 0 0
          0 0 0 0 0 0
          0 0 0 0 0 0
          0 0 0 0 0 0
          0 0 0 0 0 0
          0 0 0 0 0 0
          0 0 0 0 0 0
          0 0 0 0 0 0
          0 0 0 0 0 0
          0 0 0 0 0 0
          0 0 0 0 0 0
          0 0 0 0 0 0
          0 0 0 0 0 0
          0 0 0 0 0 0
          0 0 0 0 0 0
          0 0 0 0 0 0
          0 0 0 0 0 0
          0 0 0 0 0 0
          0 0 0 0 0 0
          0 0 0 0 0 0
          0 0 0 0 0 0
          0 0 0 0 0 0
          0 0 0 0 0 0
          0 0 0 0 0 0
          0 0 0 0 0 0
          0 0 0 0 0 0
          0 0 0 0 0 0
          0 0 0 0 0 0
          0 0 0 0 0 0
          0 0 0 0 0 0
          0 0 0 0 0 0
          0 0 0 0 0 0
          0 0 0 0 0 0
          0 0 0 0 0 0
          0 0 0 0 0 0
          0 0 0 0 0 0
          0 0 0 0 0 0
          0 0 0 0 0 0
          0 0 0 0 0 0
          0 0 0 0 0 0
          0 0 0 0 0 0
          0 0 0 0 0 0
          0 0 0 0 0 0
          0 0 0 0 0 0
          0 0 0 0 0 0
          0 0 0 0 0 0
          0 0 0 0 0 0
          0 0 0 0 0 0
          0 0 0 0 0 0
          0 0 0 0 0 0
          0 0 0 0 0 0
          0 0 0 0 0 0
          0 0 0 0 0 0
          0 0 0 0 0 0
          0 0 0 0 0 0
          0 0 0 0 0 0
          0 0 0 0 0 0
          0 0 0 0 0 0
          0 0 0 0 0 0
          0 0 0 0 0 0
          0 0 0 0 0 0
          0 0 0 0 0 0
          0 0 0 0 0 0
          0 0 0 0 0 0
          0 0 0 0 0 0
          0 0 0 0 0 0
          0 0 0 0 0 0
          0 0 0 0 0 0
          0 0 0 0 0 0
          0 0 0 0 0 0
          0 0 0 0 0 0
          0 0 0 0 0 0
          0 0 0 0 0 0
          0 0 0 0 0 0
          0 0 0 0 0 0
          0 0 0 0 0 0
          0 0 0 0 0 0
          0 0 0 0 0 0
          0 0 0 0 0 0
          0 0 0 0 0 0
          0 0 0 0 0 0
          0 0 0 0 0 0
          0 0 0 0 0 0
          0 0 0 0 0 0
          0 0 0 0 0 0
          0 0 0 0 0 0
          0 0 0 0 0 0
          0 0 0 0 0 0
          0 0 0 0 0 0
          0 0 0 0 0 0
          0 0 0 0 0 0
          0
        </DataArray>
        <DataArray type="Float64" Name="gradient_error" format="ascii" RangeMin="1.4257826963090951e-15" RangeMax="5.700892392835603e-9">
          2.528790881527462e-11 2.2713261585944512e-11 6.954931168743467e-11 6.084883762588794e-11 1.5129670562567803e-11 1.1427803385552513e-11
          3.6668137047251986e-11 2.85121076684565e-11 7.908197212824073e-12 6.160592687158731e-12 1.937223910319791e-11 1.539648754394866e-11
          2.078468251333006e-12 2.169543883962933e-12 5.565344319063171e-12 5.659974063427167e-12 3.263522670522513e-13 3.1558495584226846e-13
          8.320207953505393e-13 8.085371577296211e-13 3.7967003412977296e-14 3.7868911129199186e-14 4.662209700127007e-14 4.0066294070225627e-14
          2.9902452262650025e-14 3.0019963748023894e-14 2.937446481461093e-14 2.823963071435089e-14 2.8357017241794052e-14 2.8362588734740443e-14
          2.7653430743500073e-14 2.7501537679149167e-14 2.796539155534387e-14 2.7957476333438578e-14 2.7655281983164342e-14 2.7641070219564062e-14
          2.7854046022263422e-14 2.7848275222913772e-14 2.772031408169125e-14 2.7725065920755228e-14 2.7824294046816476e-14 2.78200762932395e-14
          2.774612645052951e-14 2.775305935653732e-14 2.781858628110716e-14 2.781476186008574e-14 2.7751880853323574e-14 2.7758950691984753e-14
          2.013861435661441e-11 5.214836356434121e-11 7.725936208537223e-12 2.0356078289661014e-11 4.412988161493389e-12 1.142073598469941e-11
          2.2606195165928604e-12 5.754603807791164e-12 3.048176446322856e-13 7.85053520108703e-13 3.7770818845421075e-14 3.351049113918118e-14
          3.0137475233397756e-14 2.710479661409085e-14 2.8368160227686828e-14 2.734964461479826e-14 2.794956111153329e-14 2.7626858455963783e-14
          2.7842504423564122e-14 2.7729817759819215e-14 2.7815858539662525e-14 2.7759992262545138e-14 2.7810937439064325e-14 2.7766020530645938e-14
          2.9684459272876803e-10 2.578440811019211e-10 1.4305967862648933e-10 1.1525390219130372e-10 7.607751302242076e-11 6.200503940187223e-11
          2.3056888979633815e-11 2.3403792933382586e-11 3.622888828257362e-12 3.596071635189306e-12 1.811554127033027e-13 1.7968394726115272e-13
          4.058606617207464e-14 4.2863299268042774e-14 2.5319559054108907e-14 2.6630432283395863e-14 2.739089976641034e-14 2.752881813743586e-14
          2.807362892677825e-14 2.7990025173861937e-14 2.8209542884781457e-14 2.8083217395525922e-14 2.8230022458842822e-14 2.8096894961779076e-14
          2.188435694750742e-10 8.744812575611811e-11 4.7932565781323713e-11 2.3750696887131364e-11 3.5692544421212494e-12 1.7821248181900274e-13
          4.514053236401092e-14 2.7941305512682826e-14 2.7666736508461386e-14 2.7906421420945625e-14 2.7956891906270377e-14 2.7963767464715333e-14
          2.99466260916432e-10 2.5039067008962506e-10 9.453133575211755e-11 9.64002876539522e-11 1.6237805210842835e-11 1.6371653062315356e-11
          1.4370889367115752e-12 1.460926728061607e-12 3.180056794888216e-13 3.218396952576262e-13 8.561464537768352e-14 8.556666530451392e-14
          3.888426408213719e-14 3.792050481607844e-14 2.9101794654586274e-14 2.828760030885288e-14 2.713914783062301e-14 2.645434158558654e-14
          2.682062503197274e-14 2.6167638523979165e-14 2.0131507926281807e-10 9.826923955578687e-11 1.6505500913787877e-11 1.4847645194116389e-12
          3.256737110264309e-13 8.55186852313443e-14 3.6956745550019685e-14 2.7473405963119485e-14 2.576953534055007e-14 2.551465201598559e-14
          5.786077907256085e-10 1.3777814918360794e-10 2.4192443312624e-10 1.55489553918592e-11 3.297486538525052e-11 2.574353936462226e-12
          2.6835786667700996e-12 5.703616133247411e-13 5.968975958437921e-13 1.3640958752460626e-13 1.4100353720449965e-13 3.884259226275237e-14
          3.963170402413471e-14 1.7619605210410424e-14 1.8032583030076438e-14 1.367461898039753e-14 1.4077443538805842e-14 1.328696321872058e-14
          1.3630096788220063e-14 3.5296234403779254e-10 4.944419451045306e-11 2.7928033970779723e-12 6.234335783628429e-13 1.4559748688439306e-13
          4.042081578551705e-14 1.844556084974246e-14 1.4480268097214154e-14 1.3973230357719545e-14 6.514426523184721e-10 7.149081313359886e-10
          7.698441665028815e-12 2.7345650262229154e-11 1.4214120025237033e-12 1.8596134329331475e-12 4.0164646683758745e-13 4.432998806650659e-13
          8.902468774607744e-14 9.951385721107148e-14 1.9638568109849324e-14 2.2827435576455556e-14 4.484512533291986e-15 6.104129367950265e-15
          1.750296309747421e-15 2.991803168680662e-15 1.5666642809752164e-15 2.674178932888497e-15 3.2970394671093263e-10 3.8754722069885544e-11
          2.2727156967528e-12 4.849532944925443e-13 1.1000302667606553e-13 2.6016303043061786e-14 7.723746202608545e-15 4.2333100276139026e-15
          3.781693584801778e-15 2.6161865754381807e-10 1.7733185141126057e-12 6.099562485469052e-12 3.346240753970571e-13 9.812867390406339e-13
          2.4625541102575844e-13 2.772166593023925e-13 5.277021733529771e-14 6.153359267893762e-14 1.192385273663242e-14 1.4499500567616386e-14
          3.372728242498248e-15 4.34009956432623e-15 1.6785234046254225e-15 2.2570100597060298e-15 1.4257826963090951e-15 1.9327909376208115e-15
          7.675288396114446e-11 3.4201332379568656e-12 1.6021788379678689e-12 3.081779075790266e-13 7.029696802257754e-14 1.7075148398600357e-14
          5.307470886154211e-15 2.835496714786637e-15 2.4397991789325277e-15 2.898380523905931e-9 6.558428796679941e-10 9.069396691442855e-11
          5.366037449344785e-10 3.061553250060557e-9 2.676037644910396e-9 5.854094357027713e-10 4.2119888887323093e-10 7.819292281268166e-11
          7.668293963531039e-11 6.823855059712041e-12 3.0209801527393156e-11 1.2365795964178937e-11 7.710272122137264e-13 4.922990528951149e-12
          6.859522943303533e-11 4.354407865078891e-11 1.0807161596754923e-11 6.7118868887989e-12 3.681031098715523e-12 1.963372036450118e-11
          1.215690268275666e-10 5.60913837024122e-9 1.1708785185474577e-10 2.5563783103344245e-10 8.634715072437085e-12 1.6350390621418666e-11
          1.1797572139870448e-11 6.515464941485314e-12 2.6880316155782835e-12 1.8857214979263897e-12 3.627208090192063e-11 4.469546926667216e-11
          6.204404539419852e-12 3.687221939231234e-12 6.480249074272987e-11 6.191114075676238e-10 3.863927134387785e-10 3.8370073438986646e-10
          1.1336699941480689e-9 1.0924377459834321e-9 1.1666355746653456e-10 3.5423426732317997e-10 3.263949123812881e-10 3.8100875534095444e-10
          1.0512054978187958e-9 2.9855555743939626e-10 2.931015305271207e-11 2.3651807776873762e-11 8.085759858081176e-11 6.285693092365974e-11
          6.719779152405295e-12 1.4179432555501273e-11 1.553831415653141e-11 1.7993462501035458e-11 4.485626326650773e-11 1.689719575756155e-11
          2.8708400097197964e-13 3.0315420910516497e-13 5.402597386669474e-13 4.811216213908858e-13 1.6671517415557573e-13 1.898805456439878e-13
          2.278649945919502e-13 3.1922441723835025e-13 4.219835041148242e-13 2.6584944353991264e-13 7.934354763619151e-13 6.590890336766066e-13
          2.890148150283247e-13 5.247425909912982e-13 9.690450557149085e-10 9.484514837560203e-10 2.534550698007006e-10 2.3881170746473184e-10
          4.2174668301319777e-10 3.902804692137377e-10 9.426088137186256e-11 9.278579117971319e-10 2.2416834512876303e-10 3.5881425541427765e-10
          2.985376846726572e-11 2.488444075439747e-11 1.4424357841389614e-11 1.0548465635026098e-11 1.7277485719402113e-11 1.3631278942124978e-11
          6.4771414481929e-12 1.9915113041529214e-11 6.672573428662582e-12 9.985072164847838e-12 4.197889365006309e-10 4.711967241272316e-10
          3.142696645585314e-10 2.1667533156599528e-10 2.4676291200269895e-10 2.6874955826345547e-10 1.485265594912335e-10 2.90736204524212e-10
          1.1637190113388922e-10 7.422089106395876e-11 7.108826143206171e-11 5.296572917367438e-11 1.747593943240267e-11 1.8389584597064717e-11
          1.4757619669061986e-11 3.206988099402829e-11 3.844696829688575e-11 1.1125654741059259e-11 1.145908784072504e-12 1.4609783678806616e-12
          1.105061964379546e-12 1.34388893531854e-12 8.255218542233794e-13 1.3383201449279124e-12 1.1447708426961534e-12 1.7724711508960796e-12
          1.8135620962181769e-12 9.512215404643945e-13 2.6909364986877808e-12 1.919644061590731e-12 1.5668984764467236e-12 2.033764648351891e-12
          3.9810266097488813e-11 5.419141090883978e-11 1.4035989464611862e-11 1.135474441185964e-11 2.191077016557963e-11 2.7521905466357586e-11
          7.931811965478605e-12 6.857255572019076e-11 8.673499359107415e-12 3.3133040767135536e-11 7.262172432212988e-11 7.68979207054879e-11
          3.208408772662291e-11 5.369268949396365e-11 1.4008956057084485e-9 8.467659839715199e-11 1.408643911510579e-11 1.0438002443166453e-11
          1.4318140177346631e-11 7.879182835868021e-12 3.509601182726189e-12 5.210008550512341e-12 2.980012570279679e-12 1.0153879353630582e-11
          9.73949389917683e-12 4.146533622702685e-12 1.0222969324576595e-9 2.218861742242826e-10 2.044966965308292e-11 2.0395704563099347e-12
          1.5775587803233845e-12 1.925321519006586e-12 1.6308683403455491e-12 6.047794839593653e-13 6.547058102472652e-13 9.129955398825075e-13
          1.4091505962272155e-12 1.7547147891046093e-12 1.0683965913411378e-12 5.163743615442459e-12 2.028686400184288e-12 3.3113837371425317e-12
          9.575384486107756e-12 5.408569532215021e-12 5.380244636315135e-12 2.746578710439793e-12 8.523150033451613e-12 6.72168060767121e-12
          2.1591395944853372e-11 8.323857909983901e-12 1.1520118518946281e-11 3.346794686598724e-11 1.7769986759605157e-11 1.4786174056037864e-11
          6.248628649915266e-11 4.932688329557522e-11 5.6426767369821046e-11 1.293315634883158e-11 1.3071848217100079e-11 5.491561645839829e-12
          6.854610401157654e-12 1.0605289198827346e-11 1.3879954059504501e-11 6.697703366834408e-12 3.176422631211764e-12 3.618542985516003e-12
          1.4062557871489938e-12 2.4347705584863315e-12 1.8000893210426576e-12 2.2967353713039647e-12 1.3115904394830788e-12 3.0053597622678275e-12
          3.1262424861965827e-12 2.9519492544577483e-12 1.6508876725225986e-10 1.9746236938241346e-10 1.494149376348559e-10 1.0136750588729838e-10
          5.73907673567146e-11 4.2245342084742814e-11 4.2107959894917026e-11 3.1122076482220417e-11 2.1999666274364697e-11 1.9227958367173892e-11
          1.5033952503660125e-11 2.7099916812771035e-11 2.013619306952382e-11 1.0839946640146356e-11 2.178274903730147e-12 1.5086031289508578e-12
          6.568320946726024e-12 4.439767881936176e-12 6.40957593870537e-13 2.3339178186783374e-12 1.6781108303546952e-12 8.389313541715685e-13
          2.3112148171463278e-12 1.0223038420310532e-12 9.283932199003938e-12 6.2582948660519365e-12 2.273449647703988e-12 3.2326575330999358e-12
          1.0357657352729236e-11 9.810432879970569e-12 8.669138790528698e-12 1.8489352192648174e-11 5.634697391942182e-11 8.259063311630309e-10
          5.924876542786971e-10 2.138690693823582e-10 4.105648123062482e-9 4.33510191489198e-11 6.588334480780642e-11 6.031490870251383e-11
          2.5792568409282246e-10 1.1446922046809937e-10 4.377537763896001e-12 3.41534875126059e-12 4.0194541005971535e-12 6.0693056008401994e-12
          1.0325114823263272e-12 4.571618186539562e-12 6.355468062182596e-12 2.341283805048682e-12 8.47900366131861e-12 5.7878042896798646e-12
          3.28017810171784e-11 2.5548533715314343e-11 1.2870374555510331e-11 1.480699713823289e-11 3.7146433016360607e-10 2.617855242121986e-10
          1.371680345515455e-10 9.575520360481639e-11 8.977139354299116e-11 3.219854013236807e-11 2.6871615948066836e-9 1.9130170583516935e-9
          7.1392339187808e-10 6.120761917476309e-10 5.515691284035097e-12 1.4988230711505124e-11 2.460182982090533e-11 5.2782711620135275e-12
          1.1949934700158212e-11 1.5957295491515562e-11 2.028895349880026e-11 1.2665603666896688e-11 1.0407009172777234e-10 3.920407792959753e-11
          4.2837689364527324e-11 2.63401802508398e-12 2.2217548083085073e-12 4.845805289906488e-12 2.2129522542303982e-12 3.696283652813029e-12
          1.1065159362661829e-11 5.633065706899444e-12 4.9443633365423826e-12 1.4729932778023777e-12 1.6664739385224866e-12 2.480767109865792e-12
          2.6853420136480434e-12 4.6283172649022515e-12 2.760955637899111e-12 5.058830704369824e-12 4.013150094774073e-12 6.176133529336493e-12
          4.848918609871445e-12 1.5616285796575354e-12 4.0348115592495255e-12 3.297371819124271e-12 2.4960039020550314e-12 3.157195506349758e-12
          1.848315153619725e-12 4.865028473838786e-12 5.895492122039026e-12 3.712822589499462e-12 4.380208218284239e-12 4.265384448133222e-12
          2.9807122955155306e-12 6.14142976513052e-12 8.03791484056604e-12 5.799505449449365e-12 9.502375011191538e-12 9.981448005098513e-12
          6.461218560400182e-12 1.1771469841795088e-11 4.847608498180145e-12 4.051149658553904e-12 3.4347797375604325e-12 3.0189582629390565e-12
          2.219727630876397e-12 1.6894544259178094e-12 1.5740640651887861e-12 3.2546908189276633e-12 2.6031367883176805e-12 1.4586737044597629e-12
          2.6148634116028002e-12 2.3429130623760093e-12 1.8239174078920728e-12 1.44656517570699e-12 3.526972735088004e-12 2.742814944511569e-12
          1.985627596627667e-12 1.3686469017368542e-13 1.359975185263932e-13 3.203524015929353e-13 2.6598143930384723e-13 9.325681995159493e-14
          1.6036891011699868e-13 1.4619999734363305e-13 1.35130346879101e-13 2.116104770147592e-13 1.3203108457026742e-13 1.1392414979797033e-11
          2.1853139616222725e-11 1.4437475303564512e-11 3.9470027224003523e-13 4.003317340679736e-13 4.545304148466861e-12 3.725683194517444e-12
          3.1151044581728915e-13 2.2503114701513883e-12 1.8043537654396899e-12 4.721020064228958e-13 2.061612358890924e-12 9.170816811464162e-13
          2.83126849998924e-12 7.068153441466922e-12 1.5326180407442814e-12 2.894858216472552e-12 3.433129128506294e-12 4.837521873528598e-12
          2.3360124256573518e-12 8.03858851760977e-13 1.0862549907887855e-12 5.764264096320563e-13 5.330433557799523e-13 1.0694768865720742e-12
          9.553475043637503e-13 5.903194099950639e-13 3.932806797507552e-13 4.2695820436073837e-13 1.0571619116354078e-12 9.277493200061834e-13
          1.9197625313792804e-13 6.131500624436117e-13 5.507847500301485e-13 4.606357289707215e-13 7.983367283769588e-13 4.884194376166854e-13
          1.060598655339138e-12 2.939938962727966e-12 7.883199990022043e-13 1.2790176503617988e-12 7.116507790989885e-13 1.334999459243478e-12
          8.177894062325845e-13 1.1325903639793381e-12 1.880283409656623e-12 6.142513705040608e-13 8.692657531698985e-13 7.121079921502268e-13
          9.399617285354448e-13 6.018332780993641e-13 3.92926090310864e-12 1.5880575416566492e-12 1.5945111955069814e-12 6.335995682586385e-12
          2.4410052775816917e-12 2.4129926238330284e-12 1.6653446604169812e-12 7.441446014289397e-12 2.8301756076858212e-12 2.8047783215727568e-12
          4.0660231305325556e-11 1.9121255527085527e-11 1.5905710394007263e-11 9.537527807273324e-12 1.1984177517802781e-11 3.6331280076156345e-12
          1.3802767076589887e-11 2.444936736254569e-11 4.667089840721614e-11 2.884523506450418e-11 7.351958773793537e-12 1.509714826716832e-11
          4.42863115535043e-12 7.610413655930617e-12 5.312203878571295e-12 8.979530267795983e-12 4.850737624863839e-12 2.9924299720797204e-12
          3.4949907100060446e-12 1.4252000408336874e-12 1.4389427816830227e-12 1.945508306658923e-12 2.1440919832089294e-12 1.4431001494185375e-12
          3.997551447932369e-12 1.452685522532358e-12 2.3426756597589357e-12 8.264117779077456e-12 2.084213246850839e-11 1.936173560266801e-11
          1.5563746817973727e-11 7.117303996770062e-11 5.879178432907443e-12 1.1064828443776214e-11 8.883501988432609e-12 3.817182340427886e-11
          2.6412793635457996e-10 2.438846264316443e-10 1.912103657238337e-10 7.615575190657878e-10 1.2722654135337926e-10 7.303316665032317e-11
          3.8603709565230815e-10 2.306661888179953e-9 2.131357411315167e-9 1.6585770174162966e-9 5.216233320054323e-9 1.0676349907443443e-9
          5.743046853570538e-10 2.648014818740251e-9 1.9187409423611248e-11 3.7152604256702895e-11 2.3912542980559138e-11 1.041772581669815e-10
          2.6872102652254813e-10 1.1429906645145525e-10 6.32558094215036e-10 2.7797366652452814e-11 4.553098083607749e-11 2.5465392206709275e-11
          9.837604224294732e-11 5.4358752852126576e-12 5.3809702983889725e-12 1.3466728083874674e-11 1.2489479086750956e-11 3.852395375112596e-12
          8.542117299132925e-12 7.893376408697619e-12 4.959993930112032e-12 9.965694126622308e-12 6.979492414547299e-12 5.116177822066734e-11
          4.7219535450159854e-11 3.013841909348688e-11 3.7000672455452684e-11 2.6716445209520514e-12 2.828571970944312e-12 5.163177324597333e-12
          4.792037383004404e-12 2.4146187954484647e-12 3.795860535485084e-12 3.5618695040452486e-12 2.985499420936572e-12 4.420897441411475e-12
          3.3278784726054136e-12 2.0110979602612155e-11 1.8386186018150407e-11 1.34245875722147e-11 1.7488666872443006e-11 4.125603670085416e-12
          6.978430458415771e-12 3.613880884295286e-12 5.389264454540291e-12 3.657284791512054e-12 5.537702753214162e-12 4.329322701963307e-12
          2.4709407629688936e-11 1.9205985627293028e-11 1.772624437290177e-11 1.7878779740219005e-10 1.6476280650231668e-10 1.161609284311039e-10
          1.0689782138858678e-10 1.28322343728606e-10 8.284630278943888e-11 5.666840385797734e-10 5.212668126520106e-10 3.409827548626864e-10
          4.025454802316153e-10 7.220049720542448e-11 6.629967988045838e-11 4.27225340710777e-11 3.9148128145865236e-11 5.1089312488341105e-11
          3.0030684426328396e-11 2.3164870206959482e-10 2.1230334538835917e-10 1.2557006700751254e-10 1.6232435227570084e-10 8.431567163080385e-11
          5.3932467578947204e-11 4.7531225708384874e-11 3.0023956556525416e-11 2.589651704752844e-10 1.6690273816872652e-10 1.4094364356254128e-10
          1.5290100726700585e-11 3.302725157117844e-11 8.886584900978625e-12 1.9341437652720567e-11 8.673066629081955e-12 1.8254329562222962e-11
          1.0644469489801852e-11 1.0289753713415001e-10 6.052874138230733e-11 5.493861149016109e-11 1.606705694794863e-9 1.480154429935286e-9
          1.0639677160271834e-9 9.777699977281328e-10 1.1420120456447856e-9 7.49410406319956e-10 3.989896842320661e-9 3.6964482722698807e-9
          2.480398113621712e-9 2.8784547116804805e-9 6.682838992570862e-10 6.12855477856815e-10 3.9735415012275594e-10 3.637700380346277e-10
          4.672323640854868e-10 2.7626469852523637e-10 1.7070941801966766e-9 1.5707497585239698e-9 9.382339936038865e-10 1.20220441863301e-9
          7.252807583220935e-10 4.712902644018645e-10 3.831858031868496e-10 2.4591766323445506e-10 1.8261780926091104e-9 1.1981185378787064e-9
          9.46443499140437e-10 2.918297317495224e-10 1.7189257608860888e-10 1.5111694203939972e-10 8.872452673861567e-11 7.460593290677974e-10
          4.404131131831931e-10 3.7761056912965427e-10 1.2050696083020203e-11 2.3626279570172434e-11 7.467984673537944e-12 1.473826709530813e-11
          8.312185103584813e-12 1.49145791304142e-11 9.235665002651693e-12 6.723786338611478e-11 4.2255884143776605e-11 3.5508059002098415e-11
          4.449489861777082e-12 8.906692887867812e-12 2.6015552659848313e-12 5.208363981262129e-12 2.9898321688397194e-12 5.5794673724566155e-12
          3.3230176563576795e-12 2.5711053599150316e-11 1.506096653258301e-11 1.3428232712838428e-11 1.7549189368972822e-10 1.1102565041996708e-10
          7.291729603471251e-11 4.5336357665943594e-11 4.177566272776788e-10 2.660714796352498e-10 1.662295923002333e-10 6.771906879571593e-11
          3.9626608063185273e-11 2.7208636314984703e-11 1.896349601705806e-11 1.628450480979284e-10 9.546991777590273e-11 6.286838684852701e-11
          1.7174261815616167e-11 2.841326552589327e-11 1.0623953509497197e-11 1.7498231757395175e-11 1.03791603424028e-11 1.5744710418443146e-11
          9.87171814682627e-12 6.199116963340453e-11 3.828632135097618e-11 3.259587501718563e-11 6.589341791982115e-12 1.0471733514687383e-11
          5.16412593845162e-12 7.776186877092464e-12 4.1924707294495655e-12 6.352239696652944e-12 5.153573147778467e-12 2.290253910349633e-11
          1.564203910792597e-11 1.2652420167324515e-11 9.872017883327075e-11 6.678547507527898e-11 2.7672533761608875e-10 1.8369223723628487e-10
          3.4850771317287187e-11 9.065913685648097e-11 1.1712367336906188e-9 7.764107356515342e-10 3.8158473761244947e-10 4.841839970655544e-9
          1.2488941598938052e-9 1.0835241988918928e-9 3.223256493989351e-9 5.598683500003726e-10 4.675819446197858e-10 9.181542378899802e-10