<?xml version="1.0"?>
<VTKFile type="UnstructuredGrid" version="0.1" byte_order="LittleEndian" header_type="UInt32" compressor="vtkZLibDataCompressor">
  <UnstructuredGrid>
    <Piece NumberOfPoints="595" NumberOfCells="384">
      <PointData>
        <DataArray type="Int32" Name="libmesh_node_id" format="ascii" RangeMin="762" RangeMax="4342">
          762 764 772 1199 1200 1201
          1202 1203 1204 1205 1209 1210
          1211 1213 1214 1215 1216 1223
          1224 1227 1228 1229 1230 1235
          1237 1238 1243 1244 2002 2003
          2004 2005 2008 2010 2011 2012
          2013 2014 2015 2016 2017 2018
          2019 2020 2021 2022 2023 2024
          2025 2028 2030 2031 2032 2033
          2037 2038 2040 2041 2042 2043
          2044 2045 2046 2047 2048 2049
          2050 2051 2052 2053 2068 2069
          2075 2080 2081 2083 2086 2088
          2089 2090 2091 2092 2093 2094
          2095 2096 2097 2099 2103 2105
          2106 2109 2110 2114 2115 2117
          2122 2123 2124 2125 2126 2127
          2128 2129 2130 2131 2133 2139
          2140 2143 2144 2146 2147 2148
          2149 2150 2151 2152 2153 2154
          2155 2166 2170 2183 2184 2185
          2186 2187 2188 2189 2190 2191
          2192 2203 2207 3423 3424 3425
          3426 3427 3428 3429 3430 3431
          3432 3433 3434 3435 3436 3437
          3438 3439 3440 3441 3442 3443
          3444 3445 3446 3447 3448 3449
          3450 3451 3452 3453 3454 3455
          3456 3457 3458 3459 3460 3461
          3462 3463 3464 3465 3466 3467
          3468 3469 3470 3471 3472 3473
          3474 3475 3476 3477 3478 3479
          3480 3481 3482 3483 3484 3485
          3486 3487 3488 3489 3490 3491
          3492 3493 3494 3495 3496 3497
          3498 3499 3500 3501 3502 3503
          3504 3505 3506 3507 3508 3509
          3510 3511 3512 3513 3514 3515
          3516 3517 3566 3567 3568 3569
          3570 3571 3572 3573 3574 3575
          3592 3598 3600 3601 3602 3603
          3604 3605 3606 3607 3608 3609
          3610 3611 3612 3613 3614 3615
          3616 3617 3618 3619 3620 3621
          3622 3623 3624 3625 3626 3627
          3628 3629 3630 3631 3632 3633
          3634 3635 3636 3637 3638 3639
          3640 3641 3642 3643 3644 3645
          3646 3647 3648 3649 3650 3651
          3652 3653 3654 3655 3656 3657
          3658 3659 3660 3661 3662 3677
          3678 3679 3680 3681 3682 3683
          3684 3685 3686 3709 3710 3712
          3715 3725 3727 3729 3765 3766
          3767 3768 3769 3770 3771 3772
          3773 3774 3775 3776 3777 3778
          3779 3780 3781 3782 3783 3784
          3785 3786 3787 3788 3789 3790
          3791 3792 3793 3794 3795 3796
          3797 3798 3799 3800 3801 3802
          3803 3804 3805 3806 3807 3808
          3809 3810 3811 3812 3813 3814
          3815 3816 3817 3818 3819 3820
          3821 3822 3823 3824 3825 3826
          3827 3828 3829 3830 3831 3832
          3853 3854 3855 3856 3857 3858
          3859 3860 3861 3862 3863 3864
          3875 3876 3877 3878 3879 3880
          3881 3882 3883 3884 3885 3886
          3887 3888 3899 3900 3901 3902
          3903 3904 3905 3906 3907 3908
          3909 3910 3911 3912 3913 3914
          3915 3916 3917 3918 3919 3920
          3921 3922 3923 3924 3925 3926
          3927 3928 3929 3930 3931 3932
          3933 3934 3935 3936 3937 3938
          3939 3940 3941 3942 3943 3944
          3945 3946 3947 3948 3949 3950
          3951 3952 3953 3954 3955 3956
          3957 3958 3959 3960 3961 3962
          3963 3964 3965 3966 4035 4036
          4037 4038 4039 4040 4041 4042
          4046 4048 4069 4070 4071 4072
          4073 4074 4075 4076 4078 4080
          4082 4165 4166 4167 4168 4169
          4170 4171 4172 4173 4174 4175
          4176 4177 4178 4179 4180 4181
          4182 4183 4184 4185 4186 4187
          4188 4189 4190 4191 4192 4193
          4194 4195 4196 4197 4198 4199
          4200 4201 4202 4203 4204 4205
          4206 4207 4208 4209 4210 4211
          4212 4213 4214 4215 4216 4217
          4218 4219 4220 4221 4222 4223
          4224 4225 4226 4227 4228 4229
          4230 4231 4232 4301 4302 4303
          4304 4305 4306 4307 4308 4310
          4312 4314 4329 4330 4331 4332
          4333 4334 4335 4336 4338 4340
          4342
        </DataArray>
        <DataArray type="Float64" Name="bounds" format="ascii" RangeMin="0" RangeMax="0">
          0 0 0 0 0 0
          0 0 0 0 0 0
          0 0 0 0 0 0
          0 0 0 0 0 0
          0 0 0 0 0 0
          0 0 0 0 0 0
          0 0 0 0 0 0
          0 0 0 0 0 0
          0 0 0 0 0 0
          0 0 0 0 0 0
          0 0 0 0 0 0
          0 0 0 0 0 0
          0 0 0 0 0 0
          0 0 0 0 0 0
          0 0 0 0 0 0
          0 0 0 0 0 0
          0 0 0 0 0 0
          0 0 0 0 0 0
          0 0 0 0 0 0
          0 0 0 0 0 0
          0 0 0 0 0 0
          0 0 0 0 0 0
          0 0 0 0 0 0
          0 0 0 0 0 0
          0 0 0 0 0 0
          0 0 0 0 0 0
          0 0 0 0 0 0
          0 0 0 0 0 0
          0 0 0 0 0 0
          0 0 0 0 0 0
          0 0 0 0 0 0
          0 0 0 0 0 0
          0 0 0 0 0 0
          0 0 0 0 0 0
          0 0 0 0 0 0
          0 0 0 0 0 0
          0 0 0 0 0 0
          0 0 0 0 0 0
          0 0 0 0 0 0
          0 0 0 0 0 0
          0 0 0 0 0 0
          0 0 0 0 0 0
          0 0 0 0 0 0
          0 0 0 0 0 0
          0 0 0 0 0 0
          0 0 0 0 0 0
          0 0 0 0 0 0
          0 0 0 0 0 0
          0 0 0 0 0 0
          0 0 0 0 0 0
          0 0 0 0 0 0
          0 0 0 0 0 0
          0 0 0 0 0 0
          0 0 0 0 0 0
          0 0 0 0 0 0
          0 0 0 0 0 0
          0 0 0 0 0 0
          0 0 0 0 0 0
          0 0 0 0 0 0
          0 0 0 0 0 0
          0 0 0 0 0 0
          0 0 0 0 0 0
          0 0 0 0 0 0
          0 0 0 0 0 0
          0 0 0 0 0 0
          0 0 0 0 0 0
          0 0 0 0 0 0
          0 0 0 0 0 0
          0 0 0 0 0 0
          0 0 0 0 0 0
          0 0 0 0 0 0
          0 0 0 0 0 0
          0 0 0 0 0 0
          0 0 0 0 0 0
          0 0 0 0 0 0
          0 0 0 0 0 0
          0 0 0 0 0 0
          0 0 0 0 0 0
          0 0 0 0 0 0
          0 0 0 0 0 0
          0 0 0 0 0 0
          0 0 0 0 0 0
          0 0 0 0 0 0
          0 0 0 0 0 0
          0 0 0 0 0 0
          0 0 0 0 0 0
          0 0 0 0 0 0
          0 0 0 0 0 0
          0 0 0 0 0 0
          0 0 0 0 0 0
          0 0 0 0 0 0
          0 0 0 0 0 0
          0 0 0 0 0 0
          0 0 0 0 0 0
          0 0 0 0 0 0
          0 0 0 0 0 0
          0 0 0 0 0 0
          0 0 0 0 0 0
          0 0 0 0 0 0
          0
        </DataArray>
        <DataArray type="Float64" Name="gradient_error" format="ascii" RangeMin="9.133247549457982e-11" RangeMax="5.799164181254652e-8">
          1.2498410364742816e-9 1.1305538036932669e-9 1.0070992462926381e-8 2.206584257958004e-9 2.5903694366402273e-9 1.7410648211730953e-8
          1.38370581923854e-8 1.19356601706929e-9 1.2388090725471484e-9 1.0261577532156504e-9 3.177976665170769e-8 2.3053593014180025e-8
          6.920580966537906e-10 6.4780561975058e-10 5.286799113374568e-10 4.764726670343147e-10 3.655286834350565e-10 4.2116407105268867e-10
          2.915007440440306e-10 5.276088065034089e-8 5.151643042311766e-8 1.2737891636761796e-8 6.882279188198185e-9 1.4573203813332985e-8
          7.3276299694070136e-9 3.758520868564268e-9 7.680348389092176e-9 9.886777045942564e-9 4.061970525433081e-9 5.736004458261993e-9
          5.176474083417709e-9 4.005175211354952e-9 2.012398598011982e-8 3.11740484717938e-9 2.8133744107730377e-9 3.4667029104006474e-9
          3.1310349470008454e-9 1.1233942905834368e-9 7.919246157496541e-10 7.19843991320376e-10 2.1358680664306456e-9 2.4116627365216846e-9
          5.432782432443234e-10 9.224877202619713e-9 8.354441802067242e-9 9.999233177077184e-10 6.228179690508383e-9 1.958735334147992e-9
          2.6940891219854303e-9 9.328537337279265e-9 1.3597521914632951e-9 1.7774852321206974e-9 5.488230957704602e-10 6.268649899327175e-10
          4.002102193271922e-9 6.265692315300817e-10 5.69733892824499e-10 5.207477418185203e-10 3.849057566161744e-10 3.4934179232015923e-10
          2.762015658501819e-10 2.086895167124844e-10 1.878663671544185e-10 3.94967578889423e-10 2.6155631594859423e-10 1.9789592552279914e-10
          7.007373943914232e-10 6.140509249956203e-10 3.6716150879232247e-10 4.132457177958344e-10 2.5546417380317254e-10 3.1665859703741406e-10
          3.4909356882399584e-10 5.799164181254652e-8 5.1967827080877856e-8 3.720921859816069e-8 4.7319225091641796e-8 2.949968509451609e-8
          2.6287568074723167e-8 4.199296884442214e-9 3.6681763299921315e-9 1.8583686322001542e-8 2.4434466687820247e-9 3.182688847259979e-8
          2.8079228188308662e-8 1.0881219249690839e-8 2.7866259746590962e-8 2.1321580943188444e-8 4.5561818649031025e-8 1.0491077388674371e-8
          1.2467539068165395e-9 2.320150447216788e-8 3.3198813039643767e-9 1.877004373281089e-8 1.8255522965893558e-8 3.341475963540999e-8
          1.899201661487545e-8 1.8452989994746434e-8 1.8219951728031503e-8 1.764206175372402e-8 2.3264651087297368e-8 1.3457792931903905e-8
          9.65521314126506e-9 1.4132920151291208e-8 1.313679015784499e-8 1.5651147685214896e-8 4.670425062082583e-8 2.539643129271606e-8
          6.351543256939927e-9 1.96124038564928e-8 7.822605733955521e-9 2.9499377469771553e-9 2.5513626423610174e-9 1.968571168688262e-9
          1.6865905963471361e-9 1.6472588732246611e-9 1.0603476077449926e-9 9.950465009804338e-9 8.47249620903013e-9 6.1986845799171575e-9
          5.248386210535939e-9 7.960327047760053e-10 2.3747350102657168e-9 1.6499159763156498e-8 1.569430878306766e-8 1.4268029503011315e-8
          1.3033835789681124e-8 1.1024903893286756e-8 8.364243256296373e-9 9.201300418273294e-9 1.164842079265449e-8 1.0807224333401345e-8
          1.2569120724809584e-8 4.921150994106949e-9 6.15984264439768e-9 6.594766138866916e-10 8.174224979545421e-10 7.917856243503107e-10
          7.3069144040012e-10 1.6775676603840107e-9 5.438587735156039e-10 5.276217615375709e-10 7.244229191920707e-10 7.026091627977754e-10
          3.444940948515579e-10 5.533389914242803e-10 5.373361886784328e-10 4.851647887575482e-10 6.466212965849903e-10 4.920844229203569e-10
          1.4979792772323955e-9 1.4521283585604145e-9 1.0963462256349826e-9 1.332384479437765e-9 5.291819687477981e-10 6.411693670273762e-10
          5.349057579313081e-10 1.340398568370544e-9 4.233294583636721e-10 5.644551876926731e-10 2.752777562499063e-10 4.2559967382276173e-10
          3.513442281099328e-10 4.675849092183341e-10 3.4821783187589975e-10 1.1529785645180097e-9 8.578778339985697e-10 9.392432963489536e-10
          3.492320703402632e-10 4.212100939398047e-10 3.5971327601758456e-10 8.456774316783854e-10 2.835628749035183e-10 3.6578595627287965e-10
          1.8744008974330188e-10 2.68081004790492e-10 2.5215138235895693e-10 3.1286528272793624e-10 2.2809023356657926e-10 7.194080053560891e-10
          5.210331978997118e-10 5.951757614695178e-10 2.649394465416035e-10 2.5735643081167826e-10 4.201588391986885e-10 4.076463639421647e-10
          1.9424187632223518e-10 3.223782532789071e-10 3.125476421075911e-10 2.3578810023798176e-10 3.722738522886988e-10 2.848874294695971e-10
          8.914579284662577e-10 8.632606970413365e-10 6.779603097996451e-10 7.840268378532349e-10 1.504873661252518e-10 1.4578805804971952e-10
          2.461041160331138e-10 2.3836704805173697e-10 1.0849858688286649e-10 1.8616946727292263e-10 1.801339634607471e-10 1.3364589840475214e-10
          2.170972273865606e-10 1.640952149902136e-10 5.464687926483984e-10 5.283630958807546e-10 4.0699333551129696e-10 4.774718029401086e-10
          2.0452289895744247e-10 3.2039207916306773e-10 1.5486300462130474e-10 2.4436667754826903e-10 1.6849440259757202e-10 2.602987052187238e-10
          1.9735119760341294e-10 6.680273161436589e-10 5.207295620835065e-10 5.339587424545589e-10 1.184231385162458e-10 1.8561397520647213e-10
          9.133247549457982e-11 1.396595093920037e-10 1.0132293250701082e-10 1.4845723205773183e-10 1.1997308974646654e-10 4.031977073014693e-10
          3.080179998219746e-10 3.1723574941455653e-10 1.3791851292483933e-10 1.9849325928828646e-10 1.0482850931407002e-10 1.4979760261205838e-10
          1.2609123317520896e-10 1.6775945057350415e-10 1.265683371109097e-10 3.973639893881476e-10 3.0530482142185253e-10 3.198442339936866e-10
          1.899133419186806e-8 1.531457701483932e-8 2.955710659842027e-9 2.863496499391791e-9 2.6395698306914515e-9 5.5170176676165066e-9
          2.715830937032187e-9 2.630656094528655e-9 2.2421980355780247e-9 2.170268414215736e-9 2.409160897697443e-9 1.968446839233709e-9
          5.151132402444248e-9 4.965740953072952e-9 4.059437751688138e-9 4.497983100510962e-9 2.294011058190835e-9 1.869498563555723e-9
          4.248668314473415e-9 2.0758198349490227e-9 1.6731202638633762e-9 1.677623010813358e-9 1.33246786939679e-9 3.816760038048047e-9
          3.0977897105296967e-9 3.0228238175612054e-9 9.254019990486154e-9 8.868946410696556e-9 8.01211399616431e-9 1.916292850555674e-8
          1.8699007758471172e-8 1.5234030128345498e-8 1.706453988841609e-8 8.608217821103718e-9 8.27366502299197e-9 7.465855228342846e-9
          7.1967190701847e-9 7.45194491969551e-9 6.451474777805282e-9 1.3778808936263223e-8 1.3272461750192896e-8 1.2246041877352559e-8
          1.1885113526836158e-8 6.792134894997123e-9 5.3308140673548665e-9 1.4402578916787809e-8 1.1497435835684603e-8 1.2911165068129034e-8
          6.284454033544431e-9 5.3939312790878896e-9 4.935449589888473e-9 4.218385914015145e-9 9.886088261450808e-9 8.965355776238863e-9
          7.691277383815091e-9 1.4500534189963047e-9 1.03723396677651e-9 2.558644421821206e-9 1.284042613225817e-9 9.969042832597875e-10
          9.139624067775821e-10 7.000713539429343e-10 2.27455446122054e-9 1.8027944148476586e-9 1.5965897271345955e-9 4.043519600343512e-9
          2.8557596414167785e-9 6.117173907983911e-9 3.694301015591563e-9 3.083023742825176e-9 2.5786032048922187e-9 2.0999247704209525e-9
          5.700583736803389e-9 4.944552393804197e-9 3.9072920247126e-9 1.922181216818453e-8 1.896120295860607e-8 1.8178170276626164e-8
          1.86524359160001e-8 1.6577821861263588e-8 1.5499896918302455e-8 1.7638617655249505e-8 1.923862185099456e-8 1.8957364099552294e-8
          1.9008312880540612e-8 1.8685379873740697e-8 1.8037188280431117e-8 1.7619911978249825e-8 1.8944178308981844e-8 1.8846844830956407e-8
          1.8871024801249875e-8 1.8460227872626154e-8 1.8477661266814392e-8 1.8135309601394867e-8 1.7716410574823107e-8 1.7322968202734476e-8
          1.694768361829211e-8 1.597184941125934e-8 1.8761283295099816e-8 1.861968179844412e-8 1.8094865599510145e-8 1.8191783323146612e-8
          1.6123343731430137e-8 1.5454080724977362e-8 1.4848417250108074e-8 1.2706863776525604e-8 1.769844079287655e-8 1.7508769494078322e-8
          1.6463839840498845e-8 1.4597047492228592e-8 1.3504720050482915e-8 1.1364538362294348e-8 1.03692158051505e-8 1.7065865188520032e-8
          1.6301152617284892e-8 1.434926947982982e-8 1.3889700962356668e-8 1.4800898194097747e-8 1.4020107742514975e-8 1.4809597702490235e-8
          1.6099062396184256e-8 1.5933496165203612e-8 9.205360503182021e-9 1.11238271669161e-8 1.139676525693866e-8 1.4287505719562343e-8
          1.390132358954675e-8 1.4566445621225303e-8 1.3522568398614328e-8 1.409109975360541e-8 1.556415430443857e-8 1.5034067124847173e-8
          9.932646471783266e-9 1.146972352379881e-8 1.12989062556143e-8 1.3739436424796706e-8 1.6518474792394715e-8 1.6423368277736795e-8
          1.6097076403239557e-8 1.5804436446975498e-8 1.5484176545108786e-8 1.5364862716742238e-8 1.58912277617744e-8 1.6126559061829105e-8
          1.5634566471138765e-8 1.5339975033081423e-8 1.4607794870329382e-8 1.5029957657050186e-8 1.4544245844437464e-8 1.5213769627371803e-8
          8.779614145553135e-9 5.963415083614574e-9 1.3322091192628071e-8 1.1706188663213124e-8 1.1704537250623135e-8 8.263976372856844e-9
          7.330615003203638e-9 5.556569388728165e-9 4.830614597589458e-9 1.0648017148216926e-8 9.72034045219839e-9 7.0550609379991914e-9
          1.3837731471749678e-8 1.3082019747000252e-8 1.2032230355279988e-8 9.477635432748496e-9 1.4353371750871284e-8 1.3603041961359943e-8
          1.235992345993684e-8 1.2232644871170724e-8 1.1265085473021755e-8 8.119607359150633e-9 7.444871592714761e-9 1.2712812080138244e-8
          1.172253800695848e-8 8.513625288748602e-9 1.8193010794859597e-9 1.758836120036327e-9 1.4708916778772632e-9 1.4204564324514168e-9
          1.5892873829591906e-9 1.279456081128491e-9 3.5284985761519838e-9 3.407251948750898e-9 2.8449835702567745e-9 3.0673421792502804e-9
          1.1762593108263525e-9 1.1348650842451755e-9 9.266708788323772e-10 8.933213427270659e-10 1.0192950168730225e-9 8.002405774882971e-10
          2.431332786728023e-9 2.341833632333319e-9 1.8939467228483562e-9 2.092401454914351e-9 1.3424041981738494e-9 1.0754535933372258e-9
          1.0598798887770771e-9 8.43541303829876e-10 2.5730260268045306e-9 2.1265925932962154e-9 2.01066096687003e-9 8.538986641759236e-10
          6.68501466494236e-10 6.672221930648265e-10 5.206894073338191e-10 1.7338717971264557e-9 1.389978407897947e-9 1.3324373617138018e-9
          6.5002880219522215e-9 6.260770809740167e-9 5.587071163175049e-9 5.37836574643493e-9 5.598782817216538e-9 4.800606552462086e-9
          1.1348502182871184e-8 1.0903573601701927e-8 9.559320848770851e-9 9.67634465525506e-9 4.735479340346907e-9 4.5561135339364025e-9
          3.95327889374695e-9 3.799007164311595e-9 4.056874820639122e-9 3.369364274545381e-9 8.618457721448668e-9 8.26843398396612e-9
          7.026252533367439e-9 7.304956812405887e-9 4.657936517491504e-9 3.975036715826941e-9 3.606579794210008e-9 3.0487793777469524e-9
          7.944602785250672e-9 6.930619806805937e-9 6.053352733185534e-9 3.3392341559076287e-9 2.7538389309712635e-9 2.5362536495734198e-9
          2.0716840582579398e-9 5.954229944687222e-9 5.035499750362023e-9 4.480968139138906e-9 7.838282131475526e-10 6.183811353993724e-10
          5.430347720281304e-10 4.2440607388327575e-10 1.4643813404401623e-9 1.186316563868237e-9 9.958978469837527e-10 4.856139040713443e-10
          9.502589400925688e-10 6.307209152117499e-10 2.593543762059189e-9 2.1625034422606465e-9 1.7315104814126491e-9 1.420413558755682e-9
          4.2905135049361595e-9 3.6782660685004986e-9 2.8204086613162015e-9 1.7769746781034154e-9 1.1508397966966065e-9 3.1017746822090883e-9
          1.9692591965396727e-9 1.6637426045538154e-8 1.6165147051954506e-8 1.5195508349696882e-8 1.4695456301690398e-8 1.4680903881741465e-8
          1.3205044692546347e-8 1.7467789969378807e-8 1.734366142549165e-8 1.635718236915986e-8 1.6790808352836927e-8 1.3586479930602184e-8
          1.3095593242891194e-8 1.190106036440806e-8 1.1429890905284058e-8 1.1665722272593216e-8 1.0095810384615022e-8 1.5398687932536444e-8
          1.5226379556302747e-8 1.4016853448550693e-8 1.4438690252093863e-8 1.2234695536806937e-8 1.088708561344785e-8 9.29446949651495e-9
          8.197611349136337e-9 1.522400600884735e-8 1.3960208975984787e-8 1.2289832619696625e-8 9.5198613344431e-9 8.173939818203193e-9
          7.113353580432515e-9 6.073940375578266e-9 1.2559780844077491e-8 1.1033956974059114e-8 9.700146435331324e-9 1.2940344987770647e-8
          1.3438024960970954e-8 1.222513948964188e-8 1.267746535362026e-8 1.4394702192202933e-8 1.3675402121586045e-8 9.897601187613269e-9
          1.0767998836504928e-8 9.895446880312706e-9 1.2399068102188665e-8 1.1402318656950205e-8 1.1919220008854459e-8 1.0914508961998516e-8
          1.1455421675447992e-8 1.2971281442064574e-8 1.2310139774028829e-8 8.152900876669209e-9 9.012509240942335e-9 8.718959435024477e-9
          1.1099855015999816e-8 1.4930959259709202e-8 1.4065352998520188e-8 1.3591078790045149e-8 1.239514435543529e-8 1.394892800963924e-8
          1.3263426316398748e-8 1.3680508822520749e-8 1.3065961696246976e-8 1.1857881489230485e-8 1.106604706295882e-8 9.630268093614475e-9
          1.2508555927058685e-8 1.156140368880567e-8 1.1299769132470443e-8 6.498256823750304e-9 5.679308649268857e-9 4.2128012747752205e-9
          3.6286175687305432e-9 8.732606149626533e-9 7.718183165460788e-9 5.6312646539665495e-9 4.887175669630931e-9 3.073416591241619e-9
          6.709549704222071e-9 4.2320741972322784e-9 1.0195675191213798e-8 9.06728642522664e-9 6.646785818012702e-9 5.843099404334844e-9
          1.0631946017211417e-8 9.473584761718327e-9 6.9980698509197644e-9 7.915791964243276e-9 5.062376077398157e-9 8.283961622907569e-9
          5.346428906193912e-9
        </DataArray>
        <DataArray type="Float64" Name="gradient_matprop_error" format="ascii" RangeMin="0" RangeMax="0">
          0 0 0 0 0 0
          0 0 0 0 0 0
          0 0 0 0 0 0
          0 0 0 0 0 0
          0 0 0 0 0 0
          0 0 0 0 0 0
          0 0 0 0 0 0
          0 0 0 0 0 0
          0 0 0 0 0 0
          0 0 0 0 0 0
          0 0 0 0 0 0
          0 0 0 0 0 0
          0 0 0 0 0 0
          0 0 0 0 0 0
          0 0 0 0 0 0
          0 0 0 0 0 0
          0 0 0 0 0 0
          0 0 0 0 0 0
          0 0 0 0 0 0
          0 0 0 0 0 0
          0 0 0 0 0 0
          0 0 0 0 0 0
          0 0 0 0 0 0
          0 0 0 0 0 0
          0 0 0 0 0 0
          0 0 0 0 0 0
          0 0 0 0 0 0
          0 0 0 0 0 0
          0 0 0 0 0 0
          0 0 0 0 0 0
          0 0 0 0 0 0
          0 0 0 0 0 0
          0 0 0 0 0 0
          0 0 0 0 0 0
          0 0 0 0 0 0
          0 0 0 0 0 0
          0 0 0 0 0 0
          0 0 0 0 0 0
          0 0 0 0 0 0
          0 0 0 0 0 0
          0 0 0 0 0 0
          0 0 0 0 0 0
          0 0 0 0 0 0
          0 0 0 0 0 0
          0 0 0 0 0 0
          0 0 0 0 0 0
          0 0 0 0 0 0
          0 0 0 0 0 0
          0 0 0 0 0 0
          0 0 0 0 0 0
          0 0 0 0 0 0
          0 0 0 0 0 0
          0 0 0 0 0 0
          0 0 0 0 0 0
          0 0 0 0 0 0
          0 0 0 0 0 0
          0 0 0 0 0 0
          0 0 0 0 0 0
          0 0 0 0 0 0
          0 0 0 0 0 0
          0 0 0 0 0 0
          0 0 0 0 0 0
          0 0 0 0 0 0
          0 0 0 0 0 0
          0 0 0 0 0 0
          0 0 0 0 0 0
          0 0 0 0 0 0
          0 0 0 0 0 0
          0 0 0 0 0 0
          0 0 0 0 0 0
          0 0 0 0 0 0
          0 0 0 0 0 0
          0 0 0 0 0 0
          0 0 0 0 0 0
          0 0 0 0 0 0
          0 0 0 0 0 0
          0 0 0 0 0 0
          0 0 0 0 0 0
          0 0 0 0 0 0
          0 0 0 0 0 0
          0 0 0 0 0 0
          0 0 0 0 0 0
          0 0 0 0 0 0
          0 0 0 0 0 0
          0 0 0 0 0 0
          0 0 0 0 0 0
          0 0 0 0 0 0
          0 0 0 0 0 0
          0 0 0 0 0 0
          0 0 0 0 0 0
          0 0 0 0 0 0
          0 0 0 0 0 0
          0 0 0 0 0 0
          0 0 0 0 0 0
          0 0 0 0 0 0
          0 0 0 0 0 0
          0 0 0 0 0 0
          0 0 0 0 0 0
          0 0 0 0 0 0
          0
        </DataArray>
        <DataArray type="Float64" Name="initial_marker" format="ascii" RangeMin="0" RangeMax="2">
          0 2 2 0 0 0.5
          0.5 0 0 0 2 2
          2 0 0 0 0 2
          1.75 2 2 2 2 2
          2 2 2 2 0 1
          1 1 2 0 0 0.5
          0.5 0 0 0 0 0.5
          0 2 2 2 2 0
          0.5 1.6666666666666667 0 0.25 0 0
          1.25 1 0 0 0 0
          0 0 0 0 0 0
          2 2 2 2 0 0
          1 2 2 2 2 2
          2 2 2 2 2 2
          2 2 2 2 2 2
          2 2 2 2 2 2
          2 2 2 2 2 2
          2 2 2 2 2 2
          2 2 2 2 2 2
          2 2 2 2 2 2
          2 2 2 2 2 2
          2 2 2 2 2 2
          2 2 2 0 1 1
          1 2 0 0 1 1
          0 1 1 0 1 1
          2 2 2 2 0 1
          1 2 0 1 0 1
          0 1 1 2 2 2
          0 0.5 0 1.5 0 0.5
          0 0.5 0 0 0 1.5
          1.5 1.3333333333333333 0 0 1 1
          0 1 1 0 1 1
          2 2 2 2 0 0
          1 1 0 1 1 0
          1 1 2 2 2 2
          0 1 0 1 0 1
          1 2 2 2 0 1
          0 1 0 1 1 2
          2 2 0 0.5 0 0.5
          0 0 0 1.5 1.5 1.3333333333333333
          2 2 2 2 2 2
          2 2 2 2 2 2
          2 2 2 2 2 2
          2 2 2 2 2 2
          2 2 2 2 2 2
          2 2 2 2 2 2
          2 2 2 2 2 2
          2 2 2 2 2 2
          2 2 2 2 2 2
          2 2 2 2 2 2
          2 2 2 2 2 2
          2 2 2 2 2 2
          2 2 2 2 2 2
          2 2 2 2 2 2
          2 2 2 2 2 2
          2 2 2 2 2 2
          2 2 2 2 2 2
          2 2 2 2 2 2
          2 2 2 2 2 2
          2 2 2 2 2 2
          2 2 2 2 2 2
          2 2 2 2 2 2
          2 2 2 2 2 2
          2 2 2 2 2 2
          2 2 2 2 2 2
          2 2 2 2 2 2
          2 2 2 2 2 2
          2 2 2 2 2 2
          2 2 2 2 2 2
          2 2 2 2 2 2
          2 2 2 2 2 2
          2 2 2 2 2 2
          2 2 2 2 2 2
          2 2 2 2 2 2
          2 2 2 2 2 2
          2 2 2 2 2 2
          2 2 2 2 2 2
          2 2 2 2 2 2
          2 2 2 2 2 2
          2 2 2 2 2 2
          2 2 2 2 2 2
          2 2 2 2 2 2
          2 2 2 2 2 2
          2 2 2 2 2 2
          2 2 2 2 2 2
          2 2 2 2 2 2
          2 2 2 2 2 2
          2 2 2 2 2 2
          2 2 2 2 2 2
          2 2 2 2 2 2
          2 2 2 2 2 2
          2 2 2 2 2 2
          2 2 2 2 2 2
          2 2 2 2 2 2
          2 2 2 2 2 2
          2 2 2 2 2 2
          2 2 2 2 2 2
          2 2 2 2 2 2
          2 2 2 2 2 2
          2
        </DataArray>
        <DataArray type="Float64" Name="markers_norefine" format="ascii" RangeMin="0" RangeMax="2">
          0 0 2 0 0 0
          0 0 0 0 0 0
          0 0 0 0 0 0
          0 1 0 0 0 1
          0 0 2 0 0 0
          0 0 0 0 0 0
          0 0 0 0 0 0
          0 0 0 0 0 0
          0 0 0 0 0 0
          0 0 0 0 0 0
          0 0 0 0 0 0
          0 0 0 0 0 0
          0 0 0 0 0.25 0
          0 0 0 0 0 0
          0 0 0 0 0 0
          0 0 0 2 2 0.75
          2 2 2 1.5 0.5 0
          2 2 2 1 0 0
          0 0 0 0 0 0
          0 0 0 0 0 0
          0 0 0 1 0.75 0.5
          0 0 0 2 2 0.5
          0 0 0 0 0 0
          0 0 0 0 0 0
          0 0 0 0 0 0
          0 0 0 0 0 0
          0 0 0 0 0 0
          0 0 0 0 0 0
          0 0 0 0 0 0
          0 0 0 0 0 0
          0 0 0 0 0 0
          0 0 0 0 0 0
          0 0 0 0 0 0
          0 0 0 0 0 0
          0 0 0 0 0 0
          0 0 0 0 0 0
          0 0 0 0 0 0
          0 0 0 0 0 0
          0 0 0 0 0 0
          0 0 0 0 0 0
          1.5 0 0 0 0 0
          0 0 0 0 0 0
          0 0 0 0 0 0
          0 0 0 0 0 0
          0 0 0 0 0 1
          0.5 0 0 0 0 0
          0 0 0 0 0 0
          0 0 0 0 0 0
          0 0 0 0 0 0
          0 0 0 0 0 0
          0 0 0 0 0 0
          0 0 0 0 0 0
          0 0 0 2 1.75 1.25
          2 0.75 0.5 1.75 1.5 1.25
          1 1 1 1 2 2
          2 2 1 1 1 1
          0.75 0.5 2 2 2 1.75
          0.5 0.5 0 0 1.5 1.5
          0.6666666666666666 0.25 0 0 0 1
          0.5 0.25 2 2 2 2
          2 2 2 2 2 2
          2 2 2 2 2 2
          2 2 2 2 2 2
          1.25 1 2 2 1.5 1.75
          1.5 0.75 0.5 2 2 1
          0 0 0 0 0 0
          0 0 0 0 0 0
          0.25 0 0 0 0.5 0
          0 0 0 0 0 0
          0 0 0 0 0 0
          0 0 0 0 0 0
          0 0 0 0 0 0
          0 0 0 0 0 0
          0 0 0 0 0 0
          0 0 0 0 0 0
          0 0 0 0 0 0
          0 0 0 0 0 0
          0 0 0 0 0 0
          0 0 0 0 0 0
          0 0 0 0 0 0
          0 0 0 0 0 0
          0 0 0 0 0 0
          0 0 0 0 0 0
          0 0 0 0 0 0
          0 0.5 0.5 0 0 0.25
          0 1.5 1.5 1 1.25 0
          0 0 0 0 0 1
          0.75 0.25 0.25 0 0 0
          0 0.5 0.25 0 0 0
          0 0 0 0 0 2
          2 2 2 2 1.75 2
          2 2 2 2 1.75 1.5
          1 1 0.25 2 2 1.5
          1.5 1.25 0.75 0.25 0 1.5
          1 0.5 0.25 0 0 0
          0.5 0 0 0 0 0
          0 0 0 0 0 0
          0 0 0 0 0 0
          0 0 0 0 0 0
          0
        </DataArray>
        <DataArray type="Float64" Name="markers_mustrefine" format="ascii" RangeMin="0" RangeMax="2">
          0 2 2 0 0 0.5
          0.5 0 0 0 2 2
          2 0 0 0 0 2
          1.75 2 2 2 2 2
          2 2 2 2 0 1
          1 1 2 0 0 0.5
          0.5 0 0 0 0 0.5
          0 2 2 2 2 0
          0.5 1.6666666666666667 0 0.25 0 0
          1.25 1 0 0 0 0
          0 0 0 0 0 0
          2 2 2 2 0 0
          1 2 2 2 2 2
          2 2 2 2 2 2
          2 2 2 2 2 2
          2 2 2 2 2 2
          2 2 2 2 2 2
          2 2 2 2 2 2
          2 2 2 2 2 2
          2 2 2 2 2 2
          2 2 2 2 2 2
          2 2 2 2 2 2
          2 2 2 0 1 1
          1 2 0 0 1 1
          0 1 1 0 1 1
          2 2 2 2 0 1
          1 2 0 1 0 1
          0 1 1 2 2 2
          0 0.5 0 1.5 0 0.5
          0 0.5 0 0 0 1.5
          1.5 1.3333333333333333 0 0 1 1
          0 1 1 0 1 1
          2 2 2 2 0 0
          1 1 0 1 1 0
          1 1 2 2 2 2
          0 1 0 1 0 1
          1 2 2 2 0 1
          0 1 0 1 1 2
          2 2 0 0.5 0 0.5
          0 0 0 1.5 1.5 1.3333333333333333
          2 2 2 2 2 2
          2 2 2 2 2 2
          2 2 2 2 2 2
          2 2 2 2 2 2
          2 2 2 2 2 2
          2 2 2 2 2 2
          2 2 2 2 2 2
          2 2 2 2 2 2
          2 2 2 2 2 2
          2 2 2 2 2 2
          2 2 2 2 2 2
          2 2 2 2 2 2
          2 2 2 2 2 2
          2 2 2 2 2 2
          2 2 2 2 2 2
          2 2 2 2 2 2
          2 2 2 2 2 2
          2 2 2 2 2 2
          2 2 2 2 2 2
          2 2 2 2 2 2
          2 2 2 2 2 2
          2 2 2 2 2 2
          2 2 2 2 2 2
          2 2 2 2 2 2
          2 2 2 2 2 2
          2 2 2 2 2 2
          2 2 2 2 2 2
          2 2 2 2 2 2
          2 2 2 2 2 2
          2 2 2 2 2 2
          2 2 2 2 2 2
          2 2 2 2 2 2
          2 2 2 2 2 2
          2 2 2 2 2 2
          2 2 2 2 2 2
          2 2 2 2 2 2
          2 2 2 2 2 2
          2 2 2 2 2 2
          2 2 2 2 2 2
          2 2 2 2 2 2
          2 2 2 2 2 2
          2 2 2 2 2 2
          2 2 2 2 2 2
          2 2 2 2 2 2
          2 2 2 2 2 2
          2 2 2 2 2 2
          2 2 2 2 2 2