<?xml version="1.0"?>
<VTKFile type="UnstructuredGrid" version="0.1" byte_order="LittleEndian" header_type="UInt32" compressor="vtkZLibDataCompressor">
  <UnstructuredGrid>
    <Piece NumberOfPoints="590" NumberOfCells="374">
      <PointData>
        <DataArray type="Int32" Name="libmesh_node_id" format="ascii" RangeMin="776" RangeMax="5657">
          778 779 786 787 1271 1272
          1273 1276 1279 1283 1284 1286
          1289 1291 1293 1294 1301 1302
          2299 2300 2303 2304 2305 2306
          2308 2311 2323 2325 2326 2329
          2331 2345 2346 2348 2351 2361
          2363 2365 2367 2368 2369 2370
          2372 2373 2374 2375 2377 2378
          2379 2380 2395 2396 2399 2400
          2402 2404 2415 2416 2417 2418
          2419 2420 2421 2422 2423 2424
          2435 2437 2439 2441 2669 2670
          2671 2672 2673 2675 2676 2685
          2686 2687 2690 2752 2753 2754
          2755 2759 2760 2772 2773 2774
          2775 2776 2777 2778 4765 4766
          4767 4770 4775 4776 4777 4778
          4779 4780 4781 4782 4783 4784
          4785 4786 4787 4788 4791 4792
          4795 4799 4800 4801 4802 4803
          4804 4805 4806 4807 4808 4819
          4820 4821 4822 4823 4824 4825
          4826 4827 4828 4836 4837 4838
          4839 4840 4841 4842 4913 4914
          4917 4921 4922 4923 4924 4925
          4926 4927 4928 4929 4930 4948
          4949 4950 4951 4952 4953 4954
          4964 4965 4968 4970 5050 5051
          5052 5053 5054 5055 5056 5057
          5058 5059 5067 5068 5069 5070
          5071 5072 5073 5084 5085 5086
          5087 5088 5089 5090 5091 5092
          5093 5101 5102 5103 5104 5105
          5106 5107 5171 5172 5173 5174
          5175 5176 5177 5186 5188 5190
          5199 5200 5201 5202 5203 5204
          5205 5214 5216 5218 5220 5221
          5222 5223 5224 5225 5226 5227
          5228 5229 5230 5231 5232 5233
          5234 5235 5236 5237 5238 5239
          5240 5241 5242 5243 5244 5245
          5246 5247 5248 5249 5250 5251
          5252 5253 5254 5255 5256 5257
          5258 5259 5260 5261 5262 5263
          5264 5265 5266 5267 5268 5269
          5270 5271 5272 5273 5274 5275
          5276 5277 5278 5279 5280 5281
          5282 5283 5284 5285 5286 5287
          5288 5289 5290 5291 5292 5293
          5294 5295 5296 5297 5298 5299
          5300 5301 5302 5303 5304 5305
          5306 5307 5308 5309 5310 5311
          5312 5313 5315 5316 5317 5320
          5322 5323 5325 5340 5341 5347
          5360 5361 5362 5363 5364 5365
          5366 5367 5368 5369 5370 5371
          5372 5373 5374 5375 5376 5377
          5378 5381 5382 5384 5386 5387
          5388 5389 5390 5391 5392 5393
          5394 5395 5396 5397 5398 5399
          5400 5401 5402 5403 5404 5406
          5427 5428 5429 5430 5431 5432
          5433 5434 5435 5436 5437 5438
          5439 5440 5441 5442 5443 5444
          5445 5446 5447 5448 5449 5450
          5451 5452 5453 5454 5455 5456
          5457 5458 5459 5460 5461 5462
          5463 5464 5465 5466 5467 5468
          5469 5470 5471 5472 5473 5474
          5475 5476 5477 5478 5479 5480
          5481 5482 5483 5484 5485 5486
          5487 5488 5489 5490 5491 5492
          5493 5494 5495 5496 5499 5501
          5502 5504 5515 5519 5529 5530
          5533 5535 5536 5538 5549 5553
          5563 5564 5565 5566 5567 5568
          5569 5570 5572 5574 5576 5577
          5578 5579 5580 5581 5582 5583
          5584 5586 5588 5590 5591 5592
          5593 5594 5595 5596 5597 5598
          5600 5602 5604 5605 5606 5607
          5608 5609 5610 5611 5612 5614
          5616 5618 776 1627 1628 1629
          1630 1634 777 1635 2371 2382
          2388 1292 2384 2389 2376 2397
          2398 1298 2401 2756 2757 2758
          2761 2764 2765 2381 2383 5314
          5318 5319 5321 2391 5324 2392
          5342 5343 5344 5345 5346 5348
          5349 2394 5379 5380 5383 5385
          2403 5405 1299 5407 5408 5414
          5497 5498 5500 2425 5503 2426
          5516 5517 5518 5520 5521 2429
          5531 5532 5534 2431 5537 2432
          5550 5551 5552 5554 5555 2434
          5571 5573 5575 2436 5585 5587
          5589 2438 5599 5601 5603 2440
          5613 5615 5617 1304 5619 5623
          5653 5657
        </DataArray>
        <DataArray type="Float64" Name="bounds" format="ascii" RangeMin="0" RangeMax="0">
          0 0 0 0 0 0
          0 0 0 0 0 0
          0 0 0 0 0 0
          0 0 0 0 0 0
          0 0 0 0 0 0
          0 0 0 0 0 0
          0 0 0 0 0 0
          0 0 0 0 0 0
          0 0 0 0 0 0
          0 0 0 0 0 0
          0 0 0 0 0 0
          0 0 0 0 0 0
          0 0 0 0 0 0
          0 0 0 0 0 0
          0 0 0 0 0 0
          0 0 0 0 0 0
          0 0 0 0 0 0
          0 0 0 0 0 0
          0 0 0 0 0 0
          0 0 0 0 0 0
          0 0 0 0 0 0
          0 0 0 0 0 0
          0 0 0 0 0 0
          0 0 0 0 0 0
          0 0 0 0 0 0
          0 0 0 0 0 0
          0 0 0 0 0 0
          0 0 0 0 0 0
          0 0 0 0 0 0
          0 0 0 0 0 0
          0 0 0 0 0 0
          0 0 0 0 0 0
          0 0 0 0 0 0
          0 0 0 0 0 0
          0 0 0 0 0 0
          0 0 0 0 0 0
          0 0 0 0 0 0
          0 0 0 0 0 0
          0 0 0 0 0 0
          0 0 0 0 0 0
          0 0 0 0 0 0
          0 0 0 0 0 0
          0 0 0 0 0 0
          0 0 0 0 0 0
          0 0 0 0 0 0
          0 0 0 0 0 0
          0 0 0 0 0 0
          0 0 0 0 0 0
          0 0 0 0 0 0
          0 0 0 0 0 0
          0 0 0 0 0 0
          0 0 0 0 0 0
          0 0 0 0 0 0
          0 0 0 0 0 0
          0 0 0 0 0 0
          0 0 0 0 0 0
          0 0 0 0 0 0
          0 0 0 0 0 0
          0 0 0 0 0 0
          0 0 0 0 0 0
          0 0 0 0 0 0
          0 0 0 0 0 0
          0 0 0 0 0 0
          0 0 0 0 0 0
          0 0 0 0 0 0
          0 0 0 0 0 0
          0 0 0 0 0 0
          0 0 0 0 0 0
          0 0 0 0 0 0
          0 0 0 0 0 0
          0 0 0 0 0 0
          0 0 0 0 0 0
          0 0 0 0 0 0
          0 0 0 0 0 0
          0 0 0 0 0 0
          0 0 0 0 0 0
          0 0 0 0 0 0
          0 0 0 0 0 0
          0 0 0 0 0 0
          0 0 0 0 0 0
          0 0 0 0 0 0
          0 0 0 0 0 0
          0 0 0 0 0 0
          0 0 0 0 0 0
          0 0 0 0 0 0
          0 0 0 0 0 0
          0 0 0 0 0 0
          0 0 0 0 0 0
          0 0 0 0 0 0
          0 0 0 0 0 0
          0 0 0 0 0 0
          0 0 0 0 0 0
          0 0 0 0 0 0
          0 0 0 0 0 0
          0 0 0 0 0 0
          0 0 0 0 0 0
          0 0 0 0 0 0
          0 0 0 0 0 0
          0 0
        </DataArray>
        <DataArray type="Float64" Name="gradient_error" format="ascii" RangeMin="5.594692221802903e-13" RangeMax="1.0135888740028113e-9">
          1.4536256613499671e-11 1.1950473531414252e-11 6.713892492292225e-10 2.3704572984262165e-11 1.0859058181751295e-11 8.580466055572118e-12
          7.192828572303299e-12 8.769614105645003e-12 8.925795148755469e-12 1.8532553690696748e-10 7.89443955006173e-11 1.1298190172187704e-11
          3.3734014350063166e-10 2.1833476968849508e-12 2.5515745517238592e-11 1.0857381582890395e-11 1.0471963068348597e-10 4.789851447586184e-11
          3.291079938801526e-11 2.9365344097298294e-11 1.2868790504344811e-11 3.2722330727281214e-11 2.7423769372646315e-11 2.0784474167473956e-11
          1.626160507800553e-11 1.494134352534863e-10 1.4348046325782038e-11 9.16708176078692e-12 1.0731985318186657e-11 1.216706890638159e-11
          2.8325972793572722e-11 5.869018630616338e-10 4.757209299745562e-10 2.451781991972833e-10 5.895473381526508e-10 7.91381908759034e-11
          1.7415627873835553e-11 1.1191364844570043e-10 5.829188163695632e-12 5.139295433431766e-12 1.265412501660965e-11 1.0599675221255297e-11
          4.5443586094116475e-12 4.359163758251741e-12 4.665847591147078e-12 7.160112803347616e-12 7.178578270979511e-11 5.78365076109522e-11
          2.0557095400824503e-11 3.05173499237381e-11 4.907478371345684e-12 5.342250961318031e-12 4.361748406989534e-12 5.113402014425818e-12
          1.0935476282083144e-11 5.536529105502644e-12 2.331406446984044e-10 1.877222449625052e-10 8.376960536255317e-11 6.718231482910412e-11
          9.559774761095533e-11 3.401105325835714e-11 2.803055496103938e-10 2.405718600680355e-10 8.837952181915485e-11 1.333270727629621e-10
          3.0650547838892286e-11 7.626430628743363e-12 4.3533330961670474e-11 9.164883425626726e-12 2.776414876730924e-11 2.5462022109205133e-11
          4.341361062955773e-12 1.3080118400810056e-11 1.1791802785572727e-11 1.9252680928506626e-11 8.573434875393283e-12 1.1505222694842274e-11
          2.5896223226626414e-12 5.038555431690225e-12 3.4337282829292814e-12 2.2922775423102873e-12 2.1315377917185573e-12 5.51999377013308e-12
          4.937201812482131e-12 1.6986665160036984e-12 3.531357656275174e-12 1.199254643913468e-12 2.1137443422653596e-12 8.623780231545691e-13
          1.2395395777596637e-12 9.71974296946366e-13 1.5191832268115532e-12 1.005601312554167e-12 1.7705719367726427e-11 3.204291891181496e-11
          3.0779829173095034e-11 2.7283775718375604e-11 1.1788175479810095e-11 1.1367904874208797e-11 2.0721249509214257e-11 1.991395432192988e-11
          7.255914835325245e-12 1.32235767112275e-11 1.2707087339513354e-11 1.0170743064473108e-11 1.7670663873705005e-11 1.1277899313144218e-11
          5.1200407747207884e-11 4.8981732142316385e-11 3.130468884355685e-11 4.2909755800909063e-11 1.3081915908608132e-11 2.2358494793217485e-11
          1.7013106805220875e-11 8.458822203812703e-12 1.4498423687346188e-11 5.4285511582437335e-12 9.26070924062524e-12 6.571980889607541e-12
          1.103734572081791e-11 7.040814737696504e-12 3.447622111115281e-11 2.2032828758634428e-11 2.546455448993314e-11 1.2449066408607742e-10
          1.1850643232225056e-10 7.975133906755195e-11 7.591222444762079e-11 1.0228419687711955e-10 6.550871316034142e-11 2.881480059225242e-10
          2.730818209073673e-10 1.7559302066673133e-10 2.325212058015002e-10 8.019149911843699e-11 5.135383823733595e-11 5.728628304332012e-11
          3.6681162569027755e-11 1.7810185170914664e-10 1.1434148605611568e-10 1.2308394485760525e-10 7.549354275783526e-12 1.1997704564435071e-11
          8.799077964225239e-12 4.944740455247788e-12 7.7501348384886e-12 3.1835596527207727e-12 4.938343690165078e-12 4.26931167856718e-12
          6.187756997269244e-12 3.951275727698403e-12 1.725997194511392e-11 1.099002409152009e-11 1.2625505484545992e-11 3.751983342937346e-11
          2.398923749021478e-11 2.2597873462598365e-11 1.4396136006606613e-11 7.71626625802748e-11 4.944469712674319e-11 4.425380503509152e-11
          5.374432464300201e-12 7.946476607306511e-12 5.480191025452495e-12 1.495897031721263e-11 5.780746550425109e-10 5.470394009790855e-10
          3.7454958658227386e-10 3.5422929369042543e-10 4.6326865901225957e-10 2.994974069159582e-10 8.948992808568267e-10 8.508818291368901e-10
          5.573186609853833e-10 7.28791595693378e-10 3.506778679280647e-10 2.262051532720365e-10 2.373343201817471e-10 1.5273991577061205e-10
          5.578294392159711e-10 3.624792707065951e-10 3.7902716939806283e-10 1.0135888740028113e-9 9.783522234829172e-10 6.768841804302998e-10
          6.51474309507357e-10 8.686045347967629e-10 5.742954525378205e-10 9.934673207483002e-10 9.703653529650103e-10 6.529571741431649e-10
          8.850402514636464e-10 6.912478286680075e-10 4.531862251190257e-10 4.837333167512649e-10 3.147080382036755e-10 7.23957392527357e-10
          4.768761295371128e-10 5.170592130134902e-10 1.441704987753715e-10 9.259941786640036e-11 7.930367347277047e-11 5.086321536379105e-11
          2.2848740441658972e-10 1.4724284688972664e-10 1.2312731070409911e-10 2.566275409256722e-11 1.1938629941894617e-11 3.863583496743487e-11
          2.961059421726571e-10 1.9149105363991606e-10 1.59722042324858e-10 1.0287168864118889e-10 3.2032800009257666e-10 2.0749740950469205e-10
          1.73599789973239e-10 4.9615783559176796e-11 2.1939272456209153e-11 5.3885985484505854e-11 4.709882332907297e-12 4.534660457507089e-12
          8.290070315472691e-12 7.963470247982625e-12 2.8068581382790124e-12 5.113170881710303e-12 4.9088198653487535e-12 4.068075086377839e-12
          7.0705349429722224e-12 4.362433698100915e-12 2.0537675404204207e-11 1.9648732447728874e-11 1.2105301670828832e-11 1.720896902914732e-11
          1.76552121141199e-12 1.7292613110784188e-12 3.09855743608452e-12 2.9699227918585943e-12 1.0930991511490265e-12 1.850982990443601e-12
          1.765861067617758e-12 1.603305667170042e-12 2.6260532778147983e-12 1.7124940292318663e-12 7.652236246947233e-12 7.316646531107888e-12
          4.3187706784436165e-12 6.399309751741804e-12 3.4454172927184342e-12 5.804636855781615e-12 2.2124009329450022e-12 3.566879404055015e-12
          2.7456952708656196e-12 4.390708109746813e-12 3.000475969728585e-12 1.3826392986092743e-11 8.482101756653908e-12 1.0187753265074875e-11
          1.4473178863555717e-12 2.1493070203172633e-12 1.1675368448182025e-12 1.6152941172143213e-12 1.3810258491159067e-12 1.887795632637599e-12
          1.4545844363168734e-12 5.087016237412599e-12 3.5841825345324036e-12 4.346635200481757e-12 5.008309270249165e-11 4.767298497834123e-11
          3.083457842895514e-11 2.935639157860309e-11 4.113717152644972e-11 2.533791879980801e-11 1.1659928533582836e-10 1.1046049778577342e-10
          6.800299476761339e-11 9.395753727236564e-11 1.860970755254102e-11 1.7731969303136558e-11 1.1015751777116654e-11 1.0500825644989383e-11
          1.5330988263630813e-11 9.085817002053605e-12 4.325756029566346e-11 4.097722159657844e-11 2.4170683061312416e-11 3.4849367483463614e-11
          3.227013910052748e-11 1.988980887506734e-11 2.308177624909396e-11 1.4233460615276027e-11 7.186686100306249e-11 4.422994107702426e-11
          4.959297026337475e-11 1.2027421868783358e-11 7.116670390013862e-12 8.572012139374097e-12 5.058345687600418e-12 2.665299611434336e-11
          1.572615620998044e-11 1.839345481312621e-11 6.621142407493637e-13 7.045332963310201e-13 1.073412127180638e-12 1.037749466083404e-12
          5.594692221802903e-13 7.74497623520596e-13 7.721518300657243e-13 7.469523519126767e-13 1.0020868049861698e-12 7.698060366108528e-13
          2.6448250981119257e-12 2.4996929487469643e-12 2.5162320418775885e-12 6.4099132749937125e-12 6.098779645348914e-12 5.254668744506229e-12
          1.472940114823195e-11 1.3954496157914947e-11 1.1872432349936763e-11 2.4803926261792013e-12 4.104495964250506e-12 9.087166727473603e-12
          2.0884548530653193e-12 3.0815540884495547e-12 1.7130652947363083e-12 2.368334468157376e-12 1.7996421591874707e-12 2.486765963516833e-12
          1.9619615489198087e-12 6.866492443763953e-12 4.98585106141477e-12 4.9995890735700454e-12 1.5086681646523423e-11 9.294862590258173e-12
          9.029042712054909e-12 5.557048719721584e-12 3.104838853072415e-11 1.9109196213865347e-11 1.777740850986445e-11 3.557323887353038e-12
          5.584124647499191e-12 2.2029177538654723e-12 3.3233143557073e-12 1.1534750861048778e-11 6.589744538023467e-12 3.357611277324242e-12
          4.9715341139904065e-12 2.0896402383590195e-12 3.070790250430942e-12 2.4206868589834396e-12 3.4236060010762495e-12 2.132271890152681e-12
          9.385672563023646e-12 5.783564943619017e-12 5.315447774439842e-12 1.2737947885478683e-12 1.839933851249299e-12 9.901913264279949e-13
          1.3756567414552303e-12 9.294358158458613e-13 1.3045622713713763e-12 1.01799476868977e-12 3.4792901176151943e-12 2.3658234142815027e-12
          2.368244898169259e-10 2.2387958318008108e-10 1.4622167162999293e-10 1.3818769454061686e-10 1.8906875153323183e-10 1.166096417203558e-10
          3.7471716881875303e-10 3.554650113353616e-10 2.20983211804455e-10 3.0260194480748726e-10 8.820030373283344e-11 8.333876553566031e-11
          5.199552468672653e-11 4.912492679661439e-11 7.029324465594587e-11 4.1426893131707377e-11 1.4146590856909397e-10 1.340035325380408e-10
          7.931185278149516e-11 1.1364885471753157e-10 1.4258120340670415e-10 8.785316099765809e-11 9.613237584742484e-11 5.918673736941484e-11
          2.2976325921309976e-10 1.42156749225151e-10 1.548852487156369e-10 5.293265666193797e-11 3.119272259641162e-11 3.5650725463572475e-11
          2.1012167756752656e-11 8.589459971198663e-11 5.070527117687359e-11 5.766981064089495e-11 4.3908389256692e-10 4.215674680986434e-10
          2.7701923945406536e-10 2.6541856982276905e-10 3.694003259532116e-10 2.3140222612727464e-10 4.401449493531419e-10 4.264838694148618e-10
          2.7075307699060205e-10 3.8174859060735253e-10 1.701678268726955e-10 1.6275446474402417e-10 1.0186174645590994e-10 9.727858942190224e-11
          1.4128966866661795e-10 8.414529947180288e-11 1.7363585975348758e-10 1.6726618210682656e-10 1.0064469366859613e-10 1.4768154015537485e-10
          2.894633020705142e-10 1.802756651043299e-10 1.9976985323562533e-10 1.2379772584818464e-10 3.0588011916982644e-10 1.9122104371161743e-10
          2.1467178712474323e-10 1.0954327404422886e-10 6.497958470572983e-11 7.49296519155516e-11 4.431072875600662e-11 1.1658877717669417e-10
          6.93703525036092e-11 8.085557803631106e-11 2.996568449080072e-11 2.831056028326586e-11 2.3874396419654395e-11 4.843391312887188e-11
          4.583939372288369e-11 3.87939280427468e-11 1.7981037847495186e-11 2.9252363560355447e-11 5.946133629754713e-11 5.671363066298595e-11
          4.89072888610063e-11 6.154229938986353e-11 5.902974115994604e-11 5.159424983118017e-11 3.764300546239013e-11 4.029762534643435e-11
          5.821763492498328e-11 3.583435752881223e-11 3.195485138492988e-11 1.9670818233940787e-11 9.277429808238089e-11 5.7167622294520945e-11
          4.978064889725117e-11 2.16033046217367e-11 1.1875309347847429e-11 3.445487639234853e-11 1.8469808076751347e-11 1.6149894639276184e-11
          9.955034768940916e-12 7.458196362352498e-12 5.420521589463221e-12 2.4338725991757282e-11 1.5006082018561014e-11 1.0911473305434955e-11
          5.993734762764374e-12 3.898060496633723e-12 9.024548695114513e-12 4.62916225748569e-12 1.20995501226624e-10 7.472238285421482e-11
          6.481528101936303e-11 3.9954598107932355e-11 1.3129593080635719e-10 8.118259415846494e-11 7.056979669203246e-11 4.5113957109019855e-11
          2.4095206519493307e-11 4.9066194362363837e-11 2.626563746268097e-11 3.123752334250255e-11 1.9262760704181483e-11 1.377822526246763e-11
          8.438211274722025e-12 3.391149580465219e-11 2.0908237284387605e-11 1.4889987548695107e-11 1.1638297733054335e-11 5.044430264180937e-12
          1.2662460280128732e-11 5.517198587934005e-12 3.715774887186127e-11 3.8708106575185755e-12 3.348674647015044e-12 2.4572618659923834e-12
          2.4601201014841626e-12 2.3580630573049106e-12 2.6306126986654456e-11 2.7015346636956673e-12 2.6160322488995794e-12 1.9609999839796657e-12
          2.5189166017336227e-12 3.845909067779887e-12 2.421162816594549e-12 2.193861607094971e-12 4.248374162604489e-12 3.786394054904088e-12
          3.674549465619667e-12 3.3064672416573772e-12 3.0380285164131573e-12 1.0077764399466293e-12 2.1707231548677132e-12 1.910807016182028e-12
          1.5917531993192816e-12 7.668988418392082e-13 7.022387368275214e-13 1.3824707748812656e-12 2.0567704622570316e-12 1.7092136451302502e-12
          3.646037057466463e-12 3.4635998852513736e-12 2.9754297589842427e-12 8.321959575979824e-12 7.884955786523694e-12 6.710769633148512e-12
          1.397764429386181e-12 2.3222212257741135e-12 1.7884309234630972e-12 2.9191445971231085e-12 1.6528465256182171e-12 5.140767081193844e-12
          6.278622606636178e-12 3.554377009620282e-12 2.0951751917204354e-12 3.279663187674879e-12 2.237933764027926e-12 6.8041488290346025e-12
          4.360947163898762e-12 2.37007262507736e-12 4.258120409701966e-12 1.2186005236868867e-12 1.8921672140771095e-12 3.9213110874103064e-12
          1.6886718711017663e-11 1.5954518107230936e-11 1.3457156506195388e-11 2.735345157875135e-11 2.5880893575381894e-11 2.1889016433768597e-11
          1.0141993466938642e-11 1.2120551668264595e-11 6.844176642232723e-12 1.649625873988986e-11 1.9613153565375243e-11 1.1060843709532246e-11
          3.386757811395105e-11 3.226741653215841e-11 2.7753942655909427e-11 3.5265879911490755e-11 3.376796707675047e-11 2.939557841243351e-11
          2.1302599917977076e-11 2.5609081124867588e-11 1.4466938287464216e-11 2.2861813149826073e-11 2.7725571513024647e-11 1.5684163558979755e-11
          1.2748931326034283e-11 7.003274715925896e-12 2.0314162934461916e-11 1.0890416152020117e-11 3.5242637916808676e-12 2.3014931259839216e-12
          5.311159899849213e-12 4.387445666496735e-12 2.6634099429285435e-11 1.421579373011452e-11 2.899358916727572e-11 1.5502184004113584e-11
          6.870400858852249e-12 3.5493603501276273e-12 7.492461641993004e-12 4.390001992701201e-12 7.35553757001024e-12 1.1718781145446799e-11
          1.5378843135144717e-11 1.675431084906304e-11
        </DataArray>
        <DataArray type="Float64" Name="gradient_matprop_error" format="ascii" RangeMin="0" RangeMax="0">
          0 0 0 0 0 0
          0 0 0 0 0 0
          0 0 0 0 0 0
          0 0 0 0 0 0
          0 0 0 0 0 0
          0 0 0 0 0 0
          0 0 0 0 0 0
          0 0 0 0 0 0
          0 0 0 0 0 0
          0 0 0 0 0 0
          0 0 0 0 0 0
          0 0 0 0 0 0
          0 0 0 0 0 0
          0 0 0 0 0 0
          0 0 0 0 0 0
          0 0 0 0 0 0
          0 0 0 0 0 0
          0 0 0 0 0 0
          0 0 0 0 0 0
          0 0 0 0 0 0
          0 0 0 0 0 0
          0 0 0 0 0 0
          0 0 0 0 0 0
          0 0 0 0 0 0
          0 0 0 0 0 0
          0 0 0 0 0 0
          0 0 0 0 0 0
          0 0 0 0 0 0
          0 0 0 0 0 0
          0 0 0 0 0 0
          0 0 0 0 0 0
          0 0 0 0 0 0
          0 0 0 0 0 0
          0 0 0 0 0 0
          0 0 0 0 0 0
          0 0 0 0 0 0
          0 0 0 0 0 0
          0 0 0 0 0 0
          0 0 0 0 0 0
          0 0 0 0 0 0
          0 0 0 0 0 0
          0 0 0 0 0 0
          0 0 0 0 0 0
          0 0 0 0 0 0
          0 0 0 0 0 0
          0 0 0 0 0 0
          0 0 0 0 0 0
          0 0 0 0 0 0
          0 0 0 0 0 0
          0 0 0 0 0 0
          0 0 0 0 0 0
          0 0 0 0 0 0
          0 0 0 0 0 0
          0 0 0 0 0 0
          0 0 0 0 0 0
          0 0 0 0 0 0
          0 0 0 0 0 0
          0 0 0 0 0 0
          0 0 0 0 0 0
          0 0 0 0 0 0
          0 0 0 0 0 0
          0 0 0 0 0 0
          0 0 0 0 0 0
          0 0 0 0 0 0
          0 0 0 0 0 0
          0 0 0 0 0 0
          0 0 0 0 0 0
          0 0 0 0 0 0
          0 0 0 0 0 0
          0 0 0 0 0 0
          0 0 0 0 0 0
          0 0 0 0 0 0
          0 0 0 0 0 0
          0 0 0 0 0 0
          0 0 0 0 0 0
          0 0 0 0 0 0
          0 0 0 0 0 0
          0 0 0 0 0 0
          0 0 0 0 0 0
          0 0 0 0 0 0
          0 0 0 0 0 0
          0 0 0 0 0 0
          0 0 0 0 0 0
          0 0 0 0 0 0
          0 0 0 0 0 0
          0 0 0 0 0 0
          0 0 0 0 0 0
          0 0 0 0 0 0
          0 0 0 0 0 0
          0 0 0 0 0 0
          0 0 0 0 0 0
          0 0 0 0 0 0
          0 0 0 0 0 0
          0 0 0 0 0 0
          0 0 0 0 0 0
          0 0 0 0 0 0
          0 0 0 0 0 0
          0 0 0 0 0 0
          0 0
        </DataArray>
        <DataArray type="Float64" Name="initial_marker" format="ascii" RangeMin="0" RangeMax="2">
          1 0 2 2 0 0
          0 0 0 2 2 1.5
          2 0 2 2 2 2
          1 1 0.75 2 2 0.5
          2 2 0 0 1.25 0
          2 2 2 2 2 2
          2 2 0 0 2 2
          2 1.75 0 1.75 2 2
          2 2 0 0.5 0 0
          2 0.75 2 2 2 2
          2 2 2 2 2 2
          2 1.75 2 2 0 0
          0 0 0 0 0 0
          0 0 0 0 0 0
          0 0 0 0 0 0
          0 0 0 0 2 2
          2 2 2 2 2 2
          2 2 2 2 2 1.75
          2 2 2 2 2 2
          1.5 1.5 1.75 0.5 1.25 0.5
          1.25 1 2 2 2 2
          2 2 2 2 2 2
          2 2 2 2 2 2
          2 2 2 2 0 1
          0.6666666666666666 0 1 0 0.75 0
          1 0.5 2 1.75 2 2
          2 2 2 2 2 2
          1 1.5 1 2 2 2
          2 2 2 2 2 2
          2 2 2 2 2 2
          2 2 2 2 2 2
          2 2 2 2 2 2
          2 2 2 2 2 2
          2 2 2 2 2 2
          2 2 2 2 2 2
          2 2 2 2 2 2
          2 2 2 2 1 1
          1.5 1.5 0 1 1 0.5
          1.25 1 2 2 2 2
          0 0 1 1 0 1
          1 0 1 1 2 2
          2 2 0 1 0 1
          0 1 1 2 2 2
          0 0.75 0 0.5 0 0.5
          0 1.75 1.6666666666666667 1.6666666666666667 2 2
          2 2 2 2 2 2
          2 2 2 2 2 2
          2 2 2 2 2 2
          2 2 2 2 2 2
          2 2 2 2 2 2
          2 2 0 0 0.5 0.5
          0 0 0 0 0.5 0
          1.5 1.5 1.6666666666666667 2 2 2
          2 2 2 2 2 2
          0 0.5 0 0.5 0 0
          0 1.5 1.6666666666666667 1 2 2
          1.75 1.5 2 2 2 1.5
          1.75 0.5 1.25 2 2 0.5
          1.25 0 0.75 0 1 0.5
          2 1.75 1.6666666666666667 0 0.5 0
          0.5 0 0 0 1.5 1
          2 2 2 2 2 2
          2 2 2 2 2 2
          2 2 2 2 2 2
          2 2 2 2 2 2
          2 2 2 2 2 2
          2 2 2 2 2 2
          2 2 2 2 2 2
          2 2 2 2 2 2
          2 2 2 2 2 2
          2 2 2 2 2 2
          2 2 2 2 2 2
          2 2 2 2 2 2
          2 2 2 2 2 2
          2 2 2 2 2 2
          2 2 2 2 2 2
          2 2 2 2 2 2
          2 1.75 1.6666666666666667 2 2 2
          2 2 2 1.6666666666666667 2 2
          2 2 2 2 2 2
          2 2 2 2 2 2
          2 2 2 2 2 1.75
          2 2 0 0 0 0
          0 0 0 0 0 0
          0 0 1 0.25 1 0
          0 0 0 0 0 0
          0 0 0 0 1 1.3333333333333333
          2 2 2 2 2 2
          1.5 1.75 1.5 1.75 1.25 2
          2 2 1 1.5 1 2
          1.75 1.3333333333333333 0.25 0.5 1.25 2
          2 2 2 2 2 2
          2 2 2 2 2 2
          2 2 2 2 2 2
          2 2 2 2 2 2
          2 2 2 2 1.75 1.5
          2 1 2 2 2 2
          2 1.6666666666666667 2 1.5 2 2
          2 2
        </DataArray>
        <DataArray type="Float64" Name="markers_norefine" format="ascii" RangeMin="0" RangeMax="0">
          0 0 0 0 0 0
          0 0 0 0 0 0
          0 0 0 0 0 0
          0 0 0 0 0 0
          0 0 0 0 0 0
          0 0 0 0 0 0
          0 0 0 0 0 0
          0 0 0 0 0 0
          0 0 0 0 0 0
          0 0 0 0 0 0
          0 0 0 0 0 0
          0 0 0 0 0 0
          0 0 0 0 0 0
          0 0 0 0 0 0
          0 0 0 0 0 0
          0 0 0 0 0 0
          0 0 0 0 0 0
          0 0 0 0 0 0
          0 0 0 0 0 0
          0 0 0 0 0 0
          0 0 0 0 0 0
          0 0 0 0 0 0
          0 0 0 0 0 0
          0 0 0 0 0 0
          0 0 0 0 0 0
          0 0 0 0 0 0
          0 0 0 0 0 0
          0 0 0 0 0 0
          0 0 0 0 0 0
          0 0 0 0 0 0
          0 0 0 0 0 0
          0 0 0 0 0 0
          0 0 0 0 0 0
          0 0 0 0 0 0
          0 0 0 0 0 0
          0 0 0 0 0 0
          0 0 0 0 0 0
          0 0 0 0 0 0
          0 0 0 0 0 0
          0 0 0 0 0 0
          0 0 0 0 0 0
          0 0 0 0 0 0
          0 0 0 0 0 0
          0 0 0 0 0 0
          0 0 0 0 0 0
          0 0 0 0 0 0
          0 0 0 0 0 0
          0 0 0 0 0 0
          0 0 0 0 0 0
          0 0 0 0 0 0
          0 0 0 0 0 0
          0 0 0 0 0 0
          0 0 0 0 0 0
          0 0 0 0 0 0
          0 0 0 0 0 0
          0 0 0 0 0 0
          0 0 0 0 0 0
          0 0 0 0 0 0
          0 0 0 0 0 0
          0 0 0 0 0 0
          0 0 0 0 0 0
          0 0 0 0 0 0
          0 0 0 0 0 0
          0 0 0 0 0 0
          0 0 0 0 0 0
          0 0 0 0 0 0
          0 0 0 0 0 0
          0 0 0 0 0 0
          0 0 0 0 0 0
          0 0 0 0 0 0
          0 0 0 0 0 0
          0 0 0 0 0 0
          0 0 0 0 0 0
          0 0 0 0 0 0
          0 0 0 0 0 0
          0 0 0 0 0 0
          0 0 0 0 0 0
          0 0 0 0 0 0
          0 0 0 0 0 0
          0 0 0 0 0 0
          0 0 0 0 0 0
          0 0 0 0 0 0
          0 0 0 0 0 0
          0 0 0 0 0 0
          0 0 0 0 0 0
          0 0 0 0 0 0
          0 0 0 0 0 0
          0 0 0 0 0 0
          0 0 0 0 0 0
          0 0 0 0 0 0
          0 0 0 0 0 0
          0 0 0 0 0 0
          0 0 0 0 0 0
          0 0 0 0 0 0
          0 0 0 0 0 0
          0 0 0 0 0 0
          0 0 0 0 0 0
          0 0 0 0 0 0
          0 0
        </DataArray>
        <DataArray type="Float64" Name="markers_mustrefine" format="ascii" RangeMin="0" RangeMax="2">
          1 0 2 2 0 0
          0 0 0 2 2 1.5
          2 0 2 2 2 2
          1 1 0.75 2 2 0.5
          2 2 0 0 1.25 0
          2 2 2 2 2 2
          2 2 0 0 2 2
          2 1.75 0 1.75 2 2
          2 2 0 0.5 0 0
          2 0.75 2 2 2 2
          2 2 2 2 2 2
          2 1.75 2 2 0 0
          0 0 0 0 0 0
          0 0 0 0 0 0
          0 0 0 0 0 0
          0 0 0 0 2 2
          2 2 2 2 2 2
          2 2 2 2 2 1.75
          2 2 2 2 2 2
          1.5 1.5 1.75 0.5 1.25 0.5
          1.25 1 2 2 2 2
          2 2 2 2 2 2
          2 2 2 2 2 2
          2 2 2 2 0 1
          0.6666666666666666 0 1 0 0.75 0
          1 0.5 2 1.75 2 2
          2 2 2 2 2 2
          1 1.5 1 2 2 2
          2 2 2 2 2 2
          2 2 2 2 2 2
          2 2 2 2 2 2
          2 2 2 2 2 2
          2 2 2 2 2 2
          2 2 2 2 2 2
          2 2 2 2 2 2
          2 2 2 2 2 2
          2 2 2 2 1 1
          1.5 1.5 0 1 1 0.5
          1.25 1 2 2 2 2
          0 0 1 1 0 1
          1 0 1 1 2 2
          2 2 0 1 0 1
          0 1 1 2 2 2
          0 0.75 0 0.5 0 0.5
          0 1.75 1.6666666666666667 1.6666666666666667 2 2
          2 2 2 2 2 2
          2 2 2 2 2 2
          2 2 2 2 2 2
          2 2 2 2 2 2
          2 2 2 2 2 2
          2 2 0 0 0.5 0.5
          0 0 0 0 0.5 0
          1.5 1.5 1.6666666666666667 2 2 2
          2 2 2 2 2 2
          0 0.5 0 0.5 0 0
          0 1.5 1.6666666666666667 1 2 2
          1.75 1.5 2 2 2 1.5
          1.75 0.5 1.25 2 2 0.5
          1.25 0 0.75 0 1 0.5
          2 1.75 1.6666666666666667 0 0.5 0
          0.5 0 0 0 1.5 1
          2 2 2 2 2 2
          2 2 2 2 2 2
          2 2 2 2 2 2
          2 2 2 2 2 2
          2 2 2 2 2 2
          2 2 2 2 2 2
          2 2 2 2 2 2