<?xml version="1.0"?>
<VTKFile type="UnstructuredGrid" version="0.1" byte_order="LittleEndian" header_type="UInt32" compressor="vtkZLibDataCompressor">
  <UnstructuredGrid>
    <Piece NumberOfPoints="454" NumberOfCells="263">
      <PointData>
        <DataArray type="Int32" Name="libmesh_node_id" format="ascii" RangeMin="478" RangeMax="2963">
          478 479 485 497 704 705
          706 709 726 727 732 734
          735 736 737 739 740 741
          742 744 745 746 747 762
          763 769 1109 1110 1113 1116
          1117 1122 1328 1329 1330 1333
          1336 1350 1351 1354 1356 1373
          1386 1388 1390 1392 1393 1394
          1395 1396 1397 1398 1399 1400
          1401 1402 1403 1404 1405 1406
          1407 1408 1409 1410 1411 1412
          1413 1414 1415 1416 1417 1418
          1419 1420 1421 1422 1423 1424
          1425 1426 1427 1428 1429 1430
          1431 1432 1433 1434 1435 1436
          1437 1438 1439 1440 1441 1442
          1443 1444 1445 1446 1447 1448
          1449 1450 1451 1452 1453 1454
          1455 1456 1457 1458 1459 1460
          1461 1462 1463 1464 1465 1466
          1467 1468 1469 1471 1472 1473
          1522 1523 1528 1529 1531 2417
          2427 2429 2433 2434 2435 2436
          2437 2438 2439 2440 2441 2442
          2443 2444 2445 2446 2447 2448
          2449 2450 2451 2452 2453 2454
          2455 2456 2457 2458 2459 2460
          2461 2462 2463 2464 2465 2466
          2467 2468 2469 2470 2471 2472
          2473 2474 2475 2476 2477 2478
          2479 2480 2481 2482 2483 2484
          2485 2486 2487 2488 2489 2490
          2491 2492 2493 2494 2495 2496
          2497 2498 2499 2500 2501 2502
          2503 2504 2505 2506 2507 2508
          2509 2510 2511 2512 2513 2514
          2515 2516 2517 2518 2519 2520
          2521 2522 2523 2524 2525 2526
          2527 2528 2529 2530 2531 2532
          2533 2534 2535 2536 2537 2538
          2539 2540 2541 2542 2543 2544
          2545 2546 2547 2548 2549 2550
          2551 2552 2553 2554 2555 2556
          2557 2558 2559 2560 2561 2562
          2563 2564 2565 2566 2567 2568
          2569 2570 2571 2572 2573 2574
          2575 2576 2577 2578 2579 2580
          2581 2582 2583 2584 2585 2586
          2587 2588 2589 2590 2591 2592
          2593 2594 2595 2596 2597 2598
          2599 2600 2601 2602 2603 2604
          2605 2606 2607 2608 2609 2610
          2611 2612 2613 2614 2615 2616
          2617 2618 2619 2620 2621 2622
          2623 2624 2625 2626 2627 2628
          2629 2630 2631 2632 2633 2634
          2635 2636 2646 2647 2648 2649
          2657 2658 2659 2812 2813 2814
          2815 2816 2817 2818 2819 2820
          2821 2832 2833 2834 2835 2836
          2837 2838 2846 2847 2848 2849
          2850 2851 2852 2853 2854 2855
          2866 2867 2868 2869 2870 2871
          2872 2875 2879 2948 2949 2950
          2957 2958 2959 2960 2961 2962
          2963 490 764 743 765 498
          770 1119 1120 489 738 1123
          1470 1474 1475 1476 1477 1481
          1482 1484 1485 1487 1502 1503
          1506 1507 1509 1511 1526 1542
          1544 1527 1543 759 1547 1546
          1548 2653 2654 2822 2823 2656
          2826 2828 2829 2831 2662 2839
          2664 2841 2843 2845 2856 2857
          2860 2862 2863 2865 2873 2844
          2874 2876 2877 2878
        </DataArray>
        <DataArray type="Float64" Name="bounds" format="ascii" RangeMin="0" RangeMax="0">
          0 0 0 0 0 0
          0 0 0 0 0 0
          0 0 0 0 0 0
          0 0 0 0 0 0
          0 0 0 0 0 0
          0 0 0 0 0 0
          0 0 0 0 0 0
          0 0 0 0 0 0
          0 0 0 0 0 0
          0 0 0 0 0 0
          0 0 0 0 0 0
          0 0 0 0 0 0
          0 0 0 0 0 0
          0 0 0 0 0 0
          0 0 0 0 0 0
          0 0 0 0 0 0
          0 0 0 0 0 0
          0 0 0 0 0 0
          0 0 0 0 0 0
          0 0 0 0 0 0
          0 0 0 0 0 0
          0 0 0 0 0 0
          0 0 0 0 0 0
          0 0 0 0 0 0
          0 0 0 0 0 0
          0 0 0 0 0 0
          0 0 0 0 0 0
          0 0 0 0 0 0
          0 0 0 0 0 0
          0 0 0 0 0 0
          0 0 0 0 0 0
          0 0 0 0 0 0
          0 0 0 0 0 0
          0 0 0 0 0 0
          0 0 0 0 0 0
          0 0 0 0 0 0
          0 0 0 0 0 0
          0 0 0 0 0 0
          0 0 0 0 0 0
          0 0 0 0 0 0
          0 0 0 0 0 0
          0 0 0 0 0 0
          0 0 0 0 0 0
          0 0 0 0 0 0
          0 0 0 0 0 0
          0 0 0 0 0 0
          0 0 0 0 0 0
          0 0 0 0 0 0
          0 0 0 0 0 0
          0 0 0 0 0 0
          0 0 0 0 0 0
          0 0 0 0 0 0
          0 0 0 0 0 0
          0 0 0 0 0 0
          0 0 0 0 0 0
          0 0 0 0 0 0
          0 0 0 0 0 0
          0 0 0 0 0 0
          0 0 0 0 0 0
          0 0 0 0 0 0
          0 0 0 0 0 0
          0 0 0 0 0 0
          0 0 0 0 0 0
          0 0 0 0 0 0
          0 0 0 0 0 0
          0 0 0 0 0 0
          0 0 0 0 0 0
          0 0 0 0 0 0
          0 0 0 0 0 0
          0 0 0 0 0 0
          0 0 0 0 0 0
          0 0 0 0 0 0
          0 0 0 0 0 0
          0 0 0 0 0 0
          0 0 0 0 0 0
          0 0 0 0
        </DataArray>
        <DataArray type="Float64" Name="gradient_error" format="ascii" RangeMin="8.570456732613771e-9" RangeMax="2.055601126290051e-7">
          1.1137435178089793e-7 9.546222682015124e-8 2.055601126290051e-7 1.1949168403549783e-8 8.655967167469196e-8 8.156849973173939e-8
          9.61169533601296e-8 1.4824727408970622e-7 8.675889025963994e-8 1.253509253911887e-7 1.639429605227375e-7 8.340950096620964e-8
          6.297033185369801e-8 9.412598947981065e-8 1.033688899372945e-7 9.471797584306366e-8 9.508114341492727e-8 6.351712933579606e-8
          1.1997994359883143e-7 1.1425545658230984e-8 2.2997882509950886e-8 3.0245003789298376e-8 1.7624448710599264e-7 6.203382800732633e-8
          9.431526504625995e-8 1.2659670208519358e-7 7.512458104088429e-8 6.250658440768317e-8 4.9888587774482036e-8 5.0853613151682384e-8
          4.192031294770414e-8 3.29870127437259e-8 7.245676456077664e-8 1.11674885919267e-7 1.0462954191330829e-7 8.49241838325604e-8
          7.81530683401622e-8 4.0467567857340074e-8 5.8344695867161364e-8 4.4425221976551554e-8 9.652432808219858e-8 4.8566300448605566e-8
          9.244934742687414e-8 1.0498680668745423e-7 6.832238254145253e-8 7.398903824443568e-8 6.819852995912652e-8 1.1483331680353676e-7
          1.0661984866446785e-7 6.16319939719008e-8 1.1508460802725576e-7 1.0574696626751987e-7 5.325141039893237e-8 8.405224969069125e-8
          8.075483707658938e-8 8.850842524729816e-8 8.372795907592597e-8 8.780902880077249e-8 1.0099499675198955e-7 5.801694643180804e-8
          5.297925965846638e-8 1.1122922881747854e-7 1.0100421065463676e-7 4.307823195738845e-8 1.0202929010667088e-7 9.15383979742732e-8
          4.0128660997387025e-8 7.45985880308364e-8 6.548463979178972e-8 9.683939080608385e-8 8.901257754558181e-8 8.578285303488675e-8
          1.0172182481990919e-7 3.610464955460117e-8 5.5063393653304446e-8 3.10484476234599e-8 5.0349127512388355e-8 2.8114499985154963e-8
          4.042866845062534e-8 3.559790537938192e-8 9.805309679725707e-8 9.693816213595029e-8 7.252490484865036e-8 2.563574118684415e-8
          4.4328917074073716e-8 2.0107118504328463e-8 3.727093996714972e-8 1.8955733264038962e-8 3.023985057826963e-8 2.46201061925955e-8
          9.232671019488805e-8 8.399994181278117e-8 6.108028500583163e-8 1.7143030448988647e-8 1.8113571396677783e-8 2.1948615202419473e-8
          2.2690648667922287e-8 5.345841033692e-8 5.8005786974124055e-8 9.60059310364724e-9 1.513141733242245e-8 1.9239584606623704e-8
          1.9253710449625402e-8 2.7085757721769295e-8 2.751607313372977e-8 3.18186689721022e-8 3.1834798754701607e-8 6.120355190924522e-8
          6.194112277400902e-8 1.1979403401454798e-8 2.3270827538262748e-8 2.696882579482933e-8 2.687575038581609e-8 9.631153239054902e-8
          9.750203818653325e-8 1.0579029693161793e-7 1.029501743899037e-7 7.080051223893934e-8 7.111864457179708e-8 1.1927362108203084e-7
          9.4794969789044e-8 8.740148986365129e-8 9.583118763976161e-8 6.854797345316662e-8 6.229167260819447e-8 1.1102577316036028e-7
          3.511198003365348e-8 3.494552283744045e-8 1.3396167458867738e-8 3.010719805905907e-8 7.507844823637367e-8 1.9428381812885813e-8
          1.930524626636966e-8 1.9751736409310453e-8 1.952401412032613e-8 1.9883085675580314e-8 2.160928219817779e-8 2.088225884483497e-8
          2.3290423468938905e-8 2.347954982787969e-8 2.5423885031071742e-8 2.406180887871405e-8 2.1303440450199643e-8 2.268143121946924e-8
          2.1084520441563833e-8 2.405921063236607e-8 2.5370136745340314e-8 2.366347969412451e-8 2.7312990698855245e-8 2.735564801551134e-8
          2.923397443023725e-8 2.7412259779943432e-8 3.10101919253502e-8 3.099580405804923e-8 3.2581856237128476e-8 3.044074392870901e-8
          2.6523330546646065e-8 2.744276242126984e-8 2.5620446865572702e-8 2.808981802533882e-8 2.834565679965376e-8 2.6279564384007874e-8
          1.7968704262847928e-8 1.8153669160080104e-8 1.9979908814971858e-8 2.0099976071826846e-8 1.8886602721325503e-8 2.0603534016409388e-8
          1.5003845702725843e-8 1.5302022767857893e-8 1.7449178938546632e-8 1.6071419547052613e-8 2.2153436066591242e-8 2.2204177207751015e-8
          2.4439801418372812e-8 2.4411037099184668e-8 2.2470337965520902e-8 2.4432529525164365e-8 1.9472277814821988e-8 1.977897180342075e-8
          2.224302480216552e-8 2.033554396120288e-8 2.008606035245177e-8 2.1541672277893573e-8 2.073754931956482e-8 2.20963198516502e-8
          1.759537376752402e-8 1.9336551697944424e-8 1.923704483426689e-8 2.3082481329236504e-8 2.4655625713998107e-8 2.347920507634199e-8
          2.482846515766401e-8 2.1256516148262855e-8 2.3313485772618956e-8 2.2224680008229497e-8 1.108237686634787e-8 1.2187333671950118e-8
          1.2633045751819629e-8 1.3930381646866942e-8 1.425314544699059e-8 1.6283121437501e-8 8.570456732613771e-9 1.0194874452764342e-8
          1.1553075362116528e-8 1.3254398397691993e-8 1.4263282421937724e-8 1.579026664870776e-8 1.5876589870207235e-8 1.768503399496232e-8
          1.847020002093384e-8 2.07559709652728e-8 1.0598457878475055e-8 1.2951394278196356e-8 1.4282207552891202e-8 1.714817917178967e-8
          1.578108468288995e-8 1.7764023064592354e-8 1.8129369785217682e-8 1.9674988444768165e-8 1.5240102085435765e-8 1.7256856069613764e-8
          1.7598461417817935e-8 1.991449726870759e-8 2.2183221622517933e-8 2.138159589254538e-8 2.3205453287700032e-8 1.94217142669964e-8
          2.1680586382453856e-8 2.1073637002026256e-8 2.676570343802314e-8 2.664456271398017e-8 2.904603974149038e-8 2.8829187516195834e-8
          2.642141527663382e-8 2.837418425840274e-8 2.4513219777084023e-8 2.4776724365038244e-8 2.7296651345602215e-8 2.511519496744771e-8
          3.117453439494955e-8 3.087349887927717e-8 3.3057478727573975e-8 3.268005690626149e-8 3.0178755361727074e-8 3.169306207377182e-8
          2.9565871811527427e-8 2.9716356206490616e-8 3.193044524375432e-8 2.9785332621046633e-8 2.619354517016424e-8 2.7630995122923737e-8
          2.6067681776998066e-8 2.7125957019943285e-8 2.544842497140926e-8 2.7587386666516056e-8 2.56490871056298e-8 2.886590712899387e-8
          2.9747105598584372e-8 2.7946766898138376e-8 2.8410722134574113e-8 2.960215541338041e-8 3.1323226642301684e-8 2.9028317821916394e-8
          1.7344067917843377e-8 1.950036587275375e-8 1.864805488551563e-8 2.118878088691374e-8 2.3054493077898425e-8 2.5275299364636645e-8
          1.1880112458709743e-8 1.5380760427880017e-8 1.620865968477746e-8 2.1309166994225627e-8 1.9895275265950375e-8 2.280792551231545e-8
          2.1063329150203264e-8 2.4356171538540396e-8 2.73934885633328e-8 2.940972061765224e-8 1.1997683773394789e-8 1.693433231215476e-8
          1.7629710164966658e-8 2.513307867931746e-8 2.4495111217698764e-8 2.6764516029062848e-8 2.5087442055579698e-8 2.695298951105661e-8
          2.3957132286261428e-8 2.6173486549671213e-8 2.4958711796926415e-8 2.890584378238384e-8 3.0823248379184454e-8 2.8705473750061462e-8
          3.0144183172679396e-8 2.824937297065578e-8 3.014859787128051e-8 2.8675455473382775e-8 2.0541430530459654e-8 2.1687161588874354e-8
          2.0667943105984166e-8 2.2845194434395413e-8 2.397639890791433e-8 2.2871569176381267e-8 2.04210073422751e-8 2.1613178094469714e-8
          2.0931444063465915e-8 2.206590009550007e-8 2.030058415409054e-8 2.153919460006508e-8 2.1194945020947665e-8 2.2856311651134115e-8
          2.4102923882320326e-8 2.3155276888202752e-8 2.414292062344826e-8 2.2867428867872816e-8 2.422944885672631e-8 2.3438984600024237e-8
          2.5019911778754898e-8 2.5889630984026498e-8 2.450594016245157e-8 2.6462782831346933e-8 2.659763955581184e-8 2.484158456918741e-8
          2.5291112467379718e-8 2.633942562368527e-8 2.494524093086486e-8 2.5480812442421572e-8 2.5562313156004544e-8 2.6789220263344045e-8
          2.538454169927815e-8 2.7153155294038367e-8 2.762850439600046e-8 2.564064928473642e-8 2.544471189658407e-8 2.7843527756729804e-8
          2.8659369236189076e-8 2.643971400028543e-8 3.4221371498628114e-8 3.393286136066491e-8 3.455897019370657e-8 3.218033147656764e-8
          2.802828164973824e-8 2.6954326423433715e-8 2.534025156904289e-8 3.458406414321172e-8 3.41380750061277e-8 3.552682592057543e-8
          3.502879687988161e-8 3.28246428720667e-8 3.3392566732469015e-8 3.3683886404831e-8 3.3794257749867956e-8 3.523700007012656e-8
          3.358080983491898e-8 3.01526547726094e-8 2.993272532303427e-8 2.8348109670129072e-8 2.7611085020318288e-8 3.2753835041010444e-8
          3.376420962918849e-8 3.084074321970561e-8 2.2266047502011894e-8 2.5860172655492606e-8 2.389100660608416e-8 2.7457409787180795e-8
          3.119073490902459e-8 3.255654400104675e-8 1.2111078982157109e-8 1.8475118462839806e-8 1.9939443000165128e-8 2.8688804415776965e-8
          3.2645103352129485e-8 3.417898845630593e-8 3.097339531040368e-8 3.248272521109133e-8 3.205956451771864e-8 3.374068187686969e-8
          3.136365967685657e-8 3.484667856212942e-8 3.456972947562584e-8 2.595056930049408e-8 2.5358937433622687e-8 2.388026795604698e-8
          2.749620737636206e-8 2.722124983298245e-8 2.5408658827099873e-8 2.5531727790282463e-8 2.904184545223004e-8 2.908356223234222e-8
          2.693704969815277e-8 3.889826774305863e-8 2.7007192586197406e-8 7.086462240676937e-8 4.808039559360618e-8 1.0570895299277748e-7
          5.888456989555351e-8 2.997083297518931e-8 2.4444661631699327e-8 5.320809233556097e-8 3.9325798131276865e-8 1.3959662040372423e-8
          6.35428900409689e-8 3.6356589308463383e-8 3.305577359468587e-8 8.737644865157956e-8 7.764546017892259e-8 2.4540012107759873e-8
          5.407508294207508e-8 8.680592276092011e-8 7.706756224812542e-8 8.368971075360808e-8 1.4793936500438445e-8 2.964058265950678e-8
          1.02628066662655e-8 1.904547114112903e-8 7.274325449649442e-8 3.435173209364205e-8 8.101896831440977e-8 9.906523580247201e-8
          4.532063230077318e-8 6.338465748222864e-8 6.402024768865672e-8 7.46528390458809e-8 7.683964091257719e-8 9.806472401043278e-8
          5.3027734269079555e-8 3.49875535784485e-8 3.394793653094373e-8 3.5771379068665336e-8 3.519420962168852e-8 3.0533100452531394e-8
          3.321191255861776e-8 3.610467159586878e-8 3.6212048800184107e-8 3.581133374097094e-8 2.5172152106624882e-8 2.8994834952096852e-8
          2.218642279162592e-8 2.6182884961669883e-8 3.3977364433807935e-8 3.265148739017342e-8 2.575997848052498e-8 2.8976854723003758e-8
          3.342380371582512e-8 1.5865818328194575e-8 2.197009455807262e-8 3.1115664614412485e-8 3.475027751414856e-8 3.3470041618500385e-8
          3.4409274701993056e-8 3.1554852530762504e-8 3.436334395825007e-8 3.393665064646127e-8
        </DataArray>
        <DataArray type="Float64" Name="gradient_matprop_error" format="ascii" RangeMin="0" RangeMax="0">
          0 0 0 0 0 0
          0 0 0 0 0 0
          0 0 0 0 0 0
          0 0 0 0 0 0
          0 0 0 0 0 0
          0 0 0 0 0 0
          0 0 0 0 0 0
          0 0 0 0 0 0
          0 0 0 0 0 0
          0 0 0 0 0 0
          0 0 0 0 0 0
          0 0 0 0 0 0
          0 0 0 0 0 0
          0 0 0 0 0 0
          0 0 0 0 0 0
          0 0 0 0 0 0
          0 0 0 0 0 0
          0 0 0 0 0 0
          0 0 0 0 0 0
          0 0 0 0 0 0
          0 0 0 0 0 0
          0 0 0 0 0 0
          0 0 0 0 0 0
          0 0 0 0 0 0
          0 0 0 0 0 0
          0 0 0 0 0 0
          0 0 0 0 0 0
          0 0 0 0 0 0
          0 0 0 0 0 0
          0 0 0 0 0 0
          0 0 0 0 0 0
          0 0 0 0 0 0
          0 0 0 0 0 0
          0 0 0 0 0 0
          0 0 0 0 0 0
          0 0 0 0 0 0
          0 0 0 0 0 0
          0 0 0 0 0 0
          0 0 0 0 0 0
          0 0 0 0 0 0
          0 0 0 0 0 0
          0 0 0 0 0 0
          0 0 0 0 0 0
          0 0 0 0 0 0
          0 0 0 0 0 0
          0 0 0 0 0 0
          0 0 0 0 0 0
          0 0 0 0 0 0
          0 0 0 0 0 0
          0 0 0 0 0 0
          0 0 0 0 0 0
          0 0 0 0 0 0
          0 0 0 0 0 0
          0 0 0 0 0 0
          0 0 0 0 0 0
          0 0 0 0 0 0
          0 0 0 0 0 0
          0 0 0 0 0 0
          0 0 0 0 0 0
          0 0 0 0 0 0
          0 0 0 0 0 0
          0 0 0 0 0 0
          0 0 0 0 0 0
          0 0 0 0 0 0
          0 0 0 0 0 0
          0 0 0 0 0 0
          0 0 0 0 0 0
          0 0 0 0 0 0
          0 0 0 0 0 0
          0 0 0 0 0 0
          0 0 0 0 0 0
          0 0 0 0 0 0
          0 0 0 0 0 0
          0 0 0 0 0 0
          0 0 0 0 0 0
          0 0 0 0
        </DataArray>
        <DataArray type="Float64" Name="initial_marker" format="ascii" RangeMin="0" RangeMax="2">
          1 0 2 2 1 2
          2 1.5 0 0.5 1 1
          1 2 2 2 2 0
          1.5 2 2 2 2 0
          0.5 1 0 0 0 0
          0 0 2 2 2 2
          2 1 1.5 1 2 2
          2 2 2 2 2 2
          2 2 2 2 2 2
          2 2 2 2 2 2
          2 2 2 2 2 2
          2 2 2 2 2 2
          2 1 1.5 1 1.5 0
          1 1 2 2 2 1
          1.5 1 1.5 0 1 1
          2 2 2 2 2 2
          2 2 2 2 2 2
          2 2 2 2 2 2
          2 2 2 2 2 2
          2 2 2 2 2 2
          2 2 2 2 2 2
          2 2 2 2 2 2
          2 2 2 2 2 2
          2 2 2 2 2 2
          2 2 2 2 2 2
          2 2 2 2 2 2
          2 2 2 2 2 2
          2 2 2 2 2 2
          2 2 2 2 2 2
          2 2 2 2 2 2
          2 2 2 2 2 2
          2 2 2 2 2 2
          2 2 2 2 2 2
          2 2 2 2 2 2
          2 2 2 2 2 2
          2 2 2 2 2 2
          2 2 2 2 2 2
          2 2 2 2 2 2
          2 2 2 2 2 2
          2 2 2 2 2 2
          2 2 2 2 2 2
          2 2 2 2 2 2
          2 2 2 2 2 2
          2 2 2 2 2 2
          2 2 2 2 2 2
          2 2 2 2 2 2
          2 2 2 2 2 2
          2 2 2 2 2 2
          2 2 2 2 2 2
          2 2 2 2 2 2
          2 2 2 2 2 2
          2 2 2 2 2 2
          2 2 2 2 2 2
          2 2 2 2 2 2
          2 2 2 2 2 2
          2 2 2 2 2 2
          2 2 2 2 2 2
          2 2 2 2 2 2
          2 2 2 2 2 2
          2 2 2 2 2 2
          2 2 2 2 2 2
          2 2 2 2 2 2
          2 2 2 2 2 2
          2 2 2 2 2 2
          2 2 2 2 2 2
          2 0 0 1.5 0.25 2
          0.5 0 0 1 1 0
          2 2 2 2 2 2
          2 2 2 2 1 1.5
          0 1 2 2 2 2
          2 2 2 2 2 2
          2 2 2 2 2 2
          2 2 2 2 2 2
          2 2 2 2 2 2
          2 2 2 2 2 2
          2 2 2 2
        </DataArray>
        <DataArray type="Float64" Name="markers_norefine" format="ascii" RangeMin="0" RangeMax="2">
          0 0 0 2 0 1
          0 0 0 0 0 0
          0 1 0 1 0 0
          0 2 2 2 0 0
          0 0 0 0 0 0
          0 0 0 0 0 0
          1 0 0 0 0 1.5
          0 0 0 0 0 0
          0 0 0 0 0 0
          0 1 1 1 0 0
          0 0 0 0 0 0
          0 0 0 1 1 0.5
          0 0 0 0 0 0
          0 0 0 0 0 0
          0 0 0 0 0 0
          0 0 0 2 2 2
          2 1.5 1.5 2 2 2
          2 2 2 2 2 1.5
          1.25 2 2 2 2 0
          0 0 0 0 0 0
          0 0 0 0 0 0
          2 2 2 2 1.5 1
          1 0 2 2 2 2
          2 2 2 2 1 1
          0 1 1 0 2 2
          2 2 2 2 2 1.5
          1 1 0 0.5 0 0
          2 2 2 2 2 2
          2 2 2 2 2 2
          2 2 2 2 2 2
          2 2 1.5 1.5 1 1
          2 2 2 1.5 1.5 1
          1 2 2 2 2 2
          2 2 2 2 2 2
          2 2 2 2 2 2
          2 2 2 2 2 2
          2 2 2 2 2 2
          2 2 2 2 2 2
          2 2 2 2 2 2
          2 2 2 2 2 2
          2 2 2 2 1.75 1.5
          2 2 2 2 1.5 1.5
          1 1 2 2 2 1.25
          1 1 1 2 2 2
          2 2 2 2 2 2
          2 2 2 2 2 2
          2 2 2 2 2 2
          2 2 2 2 2 2
          2 2 2 2 2 2
          1.75 2 2 2 1 1
          0 1 1 0 1 1
          0 0 1 1 0 1
          1 0 0 1 1 0
          1 1 0 1 0.5 0
          1 1 0 0 1 1
          0 1 0.75 0 0 1
          1 0 2 2 1.5 1
          0 0 0 2 2 2
          1.75 1.5 1.25 2 2 2
          2 1 0.75 1 0.5 2
          1.75 1.3333333333333333 2 2 2 2
          2 2 2 2 2 2
          2 2 1.5 1.6666666666666667 2 2
          2 2 2 0 0 0
          0.5 0.5 0 0 1 1
          0 0 0 0 0 0
          0 0 0 0 0 0
          0 0 0 0 0 0
          0 1 0.25 0 0 0
          0 0 0 0 0.75 0
          0 0.5 0 1 0 0
          0 1 0.5 1.5 1.25 0
          1 2 2 2 0 0.5
          0 0 1.5 1 2 2
          2 2 2 2 2 1.5
          2 1.3333333333333333 2 2
        </DataArray>
        <DataArray type="Float64" Name="markers_mustrefine" format="ascii" RangeMin="0" RangeMax="2">
          1 0 2 2 1 2
          2 1.5 0 0.5 1 1
          1 2 2 2 2 0
          1.5 2 2 2 2 0
          0.5 1 0 0 0 0
          0 0 2 2 2 2
          2 1 1.5 1 2 2
          2 2 2 2 2 2
          2 2 2 2 2 2
          2 2 2 2 2 2
          2 2 2 2 2 2
          2 2 2 2 2 2
          2 1 1.5 1 1.5 0
          1 1 2 2 2 1
          1.5 1 1.5 0 1 1
          2 2 2 2 2 2
          2 2 2 2 2 2
          2 2 2 2 2 2
          2 2 2 2 2 2
          2 2 2 2 2 2
          2 2 2 2 2 2
          2 2 2 2 2 2
          2 2 2 2 2 2
          2 2 2 2 2 2
          2 2 2 2 2 2
          2 2 2 2 2 2
          2 2 2 2 2 2
          2 2 2 2 2 2
          2 2 2 2 2 2
          2 2 2 2 2 2
          2 2 2 2 2 2
          2 2 2 2 2 2
          2 2 2 2 2 2
          2 2 2 2 2 2
          2 2 2 2 2 2
          2 2 2 2 2 2
          2 2 2 2 2 2
          2 2 2 2 2 2
          2 2 2 2 2 2
          2 2 2 2 2 2
          2 2 2 2 2 2
          2 2 2 2 2 2
          2 2 2 2 2 2
          2 2 2 2 2 2
          2 2 2 2 2 2
          2 2 2 2 2 2
          2 2 2 2 2 2
          2 2 2 2 2 2
          2 2 2 2 2 2
          2 2 2 2 2 2
          2 2 2 2 2 2
          2 2 2 2 2 2
          2 2 2 2 2 2
          2 2 2 2 2 2
          2 2 2 2 2 2
          2 2 2 2 2 2
          2 2 2 2 2 2
          2 2 2 2 2 2
          2 2 2 2 2 2
          2 2 2 2 2 2
          2 2 2 2 2 2
          2 2 2 2 2 2
          2 2 2 2 2 2
          2 2 2 2 2 2
          2 2 2 2 2 2
          2 0 0 1.5 0.25 2
          0.5 0 0 1 1 0
          2 2 2 2 2 2
          2 2 2 2 1 1.5
          0 1 2 2 2 2
          2 2 2 2 2 2
          2 2 2 2 2 2
          2 2 2 2 2 2
          2 2 2 2 2 2
          2 2 2 2 2 2
          2 2 2 2
        </DataArray>
        <DataArray type="Float64" Name="gradient_marker" format="ascii" RangeMin="0" RangeMax="1">
          1 0.75 1 0 0.625 0.5
          0.75 0.75 0.5 0.5 0.5 0.75
          0.375 0.5 0.75 0.5 0.75 0.5
          0.75 0 0 0 1 0.5
          0.5 0.5 0.5 0.5 0.5 0.5
          0.375 0.25 0.75 1 0.875 0.625
          0.5 0 0.25 0 0.75 0.25
          0.75 1 0.5 1 0.5 1
          0.75 0.25 0.75 0.625 0 0.5
          0.5 0.5 0.5 0.5 0.75 0
          0 0.5 0.5 0 0.5 0.5
          0 0.5 0.5 0.5 0.5 0.5
          0.75 0 0.25 0 0.25 0
          0 0 0.75 0.75 0.5 0
          0.25 0 0.25 0 0 0
          0.75 0.625 0.5 0 0 0
          0 0.25 0.25 0 0 0
          0 0 0 0 0 0.25
          0.25 0 0 0 0 0.75
          0.75 1 1 0.5 0.5 1
          0.75 0.625 1 0.5 0.5 1
          0 0 0 0 0.25 0
          0 0 0 0 0 0
          0 0 0 0 0 0
          0 0 0 0 0 0
          0 0 0 0 0 0
          0 0 0 0 0 0
          0 0 0 0 0 0
          0 0 0 0 0 0
          0 0 0 0 0 0
          0 0 0 0 0 0
          0 0 0 0 0 0
          0 0 0 0 0 0
          0 0 0 0 0 0
          0 0 0 0 0 0
          0 0 0 0 0 0
          0 0 0 0 0 0
          0 0 0 0 0 0
          0 0 0 0 0 0
          0 0 0 0 0 0
          0 0 0 0 0 0
          0 0 0 0 0 0
          0 0 0 0 0 0
          0 0 0 0 0 0
          0 0 0 0 0 0
          0 0 0 0 0 0
          0 0 0 0 0 0
          0 0 0 0 0 0
          0 0 0 0 0 0
          0 0 0 0 0 0
          0 0 0 0 0 0
          0 0 0 0 0 0
          0 0 0 0 0 0
          0 0 0 0 0 0
          0 0 0 0 0 0
          0 0 0 0 0 0
          0 0 0 0 0 0
          0 0 0 0 0 0
          0 0 0 0 0 0
          0 0 0 0 0 0
          0 0 0 0 0 0
          0 0 0 0 0 0
          0 0 0 0 0 0
          0 0 0 0 0 0
          0 0 0 0 0 0
          0 0.25 0.16666666666666666 0.375 0.25 0.75
          0.25 0.25 0.125 0.25 0.125 0
          0.5 0 0 0.5 0.5 0
          0.375 0.5 0.5 0.625 0 0.125
          0 0 0.375 0 0.375 0.625
          0.25 0.25 0.375 0.25 0.5 0.75
          0.5 0 0 0 0 0
          0 0 0 0 0 0
          0 0 0 0 0 0
          0 0 0 0 0 0
          0 0 0 0
        </DataArray>
        <DataArray type="Float64" Name="gradient_matprop_marker" format="ascii" RangeMin="0" RangeMax="0">
          0 0 0 0 0 0
          0 0 0 0 0 0
          0 0 0 0 0 0
          0 0 0 0 0 0
          0 0 0 0 0 0
          0 0 0 0 0 0
          0 0 0 0 0 0
          0 0 0 0 0 0
          0 0 0 0 0 0
          0 0 0 0 0 0
          0 0 0 0 0 0
          0 0 0 0 0 0
          0 0 0 0 0 0
          0 0 0 0 0 0
          0 0 0 0 0 0
          0 0 0 0 0 0
          0 0 0 0 0 0
          0 0 0 0 0 0
          0 0 0 0 0 0
          0 0 0 0 0 0
          0 0 0 0 0 0
          0 0 0 0 0 0
          0 0 0 0 0 0
          0 0 0 0 0 0
          0 0 0 0 0 0
          0 0 0 0 0 0
          0 0 0 0 0 0
          0 0 0 0 0 0
          0 0 0 0 0 0
          0 0 0 0 0 0
          0 0 0 0 0 0
          0 0 0 0 0 0
          0 0 0 0 0 0
          0 0 0 0 0 0
          0 0 0 0 0 0
          0 0 0 0 0 0
          0 0 0 0 0 0
          0 0 0 0 0 0
          0 0 0 0 0 0
          0 0 0 0 0 0
          0 0 0 0 0 0
          0 0 0 0 0 0
          0 0 0 0 0 0
          0 0 0 0 0 0
          0 0 0 0 0 0
          0 0 0 0 0 0
          0 0 0 0 0 0
          0 0 0 0 0 0
          0 0 0 0 0 0
          0 0 0 0 0 0
          0 0 0 0 0 0
          0 0 0 0 0 0
          0 0 0 0 0 0
          0 0 0 0 0 0
          0 0 0 0 0 0
          0 0 0 0 0 0
          0 0 0 0 0 0
          0 0 0 0 0 0
          0 0 0 0 0 0
          0 0 0 0 0 0
          0 0 0 0 0 0
          0 0 0 0 0 0
          0 0 0 0 0 0
          0 0 0 0 0 0
          0 0 0 0 0 0
          0 0 0 0 0 0
          0 0 0 0 0 0
          0 0 0 0 0 0
          0 0 0 0 0 0
          0 0 0 0 0 0
          0 0 0 0 0 0
          0 0 0 0 0 0
          0 0 0 0 0 0
          0 0 0 0 0 0
          0 0 0 0 0 0
          0 0 0 0
        </DataArray>
        <DataArray type="Float64" Name="combo" format="ascii" RangeMin="0" RangeMax="2">
          1 0.75 1 2 0.625 1.5
          0.75 0.75 0.5 0.5 0.5 0.75
          0.375 1.5 0.75 1.5 0.75 0.5
          0.75 2 2 2 1 0.5
          0.5 0.5 0.5 0.5 0.5 0.5
          0.375 0.25 0.75 1 0.875 0.625
          1.5 0 0.25 0 0.75 1.75
          0.75 1 0.5 1 0.5 1
          0.75 0.25 0.75 0.625 0 0.5
          0.5 1.5 1.5 1.5 0.75 0
          0 0.5 0.5 0 0.5 0.5
          0 0.5 0.5 1.5 1.5 1
          0.75 0 0.25 0 0.25 0
          0 0 0.75 0.75 0.5 0
          0.25 0 0.25 0 0 0
          0.75 0.625 0.5 2 2 2
          2 1.75 1.75 2 2 2
          2 2 2 2 2 1.75
          1.5 2 2 2 2 0.75
          0.75 1 1 0.5 0.5 1
          0.75 0.625 1 0.5 0.5 1
          2 2 2 2 1.75 1
          1 0 2 2 2 2
          2 2 2 2 1 1
          0 1 1 0 2 2
          2 2 2 2 2 1.5
          1 1 0 0.5 0 0
          2 2 2 2 2 2
          2 2 2 2 2 2
          2 2 2 2 2 2
          2 2 1.5 1.5 1 1
          2 2 2 1.5 1.5 1
          1 2 2 2 2 2
          2 2 2 2 2 2
          2 2 2 2 2 2
          2 2 2 2 2 2
          2 2 2 2 2 2
          2 2 2 2 2 2
          2 2 2 2 2 2
          2 2 2 2 2 2
          2 2 2 2 1.75 1.5
          2 2 2 2 1.5 1.5
          1 1 2 2 2 1.25
          1 1 1 2 2 2
          2 2 2 2 2 2
          2 2 2 2 2 2
          2 2 2 2 2 2
          2 2 2 2 2 2
          2 2 2 2 2 2
          1.75 2 2 2 1 1
          0 1 1 0 1 1
          0 0 1 1 0 1
          1 0 0 1 1 0
          1 1 0 1 0.5 0
          1 1 0 0 1 1
          0 1 0.75 0 0 1
          1 0 2 2 1.5 1
          0 0 0 2 2 2
          1.75 1.5 1.25 2 2 2
          2 1 0.75 1 0.5 2
          1.75 1.3333333333333333 2 2 2 2
          2 2 2 2 2 2
          2 2 1.5 1.6666666666666667 2 2
          2 2 2 0 0 0
          0.5 0.5 0 0 1 1
          0 0.25 0.16666666666666666 0.375 0.25 0.75
          0.25 0.25 0.125 0.25 0.125 0
          0.5 0 0 0.5 0.5 0
          0.375 1.5 0.75 0.625 0 0.125
          0 0 0.375 0 1.125 0.625
          0.25 0.75 0.375 1.25 0.5 0.75
          0.5 1 0.5 1.5 1.25 0
          1 2 2 2 0 0.5
          0 0 1.5 1 2 2
          2 2 2 2 2 1.5
          2 1.3333333333333333 2 2
        </DataArray>
        <DataArray type="Float64" Name="dHdT" format="ascii" RangeMin="25.937212803016237" RangeMax="59.277104157232245">
          30.160197725358 26.95018909435224 32.34132766310499 46.32432489698223 28.858246649501396 51.33137482044819
          38.604627954226714 30.435055296978177 26.63386055128844 27.20310484676563 27.77234914224282 29.024858584894304
          27.883507460059388 48.14080108432178 37.9091261395233 44.46172231182496 35.384235412791455 26.793552423149475
          29.345048202627353 46.31360408946688 54.22376799487415 51.58500254151869 31.353451546341574 26.35738688318045
          26.760547250096984 27.16370761701352 26.59772115985811 26.440526205163145 26.28333125046818 26.307567783338513