<?xml version="1.0"?>
<VTKFile type="UnstructuredGrid" version="0.1" byte_order="LittleEndian" header_type="UInt32" compressor="vtkZLibDataCompressor">
  <UnstructuredGrid>
    <Piece NumberOfPoints="445" NumberOfCells="265">
      <PointData>
        <DataArray type="Int32" Name="libmesh_node_id" format="ascii" RangeMin="330" RangeMax="4179">
          330 513 801 802 804 805
          808 809 832 833 840 841
          1676 1677 1678 1679 1680 1681
          1682 1683 1684 1685 1686 1687
          1688 1689 1696 1698 1700 1701
          1703 1705 1707 1708 1709 1720
          1721 1722 1723 1724 1725 1726
          1727 1728 1729 1731 1733 1735
          1737 1738 1739 1740 1741 1742
          1743 1766 1767 1772 1774 1775
          1776 1777 1778 1779 1780 1781
          1782 1783 1784 1785 1786 1787
          1788 1789 1790 1791 1792 1793
          1795 1796 1797 1969 1970 1971
          1972 1976 1977 1981 1982 1984
          1985 1987 1988 1990 1996 1997
          1998 1999 2003 2004 2006 2007
          2009 3662 3663 3664 3665 3666
          3667 3668 3669 3670 3671 3672
          3673 3674 3675 3676 3677 3678
          3679 3680 3681 3682 3683 3684
          3685 3686 3687 3688 3689 3690
          3691 3692 3693 3694 3695 3696
          3697 3698 3699 3700 3701 3702
          3703 3704 3705 3706 3707 3708
          3709 3726 3740 3741 3742 3743
          3744 3745 3746 3747 3748 3749
          3818 3819 3820 3821 3822 3823
          3824 3825 3826 3827 3828 3829
          3830 3831 3832 3833 3834 3835
          3836 3837 3838 3839 3840 3841
          3842 3843 3844 3845 3846 3847
          3848 3849 3850 3851 3852 3853
          3854 3855 3856 3857 3858 3859
          3860 3861 3862 3863 3864 3865
          3866 3867 3868 3869 3870 3871
          3872 3873 3874 3875 3876 3877
          3878 3879 3880 3881 3882 3883
          3884 3885 3896 3909 3910 3913
          3915 3927 3939 3941 3943 3945
          3946 3947 3948 3949 3950 3951
          3952 3953 3954 3955 3956 3957
          3958 3959 3960 3961 3962 3963
          3964 3965 3966 3967 3968 3969
          3970 3971 3972 3973 3974 3975
          3976 3977 3978 3979 3980 3981
          3982 3983 3984 3985 3986 3987
          3988 3989 3990 3991 3992 3993
          3994 3995 3996 3997 3998 3999
          4000 4001 4002 4081 4082 4083
          4084 4085 4086 4087 4088 4089
          4090 4091 4092 4093 4094 4095
          4096 4097 4098 4099 4100 4101
          4102 4103 4104 4105 4106 4107
          4108 4109 4110 4111 4112 4113
          4114 4115 4116 4117 4118 4119
          4120 4121 4122 4123 4124 4125
          4126 4127 4128 4129 4130 4131
          4132 4133 4134 4135 4136 4137
          4138 4139 4140 4141 4142 4143
          4144 4145 4146 4147 4148 4149
          4150 4151 4152 4153 4154 4155
          4156 4157 4158 4159 4160 4161
          4162 4163 4164 4165 4166 4167
          4168 4169 4170 4171 4172 4173
          4174 4175 4176 4177 4178 4179
          796 1666 1667 1668 506 797
          1671 800 1692 1693 3613 3637
          3638 3640 798 3643 1674 3654
          3655 3658 3660 799 3722 3723
          3728 3762 3763 3765 1712 3768
          1713 3778 3780 3782 1715 3796
          3797 3799 806 3802 1718 3812
          3814 3816 807 3894 3898 3925
          3929
        </DataArray>
        <DataArray type="Float64" Name="bounds" format="ascii" RangeMin="0" RangeMax="0">
          0 0 0 0 0 0
          0 0 0 0 0 0
          0 0 0 0 0 0
          0 0 0 0 0 0
          0 0 0 0 0 0
          0 0 0 0 0 0
          0 0 0 0 0 0
          0 0 0 0 0 0
          0 0 0 0 0 0
          0 0 0 0 0 0
          0 0 0 0 0 0
          0 0 0 0 0 0
          0 0 0 0 0 0
          0 0 0 0 0 0
          0 0 0 0 0 0
          0 0 0 0 0 0
          0 0 0 0 0 0
          0 0 0 0 0 0
          0 0 0 0 0 0
          0 0 0 0 0 0
          0 0 0 0 0 0
          0 0 0 0 0 0
          0 0 0 0 0 0
          0 0 0 0 0 0
          0 0 0 0 0 0
          0 0 0 0 0 0
          0 0 0 0 0 0
          0 0 0 0 0 0
          0 0 0 0 0 0
          0 0 0 0 0 0
          0 0 0 0 0 0
          0 0 0 0 0 0
          0 0 0 0 0 0
          0 0 0 0 0 0
          0 0 0 0 0 0
          0 0 0 0 0 0
          0 0 0 0 0 0
          0 0 0 0 0 0
          0 0 0 0 0 0
          0 0 0 0 0 0
          0 0 0 0 0 0
          0 0 0 0 0 0
          0 0 0 0 0 0
          0 0 0 0 0 0
          0 0 0 0 0 0
          0 0 0 0 0 0
          0 0 0 0 0 0
          0 0 0 0 0 0
          0 0 0 0 0 0
          0 0 0 0 0 0
          0 0 0 0 0 0
          0 0 0 0 0 0
          0 0 0 0 0 0
          0 0 0 0 0 0
          0 0 0 0 0 0
          0 0 0 0 0 0
          0 0 0 0 0 0
          0 0 0 0 0 0
          0 0 0 0 0 0
          0 0 0 0 0 0
          0 0 0 0 0 0
          0 0 0 0 0 0
          0 0 0 0 0 0
          0 0 0 0 0 0
          0 0 0 0 0 0
          0 0 0 0 0 0
          0 0 0 0 0 0
          0 0 0 0 0 0
          0 0 0 0 0 0
          0 0 0 0 0 0
          0 0 0 0 0 0
          0 0 0 0 0 0
          0 0 0 0 0 0
          0 0 0 0 0 0
          0
        </DataArray>
        <DataArray type="Float64" Name="gradient_error" format="ascii" RangeMin="3.463576474792297e-13" RangeMax="5.626732425835126e-10">
          3.4705526742379986e-11 4.756417797205234e-12 8.886875533375549e-12 5.372310875828323e-12 2.269148586371624e-11 7.758000782682979e-12
          1.2792245221724337e-11 2.739524263876307e-11 1.7895700726008358e-12 1.7682534618371463e-12 2.1825208458908502e-12 2.597307320874083e-12
          1.7394253786509205e-11 1.545993245490037e-11 1.1985509348613868e-11 1.0437745564346046e-11 4.44683149016541e-12 5.787821470800132e-12
          4.961759133397373e-12 1.0787328171494995e-11 8.574316237435267e-12 4.920802934590443e-12 2.9998629559899134e-11 2.3503364592783547e-11
          7.144064338507762e-12 1.274556246525223e-11 2.029665579549437e-11 2.1648287764005773e-11 6.185552383979355e-12 8.15333647003342e-12
          4.200621183741761e-12 8.096800786763157e-12 9.264446865992956e-12 5.773183180566412e-12 9.44578170485992e-12 1.0818723359616302e-10
          8.37362902992284e-11 2.4253166654366006e-11 1.8790459801923845e-11 3.781287000436377e-11 8.618349585738151e-12 1.517668616845528e-10
          1.2203309945390415e-10 2.7573740965279995e-11 5.652135981190032e-11 3.9219480308735275e-11 2.1923794782746082e-11 5.666550206467375e-11
          1.1708208389124093e-11 4.8999960730106135e-12 8.541322937050276e-12 5.788743750421731e-12 1.5094469554270643e-11 4.575285091096839e-12
          8.698136540109285e-12 1.519940523022711e-11 2.0453999604015422e-11 2.4117960689560385e-11 4.2995187244833844e-12 3.599731705269918e-12
          4.715028637764999e-12 3.667865857806966e-12 1.359720826681222e-12 1.6042540085506381e-12 1.2992612411252818e-12 2.4321350133788795e-12
          2.3583428403729508e-12 1.7682602797970412e-12 6.830357335735201e-12 5.3848458798004175e-12 1.7573801108335996e-12 3.3107370644355202e-12
          1.911466266149727e-12 2.5552152824682375e-12 1.287566165533959e-12 2.2769466848117406e-12 1.842967426074119e-12 2.9304053308155474e-12
          3.169245838061086e-12 2.8227093517562925e-12 3.4957001994207913e-12 5.896318817171715e-12 7.249383358563624e-12 3.1348953097060517e-12
          3.5740399874515404e-12 8.602447899955535e-12 4.013184665197029e-12 4.005517078974146e-12 3.4635260423867448e-12 1.8918176467113033e-12
          1.6622797214802903e-12 2.308665780157385e-12 1.1272562611206057e-12 1.341654818087004e-12 9.780336125382283e-13 8.340856241675302e-13
          1.35152217197919e-12 1.141769550153776e-12 6.90137635796832e-13 9.32016928328362e-13 1.725010731420152e-12 1.4494534761400221e-12
          1.173896220859892e-12 1.2915362933897197e-11 1.2232320963152716e-11 2.3679308227846432e-11 2.2381846466606367e-11 6.250384580692852e-12
          1.2030692516231699e-11 1.1387963175034488e-11 1.0459984434465559e-11 1.8943580135095677e-11 9.69292994279988e-12 5.9393619373642e-11
          5.5835321593346054e-11 2.8218940624444043e-11 4.641928123361106e-11 3.404912647699227e-12 3.2380683470298824e-12 5.9113496904290155e-12
          5.601640737884115e-12 2.2919223026190436e-12 3.835364317949867e-12 3.63822758490662e-12 2.8077880123161835e-12 4.786192546036344e-12
          3.1074693807215036e-12 1.465744733176804e-11 1.3798795022286061e-11 7.830581624759388e-12 1.1521187208179514e-11 8.178840448672442e-12
          1.4431305785013093e-11 4.367758184288357e-12 7.40218664903337e-12 5.8926908241424925e-12 9.927693604210559e-12 5.881820839770905e-12
          3.428891203836187e-11 1.7364447208630522e-11 2.2611346072028873e-11 2.3172303403603332e-12 3.6828327911896775e-12 1.648243625419843e-12
          2.461463461433782e-12 2.090108702448838e-12 3.0852122756458823e-12 2.149079013287929e-12 8.495672703943746e-12 4.853409136947568e-12
          6.517722305121079e-12 8.676168081454702e-12 4.017054506896937e-12 6.2502376367843665e-12 2.9958461335914506e-12 4.375516590940238e-12
          3.2357183863308955e-12 4.704924070348754e-12 3.433065155176279e-12 1.3397287200813249e-11 8.137303130228993e-12 8.461603331976074e-12
          1.2775021979095752e-10 1.196818042187262e-10 6.401764787791276e-11 5.999234742176634e-11 9.834323300948155e-11 4.934935137036218e-11
          2.1599941225611497e-10 2.0289442858473303e-10 1.0157148598165772e-10 1.6738848041015232e-10 3.10413055398682e-11 2.910428555363526e-11
          1.4493693344995812e-11 1.3599042354080248e-11 2.3979631699669656e-11 1.1225088884374513e-11 5.216821769226693e-11 4.896855496104777e-11
          2.2767225466350186e-11 4.037603330532921e-11 7.0949914956828e-11 3.5709082185977116e-11 4.517150300334829e-11 2.2823730049929174e-11
          1.2031449400699393e-10 6.022664656519517e-11 7.528819200560987e-11 1.7381809044722318e-11 8.165569501975161e-12 1.1118996109190175e-11
          5.253058297095051e-12 2.9100617158572002e-11 1.3591162352326979e-11 1.8362294413868324e-11 2.79739536048243e-10 2.651177776702087e-10
          1.4130933605955336e-10 1.3365165708080106e-10 2.2292216920468848e-10 1.119217026426978e-10 2.986367019406827e-10 2.8467103539177163e-10
          1.4423269756230738e-10 2.4234245697653907e-10 6.858340614295291e-11 6.476838871788824e-11 3.203290737884549e-11 3.021711259169445e-11
          5.408767317682313e-11 2.519208370553934e-11 7.401588005073107e-11 7.01758617051177e-11 3.284425295530703e-11 5.910476580572463e-11
          1.6268531247648257e-10 8.147054942571518e-11 1.021168639099694e-10 5.119740427539455e-11 1.7874741389726329e-10 8.96136907895116e-11
          1.1274035405563647e-10 3.9338898656371474e-11 1.8343278032531666e-11 2.4786937180280394e-11 1.1602367261021788e-11 4.329727091917512e-11
          2.01925983076622e-11 2.7350852217944338e-11 2.4945800033328794e-11 9.097818308054589e-12 1.1917717112713176e-11 7.689136412905514e-12
          1.7760056654529044e-11 5.1666206377206374e-11 2.277609533650151e-11 1.337590153367303e-11 2.4769693281316697e-11 2.5725253077412167e-11
          1.3060056346849571e-11 1.3169353484384279e-11 7.983033876114521e-12 4.161788938572137e-11 2.104140404587476e-11 2.0634153600351168e-11
          4.52106631356603e-12 6.343118082212494e-12 2.1738615850188276e-12 3.0155207308396173e-12 3.267193120433903e-12 4.4198642035523e-12
          2.1102774658551127e-12 1.0242330001359283e-11 4.830239380046398e-12 5.872358382277464e-12 4.763804445382196e-12 6.2602368907536845e-12
          3.3150277596695864e-12 4.275381569473509e-12 3.3191342550771028e-12 4.116019502054365e-12 2.9199838919845844e-12 9.375701881304718e-12
          5.495252571945239e-12 5.783963429164382e-12 5.576442677924279e-11 2.8121492153479925e-11 2.7116365801655888e-11 1.372671210375073e-11
          6.143242730691248e-11 3.095192773771049e-11 2.969779125059719e-11 1.3722110957404931e-11 6.460157104736125e-12 6.732274838001546e-12
          3.852081756668449e-12 1.5124731762950257e-11 7.11701532603986e-12 7.442279745922242e-12 1.2022360764394767e-11 6.17613051166824e-12
          7.129421499787204e-12 3.838684240089257e-12 1.3049987102305273e-11 6.727249855057338e-12 7.603820890277271e-12 2.858638801079127e-12
          3.097315832321726e-12 2.024221084187775e-12 2.09374887647057e-12 2.056464677918095e-12 2.0562517948097043e-12 1.4698247748492453e-12
          3.335992863564326e-12 2.163276668753365e-12 2.0560389117013135e-12 4.326961535452711e-12 4.073281009924272e-12 6.466885645148859e-12
          6.073761090698494e-12 1.7772066082467636e-12 2.8048156509468904e-12 2.638025473851756e-12 3.3956679856955167e-12 5.029272760410061e-12
          2.1979704987512324e-12 1.0886460280250159e-11 1.0223108115866087e-11 4.429708525853682e-12 8.447664218120667e-12 8.196198709591588e-13
          7.757215693173779e-13 1.187834101034372e-12 1.119655753509119e-12 5.058373641677175e-13 7.111185102321344e-13 6.722553942410139e-13
          6.602167234427276e-13 9.401043901897758e-13 5.666689555872658e-13 1.972576064593226e-12 1.8532557254252174e-12 1.0708288073340304e-12
          1.53901388648954e-12 2.533581545727518e-12 3.691903182408984e-12 1.1359871133450198e-12 1.6212611237300834e-12 1.6853152364771496e-12
          2.3984458180939334e-12 1.2487691678389943e-12 6.151268814864995e-12 2.671292890213784e-12 3.921535306293316e-12 5.087742676758913e-13
          6.98061203257168e-13 3.463576474792297e-13 4.3940314666589145e-13 4.2893835614192464e-13 5.673910321186501e-13 3.7886066040714444e-13
          1.1146911693112691e-12 6.63446042112753e-13 8.852899519006673e-13 1.441940467509852e-11 1.3591631766006956e-11 6.2675729017451736e-12
          5.903419930130287e-12 1.1316442527619397e-11 4.91114070423884e-12 1.5672698544541727e-11 1.4811288471754453e-11 6.446267148009958e-12
          1.2400434154122061e-11 2.6369801469953307e-12 2.4797161919585525e-12 1.5396635705483926e-12 1.4457427392706742e-12 2.060160785897787e-12
          1.1929141271147536e-12 2.8848564959137947e-12 2.7165108707675295e-12 1.5885012881875978e-12 2.2622858557533183e-12 8.28540704215311e-12
          3.593334618795917e-12 5.264631247896795e-12 2.704055010530748e-12 9.118501273666683e-12 3.950618591279413e-12 5.797768282917676e-12
          1.4897244367761794e-12 8.825784432645944e-13 1.1815795386785591e-12 7.311505402926374e-13 1.6374146737682655e-12 9.707134481562362e-13
          1.298422881651159e-12 1.0187950482933338e-12 1.391868516788834e-12 6.998301805302667e-13 8.968598034794379e-13 7.623872280922052e-13
          9.927427776357753e-13 6.830451968705387e-13 2.190803108809696e-12 1.3495100770940707e-12 1.5055007500034313e-12 2.9020058781682206e-12
          1.7743158265938022e-12 1.976537146525675e-12 1.243776196854468e-12 3.187347524001383e-12 1.9435009254280725e-12 2.165171120223833e-12
          1.5540753765688788e-11 2.2857958435058574e-11 2.155445309169543e-11 2.4771663789602595e-11 8.259307330950404e-12 2.9219810579489615e-11
          2.174731899786398e-11 6.673232958288072e-12 1.7320158168888182e-11 1.9806524881861242e-11 1.8937109008128846e-11 4.51273545618494e-11
          4.261726302148175e-11 3.596746275288898e-11 1.1370411935857149e-10 1.0684798003968087e-10 8.872798862745782e-11 1.5314527636696275e-11
          2.727699274951166e-11 1.8713866337193864e-11 6.532386913309433e-11 4.292156013444469e-11 7.234043077958456e-12 1.1688834640741484e-11
          2.5319582263344167e-11 2.4599729044691607e-10 2.3044788209651075e-10 1.8927109568690288e-10 4.146727499397197e-10 3.898616168456445e-10
          3.2220373905539825e-10 1.3623208949851633e-10 8.634358253127917e-11 2.317744857415949e-10 1.448030073550557e-10 5.30991364903735e-10
          5.045776057759537e-10 4.2667706681548993e-10 5.626732425835126e-10 5.384254049969035e-10 4.620828633099956e-10 3.127942378560079e-10
          1.9651408727183465e-10 3.4309540282199693e-10 2.1688793186753207e-10 4.880600297368135e-11 7.950134717738885e-11 1.0689305471477179e-10
          1.1789988269896477e-10
        </DataArray>
        <DataArray type="Float64" Name="gradient_matprop_error" format="ascii" RangeMin="0" RangeMax="0">
          0 0 0 0 0 0
          0 0 0 0 0 0
          0 0 0 0 0 0
          0 0 0 0 0 0
          0 0 0 0 0 0
          0 0 0 0 0 0
          0 0 0 0 0 0
          0 0 0 0 0 0
          0 0 0 0 0 0
          0 0 0 0 0 0
          0 0 0 0 0 0
          0 0 0 0 0 0
          0 0 0 0 0 0
          0 0 0 0 0 0
          0 0 0 0 0 0
          0 0 0 0 0 0
          0 0 0 0 0 0
          0 0 0 0 0 0
          0 0 0 0 0 0
          0 0 0 0 0 0
          0 0 0 0 0 0
          0 0 0 0 0 0
          0 0 0 0 0 0
          0 0 0 0 0 0
          0 0 0 0 0 0
          0 0 0 0 0 0
          0 0 0 0 0 0
          0 0 0 0 0 0
          0 0 0 0 0 0
          0 0 0 0 0 0
          0 0 0 0 0 0
          0 0 0 0 0 0
          0 0 0 0 0 0
          0 0 0 0 0 0
          0 0 0 0 0 0
          0 0 0 0 0 0
          0 0 0 0 0 0
          0 0 0 0 0 0
          0 0 0 0 0 0
          0 0 0 0 0 0
          0 0 0 0 0 0
          0 0 0 0 0 0
          0 0 0 0 0 0
          0 0 0 0 0 0
          0 0 0 0 0 0
          0 0 0 0 0 0
          0 0 0 0 0 0
          0 0 0 0 0 0
          0 0 0 0 0 0
          0 0 0 0 0 0
          0 0 0 0 0 0
          0 0 0 0 0 0
          0 0 0 0 0 0
          0 0 0 0 0 0
          0 0 0 0 0 0
          0 0 0 0 0 0
          0 0 0 0 0 0
          0 0 0 0 0 0
          0 0 0 0 0 0
          0 0 0 0 0 0
          0 0 0 0 0 0
          0 0 0 0 0 0
          0 0 0 0 0 0
          0 0 0 0 0 0
          0 0 0 0 0 0
          0 0 0 0 0 0
          0 0 0 0 0 0
          0 0 0 0 0 0
          0 0 0 0 0 0
          0 0 0 0 0 0
          0 0 0 0 0 0
          0 0 0 0 0 0
          0 0 0 0 0 0
          0 0 0 0 0 0
          0
        </DataArray>
        <DataArray type="Float64" Name="initial_marker" format="ascii" RangeMin="0" RangeMax="2">
          2 0 1.5 0.75 0 0
          2 0.5 0 0 1 0
          0 0 0.5 0.25 0 0
          0 0 0 0 2 2
          1.5 1.75 0 1 0 0
          0 0 0.25 0 0 2
          2 2 2 2 2 2
          2 2 2 2 0.25 2
          1.5 0.25 0 0 2 0.5
          0 0 0 0 0.5 0.25
          2 2 0 0.5 0.25 0
          0.5 0 2 2 0.5 1.5
          0 0 0 0 0 0
          0 0 0 0 0 0
          0 0 0 0 0 0
          0 0 0 0 0 0
          0 0 0 0 0 0
          0 2 2 2 2 1
          1.5 1.5 1.5 1.75 1.25 2
          2 2 2 0 0 1
          1 0 1 1 0 1
          1 2 2 2 2 0.5
          1.25 0 1 0 1 1
          2 2 2 0 0.75 0
          0.5 0 0.5 0 1.75 1.6666666666666667
          1.6666666666666667 0.5 0 0.5 0 0.5
          0 0 0 1.5 1.3333333333333333 0.6666666666666666
          2 2 2 2 2 2
          2 2 2 2 2 2
          2 2 2 2 2 2
          2 2 2 2 2 2
          2 2 2 2 2 2
          1.75 2 2 2 2 2
          2 2 2 2 2 2
          2 2 2 2 2 2
          2 2 2 2 2 2
          2 2 2 2 2 2
          2 2 2 2 2 2
          2 2 1.75 0.5 0.75 0
          1.25 2 1.5 1 1.5 2
          1.75 1.5 1.3333333333333333 2 2 2
          1 1.25 0.5 0.75 0 0.5
          0 1.75 1.25 1 0 0.5
          0 0.5 0 0 0 1
          0.6666666666666666 0 2 2 2 1.75
          2 2 2 2 1.5 1.25
          0.6666666666666666 2 1.5 1.5 1 0.75
          0 0 1 1 0 0
          0.25 0 0 0 0 0
          0.5 0 0 2 2 2
          2 1 1.5 1.5 1.5 1.75
          1.25 2 2 2 2 0
          0 0.5 0.5 0 0 0
          0 0.5 0 1.5 1.5 1
          1.25 1 1.5 0 0.75 0.5
          1 0.3333333333333333 2 1.5 1.5 0
          0.25 0 0 0 0 0
          0.5 0 0 2 2 2
          2 2 2 2 2 2
          2 2 2 2 2 1.5
          1 2 2 2 1.5 2
          1.75 1.75 1.3333333333333333 2 2 2
          0.75 0 0.5 0 1 0
          1 0 0.25 0 0 0
          0 0 0.5 0 0 0.75
          0.5 0 0 1 1 0
          0 0 1 1 0 0
          0.25 0 0 0 1.3333333333333333 2
          2 2 2 2 2 1.5
          1.75 1.25 2 2 0 0.75
          1.75 2 2 2 2 2
          2 2 2 2 2 2
          2 2 2 2 2 2
          2 2 2 2 2 2
          2
        </DataArray>
        <DataArray type="Float64" Name="markers_norefine" format="ascii" RangeMin="0" RangeMax="0">
          0 0 0 0 0 0
          0 0 0 0 0 0
          0 0 0 0 0 0
          0 0 0 0 0 0
          0 0 0 0 0 0
          0 0 0 0 0 0
          0 0 0 0 0 0
          0 0 0 0 0 0
          0 0 0 0 0 0
          0 0 0 0 0 0
          0 0 0 0 0 0
          0 0 0 0 0 0
          0 0 0 0 0 0
          0 0 0 0 0 0
          0 0 0 0 0 0
          0 0 0 0 0 0
          0 0 0 0 0 0
          0 0 0 0 0 0
          0 0 0 0 0 0
          0 0 0 0 0 0
          0 0 0 0 0 0
          0 0 0 0 0 0
          0 0 0 0 0 0
          0 0 0 0 0 0
          0 0 0 0 0 0
          0 0 0 0 0 0
          0 0 0 0 0 0
          0 0 0 0 0 0
          0 0 0 0 0 0
          0 0 0 0 0 0
          0 0 0 0 0 0
          0 0 0 0 0 0
          0 0 0 0 0 0
          0 0 0 0 0 0
          0 0 0 0 0 0
          0 0 0 0 0 0
          0 0 0 0 0 0
          0 0 0 0 0 0
          0 0 0 0 0 0
          0 0 0 0 0 0
          0 0 0 0 0 0
          0 0 0 0 0 0
          0 0 0 0 0 0
          0 0 0 0 0 0
          0 0 0 0 0 0
          0 0 0 0 0 0
          0 0 0 0 0 0
          0 0 0 0 0 0
          0 0 0 0 0 0
          0 0 0 0 0 0
          0 0 0 0 0 0
          0 0 0 0 0 0
          0 0 0 0 0 0
          0 0 0 0 0 0
          0 0 0 0 0 0
          0 0 0 0 0 0
          0 0 0 0 0 0
          0 0 0 0 0 0
          0 0 0 0 0 0
          0 0 0 0 0 0
          0 0 0 0 0 0
          0 0 0 0 0 0
          0 0 0 0 0 0
          0 0 0 0 0 0
          0 0 0 0 0 0
          0 0 0 0 0 0
          0 0 0 0 0 0
          0 0 0 0 0 0
          0 0 0 0 0 0
          0 0 0 0 0 0
          0 0 0 0 0 0
          0 0 0 0 0 0
          0 0 0 0 0 0
          0 0 0 0 0 0
          0
        </DataArray>
        <DataArray type="Float64" Name="markers_mustrefine" format="ascii" RangeMin="0" RangeMax="2">
          2 0 1.5 0.75 0 0
          2 0.5 0 0 1 0
          0 0 0.5 0.25 0 0
          0 0 0 0 2 2
          1.5 1.75 0 1 0 0
          0 0 0.25 0 0 2
          2 2 2 2 2 2
          2 2 2 2 0.25 2
          1.5 0.25 0 0 2 0.5
          0 0 0 0 0.5 0.25
          2 2 0 0.5 0.25 0
          0.5 0 2 2 0.5 1.5
          0 0 0 0 0 0
          0 0 0 0 0 0
          0 0 0 0 0 0
          0 0 0 0 0 0
          0 0 0 0 0 0
          0 2 2 2 2 1
          1.5 1.5 1.5 1.75 1.25 2
          2 2 2 0 0 1
          1 0 1 1 0 1
          1 2 2 2 2 0.5
          1.25 0 1 0 1 1
          2 2 2 0 0.75 0
          0.5 0 0.5 0 1.75 1.6666666666666667
          1.6666666666666667 0.5 0 0.5 0 0.5
          0 0 0 1.5 1.3333333333333333 0.6666666666666666
          2 2 2 2 2 2
          2 2 2 2 2 2
          2 2 2 2 2 2
          2 2 2 2 2 2
          2 2 2 2 2 2
          1.75 2 2 2 2 2
          2 2 2 2 2 2
          2 2 2 2 2 2
          2 2 2 2 2 2
          2 2 2 2 2 2
          2 2 2 2 2 2
          2 2 1.75 0.5 0.75 0
          1.25 2 1.5 1 1.5 2
          1.75 1.5 1.3333333333333333 2 2 2
          1 1.25 0.5 0.75 0 0.5
          0 1.75 1.25 1 0 0.5
          0 0.5 0 0 0 1
          0.6666666666666666 0 2 2 2 1.75
          2 2 2 2 1.5 1.25
          0.6666666666666666 2 1.5 1.5 1 0.75
          0 0 1 1 0 0
          0.25 0 0 0 0 0
          0.5 0 0 2 2 2
          2 1 1.5 1.5 1.5 1.75
          1.25 2 2 2 2 0
          0 0.5 0.5 0 0 0
          0 0.5 0 1.5 1.5 1
          1.25 1 1.5 0 0.75 0.5
          1 0.3333333333333333 2 1.5 1.5 0
          0.25 0 0 0 0 0
          0.5 0 0 2 2 2
          2 2 2 2 2 2
          2 2 2 2 2 1.5
          1 2 2 2 1.5 2
          1.75 1.75 1.3333333333333333 2 2 2
          0.75 0 0.5 0 1 0
          1 0 0.25 0 0 0
          0 0 0.5 0 0 0.75
          0.5 0 0 1 1 0
          0 0 1 1 0 0
          0.25 0 0 0 1.3333333333333333 2
          2 2 2 2 2 1.5
          1.75 1.25 2 2 0 0.75
          1.75 2 2 2 2 2
          2 2 2 2 2 2
          2 2 2 2 2 2
          2 2 2 2 2 2
          2
        </DataArray>
        <DataArray type="Float64" Name="gradient_marker" format="ascii" RangeMin="1" RangeMax="1">
          1 1 1 1 1 1
          1 1 1 1 1 1
          1 1 1 1 1 1
          1 1 1 1 1 1
          1 1 1 1 1 1
          1 1 1 1 1 1
          1 1 1 1 1 1
          1 1 1 1 1 1
          1 1 1 1 1 1
          1 1 1 1 1 1
          1 1 1 1 1 1
          1 1 1 1 1 1
          1 1 1 1 1 1
          1 1 1 1 1 1
          1 1 1 1 1 1
          1 1 1 1 1 1
          1 1 1 1 1 1
          1 1 1 1 1 1
          1 1 1 1 1 1
          1 1 1 1 1 1
          1 1 1 1 1 1
          1 1 1 1 1 1
          1 1 1 1 1 1
          1 1 1 1 1 1
          1 1 1 1 1 1
          1 1 1 1 1 1
          1 1 1 1 1 1
          1 1 1 1 1 1
          1 1 1 1 1 1
          1 1 1 1 1 1
          1 1 1 1 1 1
          1 1 1 1 1 1
          1 1 1 1 1 1
          1 1 1 1 1 1
          1 1 1 1 1 1
          1 1 1 1 1 1
          1 1 1 1 1 1
          1 1 1 1 1 1
          1 1 1 1 1 1
          1 1 1 1 1 1
          1 1 1 1 1 1
          1 1 1 1 1 1
          1 1 1 1 1 1
          1 1 1 1 1 1
          1 1 1 1 1 1
          1 1 1 1 1 1
          1 1 1 1 1 1
          1 1 1 1 1 1
          1 1 1 1 1 1
          1 1 1 1 1 1
          1 1 1 1 1 1
          1 1 1 1 1 1
          1 1 1 1 1 1
          1 1 1 1 1 1
          1 1 1 1 1 1
          1 1 1 1 1 1
          1 1 1 1 1 1
          1 1 1 1 1 1
          1 1 1 1 1 1
          1 1 1 1 1 1
          1 1 1 1 1 1
          1 1 1 1 1 1
          1 1 1 1 1 1
          1 1 1 1 1 1
          1 1 1 1 1 1
          1 1 1 1 1 1
          1 1 1 1 1 1
          1 1 1 1 1 1
          1 1 1 1 1 1
          1 1 1 1 1 1
          1 1 1 1 1 1
          1 1 1 1 1 1
          1 1 1 1 1 1
          1 1 1 1 1 1
          1
        </DataArray>
        <DataArray type="Float64" Name="gradient_matprop_marker" format="ascii" RangeMin="0" RangeMax="0">
          0 0 0 0 0 0
          0 0 0 0 0 0
          0 0 0 0 0 0
          0 0 0 0 0 0
          0 0 0 0 0 0
          0 0 0 0 0 0
          0 0 0 0 0 0
          0 0 0 0 0 0
          0 0 0 0 0 0
          0 0 0 0 0 0
          0 0 0 0 0 0
          0 0 0 0 0 0
          0 0 0 0 0 0
          0 0 0 0 0 0
          0 0 0 0 0 0
          0 0 0 0 0 0
          0 0 0 0 0 0
          0 0 0 0 0 0
          0 0 0 0 0 0
          0 0 0 0 0 0
          0 0 0 0 0 0
          0 0 0 0 0 0
          0 0 0 0 0 0
          0 0 0 0 0 0
          0 0 0 0 0 0
          0 0 0 0 0 0
          0 0 0 0 0 0
          0 0 0 0 0 0
          0 0 0 0 0 0
          0 0 0 0 0 0
          0 0 0 0 0 0
          0 0 0 0 0 0
          0 0 0 0 0 0
          0 0 0 0 0 0
          0 0 0 0 0 0
          0 0 0 0 0 0
          0 0 0 0 0 0
          0 0 0 0 0 0
          0 0 0 0 0 0
          0 0 0 0 0 0
          0 0 0 0 0 0
          0 0 0 0 0 0
          0 0 0 0 0 0
          0 0 0 0 0 0
          0 0 0 0 0 0
          0 0 0 0 0 0
          0 0 0 0 0 0
          0 0 0 0 0 0
          0 0 0 0 0 0
          0 0 0 0 0 0
          0 0 0 0 0 0
          0 0 0 0 0 0
          0 0 0 0 0 0
          0 0 0 0 0 0
          0 0 0 0 0 0
          0 0 0 0 0 0
          0 0 0 0 0 0
          0 0 0 0 0 0
          0 0 0 0 0 0
          0 0 0 0 0 0
          0 0 0 0 0 0
          0 0 0 0 0 0
          0 0 0 0 0 0
          0 0 0 0 0 0
          0 0 0 0 0 0
          0 0 0 0 0 0
          0 0 0 0 0 0
          0 0 0 0 0 0
          0 0 0 0 0 0
          0 0 0 0 0 0
          0 0 0 0 0 0
          0 0 0 0 0 0
          0 0 0 0 0 0
          0 0 0 0 0 0
          0
        </DataArray>
        <DataArray type="Float64" Name="combo" format="ascii" RangeMin="1" RangeMax="1">
          1 1 1 1 1 1
          1 1 1 1 1 1
          1 1 1 1 1 1
          1 1 1 1 1 1
          1 1 1 1 1 1
          1 1 1 1 1 1
          1 1 1 1 1 1
          1 1 1 1 1 1
          1 1 1 1 1 1
          1 1 1 1 1 1
          1 1 1 1 1 1
          1 1 1 1 1 1
          1 1 1 1 1 1
          1 1 1 1 1 1
          1 1 1 1 1 1
          1 1 1 1 1 1
          1 1 1 1 1 1
          1 1 1 1 1 1
          1 1 1 1 1 1
          1 1 1 1 1 1
          1 1 1 1 1 1
          1 1 1 1 1 1
          1 1 1 1 1 1
          1 1 1 1 1 1
          1 1 1 1 1 1
          1 1 1 1 1 1
          1 1 1 1 1 1
          1 1 1 1 1 1
          1 1 1 1 1 1
          1 1 1 1 1 1
          1 1 1 1 1 1
          1 1 1 1 1 1
          1 1 1 1 1 1
          1 1 1 1 1 1
          1 1 1 1 1 1
          1 1 1 1 1 1
          1 1 1 1 1 1
          1 1 1 1 1 1
          1 1 1 1 1 1
          1 1 1 1 1 1
          1 1 1 1 1 1
          1 1 1 1 1 1
          1 1 1 1 1 1
          1 1 1 1 1 1
          1 1 1 1 1 1
          1 1 1 1 1 1
          1 1 1 1 1 1
          1 1 1 1 1 1
          1 1 1 1 1 1
          1 1 1 1 1 1
          1 1 1 1 1 1
          1 1 1 1 1 1
          1 1 1 1 1 1
          1 1 1 1 1 1
          1 1 1 1 1 1
          1 1 1 1 1 1
          1 1 1 1 1 1
          1 1 1 1 1 1
          1 1 1 1 1 1
          1 1 1 1 1 1
          1 1 1 1 1 1
          1 1 1 1 1 1
          1 1 1 1 1 1
          1 1 1 1 1 1
          1 1 1 1 1 1
          1 1 1 1 1 1
          1 1 1 1 1 1
          1 1 1 1 1 1
          1 1 1 1 1 1
          1 1 1 1 1 1
          1 1 1 1 1 1
          1 1 1 1 1 1
          1 1 1 1 1 1
          1 1 1 1 1 1
          1
        </DataArray>
        <DataArray type="Float64" Name="dHdT" format="ascii" RangeMin="25.811503939373498" RangeMax="26.082151986153775">
          25.82557298952671 25.811762908877373 25.813443540581268 25.812298169564095 25.812949734099 25.81171818079058
          25.815515898615033 25.814783390652522 25.811569546075035 25.811527148093308 25.81183667762527 25.811617160614702
          25.81233011260719 25.81225307287039 25.81295698821474 25.812748882031684 25.811741136981674 25.81193766649301
          25.811874988023703 25.812062035478608 25.812316367339157 25.811790575339653 25.820382013677744 25.818386962223972
          25.81302409337178 25.81477414316306 25.81257799144483 25.81561891885967 25.81186522508864 25.812022880897402
          25.811715069724762 25.811953466664345 25.81266179822009 25.811888589259553 25.81212818488045 25.849888676830517