<?xml version="1.0"?>
<VTKFile type="UnstructuredGrid" version="0.1" byte_order="LittleEndian" header_type="UInt32" compressor="vtkZLibDataCompressor">
  <UnstructuredGrid>
    <Piece NumberOfPoints="454" NumberOfCells="264">
      <PointData>
        <DataArray type="Int32" Name="libmesh_node_id" format="ascii" RangeMin="386" RangeMax="3508">
          386 394 489 491 492 748
          750 752 753 758 1119 1124
          1125 1126 1128 1129 1130 1131
          1474 1475 1476 1477 1478 1479
          1480 1484 1485 1486 1488 1489
          1490 1491 1492 1493 1494 1497
          1498 1499 1500 1524 1525 1530
          1532 1533 1534 1535 1538 1539
          1540 2010 2011 2012 2014 2015
          2016 2017 2018 2019 2020 2023
          2034 2035 2041 2054 2058 2637
          2638 2639 2640 2641 2642 2643
          2645 2650 2651 2652 2653 2654
          2655 2656 2660 2662 2663 2664
          2665 2666 2667 2668 2669 2670
          2671 2672 2673 2674 2675 2676
          2677 2678 2679 2680 2681 2682
          2683 2684 2685 2686 2687 2688
          2689 2690 2691 2692 2693 2694
          2695 2696 2700 2701 2703 2704
          2705 2706 2707 2708 2709 2710
          2711 2713 2714 2715 2716 2717
          2718 2719 2720 2721 2722 2723
          2724 2725 2726 2727 2728 2729
          2730 2731 2732 2733 2734 2737
          2738 2740 2741 2744 2745 2770
          2822 2823 2824 2825 2826 2827
          2828 2829 2830 2831 2839 2840
          2841 2843 2844 2845 2856 2857
          2858 2859 2860 2861 2862 2863
          2864 2865 2873 2874 2877 2878
          2880 2881 2882 2883 2884 2885
          2886 2887 2888 2889 2890 2891
          2892 2893 2894 2895 2896 2897
          2898 2899 2900 2901 2904 2905
          2907 2908 2911 2912 2914 2915
          2916 2917 2918 2919 2920 2921
          2922 2923 2924 2925 2926 2927
          2928 2929 2930 2931 2932 2933
          2934 2935 2938 2939 2941 2942
          2945 2946 3067 3068 3069 3070
          3074 3075 3077 3078 3080 3095
          3096 3099 3100 3102 3104 3115
          3116 3119 3121 3122 3124 3135
          3137 3139 3141 3231 3232 3235
          3236 3238 3339 3340 3343 3345
          3346 3348 3359 3361 3363 3365
          3373 3374 3377 3379 3380 3382
          3393 3395 3397 3399 1127 1133
          1132 1120 749 738 1134 1135
          1136 1137 1141 1142 1481 1483
          1482 751 1487 2021 2022 2013
          1495 2029 2027 2030 2028 1514
          1512 2036 2037 2038 2039 2040
          2042 2043 1580 1581 1587 2055
          2056 2057 2059 2033 2060 1608
          2697 2698 2644 2699 2702 1496
          2712 2735 2661 2736 2739 1501
          2742 2743 2746 754 2768 2760
          2769 2761 2771 2772 2774 2773
          2775 2766 2776 2786 2785 2842
          1527 2902 2903 2906 1536 2909
          2910 2913 1537 2936 2876 2937
          2940 759 1541 2943 2944 2947
          760 3071 3072 3073 3076 1582
          3079 1583 3097 3098 3101 3103
          1588 3117 3118 3120 1590 3123
          1591 3136 3138 3140 1593 3233
          3234 3237 3239 3240 1515 1609
          3251 3252 3253 2788 3254 3255
          2790 3256 3341 3342 3344 1628
          3347 1629 3360 3362 3364 1632
          3375 3376 3378 1634 3381 1635
          3394 3396 3398 1637 3475 2978
          3476 3479 2982 3480 3503 3006
          3504 3507 3010 3508
        </DataArray>
        <DataArray type="Float64" Name="bounds" format="ascii" RangeMin="0" RangeMax="0">
          0 0 0 0 0 0
          0 0 0 0 0 0
          0 0 0 0 0 0
          0 0 0 0 0 0
          0 0 0 0 0 0
          0 0 0 0 0 0
          0 0 0 0 0 0
          0 0 0 0 0 0
          0 0 0 0 0 0
          0 0 0 0 0 0
          0 0 0 0 0 0
          0 0 0 0 0 0
          0 0 0 0 0 0
          0 0 0 0 0 0
          0 0 0 0 0 0
          0 0 0 0 0 0
          0 0 0 0 0 0
          0 0 0 0 0 0
          0 0 0 0 0 0
          0 0 0 0 0 0
          0 0 0 0 0 0
          0 0 0 0 0 0
          0 0 0 0 0 0
          0 0 0 0 0 0
          0 0 0 0 0 0
          0 0 0 0 0 0
          0 0 0 0 0 0
          0 0 0 0 0 0
          0 0 0 0 0 0
          0 0 0 0 0 0
          0 0 0 0 0 0
          0 0 0 0 0 0
          0 0 0 0 0 0
          0 0 0 0 0 0
          0 0 0 0 0 0
          0 0 0 0 0 0
          0 0 0 0 0 0
          0 0 0 0 0 0
          0 0 0 0 0 0
          0 0 0 0 0 0
          0 0 0 0 0 0
          0 0 0 0 0 0
          0 0 0 0 0 0
          0 0 0 0 0 0
          0 0 0 0 0 0
          0 0 0 0 0 0
          0 0 0 0 0 0
          0 0 0 0 0 0
          0 0 0 0 0 0
          0 0 0 0 0 0
          0 0 0 0 0 0
          0 0 0 0 0 0
          0 0 0 0 0 0
          0 0 0 0 0 0
          0 0 0 0 0 0
          0 0 0 0 0 0
          0 0 0 0 0 0
          0 0 0 0 0 0
          0 0 0 0 0 0
          0 0 0 0 0 0
          0 0 0 0 0 0
          0 0 0 0 0 0
          0 0 0 0 0 0
          0 0 0 0 0 0
          0 0 0 0 0 0
          0 0 0 0 0 0
          0 0 0 0 0 0
          0 0 0 0 0 0
          0 0 0 0 0 0
          0 0 0 0 0 0
          0 0 0 0 0 0
          0 0 0 0 0 0
          0 0 0 0 0 0
          0 0 0 0 0 0
          0 0 0 0 0 0
          0 0 0 0
        </DataArray>
        <DataArray type="Float64" Name="gradient_error" format="ascii" RangeMin="5.1466211561744107e-11" RangeMax="8.737644865157956e-8">
          5.742039462014902e-10 1.9060171229899854e-8 5.320809233556097e-8 5.908657923075742e-10 1.2639360200190952e-9 1.9719320391783743e-8
          5.240635543168886e-8 8.049129871656335e-10 1.4896466451962467e-8 1.84687586399539e-8 2.997083297518931e-8 5.200037669879754e-10
          1.089363005617394e-9 1.1163685162536898e-8 4.803884514965158e-10 4.604370973063746e-10 4.1692910416945676e-10 1.7251580241897541e-9
          3.6356589308463383e-8 3.305577359468587e-8 8.737644865157956e-8 7.764546017892259e-8 1.1384901652265158e-8 4.342916647236562e-8
          3.8314995718604526e-8 8.680592276092011e-8 7.706756224812542e-8 4.552999748111044e-8 2.256852210058977e-9 2.0223667231563345e-9
          5.243647661280949e-9 4.483174277026094e-9 1.12804836063807e-9 3.1872834322934587e-9 2.685241181347875e-9 1.6116170773716426e-9
          2.0896553407213344e-8 1.7367822685225504e-8 1.227983019352918e-8 3.6518350622858024e-8 3.597159142482512e-8 3.148820733601785e-8
          3.455549884759646e-8 3.365885212278012e-8 2.9527225019830728e-8 2.7888985487390534e-8 2.1502618228441624e-8 2.9559761923856038e-8
          2.561927265695731e-8 2.1842095981670394e-9 3.1784561031464356e-9 2.8629830918227424e-9 1.575426186947431e-9 1.4182290090665797e-9
          2.3738476787148765e-9 2.1436795903739425e-9 4.4808207174216726e-10 1.1483682867461733e-9 1.0414650020903377e-9 7.78967732488986e-10
          1.9013806790366936e-10 1.7695053059520228e-10 1.4271092931641833e-10 1.1257526622456061e-10 1.0349166710301977e-10 2.6333766723550094e-9
          3.3119914492142147e-9 3.2124169831474873e-9 2.9573727260508136e-9 7.676930261399869e-9 2.0677003315677887e-9 2.553743972202411e-9
          5.682402610965303e-9 1.4284682968084672e-8 1.3623306178949625e-8 1.2163576228934628e-8 3.49875535784485e-8 3.394793653094373e-8
          2.6595924723270235e-8 3.0533100452531394e-8 1.0088281614009001e-8 2.5172152106624882e-8 1.9249022368465698e-8 2.218642279162592e-8
          2.134453443111705e-9 2.073150561245184e-9 2.9861816203660315e-9 2.890823693817673e-9 1.2995223396911148e-9 2.319788569544911e-9
          2.237670263725703e-9 1.8955245098450646e-9 2.633379903179349e-9 2.005937123073805e-9 6.950074650195363e-9 6.666282283845078e-9
          5.0425832603521765e-9 5.949475656480299e-9 9.799508599768503e-10 9.455847844775708e-10 1.731580765569493e-9 1.666800357443444e-9
          6.933733642078318e-10 1.2895672722977017e-9 1.2400592599123265e-9 8.48847135394677e-10 1.4865393425958812e-9 1.1024365888821891e-9
          4.109464927733452e-9 3.944469821339068e-9 3.0535253631321416e-9 3.487393698776065e-9 1.6175454194536395e-9 2.2429020595897067e-9
          9.9360709087392e-10 1.6723282255368293e-9 4.9207382718161425e-9 3.6845349889626067e-9 7.117882501815288e-10 1.2304553028477335e-9
          5.185624177335737e-10 9.076053535938112e-10 5.606469252840451e-10 9.475089497920884e-10 6.935738685039132e-10 2.8402765781248247e-9
          2.169025585596629e-9 1.3030131062032288e-8 1.246117259787455e-8 1.0814151512410059e-8 1.0366596328178486e-8 1.1072142145633766e-8
          9.134172348910468e-9 2.330115344001272e-8 2.2308960922959064e-8 1.9957228666907518e-8 1.9622823044984076e-8 8.96460672260093e-9
          8.577513053759086e-9 7.265818033278787e-9 6.942902460148948e-9 7.518665574174321e-9 6.0568697517491825e-9 1.7888919065621263e-8
          1.7057525599500777e-8 1.4194032325104516e-8 1.4791354637754836e-8 9.112792300612792e-9 7.413173811635691e-9 1.58535750885371e-8
          1.382333754189911e-8 6.043456635482619e-9 4.8214567850500734e-9 1.1692053512240723e-8 9.647325889119678e-9 3.1052678492132593e-10
          3.5771379068665336e-8 3.519420962168852e-8 3.522068934146159e-8 3.454555634510272e-8 3.321191255861776e-8 3.2248407352136464e-8
          3.610467159586878e-8 3.6212048800184107e-8 3.653310619949037e-8 3.581133374097094e-8 2.8994834952096852e-8 2.750297261135614e-8
          2.6182884961669883e-8 3.3977364433807935e-8 3.3470041618500385e-8 3.265148739017342e-8 2.575997848052498e-8 2.8976854723003758e-8
          2.7180044966192004e-8 2.994415714330812e-8 3.342380371582512e-8 3.363360860805262e-8 1.5865818328194575e-8 2.197009455807262e-8
          2.386143205745532e-8 3.1115664614412485e-8 3.475027751414856e-8 3.4409274701993056e-8 3.436334395825007e-8 3.393665064646127e-8
          3.3815833537039786e-8 3.3086858360498425e-8 3.170400401071579e-8 3.088135534714769e-8 3.053960823562067e-8 2.8044882262399524e-8
          3.603353016765215e-8 3.595743248906894e-8 3.447190361007125e-8 3.5273138169507034e-8 2.883186815501241e-8 2.787553996689151e-8
          2.522202363993425e-8 2.4226221076710595e-8 2.483330207233844e-8 2.12570137640557e-8 3.2326399632300995e-8 3.2225233651337536e-8
          2.933933152609506e-8 3.112942268335622e-8 2.5499860444021935e-8 2.2883896696841904e-8 3.23516954803433e-8 3.026603062466899e-8
          1.986910282458402e-8 1.6763398335851383e-8 2.7236974451357215e-8 2.3707191309003432e-8 2.7757115501066008e-8 3.0015793589248984e-8
          2.727978256245863e-8 2.906705823262121e-8 3.3015488113403065e-8 3.1692539949891626e-8 2.0474553482176056e-8 2.4970794529887896e-8
          2.4862406928993174e-8 3.0934838543885844e-8 2.582931617870226e-8 2.7295575214187463e-8 2.372303928895429e-8 2.512004047342737e-8
          2.9828494848735185e-8 2.7557997480477987e-8 2.108522553248192e-8 2.3430814255730685e-8 2.1191294747527205e-8 2.766881450051872e-8
          3.360919041693853e-8 3.2183352879553954e-8 3.30599273414792e-8 3.176408982520141e-8 2.9875190285728905e-8 2.6884834176172807e-8
          2.97860127636595e-8 2.7188941316163085e-8 5.165273620518952e-10 4.980138729274865e-10 9.439034254660806e-10 9.069239298951024e-10
          4.4540083074702517e-10 8.041848804538077e-10 2.4150680518172023e-9 2.309931906230562e-9 2.0222472715453237e-9 3.705234591300166e-10
          6.591561600117197e-10 2.883915507923306e-10 5.009252145098317e-10 1.622462812494823e-9 1.194879824367402e-9 5.739948489253163e-9
          5.476199149358264e-9 4.750563429189023e-9 1.2124109322014489e-8 1.1534250720524495e-8 9.93831841077888e-9 3.742341799464578e-9
          2.6804928631859147e-9 7.751768280674155e-9 5.4576822089506886e-9 2.1967307741946858e-10 3.515988618780177e-10 1.9230869382333647e-10
          2.8123428817632e-10 8.063090176833402e-10 2.1276110708602088e-8 2.0344751510714725e-8 1.765612862398351e-8 2.6432249834125824e-8
          2.6089767563633894e-8 2.4245843989868974e-8 1.376161763589925e-8 9.624419177503005e-9 1.998020924475389e-8 1.427131917251092e-8
          2.1730000922609783e-8 2.312037943206039e-8 2.5057518917530663e-8 1.6920545313895313e-8 1.9330593790351563e-8 2.3678571527180616e-8
          2.3400563217662032e-8 1.7683353049981062e-8 2.4047953491099406e-8 1.8842226647909272e-8 8.99045741394197e-9 7.203504691203748e-10
          4.819355281613558e-9 2.4444661631699327e-8 1.434067734625544e-8 3.9325798131276865e-8 2.3180982585939412e-10 1.9662826195533074e-10
          1.5872217930063357e-10 1.3029183525821356e-10 1.335105560434813e-10 1.9807110073492212e-10 2.4540012107759873e-8 2.6147846720186393e-8
          5.407508294207508e-8 4.46816849830965e-8 8.368971075360808e-8 1.081631516567403e-9 1.6424606535429299e-9 2.217404019006926e-9
          1.4963176331790011e-9 2.614841731731985e-10 7.209938921013162e-10 4.834597087846122e-10 1.0752067100912216e-9 9.086507138757451e-10
          1.8185562931939104e-9 5.34516740192505e-10 4.836761128935625e-10 7.969087675106705e-11 2.470000207687602e-10 2.2317721680959519e-10
          3.590492941677378e-10 1.6448552190641788e-10 6.214500903128276e-10 5.518801812134124e-10 3.886518935177557e-10 2.238951539505572e-10
          5.1466211561744107e-11 1.0355459818007214e-10 1.625272051602589e-10 3.435456700257542e-10 7.749256539773861e-11 4.3862032830764854e-10
          1.2911540291975103e-9 1.7852135451298738e-9 2.0618316216845797e-9 1.3002594054673967e-9 3.757912452023979e-9 2.800353512992245e-9
          2.1333808819010874e-9 6.864288768831401e-9 7.58033268116093e-9 5.557033682528261e-9 1.1880687767700846e-8 1.014069823721549e-8
          4.4552809569591725e-9 3.5010519264487074e-9 8.45566559149874e-9 6.8871673481719245e-9 4.332640457123437e-10 6.117941397765403e-10
          6.756677342495176e-10 9.371168980716025e-10 4.906472664132105e-10 3.823351794085919e-10 3.9503557276879005e-10 5.461694387359581e-10
          1.471728349665378e-9 1.9638858465436707e-9 1.0989709500495056e-9 2.3290568023363605e-9 3.0198427424643456e-9 2.191552390697064e-8
          6.338465748222864e-8 1.9021950194669943e-8 1.661493115017679e-8 2.5617285388842702e-8 2.3381423690323486e-8 1.420861525181682e-8
          1.1850849241200488e-8 2.0410747739831143e-8 1.7310930519599897e-8 2.9529298342746557e-8 3.1554852530762504e-8 2.766916745097141e-8
          3.059857645642298e-8 7.46528390458809e-8 2.8848487021385727e-8 2.4627700875000643e-8 2.120761888973492e-8 2.5917976715391467e-8
          2.2481397695293432e-8 3.508205300657364e-10 6.759456540104878e-10 6.489832981217729e-10 5.742751001828409e-10 1.7792701349559597e-9
          1.6998861762312195e-9 1.483014401590814e-9 2.60096996014593e-10 4.692115289188829e-10 3.550715497671859e-10 1.1831084674954663e-9
          8.650019450313242e-10 4.402100273386298e-9 4.189616696717607e-9 3.6103299454171355e-9 9.590001354540823e-9 9.116817364270625e-9
          7.824294214842352e-9 2.816608591355577e-9 1.993842221386002e-9 6.043769169976807e-9 4.189584825460288e-9 1.539131720525852e-10
          2.4834144742012633e-10 1.9843359501102267e-10 5.789442500865521e-10 5.878803661908498e-10 1.0937876007869514e-9 5.517820785736174e-10
          1.7560324794304527e-9 1.2891600177727844e-9 1.0559268468286705e-9 1.4233139622422308e-9 7.649970875042689e-10 3.4697090970051274e-9
          4.468437672590075e-9 2.6138994352258574e-9 1.7302261823823194e-8 1.648687186138395e-8 1.4202593976994924e-8 2.3006764798822647e-8
          2.2463102633322075e-8 2.0299040641251125e-8 1.098736917419208e-8 7.595101107723088e-9 1.62647746526564e-8 1.1434023574890528e-8
          2.0511653297496722e-8 2.1497318374045004e-8 2.2182389850467846e-8 1.6667844752650227e-8 1.8735147582823098e-8 2.1613120563522018e-8
          1.9509814430504953e-8 1.4259867967579901e-8 2.0322605873671054e-8 1.5228628874131613e-8 6.041275961088752e-9 7.569187044856128e-9
          4.66977553438562e-9 8.9662536873385e-9 1.1040576675873277e-8 7.06758283641636e-9 1.1249667982939655e-8 1.375499558727268e-8
          8.958644400878001e-9 1.2092933889200348e-8 1.476127601980971e-8 9.657076585402939e-9
        </DataArray>
        <DataArray type="Float64" Name="gradient_matprop_error" format="ascii" RangeMin="0" RangeMax="0">
          0 0 0 0 0 0
          0 0 0 0 0 0
          0 0 0 0 0 0
          0 0 0 0 0 0
          0 0 0 0 0 0
          0 0 0 0 0 0
          0 0 0 0 0 0
          0 0 0 0 0 0
          0 0 0 0 0 0
          0 0 0 0 0 0
          0 0 0 0 0 0
          0 0 0 0 0 0
          0 0 0 0 0 0
          0 0 0 0 0 0
          0 0 0 0 0 0
          0 0 0 0 0 0
          0 0 0 0 0 0
          0 0 0 0 0 0
          0 0 0 0 0 0
          0 0 0 0 0 0
          0 0 0 0 0 0
          0 0 0 0 0 0
          0 0 0 0 0 0
          0 0 0 0 0 0
          0 0 0 0 0 0
          0 0 0 0 0 0
          0 0 0 0 0 0
          0 0 0 0 0 0
          0 0 0 0 0 0
          0 0 0 0 0 0
          0 0 0 0 0 0
          0 0 0 0 0 0
          0 0 0 0 0 0
          0 0 0 0 0 0
          0 0 0 0 0 0
          0 0 0 0 0 0
          0 0 0 0 0 0
          0 0 0 0 0 0
          0 0 0 0 0 0
          0 0 0 0 0 0
          0 0 0 0 0 0
          0 0 0 0 0 0
          0 0 0 0 0 0
          0 0 0 0 0 0
          0 0 0 0 0 0
          0 0 0 0 0 0
          0 0 0 0 0 0
          0 0 0 0 0 0
          0 0 0 0 0 0
          0 0 0 0 0 0
          0 0 0 0 0 0
          0 0 0 0 0 0
          0 0 0 0 0 0
          0 0 0 0 0 0
          0 0 0 0 0 0
          0 0 0 0 0 0
          0 0 0 0 0 0
          0 0 0 0 0 0
          0 0 0 0 0 0
          0 0 0 0 0 0
          0 0 0 0 0 0
          0 0 0 0 0 0
          0 0 0 0 0 0
          0 0 0 0 0 0
          0 0 0 0 0 0
          0 0 0 0 0 0
          0 0 0 0 0 0
          0 0 0 0 0 0
          0 0 0 0 0 0
          0 0 0 0 0 0
          0 0 0 0 0 0
          0 0 0 0 0 0
          0 0 0 0 0 0
          0 0 0 0 0 0
          0 0 0 0 0 0
          0 0 0 0
        </DataArray>
        <DataArray type="Float64" Name="initial_marker" format="ascii" RangeMin="0" RangeMax="2">
          0 2 1 0 1 1
          2 0.5 2 2 0 0
          0 0 0 0 0 0
          2 2 2 2 1.3333333333333333 2
          2 2 2 2 1 1
          2 2 1 2 2 2
          2 2 2 2 2 2
          2 2 2 2 2 2
          2 0 0 0 0 0
          0 0 0 0 0 0
          0 0 0 0 0 2
          2 2 2 2 2 2
          2 2 2 2 2 2
          2 2 2 2 2 2
          2 2 2 2 2 2
          2 2 2 2 2 2
          2 2 2 2 2 2
          2 2 2 2 2 2
          2 2 2 2 2 2
          2 2 2 2 2 2
          2 2 1 1.5 1.5 2
          2 2 2 2 2 2
          2 2 2 2 2 2
          2 2 2 2 2 2
          2 2 2 2 2 2
          2 2 2 2 2 0
          2 2 2 2 2 2
          2 2 2 2 2 2
          2 2 2 2 2 2
          2 2 2 2 2 2
          2 2 2 2 2 2
          2 2 2 2 2 2
          2 2 2 2 2 2
          2 2 2 2 2 2
          2 2 2 2 2 2
          2 2 2 2 2 2
          2 2 2 2 2 2
          2 2 2 2 2 2
          2 2 2 2 2 2
          2 2 2 2 2 2
          2 2 2 2 2 2
          2 2 2 2 2 1.5
          1.75 0.5 1.25 2 2 2
          2 2 2 2 2 2
          2 2 2 0 1 0
          1 2 2 2 2 2
          2 2 2 2 2 2
          2 2 2 2 2 2
          2 2 2 2 0 0
          0 0 0.75 1 0 0
          0 0 0 0 2 2
          2 2 2 0 0 0
          0.5 0 0 0 0 0
          0 0 0 0 0 0
          0 0 1 1 0 0
          0 0 0 0 0 0
          1 1.5 1.5 1.5 2 2
          2 2 2 2 2 2
          2 2 2 2 0 0
          1 1 1 0 1 1
          2 2 2 2 2 2
          2 2 2 2 2 2
          2 2 2 2 2 2
          2 2 2 2 2 2
          2 2 2 2 2 2
          2 2 1 1.5 1 2
          2 2 2 2 2 2
          2 2 2 2 2 0
          1 1 2 2 1.5 1.5
          2 2 2 2 2 2
          2 2 2 2 2 2
          2 2 2 2 2 2
          2 2 2 2 2 2
          2 2 2 2 2 2
          2 2 2 2 2 2
          2 2 2 2
        </DataArray>
        <DataArray type="Float64" Name="markers_norefine" format="ascii" RangeMin="0" RangeMax="2">
          0 2 0 0 0 0
          0 0 0 2 0 0
          0 0 0 0 0 0
          0 0 0 0 0 0
          0 1 0.25 0 0 0
          0 0 0 0 0 0
          0 0 0 2 2 2
          2 1.25 1 0.5 2 2
          1.5 0 0 0 0 0
          0 0 0 0 0 0
          0 0 0 0 0 0
          0 0 0 0 0 0
          0 0 0 0 1 0.5
          0 0 0 0 0 0
          0 0 0 0 0 0
          0 0 0 0 0 0
          0 0 0 0 0 0
          0 0 0 0 0 0
          0 0 0 0 0 0
          0 0 0 0 0 0
          0 0 0 0 0 0
          0 0 0 0 0 0
          0 0 0 0 0 0
          0 0 0 0 0 0
          0 0 0 0 0 0
          0 0 0 0 0 0
          1.5 1.25 1 1 1 1
          2 2 2 2 0.5 0.5
          0 1.5 1.5 1 2 2
          2 2 2 2 2 2
          2 2 2 2 2 2
          1 1 1 0.75 0.75 0.25
          2 2 1.75 1.75 0.5 0.25
          0 0 0 0 1.5 1.25
          1 0.75 0.25 0 1 0.5
          0 0 0.25 0 2 2
          2 2 2 2 2 2
          2 2 2 2 2 2
          1.75 1.25 2 2 2 2
          1.75 1.25 2 1.5 0.75 0.25
          1 0.5 0 0 0 0
          0 0 0 0 0 0
          0 0 0 0 0 0
          0 0 0 0 0 0
          0 0 0 0 0 0
          0 0 0 0 0 0.5
          0.5 0.25 0 0 0 0
          1.5 1.5 0.75 2 2 1
          0 0 0 0 0 0
          0 0 0 0 0 0
          0 0 0 0 0 0
          0 0 0 0 0 0
          0 0 0 0 0 0
          0 0 0 0 0 0
          0 0 0 0 0 0
          0 0 0 0 0 0
          0 0 0 0 0 0
          0 0 0 0 0 0
          0 0 0 0 0 0
          0 0 0 0 0 0
          0 0 0 0 0 0
          0.5 0 0 0.25 0 0
          0 0 0 0.75 1.3333333333333333 0.25
          1 1 0.5 0 0 0
          0 0 0 0 0 0
          0 0 0 0 0 0
          0 0 0 0 0 0
          0 0 0 0 0 0
          0 0 0 0 0 0
          0 0 0 0 0 0
          0 0 0 0 0 0
          0 0 0 0 0 0
          0.5 0.5 0.25 1 1 0.5
          0 0 0 0 0 0
          0 0 0 0 0 0
          0 0 0 0
        </DataArray>
        <DataArray type="Float64" Name="markers_mustrefine" format="ascii" RangeMin="0" RangeMax="2">
          0 2 1 0 1 1
          2 0.5 2 2 0 0
          0 0 0 0 0 0
          2 2 2 2 1.3333333333333333 2
          2 2 2 2 1 1
          2 2 1 2 2 2
          2 2 2 2 2 2
          2 2 2 2 2 2
          2 0 0 0 0 0
          0 0 0 0 0 0
          0 0 0 0 0 2
          2 2 2 2 2 2
          2 2 2 2 2 2
          2 2 2 2 2 2
          2 2 2 2 2 2
          2 2 2 2 2 2
          2 2 2 2 2 2
          2 2 2 2 2 2
          2 2 2 2 2 2
          2 2 2 2 2 2
          2 2 1 1.5 1.5 2
          2 2 2 2 2 2
          2 2 2 2 2 2
          2 2 2 2 2 2
          2 2 2 2 2 2
          2 2 2 2 2 0
          2 2 2 2 2 2
          2 2 2 2 2 2
          2 2 2 2 2 2
          2 2 2 2 2 2
          2 2 2 2 2 2
          2 2 2 2 2 2
          2 2 2 2 2 2
          2 2 2 2 2 2
          2 2 2 2 2 2
          2 2 2 2 2 2
          2 2 2 2 2 2
          2 2 2 2 2 2
          2 2 2 2 2 2
          2 2 2 2 2 2
          2 2 2 2 2 2
          2 2 2 2 2 1.5
          1.75 0.5 1.25 2 2 2
          2 2 2 2 2 2
          2 2 2 0 1 0
          1 2 2 2 2 2
          2 2 2 2 2 2
          2 2 2 2 2 2
          2 2 2 2 0 0
          0 0 0.75 1 0 0
          0 0 0 0 2 2
          2 2 2 0 0 0
          0.5 0 0 0 0 0
          0 0 0 0 0 0
          0 0 1 1 0 0
          0 0 0 0 0 0
          1 1.5 1.5 1.5 2 2
          2 2 2 2 2 2
          2 2 2 2 0 0
          1 1 1 0 1 1
          2 2 2 2 2 2
          2 2 2 2 2 2
          2 2 2 2 2 2
          2 2 2 2 2 2
          2 2 2 2 2 2
          2 2 1 1.5 1 2
          2 2 2 2 2 2
          2 2 2 2 2 0
          1 1 2 2 1.5 1.5
          2 2 2 2 2 2
          2 2 2 2 2 2
          2 2 2 2 2 2
          2 2 2 2 2 2
          2 2 2 2 2 2
          2 2 2 2 2 2
          2 2 2 2
        </DataArray>
        <DataArray type="Float64" Name="gradient_marker" format="ascii" RangeMin="0" RangeMax="1">
          1 1 0.25 1 1 0.25
          0.25 1 1 0 0.25 0.5
          0.5 0.5 1 1 1 0.5
          0 0 0.5 0.5 0.3333333333333333 0.25
          0.25 0.5 0.5 0.25 1 1
          1 1 1 1 1 1
          1 1 1 0 0 0
          1 1 1 1 1 1
          1 1 1 1 1 1
          1 1 1 1 1 1
          1 1 1 1 1 0
          0 0 0 0 0 0
          0 0 0 0 0 0
          0 0 0 0 0 0
          0.5 0.5 0.5 0.5 1 1
          1 0.5 0.5 1 0.5 0.5
          1 0.5 1 1 1 1
          1 1 1 1 1 1
          1 1 1 1 0.5 0.5
          1 1 0.5 1 1 1
          1 1 1 1 1 1
          1 0.5 0.5 1 1 0.5
          1 0.5 0.5 1 0.5 1
          1 1 1 1 1 1
          1 1 1 0.5 1 0.5
          1 1 1 1 1 1
          0 0 0 0 0 0
          0 0 0 0 0 0
          0 0 0 0 0 0
          0 0 0 0 0 0
          0 0 0 0 0 0
          0.5 0.5 1 1 0.5 1
          0.5 0.5 1 0.5 1 1
          1 1 1 1 1 1
          1 1 0.5 1 0.5 1
          1 1 1 1 0.5 0.5
          1 1 0.5 1 0.5 0.5
          1 0.5 1 1 1 1
          1 1 1 1 1 1
          0.5 1 0.5 1 1 1
          1 1 1 1 1 1
          1 1 1 1 1 1
          1 1 1 1 1 1
          1 1 1 1 1 1
          1 1 1 1 1 1
          1 1 1 1 1 1
          1 1 1 1 1 1
          1 1 1 1 1 1
          1 1 1 1 0.5 1
          0.5 0.125 0.25 0.125 1 1
          1 1 1 1 0 0.125
          0.375 0.25 0.625 1 1 1
          1 1 1 1 1 1
          1 1 1 1 1 1
          1 1 1 1 1 1
          1 1 1 1 1 1
          0.5 0.5 0 1 0.5 1
          1 0.5 0 1 0.5 1
          1 1 1 1 1 1
          1 1 1 1 1 1
          1 1 1 1 1 0
          0.25 0.5 1 0.5 1 1
          1 1 1 0.5 0 1
          0.5 0.25 1 1 1 1
          1 1 1 1 1 1
          1 1 1 1 1 1
          1 1 1 1 1 1
          1 1 1 1 1 1
          1 1 1 1 1 1
          1 1 1 1 1 1
          1 1 1 1 1 1
          1 1 1 1 1 1
          1 1 1 1 1 1
          1 1 1 1 1 1
          1 1 1 1 1 1
          1 1 1 1
        </DataArray>
        <DataArray type="Float64" Name="gradient_matprop_marker" format="ascii" RangeMin="0" RangeMax="0">
          0 0 0 0 0 0
          0 0 0 0 0 0
          0 0 0 0 0 0
          0 0 0 0 0 0
          0 0 0 0 0 0
          0 0 0 0 0 0
          0 0 0 0 0 0
          0 0 0 0 0 0
          0 0 0 0 0 0
          0 0 0 0 0 0
          0 0 0 0 0 0
          0 0 0 0 0 0
          0 0 0 0 0 0
          0 0 0 0 0 0
          0 0 0 0 0 0
          0 0 0 0 0 0
          0 0 0 0 0 0
          0 0 0 0 0 0
          0 0 0 0 0 0
          0 0 0 0 0 0
          0 0 0 0 0 0
          0 0 0 0 0 0
          0 0 0 0 0 0
          0 0 0 0 0 0
          0 0 0 0 0 0
          0 0 0 0 0 0
          0 0 0 0 0 0
          0 0 0 0 0 0
          0 0 0 0 0 0
          0 0 0 0 0 0
          0 0 0 0 0 0
          0 0 0 0 0 0
          0 0 0 0 0 0
          0 0 0 0 0 0
          0 0 0 0 0 0
          0 0 0 0 0 0
          0 0 0 0 0 0
          0 0 0 0 0 0
          0 0 0 0 0 0
          0 0 0 0 0 0
          0 0 0 0 0 0
          0 0 0 0 0 0
          0 0 0 0 0 0
          0 0 0 0 0 0
          0 0 0 0 0 0
          0 0 0 0 0 0
          0 0 0 0 0 0
          0 0 0 0 0 0
          0 0 0 0 0 0
          0 0 0 0 0 0
          0 0 0 0 0 0
          0 0 0 0 0 0
          0 0 0 0 0 0
          0 0 0 0 0 0
          0 0 0 0 0 0
          0 0 0 0 0 0
          0 0 0 0 0 0
          0 0 0 0 0 0
          0 0 0 0 0 0
          0 0 0 0 0 0
          0 0 0 0 0 0
          0 0 0 0 0 0
          0 0 0 0 0 0
          0 0 0 0 0 0
          0 0 0 0 0 0
          0 0 0 0 0 0
          0 0 0 0 0 0
          0 0 0 0 0 0
          0 0 0 0 0 0
          0 0 0 0 0 0
          0 0 0 0 0 0
          0 0 0 0 0 0
          0 0 0 0 0 0
          0 0 0 0 0 0
          0 0 0 0 0 0
          0 0 0 0
        </DataArray>
        <DataArray type="Float64" Name="combo" format="ascii" RangeMin="0" RangeMax="2">
          1 2 0.25 1 1 0.25
          0.25 1 1 2 0.25 0.5
          0.5 0.5 1 1 1 0.5
          0 0 0.5 0.5 0.3333333333333333 0.25
          0.25 1.5 0.75 0.25 1 1
          1 1 1 1 1 1
          1 1 1 2 2 2
          2 1.625 1.5 1.25 2 2
          1.75 1 1 1 1 1
          1 1 1 1 1 1
          1 1 1 1 1 0
          0 0 0 0 0 0
          0 0 0 0 1 0.5
          0 0 0 0 0 0
          0.5 0.5 0.5 0.5 1 1
          1 0.5 0.5 1 0.5 0.5
          1 0.5 1 1 1 1
          1 1 1 1 1 1
          1 1 1 1 0.5 0.5
          1 1 0.5 1 1 1
          1 1 1 1 1 1
          1 0.5 0.5 1 1 0.5
          1 0.5 0.5 1 0.5 1
          1 1 1 1 1 1
          1 1 1 0.5 1 0.5
          1 1 1 1 1 1
          1.5 1.25 1 1 1 1
          2 2 2 2 0.5 0.5
          0 1.5 1.5 1 2 2
          2 2 2 2 2 2
          2 2 2 2 2 2
          1.25 1.25 1.5 1.375 1.125 1.125
          2 2 1.875 1.875 1.25 1.125
          1 1 1 1 1.75 1.625
          1.5 1.375 0.75 1 1.375 1.25
          1 1 1.125 1 2 2
          2 2 2 2 2 2
          2 2 2 2 2 2
          1.875 1.625 2 2 2 2
          1.875 1.625 2 1.75 1.375 1.125
          1.5 1.25 1 1 1 1
          1 1 1 1 1 1
          1 1 1 1 1 1
          1 1 1 1 1 1
          1 1 1 1 1 1
          1 1 1 1 1 1.25
          1.25 1.125 1 1 1 1
          1.75 1.75 1.375 2 2 1.5
          1 1 1 1 0.5 1
          0.5 0.125 0.25 0.125 1 1
          1 1 1 1 0 0.125
          0.375 0.25 0.625 1 1 1
          1 1 1 1 1 1
          1 1 1 1 1 1
          1 1 1 1 1 1
          1 1 1 1 1 1
          0.5 0.5 0 1 0.5 1
          1 0.5 0 1 0.5 1
          1 1 1 1 1 1
          1 1 1 1 1 1
          1 1 1 1 1 0
          0.75 0.5 1 0.75 1 1
          1 1 1 1.125 1.3333333333333333 1.125
          1.25 1.25 1.25 1 1 1
          1 1 1 1 1 1
          1 1 1 1 1 1
          1 1 1 1 1 1
          1 1 1 1 1 1
          1 1 1 1 1 1
          1 1 1 1 1 1
          1 1 1 1 1 1
          1 1 1 1 1 1
          1.25 1.25 1.125 1.5 1.5 1.25
          1 1 1 1 1 1
          1 1 1 1 1 1
          1 1 1 1
        </DataArray>
        <DataArray type="Float64" Name="dHdT" format="ascii" RangeMin="25.812785261454337" RangeMax="60.40710772636004">
          25.81346332077573 52.568709103838614 27.648907534769606 25.81320263815161 25.99819836626355 26.655857252018468
          39.43918602000596 25.92338387861403 32.374076926103555 46.31943698487166 26.092151022808125 25.81724499408765
          25.81977130713619 25.93232310227745 25.815611821388266 25.82664147662022 25.823704474704602 25.82274232534166
          28.03727013861668 27.793720763645048 31.31212305145639 30.70787897933576 26.698233748640288 29.808341684229315
          29.299233227845797 42.094678339320126 39.11492520721322 36.61243245046245 26.18113514944813 26.137583505243196