<?xml version="1.0"?>
<VTKFile type="UnstructuredGrid" version="0.1" byte_order="LittleEndian" header_type="UInt32" compressor="vtkZLibDataCompressor">
  <UnstructuredGrid>
    <Piece NumberOfPoints="522" NumberOfCells="265">
      <PointData>
        <DataArray type="Int32" Name="libmesh_node_id" format="ascii" RangeMin="287" RangeMax="2178">
          287 288 327 358 359 360
          364 368 370 371 372 373
          375 376 377 378 380 381
          382 383 449 450 451 454
          459 460 461 462 463 464
          465 466 467 468 469 470
          471 472 473 474 475 476
          477 480 481 482 484 486
          531 532 539 540 553 554
          555 556 557 558 559 560
          561 562 563 564 565 566
          567 568 570 574 575 634
          644 645 646 647 648 649
          650 651 652 653 654 655
          656 657 658 659 660 661
          662 663 664 665 666 667
          668 669 670 671 672 673
          674 675 676 677 678 679
          680 681 682 683 684 685
          686 687 688 689 690 692
          693 694 695 696 697 699
          700 701 703 707 708 714
          715 716 717 718 719 720
          721 722 723 724 725 728
          729 730 731 733 852 853
          860 861 905 906 907 911
          932 933 934 935 936 937
          938 939 940 941 944 945
          947 948 950 1042 1043 1044
          1047 1060 1061 1064 1066 1068
          1069 1070 1071 1072 1073 1074
          1075 1076 1077 1078 1079 1080
          1081 1082 1083 1084 1085 1086
          1087 1088 1089 1090 1091 1092
          1093 1094 1095 1096 1097 1098
          1099 1100 1101 1102 1103 1104
          1105 1106 1107 1108 1111 1112
          1164 1165 1166 1167 1168 1169
          1170 1171 1172 1173 1174 1175
          1176 1177 1178 1179 1180 1181
          1182 1183 1184 1185 1186 1187
          1188 1189 1190 1191 1192 1193
          1194 1195 1196 1197 1198 1199
          1200 1201 1202 1203 1204 1205
          1206 1207 1208 1209 1210 1211
          1212 1213 1214 1215 1216 1217
          1218 1219 1220 1221 1222 1223
          1224 1225 1226 1227 1228 1229
          1230 1231 1232 1233 1234 1235
          1236 1237 1238 1239 1240 1241
          1242 1243 1244 1245 1246 1247
          1248 1249 1250 1251 1255 1256
          1257 1258 1259 1260 1261 1262
          1263 1264 1265 1266 1267 1268
          1269 1270 1271 1272 1273 1274
          1275 1276 1277 1278 1279 1280
          1281 1282 1283 1284 1285 1290
          1296 1297 1298 1299 1300 1301
          1302 1303 1304 1305 1306 1307
          1308 1309 1310 1311 1312 1313
          1314 1315 1316 1317 1318 1319
          1323 1324 1325 1326 1327 1331
          1332 1337 1338 1339 1340 1341
          1342 1343 1344 1345 1346 1347
          1348 1349 1352 1353 1355 1357
          1866 1867 1868 1869 1870 1871
          1872 1873 1874 1875 1876 1877
          1878 1879 1880 1881 1882 1883
          1884 1885 1886 1887 1888 1889
          2078 2079 2080 2081 2082 2083
          2084 2085 2086 2087 2088 2089
          2090 2091 2092 2093 2094 2095
          2096 2097 2098 2099 2100 2101
          2102 2103 2104 2105 2106 2107
          2108 2109 2110 2111 2112 2113
          2114 2115 2128 2129 2130 2131
          2132 2133 2134 2135 2136 2137
          2138 2139 2140 2141 2142 2143
          2144 2145 2146 2147 2148 2149
          2150 2151 2152 2153 2154 2155
          2156 2157 2158 2159 2160 2161
          2162 2163 2164 2165 2166 2167
          2168 2169 2170 2171 2172 2173
          2174 2175 2176 2177 2178 479
          726 709 727 732 1109 1110
          1113 478 704 1328 1329 1330
          1333 1350 1351 1354 706 1356
        </DataArray>
        <DataArray type="Float64" Name="bounds" format="ascii" RangeMin="0" RangeMax="0">
          0 0 0 0 0 0
          0 0 0 0 0 0
          0 0 0 0 0 0
          0 0 0 0 0 0
          0 0 0 0 0 0
          0 0 0 0 0 0
          0 0 0 0 0 0
          0 0 0 0 0 0
          0 0 0 0 0 0
          0 0 0 0 0 0
          0 0 0 0 0 0
          0 0 0 0 0 0
          0 0 0 0 0 0
          0 0 0 0 0 0
          0 0 0 0 0 0
          0 0 0 0 0 0
          0 0 0 0 0 0
          0 0 0 0 0 0
          0 0 0 0 0 0
          0 0 0 0 0 0
          0 0 0 0 0 0
          0 0 0 0 0 0
          0 0 0 0 0 0
          0 0 0 0 0 0
          0 0 0 0 0 0
          0 0 0 0 0 0
          0 0 0 0 0 0
          0 0 0 0 0 0
          0 0 0 0 0 0
          0 0 0 0 0 0
          0 0 0 0 0 0
          0 0 0 0 0 0
          0 0 0 0 0 0
          0 0 0 0 0 0
          0 0 0 0 0 0
          0 0 0 0 0 0
          0 0 0 0 0 0
          0 0 0 0 0 0
          0 0 0 0 0 0
          0 0 0 0 0 0
          0 0 0 0 0 0
          0 0 0 0 0 0
          0 0 0 0 0 0
          0 0 0 0 0 0
          0 0 0 0 0 0
          0 0 0 0 0 0
          0 0 0 0 0 0
          0 0 0 0 0 0
          0 0 0 0 0 0
          0 0 0 0 0 0
          0 0 0 0 0 0
          0 0 0 0 0 0
          0 0 0 0 0 0
          0 0 0 0 0 0
          0 0 0 0 0 0
          0 0 0 0 0 0
          0 0 0 0 0 0
          0 0 0 0 0 0
          0 0 0 0 0 0
          0 0 0 0 0 0
          0 0 0 0 0 0
          0 0 0 0 0 0
          0 0 0 0 0 0
          0 0 0 0 0 0
          0 0 0 0 0 0
          0 0 0 0 0 0
          0 0 0 0 0 0
          0 0 0 0 0 0
          0 0 0 0 0 0
          0 0 0 0 0 0
          0 0 0 0 0 0
          0 0 0 0 0 0
          0 0 0 0 0 0
          0 0 0 0 0 0
          0 0 0 0 0 0
          0 0 0 0 0 0
          0 0 0 0 0 0
          0 0 0 0 0 0
          0 0 0 0 0 0
          0 0 0 0 0 0
          0 0 0 0 0 0
          0 0 0 0 0 0
          0 0 0 0 0 0
          0 0 0 0 0 0
          0 0 0 0 0 0
          0 0 0 0 0 0
          0 0 0 0 0 0
        </DataArray>
        <DataArray type="Float64" Name="gradient_error" format="ascii" RangeMin="8.742661106400959e-10" RangeMax="3.622564342162978e-7">
          6.416569472654627e-9 9.586599279576105e-9 6.774442733354021e-9 1.017486989736287e-8 7.641976653739258e-8 1.0112781377976375e-7
          9.619408782483946e-9 1.6968655031351692e-7 2.5358676175952602e-9 3.77059763080782e-9 3.336477963420004e-8 1.4296132865014008e-8
          8.397853839117394e-9 3.209489412757088e-8 3.920725289932454e-9 3.2536854858058243e-9 2.0033670782748455e-9 9.636241609813043e-8
          2.4592985671592107e-8 3.456092356672996e-9 1.176467517849484e-7 2.8348625619696595e-7 2.616553378337941e-7 1.7172657848629484e-7
          5.3528473797417645e-8 3.4496831685318175e-8 3.3087646020760235e-7 2.246044546999934e-7 2.346962273465164e-8 1.5437385614982222e-7
          1.7939916402857314e-7 2.4540795959819903e-8 8.084250449118055e-8 5.406488847214477e-8 1.512608441923771e-7 3.622564342162978e-7
          2.0579371938723957e-7 1.3530068342505462e-7 1.8777024024767638e-8 3.619187417132762e-8 1.4653575857855697e-7 1.237084091429347e-7
          3.7154285426864634e-8 3.476503671306603e-8 4.803007968327332e-8 3.906046277516337e-8 2.2084295674117915e-7 5.686785856212651e-8
          8.742661106400959e-10 2.5091351551530862e-9 1.12543112300914e-9 3.3873142385040276e-9 2.465295047516484e-8 3.568829930182158e-8
          4.786134417833553e-8 6.805141731800765e-8 1.40002048715717e-8 2.8560351790817824e-8 2.3998614282211166e-9 4.979622810398297e-9
          5.7657091914547975e-9 3.5075481007447688e-9 7.106973788150625e-8 1.0041453533419372e-7 4.3120498710063946e-8 7.559384192575478e-9
          4.7389784171666166e-9 1.3078662249662002e-8 4.767180195436133e-9 2.141834608215739e-8 8.480792513764805e-9 2.6670709649930336e-7
          3.0655866975181893e-7 2.8576633987939835e-7 3.099031812890628e-7 3.319477767761572e-7 3.054406130413365e-7 2.8664873158202174e-7
          3.3951085405942505e-7 2.1528847364529552e-7 3.063638220308349e-7 3.3150911346454727e-7 2.467745533579744e-7 3.058981068491334e-7
          2.847596277442182e-7 3.291893082640627e-7 2.484553270367536e-7 2.6979331458297073e-7 1.5433249511285873e-7 2.397125010400238e-7
          1.7850432395559907e-7 6.870222066933505e-8 1.1273271989660266e-7 2.2885481648109922e-7 3.0213821853328694e-7 2.1775030047351855e-7
          1.698982163216528e-8 1.5297159226482178e-7 6.524393921733709e-8 2.893915859459511e-7 1.141643183564205e-7 1.200730434805022e-7
          1.93372194295595e-7 1.9355048866878908e-7 1.0586448901958643e-7 1.903400938790331e-7 6.272076716020961e-8 1.0658402929742296e-7
          1.1658908889317872e-7 9.405013202972473e-8 2.2633794098676876e-7 2.229923673810433e-7 2.2683876217079304e-7 1.2585388777176888e-7
          1.531980459098218e-7 1.289409650544463e-7 4.7464148470354426e-8 7.998276049765769e-8 1.2025185106969908e-7 7.237772813800558e-8
          1.224210757488085e-7 1.7593561424402717e-7 1.7448063275046754e-7 1.0310027942171395e-9 4.619060216072064e-8 2.1551104914811718e-7
          1.328566813798304e-7 1.0617117015376602e-7 8.400245377792407e-8 1.1207332936644295e-7 1.6609646136827522e-7 9.476214933846602e-8
          1.8316362170609983e-7 9.920385242488987e-8 1.7057153491662012e-7 4.6676218207869373e-8 7.920212026552938e-8 6.257455687220255e-8
          2.2268757535471178e-7 2.1204105105684903e-7 9.424609884547345e-8 1.0987550096408492e-7 1.5138458403568926e-7 3.752168003371461e-8
          4.511147136127869e-8 2.9103084515942038e-8 1.928936671072936e-7 5.2701262688842775e-8 3.3927138196133903e-9 3.2071712996951875e-9
          1.439513568439786e-9 1.2844790880064484e-9 5.355705016638581e-9 3.672748012622748e-8 2.2761537957257646e-8 8.795595788287814e-9
          4.449782127422535e-9 3.477889609076104e-9 2.0638643305223987e-8 1.3432260699462509e-8 2.3745462752501976e-9 1.1344841387043747e-8
          8.563141315247022e-9 2.5059970907296737e-9 6.2258780937010335e-9 5.781441243450299e-9 9.134314127791588e-9 7.91454214383454e-9
          6.588820594786674e-9 6.114532854864664e-9 6.694770159877494e-9 8.347426905804756e-8 1.6047008439429976e-7 1.450356557962168e-7
          1.132693901892503e-7 1.3698505804623276e-7 1.87966644647497e-7 1.3032406158288838e-7 2.1182263542224278e-7 7.924700496137633e-8
          7.371985876504781e-8 1.596662676224315e-7 1.4362754591033178e-7 6.328229873942024e-8 1.5715728947970628e-7 1.400489992643439e-7
          5.8259356800986456e-8 1.0264898414698517e-7 9.702707413398872e-8 5.923615104619924e-8 5.314538117439106e-8 1.5290782095719603e-7
          1.344657492080384e-7 4.275822149161629e-8 1.4607600548084042e-7 1.267067926423248e-7 3.797344690017297e-8 8.96641630337555e-8
          8.08255959361265e-8 1.2322387101207506e-7 1.916344722042112e-7 8.084480474053683e-8 1.2453367261000414e-7 2.1801010517031915e-7
          1.4266325415280525e-7 3.390394345598535e-8 3.2886353114229504e-8 1.3519414411031085e-7 1.1593165588327004e-7 2.4171475153771408e-8
          1.1947163039971771e-7 1.0146959567248277e-7 2.8426238838348827e-8 7.022425418135431e-8 6.835385665527624e-8 1.2232546443032684e-8
          1.6145142562754567e-8 9.899588262833859e-8 8.324054409916066e-8 9.558025171184222e-9 2.0057738682476454e-8 6.748520556998274e-8
          4.349607487305837e-8 3.939396436472766e-8 4.111510358979984e-8 4.2836242814872024e-8 3.873413230654131e-8 5.8192435518787165e-8
          6.223841127624496e-8 6.024332082482499e-8 5.8248230373405006e-8 4.849696285852583e-8 4.871831082696728e-8 5.892542395993935e-8
          4.893965879540873e-8 6.097825179800304e-8 5.932716892904696e-8 6.40838299091448e-8 6.232461604797115e-8 6.17476937945798e-8
          6.797003623997372e-8 6.642602889580365e-8 5.767608606009087e-8 6.05654021867975e-8 6.304089530460261e-8 6.408266085004221e-8
          6.420239340728165e-8 6.953601726014273e-8 6.449138703707337e-8 5.917016281413492e-8 4.7713755926624065e-8 5.37460804394733e-8
          4.8133518068405975e-8 6.240243005326959e-8 6.527532997501094e-8 5.997495092436124e-8 4.036880229552013e-8 4.404088807925403e-8
          3.670203144358699e-8 4.619587771941293e-8 4.771297386298792e-8 5.811508897579058e-8 3.224064173251444e-8 3.936346533154078e-8
          3.520351534016863e-8 4.648628893056711e-8 3.3325361535881285e-8 4.734816707274485e-8 3.5165563849417764e-8 5.0503712889296875e-8
          6.33829372685677e-8 6.822407198668465e-8 3.0511936843831535e-9 3.137287265379301e-8 3.2555421490865534e-8 6.17561531382774e-8
          6.14756371760726e-8 6.013236953331258e-8 6.378111153801027e-8 6.403801754908531e-8 6.903833899096839e-8 6.259196572898132e-8
          6.724891894390931e-8 6.567360504490104e-8 7.005288549558163e-8 6.520898053360142e-8 6.660292942127566e-8 6.433964476290542e-8
          7.235854573359844e-8 7.068118133591763e-8 6.700681265058012e-8 7.738562202200105e-8 7.53203724860795e-8 5.758752602217506e-8
          6.492373374826726e-8 6.847393819433973e-8 5.8093658344493125e-8 6.689772411583877e-8 6.437992483372635e-8 7.430045717035672e-8
          7.312103338622158e-8 6.965734068369756e-8 8.285997649037584e-8 8.021746504218314e-8 7.207677669333065e-8 8.85742025349755e-8
          8.531866062030516e-8 6.049498571027667e-8 7.199431502609504e-8 7.551360220604047e-8 7.618236872454269e-8 4.769370429953784e-8
          5.471065917914546e-8 4.811331709206751e-8 5.667454994879478e-8 4.2288716659260756e-8 4.8577667799993273e-8 4.965634645906805e-8
          6.731193746385096e-8 7.166296624520305e-8 6.1773226504871e-8 4.8963686343198765e-8 5.8637595589098086e-8 4.9227297636327606e-8
          6.022027115748653e-8 4.3131049247017734e-8 5.086151471999657e-8 5.1476456608526936e-8 7.599153130077113e-8 8.046638686227819e-8
          6.767469273353365e-8 2.1251677608021134e-8 3.850880465868223e-8 5.709372614701849e-9 2.565076560787147e-8 6.59549306199118e-8
          6.408357331609498e-8 1.298374730421099e-9 1.9240583745782374e-8 4.32384955176678e-9 5.56143252806772e-8 5.966241559133094e-8
          7.4160156340893e-8 7.980678313156351e-8 7.168603304989311e-8 7.629556685702006e-8 7.542405181283717e-8 8.152341657824301e-8
          7.469223203077002e-8 8.5912664783503e-8 9.260334105221861e-8 8.112078293655522e-8 8.620925835379281e-8 8.815377180046109e-8
          9.548715305852627e-8 8.548416059901855e-8 7.851036969687429e-8 7.400232602130496e-8 9.452107957113184e-8 9.058481725538007e-8
          7.499773321560975e-8 1.0065931636834767e-7 9.584250877548117e-8 6.232250687899886e-8 7.885455704927546e-8 8.176984016647947e-8
          7.80393774868116e-8 7.999231694396205e-8 7.463087989345595e-8 1.0665197091999464e-7 1.0075225563955236e-7 6.054648592729336e-8
          8.39610212701048e-8 9.013665562762929e-8 4.8350218773098065e-8 6.10245232516665e-8 4.652473030305599e-8 6.105212462725418e-8
          4.1549706133934025e-8 5.0988487344410365e-8 4.959027010416407e-8 8.50198273890375e-8 8.941603596675107e-8 7.274728422622297e-8
          4.3939875907274094e-8 6.026472993725845e-8 3.6056222802911305e-8 4.7459957693417394e-8 9.338698450106228e-8 7.542546439793259e-8
          3.631034013660481e-8 4.38507670549497e-8 5.874962146132582e-8 6.32923167240728e-8 2.5824749027611498e-8 5.0931113016040515e-8
          2.4294679239956004e-8 3.979009882691333e-8 4.597891727666233e-8 3.0748786813085135e-8 2.134711614637692e-8 4.4634652627398353e-8
          1.9046338252849115e-8 3.846694535237441e-8 1.3801949794990777e-8 2.5964656646166463e-8 2.2620278636304963e-8 1.8470201367107068e-8
          3.2177415993275595e-8 1.8662373684306664e-8 2.9034946703096907e-8 1.1956687829990132e-8 2.0575491280071793e-8 1.9943445330860673e-8
          4.7475105045135855e-9 4.708957191269887e-9 4.707569564681433e-9 4.7061819380929785e-9 4.66762862484928e-9 5.244310296948457e-9
          5.192513056160785e-9 5.763976833627006e-9 5.140715815373112e-9 5.689275426868925e-9 5.8487672181802075e-9 5.709498255374218e-9
          6.00825900949149e-9 4.609986968897079e-9 4.8621033460718415e-9 4.363001538173931e-9 4.987703984717256e-9 5.114219723246603e-9
          5.612406431260583e-9 3.9756636408456995e-9 4.531693635982897e-9 4.211431135807507e-9 5.087723631120095e-9 4.060626334440734e-9
          4.848062307339324e-9 3.745694169907472e-9 4.5961678273227955e-9 5.635498280237916e-9 5.446641484738118e-9 2.431977242012543e-9
          3.847357396498443e-9 3.482837399271372e-9 5.262737550984342e-9 9.08855101059106e-9 9.496056658925117e-9 9.412330953930007e-9
          9.978807302518926e-9 9.328605248934897e-9 8.906135270014814e-9 8.901892654304189e-9 8.897650038593561e-9 5.187731556623647e-9
          5.523845668343061e-9 6.3985760330502e-9 5.859959780062475e-9 8.947340233005039e-9 9.032339265438341e-9 9.047180898569043e-9
          9.264194352380958e-9 9.117338297871643e-9 9.48120780619287e-9 6.211319751396298e-9 6.6980458576007314e-9 6.379445060459134e-9
          7.49140433058764e-9 8.229072385607789e-9 8.449777270910367e-9 8.738140897185738e-9 8.79488547766814e-9 3.4056174579467644e-9
          4.3091625486533256e-9 3.003971552685359e-9 3.936761302386206e-9 5.212707639359888e-9 5.833086717107095e-9 1.6235033592698813e-9
          3.09447942896359e-9 2.63327570420577e-9 4.565455498657299e-9 2.56746088184925e-9 3.4468692115092734e-9 2.2120930890983565e-9
          3.0052420677899307e-9 5.9116627925722915e-9 5.4535351343834615e-9 1.110906067990867e-9 2.1499942847637575e-9 1.8011754169045812e-9
          5.039254762667314e-9 8.124613962776916e-9 8.489069878406653e-9 8.020155539946042e-9 8.159990311829856e-9 8.195012613888128e-9
          8.822932579684425e-9 9.281346005490838e-9 7.870203352749343e-9 7.651884330590518e-9 8.850979681700708e-9 9.546222682015124e-8
          8.675889025963994e-8 1.4824727408970622e-7 1.253509253911887e-7 1.639429605227375e-7 7.512458104088429e-8 6.250658440768317e-8
          4.9888587774482036e-8 1.1137435178089793e-7 8.655967167469196e-8 7.245676456077664e-8 1.11674885919267e-7 1.0462954191330829e-7
          8.49241838325604e-8 4.0467567857340074e-8 5.8344695867161364e-8 4.4425221976551554e-8 9.61169533601296e-8 9.652432808219858e-8
        </DataArray>
        <DataArray type="Float64" Name="gradient_matprop_error" format="ascii" RangeMin="0" RangeMax="0">
          0 0 0 0 0 0
          0 0 0 0 0 0
          0 0 0 0 0 0
          0 0 0 0 0 0
          0 0 0 0 0 0
          0 0 0 0 0 0
          0 0 0 0 0 0
          0 0 0 0 0 0
          0 0 0 0 0 0
          0 0 0 0 0 0
          0 0 0 0 0 0
          0 0 0 0 0 0
          0 0 0 0 0 0
          0 0 0 0 0 0
          0 0 0 0 0 0
          0 0 0 0 0 0
          0 0 0 0 0 0
          0 0 0 0 0 0
          0 0 0 0 0 0
          0 0 0 0 0 0
          0 0 0 0 0 0
          0 0 0 0 0 0
          0 0 0 0 0 0
          0 0 0 0 0 0
          0 0 0 0 0 0
          0 0 0 0 0 0
          0 0 0 0 0 0
          0 0 0 0 0 0
          0 0 0 0 0 0
          0 0 0 0 0 0
          0 0 0 0 0 0
          0 0 0 0 0 0
          0 0 0 0 0 0
          0 0 0 0 0 0
          0 0 0 0 0 0
          0 0 0 0 0 0
          0 0 0 0 0 0
          0 0 0 0 0 0
          0 0 0 0 0 0
          0 0 0 0 0 0
          0 0 0 0 0 0
          0 0 0 0 0 0
          0 0 0 0 0 0
          0 0 0 0 0 0
          0 0 0 0 0 0
          0 0 0 0 0 0
          0 0 0 0 0 0
          0 0 0 0 0 0
          0 0 0 0 0 0
          0 0 0 0 0 0
          0 0 0 0 0 0
          0 0 0 0 0 0
          0 0 0 0 0 0
          0 0 0 0 0 0
          0 0 0 0 0 0
          0 0 0 0 0 0
          0 0 0 0 0 0
          0 0 0 0 0 0
          0 0 0 0 0 0
          0 0 0 0 0 0
          0 0 0 0 0 0
          0 0 0 0 0 0
          0 0 0 0 0 0
          0 0 0 0 0 0
          0 0 0 0 0 0
          0 0 0 0 0 0
          0 0 0 0 0 0
          0 0 0 0 0 0
          0 0 0 0 0 0
          0 0 0 0 0 0
          0 0 0 0 0 0
          0 0 0 0 0 0
          0 0 0 0 0 0
          0 0 0 0 0 0
          0 0 0 0 0 0
          0 0 0 0 0 0
          0 0 0 0 0 0
          0 0 0 0 0 0
          0 0 0 0 0 0
          0 0 0 0 0 0
          0 0 0 0 0 0
          0 0 0 0 0 0
          0 0 0 0 0 0
          0 0 0 0 0 0
          0 0 0 0 0 0
          0 0 0 0 0 0
          0 0 0 0 0 0
        </DataArray>
        <DataArray type="Float64" Name="initial_marker" format="ascii" RangeMin="0" RangeMax="2">
          0 0 0 0 0 0
          0 0 0 0 0 0
          0 0 0 0 2 0
          0 0 0 1 0.5 0
          0 0 1 0.5 0 1
          0.25 0 0 0 2 1.5
          2 0 0 0 1 0
          0 0 0 0 2 0
          0 0 0 0 0 0
          0 0 0 0 0 0
          0 0 0 0 0 0
          0 0 0 0 0 1
          1 1 2 2 1 2
          2 0.5 1 1.25 2 2
          2 1 1 1 2 2
          1 2 2 0.5 1.5 1.5
          2 2 2 2 0 0
          0.5 0.25 0 0.5 0 0
          0 0 1 0.5 1 0
          1 1 2 2 1 2
          0 1.5 1.5 2 2 2
          1 1 2 0 1.5 0
          0.5 0 0.5 0 0 0
          1 1 0 0 0.5 0
          0 0 1 0 0 0
          0 0 0 0 0 0
          0 0 0 0 0 0
          0 0 0 0 0 0
          0 0 0 0 0 0
          0 0 0 0 0 0
          0 0 0 0 0 0
          0 0 0 0 0 0
          0 0 0 0 0 0
          0 0 0 0 0 0
          0 0 0 0 0 0
          0 0 0 0 0 0
          0 0 0 0 0 0
          2 2 2 2 2 2
          2 2 2 2 2 2
          2 2 2 2 2 2
          2 2 2 2 2 2
          2 2 2 2 1 1.5
          1 2 2 2 2 2
          2 2 2 2 2 2
          2 2 2 2 2 2
          2 2 2 2 2 2
          2 2 2 2 2 2
          2 2 2 2 2 2
          2 2 2 2 2 2
          2 2 2 2 2 2
          2 2 2 2 2 2
          2 2 2 2 2 1
          1.5 1 1.5 0 1 1
          2 2 2 1 1.5 1
          1.5 0 1 1 2 2
          2 2 2 2 2 2
          2 2 2 2 2 2
          2 2 2 2 2 2
          2 2 2 2 2 2
          2 2 2 2 2 2
          2 2 2 2 2 2
          2 2 2 2 2 2
          2 2 1 1.5 1 1.5
          0 1 1 2 2 2
          1 1.5 0 1 2 2
          0 0 0 0 0 0
          0 0 0 0 0 0
          0 0 0 0 0 0
          0 0 0 0 0 0
          2 2 2 2 2 2
          2 2 2 2 2 2
          2 2 2 2 2 2
          2 2 2 2 2 2
          2 2 2 2 2 2
          2 2 2 2 2 2
          2 2 2 2 2 2
          2 2 2 2 2 2
          2 2 2 2 2 2
          2 2 2 2 2 2
          2 2 2 2 2 2
          2 2 2 2 2 2
          2 2 2 2 2 2
          2 2 2 2 2 2
          2 2 2 2 2 0
          0 1.5 0.5 1 0 0
          0 1 1 2 2 2
          2 1 1.5 1 2 2
        </DataArray>
        <DataArray type="Float64" Name="markers_norefine" format="ascii" RangeMin="0" RangeMax="2">
          0 0 0 0 0 0
          0 0 0 0 0 0
          0 0 0 0 2 0
          0 0 0 0 0 0
          0 0 0 0 0 0
          0 0 0 0 0 0
          0 0 0 0 0 0
          0 0 0 0 0 0
          0 0 0 0 0 0
          0 0 0 0 0 0
          0 0 0 0 0 0
          0 0 0 0 0 0
          0 0 0 0 0 0
          0 0 0 0 0 0
          0 0 0 0 0 0
          0 0 0 0 0 0
          0 0 0 0 0 0
          0 0 0 0 0 0
          0 0 0 0 0 0
          0 0 0 0 0 0
          0 0 0 2 0 0
          0 0 0 0 0 0
          0 0 0 0 0 0
          0 0 0 0 0 0
          0 0 0 0 0 0
          0 0 0 0 0 0
          0 0 0 0 0 0
          0 0 0 0 0 0
          0 0 0 0 0 0
          0 0 0 0 0 0
          0 0 0 0 0 0
          0 0 0 0 0 0
          0 0 0 0 0 0
          0 0 0 0 0 0
          0 0 0 0 0 0
          0 0 0 0 0 0
          0 0 0 0 0 0
          0 0 0 0 0 0
          0 0 0 0 0 0
          0 0 0 0 0 0
          0 0 0 0 0 0
          0 0 0 0 0 0
          0 0 0 0 0 0
          0 0 0 0 0 0
          0 0 0 0 1 0.25
          0 0 2 0.5 1 0
          0 0 0 0 0 0
          0 0 0 0 0 0
          0 0 0 0 0 0
          0 0 0 0 0 0
          0 0 0 0 0 0
          0 0 0 0 0 0
          0 0 0 0 0 0
          0 0 0 0 0 0
          0 0 0 0 0 0
          0 1 0.5 2 1 0
          0 2 1.5 2 0 0
          0 0 0 0 0 0
          0 0 0 0 0 0
          0 0 0 0 0 0
          0 0 0 0 0 0
          0 0 0 0 0 0
          0 0 0 0 0 0
          0 0 0 0 0 0
          0 0 0 0 0 0
          0 0 0 0 0 0
          0 0 0 0 0 0
          0 0 0 0 0 0
          0 0 0 0 0 0
          0 0 0 0 0 0
          0 0 0 1 0.5 1.5
          0 0.5 0.25 1 0.75 0
          0.5 1 0.5 1.5 0 1.5
          1.25 2 1.75 1 1.5 2
          2 2 2 0 0 0
          0 0 0 0 0 2
          2 1.3333333333333333 2 0.5 0.25 1
          0.5 0 0 1.5 1.25 1.5
          1 0 0.5 1 0 2
          2 2 2 2 1.6666666666666667 2
          2 2 2 2 2 2
          2 1.75 2 2 2 2
          2 0.5 0 1 0.75 1
          0 0 1 1 0 0
          0 0 0 0 0 0
          0 0 0 0 0 0
          0 0 0 0 0 0
        </DataArray>
        <DataArray type="Float64" Name="markers_mustrefine" format="ascii" RangeMin="0" RangeMax="2">
          0 0 0 0 0 0
          0 0 0 0 0 0
          0 0 0 0 2 0
          0 0 0 1 0.5 0
          0 0 1 0.5 0 1
          0.25 0 0 0 2 1.5
          2 0 0 0 1 0
          0 0 0 0 2 0
          0 0 0 0 0 0
          0 0 0 0 0 0
          0 0 0 0 0 0
          0 0 0 0 0 1
          1 1 2 2 1 2
          2 0.5 1 1.25 2 2
          2 1 1 1 2 2
          1 2 2 0.5 1.5 1.5
          2 2 2 2 0 0
          0.5 0.25 0 0.5 0 0
          0 0 1 0.5 1 0
          1 1 2 2 1 2
          0 1.5 1.5 2 2 2
          1 1 2 0 1.5 0
          0.5 0 0.5 0 0 0
          1 1 0 0 0.5 0
          0 0 1 0 0 0
          0 0 0 0 0 0
          0 0 0 0 0 0
          0 0 0 0 0 0
          0 0 0 0 0 0
          0 0 0 0 0 0
          0 0 0 0 0 0
          0 0 0 0 0 0
          0 0 0 0 0 0
          0 0 0 0 0 0
          0 0 0 0 0 0
          0 0 0 0 0 0
          0 0 0 0 0 0
          2 2 2 2 2 2
          2 2 2 2 2 2
          2 2 2 2 2 2
          2 2 2 2 2 2
          2 2 2 2 1 1.5
          1 2 2 2 2 2
          2 2 2 2 2 2
          2 2 2 2 2 2
          2 2 2 2 2 2
          2 2 2 2 2 2
          2 2 2 2 2 2
          2 2 2 2 2 2
          2 2 2 2 2 2
          2 2 2 2 2 2
          2 2 2 2 2 1
          1.5 1 1.5 0 1 1
          2 2 2 1 1.5 1
          1.5 0 1 1 2 2
          2 2 2 2 2 2
          2 2 2 2 2 2
          2 2 2 2 2 2
          2 2 2 2 2 2
          2 2 2 2 2 2
          2 2 2 2 2 2
          2 2 2 2 2 2
          2 2 1 1.5 1 1.5
          0 1 1 2 2 2
          1 1.5 0 1 2 2
          0 0 0 0 0 0
          0 0 0 0 0 0
          0 0 0 0 0 0
          0 0 0 0 0 0
          2 2 2 2 2 2
          2 2 2 2 2 2
          2 2 2 2 2 2
          2 2 2 2 2 2
          2 2 2 2 2 2
          2 2 2 2 2 2
          2 2 2 2 2 2
          2 2 2 2 2 2
          2 2 2 2 2 2
          2 2 2 2 2 2
          2 2 2 2 2 2
          2 2 2 2 2 2
          2 2 2 2 2 2
          2 2 2 2 2 2
          2 2 2 2 2 0
          0 1.5 0.5 1 0 0
          0 1 1 2 2 2
          2 1 1.5 1 2 2
        </DataArray>
        <DataArray type="Float64" Name="gradient_marker" format="ascii" RangeMin="0" RangeMax="1">
          1 1 1 1 1 0.875
          1 1 1 1 0.5 0.75
          0.5 1 1 1 0 1
          0.5 1 0.875 1 1 0.875
          0.75 0.5 1 1 0.5 0.5
          0.875 0.6666666666666666 0.75 0.75 0.5 1
          1 1 0.5 0.625 1 0.625
          0.75 0.8333333333333334 0.625 0.75 1 0.75
          1 1 1 1 1 1
          1 1 1 1 1 1
          1 1 1 1 1 1
          1 1 1 1 1 1
          1 1 1 1 1 0.75
          0.875 1 1 1 1 1
          0.75 1 0.75 0.875 0.25 0.5
          0.625 0.75 0.75 1 0.875 0.625
          0 0.25 0.5 0.75 0.75 0.75
          1 1 0.75 1 0.5 1
          1 1 1 1 1 1
          1 0.5 0.5 1 0.75 0.75
          0.625 0.75 0.75 0 0.5 1
          1 0.75 0.75 0.6666666666666666 0.75 0.5
          0.875 0.3333333333333333 0.625 0.25 0.75 0.25
          1 0.75 1 0.5 0.5 0
          0 0 0.5 0 1 1
          1 1 1 1 1 1
          1 1 1 1 1 1
          1 1 1 1 1 1
          1 1 1 1 1 1
          0.8333333333333334 0.8333333333333334 1 1 1 1
          0.75 1 0.875 0.25 0.75 0.625
          0.25 0.625 0.5 0 0 0.5
          0.5 0 0.5 0.5 0 0.5
          0.5 0.75 1 0.5 1 1
          1 0 0 0.5 0.5 0
          0.5 0.5 0 0.375 0.3333333333333333 0
          0 0.5 0.5 0 0 0.5
          0 0 0 0 0 0
          0 0 0 0 0 0
          0 0 0 0.25 0.125 0
          0.5 0.375 0 0 0.16666666666666666 0.25
          0.25 0.75 0.3333333333333333 0 0 0
          0 0.25 0.3333333333333333 0 0 0
          0 0 0 0 0 0
          0 0 0 0.125 0.25 0.375
          0.375 0.75 0 0 0 0.25
          0 0 0 0.375 0.75 0.25
          0.5 0.5 1 0.5 0.5 0.25
          0.75 0.625 0.5 1 0.75 0
          0.375 0.5 0.75 0.875 0.75 0.875
          1 0.75 1 0.875 1 1
          1 0.25 0.625 0.75 0.875 0
          0.125 0 0.25 0 0 0
          0.5 0.75 0.25 0 0.25 0
          0.25 0 0 0 0.75 0.75
          0.5 0.25 0.375 0 0.25 0.75
          0.75 0 0 0 0.5 0.625
          0.875 1 0.75 1 1 1
          1 1 1 1 1 1
          1 1 1 1 1 1
          1 1 1 0.5 0.75 0.75
          0.75 1 1 1 1 0.5
          0.75 0.75 0 0.25 0 0.25
          0 0 0 0.75 0.75 0.5
          0 0.25 0 0 0.75 0.5
          0 0 0.25 0.25 0 0.25
          0 0 0 0 0 0.25
          0 0.25 0 0 0 0
          0.125 0 0 0 0 0
          0 0 0 0 0 0
          0 0 0 0 0 0
          0 0 0 0 0 0
          0 0 0 0 0 0
          0 0 0 0 0 0
          0 0 0 0 0 0
          0 0 0 0 0 0
          0 0 0 0 0 0
          0 0 0 0 0 0
          0 0 0 0 0 0
          0 0 0 0 0 0
          0 0 0 0 0 0
          0 0 0 0 0 0
          0 0 0 0 0 0
          0 0 0 0 0 0.75
          0.5 0.75 0.5 0.5 0.5 0.5
          0.5 1 0.625 0.75 1 0.875
          0.625 0 0.25 0 0.75 0.75
        </DataArray>
        <DataArray type="Float64" Name="gradient_matprop_marker" format="ascii" RangeMin="0" RangeMax="0">
          0 0 0 0 0 0
          0 0 0 0 0 0
          0 0 0 0 0 0
          0 0 0 0 0 0
          0 0 0 0 0 0
          0 0 0 0 0 0
          0 0 0 0 0 0
          0 0 0 0 0 0
          0 0 0 0 0 0
          0 0 0 0 0 0
          0 0 0 0 0 0
          0 0 0 0 0 0
          0 0 0 0 0 0
          0 0 0 0 0 0
          0 0 0 0 0 0
          0 0 0 0 0 0
          0 0 0 0 0 0
          0 0 0 0 0 0
          0 0 0 0 0 0
          0 0 0 0 0 0
          0 0 0 0 0 0
          0 0 0 0 0 0
          0 0 0 0 0 0
          0 0 0 0 0 0
          0 0 0 0 0 0
          0 0 0 0 0 0
          0 0 0 0 0 0
          0 0 0 0 0 0
          0 0 0 0 0 0
          0 0 0 0 0 0
          0 0 0 0 0 0
          0 0 0 0 0 0
          0 0 0 0 0 0
          0 0 0 0 0 0
          0 0 0 0 0 0
          0 0 0 0 0 0
          0 0 0 0 0 0
          0 0 0 0 0 0
          0 0 0 0 0 0
          0 0 0 0 0 0
          0 0 0 0 0 0
          0 0 0 0 0 0
          0 0 0 0 0 0
          0 0 0 0 0 0