<?xml version="1.0"?>
<VTKFile type="UnstructuredGrid" version="0.1" byte_order="LittleEndian" header_type="UInt32" compressor="vtkZLibDataCompressor">
  <UnstructuredGrid>
    <Piece NumberOfPoints="395" NumberOfCells="219">
      <PointData>
        <DataArray type="Int32" Name="libmesh_node_id" format="ascii" RangeMin="245" RangeMax="3342">
          351 352 752 753 759 801
          802 803 804 811 812 814
          815 816 819 1300 1301 1302
          1305 1308 1322 1323 1326 1328
          1410 1411 1413 1426 1428 1490
          1491 1492 1493 1494 1495 1496
          1497 1498 1499 1500 1501 1502
          1503 1504 1505 1508 1511 1518
          1519 1520 1521 1522 1523 1524
          1525 1526 1527 1528 1529 1530
          1531 1532 1533 1536 1548 1549
          1550 1551 1553 1559 1721 1722
          1725 1726 1727 1728 1729 1730
          1731 1732 1754 1755 1756 1757
          1758 1759 1760 2246 2270 2271
          2273 2276 2287 2288 2291 2293
          2321 2322 2325 2327 2598 2599
          2601 2604 2613 2614 2615 2616
          2617 2618 2619 2632 2633 2635
          2647 2648 2649 2650 2705 2706
          2708 2709 2710 2724 2725 2728
          2730 2739 2740 2742 3050 3051
          3052 3053 3054 3055 3056 3057
          3058 3059 3060 3061 3062 3063
          3064 3065 3066 3067 3068 3069
          3070 3071 3072 3073 3074 3075
          3076 3077 3078 3079 3080 3081
          3082 3083 3084 3085 3086 3087
          3088 3089 3090 3091 3092 3093
          3094 3095 3096 3097 3098 3099
          3100 3101 3102 3103 3104 3105
          3106 3107 3108 3109 3111 3112
          3113 3114 3115 3116 3117 3118
          3119 3120 3121 3122 3123 3124
          3125 3126 3127 3128 3129 3130
          3131 3132 3133 3134 3135 3136
          3137 3138 3139 3140 3141 3142
          3143 3144 3145 3146 3147 3148
          3149 3150 3151 3152 3153 3154
          3155 3156 3157 3158 3159 3160
          3161 3166 3167 3168 3169 3170
          3171 3172 3173 3174 3176 3177
          3178 3179 3183 3184 3185 3186
          3188 3190 3191 3194 3196 3197
          3199 3214 3215 3218 3219 3221
          3223 3234 3235 3238 3254 3256
          3268 3269 3270 3271 3272 3273
          3274 3275 3276 3277 3278 3279
          3280 3281 3282 3283 3284 3285
          3286 3287 3288 3289 3290 3291
          3292 3293 3294 3295 3296 3297
          3298 3302 3303 3304 3305 3307
          3326 3327 3328 3329 3330 3331
          3332 3333 3335 3336 3338 3340
          3342 245 751 360 805 806
          807 808 350 809 756 361
          810 1007 992 1013 793 1009
          363 1014 820 1017 1016 1506
          1507 1509 1510 1512 1513 1515
          1517 1555 1556 1560 1557 1558
          1561 813 1514 3110 3192 3193
          3195 1538 3198 1539 3216 3217
          3220 3222 1542 3236 3237 3239
          3240 3241 1544 3242 3243 1545
          3255 3257 3258 3259 3260 1547
          3334 3337 3339 3341 1562
        </DataArray>
        <DataArray type="Float64" Name="bounds" format="ascii" RangeMin="0" RangeMax="0">
          0 0 0 0 0 0
          0 0 0 0 0 0
          0 0 0 0 0 0
          0 0 0 0 0 0
          0 0 0 0 0 0
          0 0 0 0 0 0
          0 0 0 0 0 0
          0 0 0 0 0 0
          0 0 0 0 0 0
          0 0 0 0 0 0
          0 0 0 0 0 0
          0 0 0 0 0 0
          0 0 0 0 0 0
          0 0 0 0 0 0
          0 0 0 0 0 0
          0 0 0 0 0 0
          0 0 0 0 0 0
          0 0 0 0 0 0
          0 0 0 0 0 0
          0 0 0 0 0 0
          0 0 0 0 0 0
          0 0 0 0 0 0
          0 0 0 0 0 0
          0 0 0 0 0 0
          0 0 0 0 0 0
          0 0 0 0 0 0
          0 0 0 0 0 0
          0 0 0 0 0 0
          0 0 0 0 0 0
          0 0 0 0 0 0
          0 0 0 0 0 0
          0 0 0 0 0 0
          0 0 0 0 0 0
          0 0 0 0 0 0
          0 0 0 0 0 0
          0 0 0 0 0 0
          0 0 0 0 0 0
          0 0 0 0 0 0
          0 0 0 0 0 0
          0 0 0 0 0 0
          0 0 0 0 0 0
          0 0 0 0 0 0
          0 0 0 0 0 0
          0 0 0 0 0 0
          0 0 0 0 0 0
          0 0 0 0 0 0
          0 0 0 0 0 0
          0 0 0 0 0 0
          0 0 0 0 0 0
          0 0 0 0 0 0
          0 0 0 0 0 0
          0 0 0 0 0 0
          0 0 0 0 0 0
          0 0 0 0 0 0
          0 0 0 0 0 0
          0 0 0 0 0 0
          0 0 0 0 0 0
          0 0 0 0 0 0
          0 0 0 0 0 0
          0 0 0 0 0 0
          0 0 0 0 0 0
          0 0 0 0 0 0
          0 0 0 0 0 0
          0 0 0 0 0 0
          0 0 0 0 0 0
          0 0 0 0 0
        </DataArray>
        <DataArray type="Float64" Name="gradient_error" format="ascii" RangeMin="9.519576509382875e-12" RangeMax="8.95274315290379e-9">
          9.206590228986385e-10 5.411171446961891e-10 1.6279243447239567e-10 4.077868820979682e-10 3.2174887046370146e-10 1.3587983989507908e-10
          1.5347974256052745e-10 1.0193478765049745e-10 9.568318064956852e-11 1.0198565366139756e-10 6.951329402563706e-11 1.3296247557620485e-10
          1.7805373641894741e-9 4.4317206141019096e-10 9.856867233518488e-11 2.184652275468795e-10 1.9178833528861634e-10 2.115548903649559e-10
          1.8269049602241137e-10 6.964734989735971e-10 1.8793491315035267e-10 1.9009701294679106e-10 2.512890462250896e-10 1.7695774976826978e-10
          4.74047623558817e-9 3.4431471753324306e-9 1.339486720014529e-9 3.605561679009183e-10 2.8332660187448804e-10 1.822374157062707e-10
          1.6052562434176696e-10 1.2727336076937484e-10 1.0947569198266511e-10 5.752118660293541e-11 4.549145843634738e-11 5.097513925928269e-11
          1.1097542857671858e-10 8.960062518392098e-11 6.15449183825661e-11 3.326667301555862e-10 2.515494715230014e-10 8.714077497907918e-11
          1.3017484220359951e-10 2.1113293790517034e-11 1.840664342429481e-11 1.0336528797815813e-11 1.4341010928657218e-11 7.254393345306893e-11
          8.889192029685761e-11 2.969015927759981e-11 5.283595984895454e-11 6.195084272996397e-11 9.038195595036025e-11 3.812067269222018e-11
          1.001941535530911e-10 7.366038698363548e-11 1.1262990477630978e-10 1.7531523156384812e-9 1.2582825708392486e-9 5.21469353358879e-10
          3.756418638946111e-10 4.85868277876513e-10 1.4946996291647617e-10 1.2636333699527095e-9 1.4704967682866658e-10 8.14087344299475e-11
          1.251317373547925e-10 9.925101605987102e-11 1.1630540106753393e-10 3.0005421792878035e-11 2.488584502727786e-10 3.1654927941519184e-10
          1.7804927241660702e-10 1.2322354621275975e-11 1.9729543428361882e-11 9.519576509382875e-12 1.1689162924342263e-11 1.1662680443310102e-11
          1.5139452350700862e-11 1.0256757298204255e-11 9.100043938979968e-11 1.199995738555276e-10 5.731969313624523e-11 7.116078229869831e-11
          6.617033446062921e-11 7.18367662776208e-11 5.076221721876874e-11 1.5905154220053227e-10 3.678367991211742e-10 3.4512013984735813e-10
          2.861534060246393e-10 8.579778687647259e-10 1.238711106465479e-10 2.1237496330082541e-10 1.4338128404307183e-10 4.98561408528375e-10
          5.6807523877056295e-11 8.935768045497309e-11 6.679938794971693e-11 1.9044678085935194e-10 2.1937172536485465e-9 2.0314068197052425e-9
          1.613331197604213e-9 4.382996651993398e-9 1.7316630872052738e-9 1.1093962352597498e-9 1.0666110497867175e-9 6.789390675181228e-10
          3.543608787544683e-9 2.297549663378262e-9 2.087024985374759e-9 8.95274315290379e-9 8.319735189036086e-9 6.565292023972894e-9
          6.56357041413274e-9 4.323561322012368e-9 3.751004899427526e-9 2.4325217275019653e-9 6.05542811974566e-10 3.826140766555271e-10
          2.0230226705156226e-10 1.1224120397949246e-9 7.14332237939029e-10 7.69781678499141e-11 1.0398222958185523e-10 7.193640440840698e-11
          1.7435158639887378e-10 1.92839979692639e-9 1.2351694252369904e-9 5.943815960493965e-10 1.2517921466855487e-10 1.1783850181358578e-10
          2.237577769202159e-10 2.099622362465021e-10 6.847089522516421e-11 1.3115653390295565e-10 1.2321444210857883e-10 9.891450554973284e-11
          1.741987917065083e-10 1.0266513261965792e-10 5.652370313673767e-10 5.265319061912792e-10 3.099727098356485e-10 4.269122437238047e-10
          4.103040758140714e-11 3.9349046714914494e-11 7.444853712290992e-11 6.994452397672172e-11 2.2793820576762398e-11 4.1018377020972904e-11
          3.832894598889702e-11 3.434915654313101e-11 5.821332344359932e-11 3.5760499444673574e-11 1.878160020442162e-10 1.7518266014969606e-10
          9.471409951620725e-11 1.424859389271719e-10 7.557810847777405e-11 1.293740371851141e-10 4.6104336050088717e-11 7.630914852775406e-11
          5.3378269044605466e-11 8.711384006798396e-11 5.851754249985177e-11 3.0546643749709746e-10 1.798239012250441e-10 1.967317581395452e-10
          2.7877148955583794e-11 4.334964769130729e-11 2.1375371621877795e-11 3.124101802686888e-11 2.4723670673327415e-11 3.571315932594949e-11
          2.647956763335928e-11 1.0171903722758347e-10 6.639903664964822e-11 7.657844297907304e-11 1.272961354357342e-11 1.320392350052494e-11
          2.159898260088886e-11 2.046801432400032e-11 9.840951988807587e-12 1.4533927525306875e-11 1.4372066510518329e-11 1.3678233457476462e-11
          1.9337046047111783e-11 1.4210205495729781e-11 5.335163712586804e-11 4.932230634180202e-11 4.649836949496802e-11 3.624496658382252e-11
          5.468806240352127e-11 2.9771298222100635e-11 4.195468020016556e-11 2.955838989313319e-11 4.16656312010744e-11 3.3477497161564406e-11
          1.1644745287296767e-10 8.121250522903434e-11 7.557498034962587e-11 1.3548230900456943e-9 1.253328774038703e-9 7.967874450628093e-10
          7.370410357478758e-10 9.93168236615748e-10 5.842491417864526e-10 2.9667144350258473e-9 2.736168344496514e-9 1.614680886092281e-9
          2.1373303705693144e-9 4.4686733831355944e-10 4.1387562722266416e-10 2.396607565310669e-10 2.2229873839745096e-10 3.2930294059219034e-10
          1.776287770589873e-10 9.810361746506833e-10 9.031837637251431e-10 4.803430128466667e-10 7.041271552102477e-10 6.819879181128327e-10
          4.020830890581909e-10 4.1724182388573846e-10 2.466629681331565e-10 1.4183847852245826e-9 8.345834837666828e-10 8.239224409722979e-10
          2.276395401557721e-10 1.2357030677955243e-10 1.3997046314033794e-10 7.648794223238939e-11 4.688421424955443e-10 2.5210173202648977e-10
          2.749702536475035e-10 5.728945495145788e-9 5.29842222307995e-9 3.4330783676124324e-9 3.164067712143176e-9 4.135608728759514e-9
          2.4519644484044998e-9 1.931471376907071e-9 1.7764778562096688e-9 1.024809813721538e-9 9.418536563403896e-10 1.3722856647359756e-9
          7.278401799443444e-10 3.336253870779515e-9 3.080266621355404e-9 1.639259849238722e-9 2.693091599276829e-9 1.5883656100520103e-9
          1.5031742294912549e-9 8.8612356596656e-10 8.895203113526028e-10 4.745606872056007e-10 4.991983889631127e-10 2.6943175704698336e-10
          8.087436990851932e-10 1.2350189294345904e-10 1.1452894797727654e-10 9.161269688814358e-11 2.6420046905593717e-10 2.4372963683025836e-10
          1.9163567048483805e-10 4.09654483783383e-11 6.421944687944671e-11 2.6437901881143803e-11 4.0129529674112586e-11 1.3020242055029537e-10
          7.826894620343993e-11 5.152333874278751e-10 4.737238870161828e-10 3.673697186519507e-10 2.4211991004402007e-10 1.3978287618072763e-10
          2.3530082678389984e-10 1.3920653611451286e-10 1.2347963880828812e-10 8.523499200139587e-11 4.393418685244456e-10 2.6011982852209635e-10
          2.2089474413068257e-10 5.326867791598785e-11 7.874970762952572e-11 2.9301057688940406e-11 4.32677255947678e-11 3.8833056606754554e-11
          5.511560423730785e-11 3.037934642972214e-11 1.4791948452749905e-10 8.107928060501864e-11 8.65535164518618e-11 4.525798926732041e-11
          6.199897753413204e-11 3.4316244022818166e-11 4.616893386689653e-11 3.252415354298726e-11 4.263050427389219e-11 3.2732205607869124e-11
          1.060573009753566e-10 7.194314077894111e-11 6.889505207136046e-11 7.606038923479536e-10 4.5009413854422864e-10 3.6515999219367256e-10
          2.1620393631942227e-10 2.561575356198858e-10 1.3991539351970066e-10 1.2315864482961264e-10 8.016759677391997e-11 2.2073347832607892e-10
          1.5934480441943914e-11 2.2988183091334783e-11 1.172568879635862e-11 1.6000122817104327e-11 1.2014896508844782e-11 1.648680982814472e-11
          1.2111217978476327e-11 4.274683631297043e-11 2.934808495455528e-11 7.338459368159909e-11 4.891820439037188e-11 1.1521574245060778e-10
          6.28144150834948e-11 1.7737232044135305e-10 3.797172106187464e-10 1.1046037275380781e-10 3.7947160704902584e-11 3.078297570681742e-11
          2.9795768604838687e-11 1.7031597674372415e-10 6.02362602033078e-10 1.5782664801210743e-10 7.889219788904354e-10 1.4256847359855228e-10
          4.489743305500649e-11 1.729817207485564e-10 7.804875071022063e-10 1.7743049541570728e-10 7.852092183612564e-10 6.904709843397059e-11
          5.596416853595271e-11 6.994982122961899e-11 4.923648271786802e-11 5.291361716114374e-11 1.449441749855114e-10 2.3451280293986028e-11
          3.328578102778542e-11 2.6151000063548917e-11 2.3516819611395227e-11 3.3592056272609024e-11 1.7002103854860905e-11 3.945358748963826e-11
          3.904396969079038e-11 3.172689057358155e-11 4.7246006942200245e-11 6.781509672535576e-11 2.0354876869047803e-11 2.3841737356784414e-11
          2.1125494622425987e-11 2.6844223974515525e-11 3.468433361130722e-11 3.005081120632322e-11 6.097235580648957e-11 5.659690678599438e-11
          4.553224204555541e-11 1.2810949963188892e-10 1.1843539836740535e-10 9.378761050308791e-11 2.0855270327051785e-11 3.2112750171913946e-11
          2.355132523072162e-11 6.443675917311294e-11 4.3990838816220257e-11 2.4672344874762313e-10 2.2717492427263635e-10 1.7726112156944932e-10
          8.941760053594556e-10 8.222353460742223e-10 4.251347118562567e-10 3.910143668545422e-10 6.339806874018446e-10 3.0267239615721634e-10
          1.1849431827726489e-10 6.954420099369323e-11 4.0885846597810303e-10 1.9766571753151442e-10 2.2759523139540256e-10 1.1224207479686014e-10
          2.5384214876894927e-11 3.708906917305158e-11 2.5182529571997332e-11 5.8032500195759214e-11 5.5666243322246874e-11
        </DataArray>
        <DataArray type="Float64" Name="gradient_matprop_error" format="ascii" RangeMin="0" RangeMax="0">
          0 0 0 0 0 0
          0 0 0 0 0 0
          0 0 0 0 0 0
          0 0 0 0 0 0
          0 0 0 0 0 0
          0 0 0 0 0 0
          0 0 0 0 0 0
          0 0 0 0 0 0
          0 0 0 0 0 0
          0 0 0 0 0 0
          0 0 0 0 0 0
          0 0 0 0 0 0
          0 0 0 0 0 0
          0 0 0 0 0 0
          0 0 0 0 0 0
          0 0 0 0 0 0
          0 0 0 0 0 0
          0 0 0 0 0 0
          0 0 0 0 0 0
          0 0 0 0 0 0
          0 0 0 0 0 0
          0 0 0 0 0 0
          0 0 0 0 0 0
          0 0 0 0 0 0
          0 0 0 0 0 0
          0 0 0 0 0 0
          0 0 0 0 0 0
          0 0 0 0 0 0
          0 0 0 0 0 0
          0 0 0 0 0 0
          0 0 0 0 0 0
          0 0 0 0 0 0
          0 0 0 0 0 0
          0 0 0 0 0 0
          0 0 0 0 0 0
          0 0 0 0 0 0
          0 0 0 0 0 0
          0 0 0 0 0 0
          0 0 0 0 0 0
          0 0 0 0 0 0
          0 0 0 0 0 0
          0 0 0 0 0 0
          0 0 0 0 0 0
          0 0 0 0 0 0
          0 0 0 0 0 0
          0 0 0 0 0 0
          0 0 0 0 0 0
          0 0 0 0 0 0
          0 0 0 0 0 0
          0 0 0 0 0 0
          0 0 0 0 0 0
          0 0 0 0 0 0
          0 0 0 0 0 0
          0 0 0 0 0 0
          0 0 0 0 0 0
          0 0 0 0 0 0
          0 0 0 0 0 0
          0 0 0 0 0 0
          0 0 0 0 0 0
          0 0 0 0 0 0
          0 0 0 0 0 0
          0 0 0 0 0 0
          0 0 0 0 0 0
          0 0 0 0 0 0
          0 0 0 0 0 0
          0 0 0 0 0
        </DataArray>
        <DataArray type="Float64" Name="initial_marker" format="ascii" RangeMin="0" RangeMax="2">
          2 0 0 0 2 0
          0 0 0 2 0.75 0
          2 2 0 0 1 1
          0.25 2 0 0 0 0.5
          2 2 2 2 0.25 0
          0 1 0.75 0 0 0
          0 0 0 2 2 1.75
          1.75 0 0 0 0 0
          0 0 0 0 0 0
          0.25 0 0 2 2 2
          2 2 2 2 1.5 0.75
          0 0 1.75 0 0 0
          0 0 0 0 0 0
          0 0 0 0 0 0
          0 0 0 1.3333333333333333 2 2
          2 2 1.5 1.75 1.25 2
          0 0.5 0 1.5 2 2
          2 2 2 2 2 2
          2 2 2 2 2 2
          2 2 2 2 2 2
          1.5 2 2 0 0.5 0
          1.25 2 2 2 2 2
          2 2 2 2 2 2
          2 1.75 2 2 2 2
          1 1 1.5 1.5 0 1
          1 0.5 1.25 1 2 2
          2 2 1 1.5 0.5 1.25
          0 1 1 2 2 2
          0 0.75 0 0.5 0 0.5
          0 1.75 1.6666666666666667 1.6666666666666667 0 0
          0.5 0.5 0 0 0 0
          0.5 0 1.5 1.5 1.6666666666666667 0
          0.5 0 0.5 0 0 0
          1.5 1.3333333333333333 0.6666666666666666 2 2 2
          2 2 2 2 2 2
          2 2 2 2 2 2
          2 2 2 2 2 2
          2 2 2 2 2 2
          2 2 2 1.75 2 2
          2 2 2 2 2 2
          2 2 2 2 2 2
          2 2 2 2 2 2
          2 2 2 2 2 2
          2 2 2 2 2 2
          2 1.5 1.75 0.5 1.25 2
          2 2 2 2 2 2
          2 1.75 1.25 1 2 2
          1.75 1 1.5 0.5 1 0
          1 0.5 2 1.75 1.6666666666666667 0
          0.25 0 0 0 0 0
          0.75 0.6666666666666666 0 2 2 2
          2 2 2 1.75 1.6666666666666667 2
          0 0.5 0 0.5 0 0
          0 1.25 0.5 1.75 1.5 2
          1.6666666666666667 0 0 0 0 0
          0 0 0 0 0 0
          0 0 0 0 0 0
          0 0 0 0 0 0
          0 0 0 0 0 0.75
          0 0 0 0 0 0
          0 0 1 1.3333333333333333 2 2
          1.75 2 2 2 0.5 1.25
          1 2 1.75 2 2 2
          2 2 2 2 2 2
          2 2 2 2 2 2
          1 1.25 0.5 1.75 0.75
        </DataArray>
        <DataArray type="Float64" Name="markers_norefine" format="ascii" RangeMin="0" RangeMax="0">
          0 0 0 0 0 0
          0 0 0 0 0 0
          0 0 0 0 0 0
          0 0 0 0 0 0
          0 0 0 0 0 0
          0 0 0 0 0 0
          0 0 0 0 0 0
          0 0 0 0 0 0
          0 0 0 0 0 0
          0 0 0 0 0 0
          0 0 0 0 0 0
          0 0 0 0 0 0
          0 0 0 0 0 0
          0 0 0 0 0 0
          0 0 0 0 0 0
          0 0 0 0 0 0
          0 0 0 0 0 0
          0 0 0 0 0 0
          0 0 0 0 0 0
          0 0 0 0 0 0
          0 0 0 0 0 0
          0 0 0 0 0 0
          0 0 0 0 0 0
          0 0 0 0 0 0
          0 0 0 0 0 0
          0 0 0 0 0 0
          0 0 0 0 0 0
          0 0 0 0 0 0
          0 0 0 0 0 0
          0 0 0 0 0 0
          0 0 0 0 0 0
          0 0 0 0 0 0
          0 0 0 0 0 0
          0 0 0 0 0 0
          0 0 0 0 0 0
          0 0 0 0 0 0
          0 0 0 0 0 0
          0 0 0 0 0 0
          0 0 0 0 0 0
          0 0 0 0 0 0
          0 0 0 0 0 0
          0 0 0 0 0 0
          0 0 0 0 0 0
          0 0 0 0 0 0
          0 0 0 0 0 0
          0 0 0 0 0 0
          0 0 0 0 0 0
          0 0 0 0 0 0
          0 0 0 0 0 0
          0 0 0 0 0 0
          0 0 0 0 0 0
          0 0 0 0 0 0
          0 0 0 0 0 0
          0 0 0 0 0 0
          0 0 0 0 0 0
          0 0 0 0 0 0
          0 0 0 0 0 0
          0 0 0 0 0 0
          0 0 0 0 0 0
          0 0 0 0 0 0
          0 0 0 0 0 0
          0 0 0 0 0 0
          0 0 0 0 0 0
          0 0 0 0 0 0
          0 0 0 0 0 0
          0 0 0 0 0
        </DataArray>
        <DataArray type="Float64" Name="markers_mustrefine" format="ascii" RangeMin="0" RangeMax="2">
          2 0 0 0 2 0
          0 0 0 2 0.75 0
          2 2 0 0 1 1
          0.25 2 0 0 0 0.5
          2 2 2 2 0.25 0
          0 1 0.75 0 0 0
          0 0 0 2 2 1.75
          1.75 0 0 0 0 0
          0 0 0 0 0 0
          0.25 0 0 2 2 2
          2 2 2 2 1.5 0.75
          0 0 1.75 0 0 0
          0 0 0 0 0 0
          0 0 0 0 0 0
          0 0 0 1.3333333333333333 2 2
          2 2 1.5 1.75 1.25 2
          0 0.5 0 1.5 2 2
          2 2 2 2 2 2
          2 2 2 2 2 2
          2 2 2 2 2 2
          1.5 2 2 0 0.5 0
          1.25 2 2 2 2 2
          2 2 2 2 2 2
          2 1.75 2 2 2 2
          1 1 1.5 1.5 0 1
          1 0.5 1.25 1 2 2
          2 2 1 1.5 0.5 1.25
          0 1 1 2 2 2
          0 0.75 0 0.5 0 0.5
          0 1.75 1.6666666666666667 1.6666666666666667 0 0
          0.5 0.5 0 0 0 0
          0.5 0 1.5 1.5 1.6666666666666667 0
          0.5 0 0.5 0 0 0
          1.5 1.3333333333333333 0.6666666666666666 2 2 2
          2 2 2 2 2 2
          2 2 2 2 2 2
          2 2 2 2 2 2
          2 2 2 2 2 2
          2 2 2 1.75 2 2
          2 2 2 2 2 2
          2 2 2 2 2 2
          2 2 2 2 2 2
          2 2 2 2 2 2
          2 2 2 2 2 2
          2 1.5 1.75 0.5 1.25 2
          2 2 2 2 2 2
          2 1.75 1.25 1 2 2
          1.75 1 1.5 0.5 1 0
          1 0.5 2 1.75 1.6666666666666667 0
          0.25 0 0 0 0 0
          0.75 0.6666666666666666 0 2 2 2
          2 2 2 1.75 1.6666666666666667 2
          0 0.5 0 0.5 0 0
          0 1.25 0.5 1.75 1.5 2
          1.6666666666666667 0 0 0 0 0
          0 0 0 0 0 0
          0 0 0 0 0 0
          0 0 0 0 0 0
          0 0 0 0 0 0.75
          0 0 0 0 0 0
          0 0 1 1.3333333333333333 2 2
          1.75 2 2 2 0.5 1.25
          1 2 1.75 2 2 2
          2 2 2 2 2 2
          2 2 2 2 2 2
          1 1.25 0.5 1.75 0.75
        </DataArray>
        <DataArray type="Float64" Name="gradient_marker" format="ascii" RangeMin="1" RangeMax="1">
          1 1 1 1 1 1
          1 1 1 1 1 1
          1 1 1 1 1 1
          1 1 1 1 1 1
          1 1 1 1 1 1
          1 1 1 1 1 1
          1 1 1 1 1 1
          1 1 1 1 1 1
          1 1 1 1 1 1
          1 1 1 1 1 1
          1 1 1 1 1 1
          1 1 1 1 1 1
          1 1 1 1 1 1
          1 1 1 1 1 1
          1 1 1 1 1 1
          1 1 1 1 1 1
          1 1 1 1 1 1
          1 1 1 1 1 1
          1 1 1 1 1 1
          1 1 1 1 1 1
          1 1 1 1 1 1
          1 1 1 1 1 1
          1 1 1 1 1 1
          1 1 1 1 1 1
          1 1 1 1 1 1
          1 1 1 1 1 1
          1 1 1 1 1 1
          1 1 1 1 1 1
          1 1 1 1 1 1
          1 1 1 1 1 1
          1 1 1 1 1 1
          1 1 1 1 1 1
          1 1 1 1 1 1
          1 1 1 1 1 1
          1 1 1 1 1 1
          1 1 1 1 1 1
          1 1 1 1 1 1
          1 1 1 1 1 1
          1 1 1 1 1 1
          1 1 1 1 1 1
          1 1 1 1 1 1
          1 1 1 1 1 1
          1 1 1 1 1 1
          1 1 1 1 1 1
          1 1 1 1 1 1
          1 1 1 1 1 1
          1 1 1 1 1 1
          1 1 1 1 1 1
          1 1 1 1 1 1
          1 1 1 1 1 1
          1 1 1 1 1 1
          1 1 1 1 1 1
          1 1 1 1 1 1
          1 1 1 1 1 1
          1 1 1 1 1 1
          1 1 1 1 1 1
          1 1 1 1 1 1
          1 1 1 1 1 1
          1 1 1 1 1 1
          1 1 1 1 1 1
          1 1 1 1 1 1
          1 1 1 1 1 1
          1 1 1 1 1 1
          1 1 1 1 1 1
          1 1 1 1 1 1
          1 1 1 1 1
        </DataArray>
        <DataArray type="Float64" Name="gradient_matprop_marker" format="ascii" RangeMin="0" RangeMax="0">
          0 0 0 0 0 0
          0 0 0 0 0 0
          0 0 0 0 0 0
          0 0 0 0 0 0
          0 0 0 0 0 0
          0 0 0 0 0 0
          0 0 0 0 0 0
          0 0 0 0 0 0
          0 0 0 0 0 0
          0 0 0 0 0 0
          0 0 0 0 0 0
          0 0 0 0 0 0
          0 0 0 0 0 0
          0 0 0 0 0 0
          0 0 0 0 0 0
          0 0 0 0 0 0
          0 0 0 0 0 0
          0 0 0 0 0 0
          0 0 0 0 0 0
          0 0 0 0 0 0
          0 0 0 0 0 0
          0 0 0 0 0 0
          0 0 0 0 0 0
          0 0 0 0 0 0
          0 0 0 0 0 0
          0 0 0 0 0 0
          0 0 0 0 0 0
          0 0 0 0 0 0
          0 0 0 0 0 0
          0 0 0 0 0 0
          0 0 0 0 0 0
          0 0 0 0 0 0
          0 0 0 0 0 0
          0 0 0 0 0 0
          0 0 0 0 0 0
          0 0 0 0 0 0
          0 0 0 0 0 0
          0 0 0 0 0 0
          0 0 0 0 0 0
          0 0 0 0 0 0
          0 0 0 0 0 0
          0 0 0 0 0 0
          0 0 0 0 0 0
          0 0 0 0 0 0
          0 0 0 0 0 0
          0 0 0 0 0 0
          0 0 0 0 0 0
          0 0 0 0 0 0
          0 0 0 0 0 0
          0 0 0 0 0 0
          0 0 0 0 0 0
          0 0 0 0 0 0
          0 0 0 0 0 0
          0 0 0 0 0 0
          0 0 0 0 0 0
          0 0 0 0 0 0
          0 0 0 0 0 0
          0 0 0 0 0 0
          0 0 0 0 0 0
          0 0 0 0 0 0
          0 0 0 0 0 0
          0 0 0 0 0 0
          0 0 0 0 0 0
          0 0 0 0 0 0
          0 0 0 0 0 0
          0 0 0 0 0
        </DataArray>
        <DataArray type="Float64" Name="combo" format="ascii" RangeMin="1" RangeMax="1">
          1 1 1 1 1 1
          1 1 1 1 1 1
          1 1 1 1 1 1
          1 1 1 1 1 1
          1 1 1 1 1 1
          1 1 1 1 1 1
          1 1 1 1 1 1
          1 1 1 1 1 1
          1 1 1 1 1 1
          1 1 1 1 1 1
          1 1 1 1 1 1
          1 1 1 1 1 1
          1 1 1 1 1 1
          1 1 1 1 1 1
          1 1 1 1 1 1
          1 1 1 1 1 1
          1 1 1 1 1 1
          1 1 1 1 1 1
          1 1 1 1 1 1
          1 1 1 1 1 1
          1 1 1 1 1 1
          1 1 1 1 1 1
          1 1 1 1 1 1
          1 1 1 1 1 1
          1 1 1 1 1 1
          1 1 1 1 1 1
          1 1 1 1 1 1
          1 1 1 1 1 1
          1 1 1 1 1 1
          1 1 1 1 1 1
          1 1 1 1 1 1
          1 1 1 1 1 1
          1 1 1 1 1 1
          1 1 1 1 1 1
          1 1 1 1 1 1
          1 1 1 1 1 1
          1 1 1 1 1 1
          1 1 1 1 1 1
          1 1 1 1 1 1
          1 1 1 1 1 1
          1 1 1 1 1 1
          1 1 1 1 1 1
          1 1 1 1 1 1
          1 1 1 1 1 1
          1 1 1 1 1 1
          1 1 1 1 1 1
          1 1 1 1 1 1
          1 1 1 1 1 1
          1 1 1 1 1 1
          1 1 1 1 1 1
          1 1 1 1 1 1
          1 1 1 1 1 1
          1 1 1 1 1 1
          1 1 1 1 1 1
          1 1 1 1 1 1
          1 1 1 1 1 1
          1 1 1 1 1 1
          1 1 1 1 1 1
          1 1 1 1 1 1
          1 1 1 1 1 1
          1 1 1 1 1 1
          1 1 1 1 1 1
          1 1 1 1 1 1
          1 1 1 1 1 1
          1 1 1 1 1 1
          1 1 1 1 1
        </DataArray>
        <DataArray type="Float64" Name="dHdT" format="ascii" RangeMin="25.811793871414746" RangeMax="27.638655215878924">
          25.972050004767816 25.823919075788005 25.817154892287135 25.81841498902226 25.867561909485794 25.812505838874706
          25.812652840775137 25.813159136080024 25.812947245360135 25.82861560385584 25.817925567997985 25.814059522425985
          26.15242587465279 25.884061780383355 25.81636825652982 25.819553468377194 25.83597635943216 25.8321770297716
          25.825316364102914 25.931366923127825 25.81976872318542 25.82184981653407 25.821879982194666 25.83333159402437
          26.691114980764425 26.415914362614316 26.03873723420745 25.87526036502436 25.831520746264275 25.81695577339338
          25.816458530360695 25.820955406097223 25.81953356468798 25.81359644665676 25.81496768348974 25.814573230763305
          25.815509866670592 25.8169793764808 25.814030284423367 25.867847412431498 25.853796241049135 25.824272186345524
          25.831129655447725 25.812456341129895 25.81240772482255 25.81209178873099 25.812330585539303 25.815039832412396
          25.815826154641716 25.813140102732337 25.813678234260063 25.815021218811616 25.815776815261025 25.813427177503144
          25.81943882529133 25.81498498015336 25.81696980983473 26.12336222376315 26.025300261476712 25.900986183779263
          25.87386172593155 25.891831620763064 25.836119207456456 26.03331921136261 25.833897593213095 25.81897173628637
          25.819158122543953 25.81549800048244 25.828781055719094 25.812798426687493 25.821993889613765 25.82366935427996
          25.820110936531254 25.81230597373075 25.812487865124886 25.812062639605287 25.812142646481586 25.812309884898113
          25.812407139868657 25.812117472078004 25.815883531402005 25.81655798639468 25.814214475331635 25.814544018497195
          25.81520009520377 25.81537918070066 25.81400397354711 25.840338202964944 25.875126174893822 25.871347271766425
          25.86165147477236 25.960434680048884 25.835169166030504 25.849622874471386 25.83854831950681 25.897139932994463
          25.825183811473906 25.830400336779462 25.827215202582387 25.846501496551404 26.201361729111618 26.16907296635342
          26.089996529578595 26.6100923766638 26.112078952577846 26.00044842200364 25.996823021038246 25.927221903203833
          26.428560499741366 26.204003738364836 26.172136603918837 27.638655215878924 27.45153135059816 27.014603629012754
          26.98177290502135 26.5601036968082 26.460403724359377 26.22465905855271 25.918513479847228 25.878026582795457
          25.84902867627961 26.007363759591534 25.93382757686951 25.829228758283875 25.83374326499922 25.828726525067765
          25.845452620580126 26.14666416586942 26.022300346139808 25.914975602289392 25.833590885017117 25.832535988539302
          25.85019322636548 25.84791456620666 25.82430640226859 25.83443609070963 25.83309850705384 25.82977239649165
          25.84206873824393 25.829669282382717 25.908376944398793 25.901391653409515 25.863832673068156 25.88393484257556
          25.819486388593475 25.81911541619257 25.82470795582884 25.823957767148688 25.81596324014452 25.81889212312625
          25.818535327194837 25.818152002820607 25.822034434820093 25.81823769911897 25.84310791530687 25.840885918257033
          25.82746563168778 25.83532975817509 25.826178760766396 25.834796575434833 25.820467904138333 25.825444416375824
          25.822720612313823 25.82809895256651 25.822808948801338 25.86331165087957 25.841905484026412 25.845427151985856
          25.81697184278642 25.819728619242923 25.815686977263788 25.817587125483918 25.81638412372329 25.818595947314208
          25.816818216137786 25.82882063179804 25.822819470414583 25.824939285732693 25.814141174467974 25.814106308716443
          25.815534974299165 25.815421597985235 25.81343608290466 25.814333353338057 25.81429545282959 25.814071442964917
          25.81530822167131 25.814257552321116 25.820438468561193 25.819928883333223 25.819545133060245 25.820100312015352
          25.82315125327038 25.81809213505592 25.820314907620798 25.819053220014037 25.821196181837397 25.81882535160609