<?xml version="1.0"?>
<VTKFile type="UnstructuredGrid" version="0.1" byte_order="LittleEndian" header_type="UInt32" compressor="vtkZLibDataCompressor">
  <UnstructuredGrid>
    <Piece NumberOfPoints="412" NumberOfCells="224">
      <PointData>
        <DataArray type="Int32" Name="libmesh_node_id" format="ascii" RangeMin="241" RangeMax="3015">
          359 760 771 772 775 777
          778 780 784 785 786 787
          789 790 792 796 798 800
          1319 1404 1405 1406 1407 1420
          1421 1422 1423 1424 1432 1433
          1434 1435 1436 1437 1438 1439
          1440 1441 1452 1453 1454 1455
          1456 1457 1458 1466 1467 1468
          1469 1470 1471 1472 1473 1474
          1475 1476 1477 1478 1479 1709
          1710 1711 1712 1713 1714 1715
          1716 1717 1718 2557 2558 2559
          2560 2561 2562 2563 2564 2565
          2566 2567 2568 2569 2570 2571
          2572 2573 2574 2575 2576 2577
          2578 2579 2580 2581 2582 2583
          2584 2585 2626 2627 2629 2644
          2646 2664 2665 2666 2667 2668
          2669 2670 2671 2672 2673 2674
          2675 2676 2677 2678 2679 2680
          2681 2682 2683 2684 2685 2686
          2687 2688 2689 2690 2691 2692
          2693 2694 2695 2696 2697 2734
          2736 2738 2760 2761 2762 2763
          2764 2765 2766 2767 2768 2769
          2770 2771 2772 2773 2774 2775
          2776 2777 2778 2779 2780 2781
          2782 2783 2784 2785 2786 2787
          2788 2789 2790 2791 2792 2793
          2794 2795 2796 2797 2798 2799
          2800 2801 2802 2803 2804 2805
          2806 2807 2808 2809 2810 2811
          2812 2813 2814 2815 2816 2817
          2818 2819 2820 2821 2822 2823
          2824 2825 2826 2827 2828 2829
          2832 2834 2835 2837 2848 2850
          2852 2854 2862 2863 2866 2868
          2869 2871 2882 2884 2886 2888
          2896 2897 2898 2899 2900 2901
          2902 2903 2904 2905 2906 2907
          2908 2909 2910 2911 2912 2913
          2914 2915 2916 2917 2918 2919
          2920 2921 2922 2923 2924 2925
          2926 2927 2928 2929 2930 2931
          2932 2933 2934 2935 2936 2938
          2940 2942 2964 2966 2968 2970
          2992 2993 2994 2995 2996 2997
          2998 2999 3000 3001 3002 3003
          3004 3005 3006 3007 3008 3009
          3010 3011 3012 3013 3014 3015
          341 354 501 471 241 507
          478 355 503 254 508 746
          349 783 781 765 766 782
          725 726 729 770 357 788
          731 791 795 742 755 990
          987 1277 1311 1315 1278 1280
          1317 1313 1316 1318 1342 1398
          1399 1343 763 1348 1402 1345
          764 1358 1418 1360 1362 1379
          1392 1394 769 1396 2543 2544
          2536 1400 2545 2546 1401 2554
          2549 2555 2556 1403 2592 2593
          2620 2621 2595 2624 2610 2640
          2612 2642 2308 2655 2659 2660
          2663 1419 2661 2656 2662 2702
          2732 2704 2389 2477 2478 2480
          1376 2483 1377 2395 2493 2495
          2497 2511 2512 2514 356 2517
          1382 2527 2529 2531
        </DataArray>
        <DataArray type="Float64" Name="bounds" format="ascii" RangeMin="0" RangeMax="0">
          0 0 0 0 0 0
          0 0 0 0 0 0
          0 0 0 0 0 0
          0 0 0 0 0 0
          0 0 0 0 0 0
          0 0 0 0 0 0
          0 0 0 0 0 0
          0 0 0 0 0 0
          0 0 0 0 0 0
          0 0 0 0 0 0
          0 0 0 0 0 0
          0 0 0 0 0 0
          0 0 0 0 0 0
          0 0 0 0 0 0
          0 0 0 0 0 0
          0 0 0 0 0 0
          0 0 0 0 0 0
          0 0 0 0 0 0
          0 0 0 0 0 0
          0 0 0 0 0 0
          0 0 0 0 0 0
          0 0 0 0 0 0
          0 0 0 0 0 0
          0 0 0 0 0 0
          0 0 0 0 0 0
          0 0 0 0 0 0
          0 0 0 0 0 0
          0 0 0 0 0 0
          0 0 0 0 0 0
          0 0 0 0 0 0
          0 0 0 0 0 0
          0 0 0 0 0 0
          0 0 0 0 0 0
          0 0 0 0 0 0
          0 0 0 0 0 0
          0 0 0 0 0 0
          0 0 0 0 0 0
          0 0 0 0 0 0
          0 0 0 0 0 0
          0 0 0 0 0 0
          0 0 0 0 0 0
          0 0 0 0 0 0
          0 0 0 0 0 0
          0 0 0 0 0 0
          0 0 0 0 0 0
          0 0 0 0 0 0
          0 0 0 0 0 0
          0 0 0 0 0 0
          0 0 0 0 0 0
          0 0 0 0 0 0
          0 0 0 0 0 0
          0 0 0 0 0 0
          0 0 0 0 0 0
          0 0 0 0 0 0
          0 0 0 0 0 0
          0 0 0 0 0 0
          0 0 0 0 0 0
          0 0 0 0 0 0
          0 0 0 0 0 0
          0 0 0 0 0 0
          0 0 0 0 0 0
          0 0 0 0 0 0
          0 0 0 0 0 0
          0 0 0 0 0 0
          0 0 0 0 0 0
          0 0 0 0 0 0
          0 0 0 0 0 0
          0 0 0 0 0 0
          0 0 0 0
        </DataArray>
        <DataArray type="Float64" Name="gradient_error" format="ascii" RangeMin="4.539135007274162e-10" RangeMax="1.830546035008257e-7">
          5.895846996441596e-9 2.4147426952735168e-9 4.287044546078169e-8 1.5913093720416452e-8 1.8841535347390684e-9 4.472580863783286e-8
          3.4257381369098636e-8 2.00649660702977e-9 3.595574317534317e-8 1.628703183186836e-8 1.4123019261377555e-8 6.97100534706933e-9
          4.62014355226034e-8 1.195900669088675e-8 2.283238778213721e-9 3.0532232626635823e-9 2.596840750467095e-9 2.950484721288298e-9
          5.818806092263258e-9 1.2605636874100664e-7 1.092914758342032e-7 3.580886369117768e-8 8.12117797640449e-8 9.21322601449744e-9
          1.7581468458875223e-9 5.024898916347858e-8 4.6111073750485545e-9 1.53611822087641e-8 5.617621483479407e-8 6.732822028032109e-8
          4.8479258635534726e-8 5.636510467969859e-8 8.696428641960293e-8 2.808327839903579e-8 4.330354856332128e-8 7.137455848029079e-8
          6.120341304599567e-8 1.0180489792239646e-7 7.680361127968023e-8 7.730914985070296e-9 2.09504101179204e-8 1.7338779161249747e-9
          8.84256915773794e-8 9.197034118641842e-9 2.3491569018329126e-8 9.074819087681643e-9 1.2126222608161973e-8 9.401768269964623e-9
          1.3609212086899015e-8 5.885209871491784e-9 7.1428887264517015e-9 1.812478624371575e-9 1.2647808161554647e-9 4.572437432220527e-9
          6.250323006372871e-9 2.0301037499745115e-9 8.009930279927754e-9 1.4051095883244503e-9 7.022519709277262e-9 4.076599080507919e-9
          5.791502063223138e-9 4.161219069462706e-9 2.974462181958051e-9 4.24972034991358e-9 1.3253945088372882e-9 1.9058510165302304e-9
          1.9470018103030546e-9 2.8068751856378142e-9 1.003751527905742e-9 4.119621899443895e-8 3.817310510162088e-8 3.214427175903189e-8
          6.064224742990132e-8 6.160587745401738e-8 5.3248394055420355e-8 5.883851902577712e-8 3.705028480995573e-8 3.470044558591077e-8
          2.973137595949674e-8 2.816152652314265e-8 2.9127841589065384e-8 2.343675652387661e-8 4.873494066354941e-8 4.754000702925961e-8
          4.157539162010009e-8 4.2055857242909277e-8 2.5039087157550757e-8 1.6115767440553428e-8 4.8143654047008806e-8 3.844532567042463e-8
          4.1179777520596826e-8 2.197979639705824e-8 1.6808053040213992e-8 1.4085610355432027e-8 1.052609221991247e-8 3.1791759195711155e-8
          2.5801040359221177e-8 2.0172472865331524e-8 3.5464478279197994e-8 3.39927127893696e-8 2.8662156860181343e-8 2.0229962939160652e-8
          1.2104205969697138e-8 1.0544476247436589e-9 1.3054679213158407e-9 1.0471440799536712e-9 2.03773694182275e-9 8.393751795007035e-10
          1.0605960363889205e-9 4.915833312223193e-10 6.55256662433461e-10 6.564852891799577e-10 8.10982098688467e-10 4.539135007274162e-10
          1.6690592328354938e-9 1.0616375224398995e-9 1.2473780530536786e-9 9.583821764128705e-9 5.7680412876416295e-9 1.3539415397919091e-8
          8.252546653259776e-9 5.935647962233291e-9 4.765200842260664e-9 3.1624523595289704e-9 1.1857219562368922e-8 8.835453219207365e-9
          6.760397618359208e-9 3.044359293917803e-9 2.428366665543444e-9 4.14385244612938e-9 2.506222286175143e-9 1.6182847564440788e-9
          1.8704314613359774e-9 1.0650463979351837e-9 3.462772875517426e-9 2.304591459997309e-9 2.1038489226208304e-9 2.145387148294995e-9
          6.421430400316326e-9 3.1816248153164405e-9 6.053949553381097e-8 6.251609300048889e-8 5.753617740334606e-8 5.978252480408276e-8
          6.302596072429397e-8 5.990300739664185e-8 5.707246666128485e-8 6.281096252201579e-8 6.135569274060736e-8 6.914522745961402e-8
          5.3879126628064094e-8 5.600578922881582e-8 4.9500579481013006e-8 5.0831386516681916e-8 5.501218263381415e-8 4.807225459593014e-8
          5.2967138563871975e-8 5.790162052524247e-8 5.3155489729359976e-8 6.297100065257958e-8 5.430058281086462e-8 4.942988452431839e-8
          4.704193464030814e-8 3.4545804867708605e-8 6.387750135769583e-8 5.981923516997981e-8 5.8014006178910366e-8 4.332167983601453e-8
          3.614023824159207e-8 2.7215139545831675e-8 2.2073622244974013e-8 5.3593902050831425e-8 4.557271060251149e-8 3.4157047272182514e-8
          4.462986572042398e-8 5.773566180787894e-8 4.903407479261901e-8 5.906700835302825e-8 7.166678576585158e-8 7.040763868849079e-8
          3.5551541755998864e-8 5.3275707118686696e-8 5.672697246267012e-8 7.225651903528592e-8 4.974882811010602e-8 5.7154005158619276e-8
          4.5909025967196286e-8 5.246448162992734e-8 6.64118758925372e-8 6.019188742468325e-8 4.7162445668440254e-8 5.624642899954371e-8
          5.190798549427329e-8 6.741079709146129e-8 6.879508185031126e-8 6.543534811974135e-8 6.509805006425326e-8 4.923896321417771e-8
          7.029267255995128e-8 6.714657474512761e-8 6.707217953070524e-8 5.971373775568203e-8 5.1805811543488755e-8 3.935189098127943e-8
          3.2576126831442386e-8 6.162311532859123e-8 5.3914617907219426e-8 4.133485553679188e-8 4.385662999713112e-8 4.395322350626811e-8
          3.965191196676968e-8 4.434095946068487e-8 4.779265402877214e-8 4.809648976568091e-8 2.8721321648297524e-8 1.7095586428403834e-8
          3.673223677976697e-8 2.1896586880768295e-8 4.1015092829999065e-8 4.724511411064134e-8 5.250741733777499e-8 3.936832680858682e-8
          4.651460973927801e-8 5.37538758764802e-8 4.2378945094720516e-8 2.543297237578595e-8 4.440699765295349e-8 2.674209717329975e-8
          1.842337212231057e-8 1.0825452015379147e-8 2.2612527401603543e-8 1.610298428457941e-8 1.207879186071716e-8 9.073087797837205e-9
          6.228172436831006e-9 1.9899833543686066e-8 1.5138956723600256e-8 1.1152398970663905e-8 5.309408588632445e-9 2.9165594710886504e-9
          6.283002355778408e-9 4.483119687235314e-9 3.049198331289202e-9 2.3286670860332778e-9 1.4300746515562363e-9 5.367503111731638e-9
          3.7282149492932025e-9 2.7906238510207368e-9 2.5615060948406903e-8 1.4983198801644372e-8 2.6961465726992115e-8 2.2642022836072423e-8
          1.736380760643023e-8 1.2629754712185816e-8 8.804591209580314e-9 2.376995911569748e-8 1.818001513136474e-8 1.322661312723473e-8
          6.944649517283649e-9 3.8497247173617035e-9 7.224139530094738e-9 5.980804998497126e-9 4.210208115216164e-9 3.091018002640784e-9
          1.934603312485268e-9 6.223440396923188e-9 4.3854245360826686e-9 3.2081419537561927e-9 8.95405471332097e-9 4.346492753652747e-9
          1.1357733254417293e-8 5.445840983024781e-9 1.309857727521259e-8 6.239903188612311e-9 1.373652606002783e-8 6.5300445681027655e-9
          1.1065237513689872e-9 1.2663612126328571e-9 1.0420991914354829e-9 1.5068682677144794e-9 9.426108455922339e-10 1.0601702178411974e-9
          6.20514560250855e-10 6.868677582756195e-10 7.55917341251603e-10 8.102057538758252e-10 4.6413807751613393e-10 1.2518297860983788e-9
          8.071622341002954e-10 9.200979784144884e-10 1.6450735017662652e-9 1.337552806245622e-9 1.7026091420002982e-9 1.3733057848168387e-9
          8.919005505719708e-10 1.0098457799829237e-9 5.489753676902002e-10 1.4206815875270806e-9 9.226975892437347e-10 1.0439897696369178e-9
          6.393337103170956e-8 1.9766525991632944e-8 2.5998332706006237e-9 7.801838693904912e-9 2.151878986035984e-8 3.3160012929780077e-9
          1.0508740331965845e-8 8.867187802493844e-10 6.033814139518495e-10 1.2712203669086861e-9 7.255590935412848e-10 9.718712253396976e-8
          4.609446814927402e-8 1.9145466473241536e-8 6.567639105090194e-8 1.2790532185119824e-7 5.959061970132438e-8 9.064455515074675e-8
          1.0555630145591836e-7 1.4233884562488496e-7 2.6351992121850766e-8 1.774733236541026e-7 8.596876980010738e-8 1.1561271925059158e-7
          1.7912138979385155e-7 2.972086041298644e-9 2.9343178367437172e-9 2.3000427410822753e-8 2.9679151594410647e-9 2.9615234324807036e-9
          4.638988193820137e-9 7.839078787973851e-9 4.915181954577016e-9 3.918786115943212e-9 5.520457811823797e-9 2.5562905903678446e-8
          1.0563574367235035e-8 1.2863855164708315e-9 1.568570931994746e-9 1.1406777466399315e-9 1.6394116864099512e-7 1.2784384365815985e-7
          1.0781833583302064e-7 1.6999816096028618e-7 1.2986340130323242e-7 1.446559647875832e-7 6.280172368414877e-8 1.2916625887777666e-7
          1.576653946049266e-7 5.4856906476950014e-8 2.521455846288036e-8 2.180164998946654e-8 1.0713442246562201e-7 1.5476824749587508e-7
          1.6042166727950133e-7 5.408902523466753e-8 1.7635416365797612e-7 1.830546035008257e-7 2.296357129803892e-8 2.14054473008325e-8
          2.4030843123462783e-8 1.7760423688703432e-8 1.671057391568013e-8 1.785295935496978e-8 1.3808895806483706e-8 1.346030922937003e-8
          1.5505853406739778e-8 9.955899211094599e-9 8.798426525054289e-9 6.337523779672932e-9 1.3705462061696422e-8 1.2842884380712834e-8
          2.3568636952200373e-8 2.2250130384613087e-8 1.0454115644348886e-8 1.8335513141086843e-8 7.323374137066535e-9 1.2853127152616957e-8
          4.503273472870602e-9 7.754712807155913e-9 1.284690145205699e-9 2.352474681335013e-9 1.9111303891065276e-9 1.206403040411968e-9
          3.119981795424384e-9 2.022667180239711e-9 5.342026587956731e-9 6.338767206952886e-9 3.6753595548435994e-9 2.5278321346618486e-9
          4.203772131755459e-9 1.3407702408202813e-9 5.886003223020741e-8 6.122514604660606e-8 6.320339445148927e-8 6.41327094203358e-8
          5.561126499384111e-8 6.20198309998604e-8 6.864722182623519e-8 5.2380214988362054e-8 5.758807354945304e-8 5.209237111460698e-8
          6.56337032290799e-8 3.860929497382668e-8 5.389404633690722e-8 7.0472148819833e-8 2.7124759056458557e-8 4.750011129781454e-8
          7.057212304853962e-8 6.978748677331532e-8 6.780947360695237e-8 7.110349919901482e-8
        </DataArray>
        <DataArray type="Float64" Name="gradient_matprop_error" format="ascii" RangeMin="0" RangeMax="0">
          0 0 0 0 0 0
          0 0 0 0 0 0
          0 0 0 0 0 0
          0 0 0 0 0 0
          0 0 0 0 0 0
          0 0 0 0 0 0
          0 0 0 0 0 0
          0 0 0 0 0 0
          0 0 0 0 0 0
          0 0 0 0 0 0
          0 0 0 0 0 0
          0 0 0 0 0 0
          0 0 0 0 0 0
          0 0 0 0 0 0
          0 0 0 0 0 0
          0 0 0 0 0 0
          0 0 0 0 0 0
          0 0 0 0 0 0
          0 0 0 0 0 0
          0 0 0 0 0 0
          0 0 0 0 0 0
          0 0 0 0 0 0
          0 0 0 0 0 0
          0 0 0 0 0 0
          0 0 0 0 0 0
          0 0 0 0 0 0
          0 0 0 0 0 0
          0 0 0 0 0 0
          0 0 0 0 0 0
          0 0 0 0 0 0
          0 0 0 0 0 0
          0 0 0 0 0 0
          0 0 0 0 0 0
          0 0 0 0 0 0
          0 0 0 0 0 0
          0 0 0 0 0 0
          0 0 0 0 0 0
          0 0 0 0 0 0
          0 0 0 0 0 0
          0 0 0 0 0 0
          0 0 0 0 0 0
          0 0 0 0 0 0
          0 0 0 0 0 0
          0 0 0 0 0 0
          0 0 0 0 0 0
          0 0 0 0 0 0
          0 0 0 0 0 0
          0 0 0 0 0 0
          0 0 0 0 0 0
          0 0 0 0 0 0
          0 0 0 0 0 0
          0 0 0 0 0 0
          0 0 0 0 0 0
          0 0 0 0 0 0
          0 0 0 0 0 0
          0 0 0 0 0 0
          0 0 0 0 0 0
          0 0 0 0 0 0
          0 0 0 0 0 0
          0 0 0 0 0 0
          0 0 0 0 0 0
          0 0 0 0 0 0
          0 0 0 0 0 0
          0 0 0 0 0 0
          0 0 0 0 0 0
          0 0 0 0 0 0
          0 0 0 0 0 0
          0 0 0 0 0 0
          0 0 0 0
        </DataArray>
        <DataArray type="Float64" Name="initial_marker" format="ascii" RangeMin="0" RangeMax="2">
          0 0 2 2 1.5 2
          2 2 0.25 0 0 0
          0.5 0 0 0 0 0
          0.3333333333333333 2 2 2 2 0.75
          0.5 2 2 1.5 2 2
          2 2 2 2 2 2
          2 2 2 2 2 2
          2 2 2 0.5 1 0
          1 0.25 0.5 0 0 0
          0 0 0.5 0 0 0
          0 0 0 0 0 0
          0 0 0 2 2 2
          2 2 2 2 2 2
          2 2 2 2 2 2
          2 2 2 2 2 2
          2 2 2 2 2 2
          2 2 2 2 2 2
          2 1 1 0 1.5 1
          1 1 1 0 0 0
          1.5 1.5 1 2 2 2
          2 2 2 2 2 2
          2 2 2 2 2 2
          2 2 2 2 2 2
          2 2 2 2 2 2
          2 2 2 2 2 2
          2 2 2 2 2 2
          2 2 2 2 2 2
          2 2 2 2 2 2
          2 2 2 2 2 2
          2 2 2 2 2 2
          2 2 2 2 2 2
          2 2 2 2 2 2
          2 2 2 2 2 2
          2 2 2 2 2 2
          2 2 2 2 2 2
          2 2 2 2 2 2
          2 2 2 2 2 2
          2 2 2 2 2 2
          2 2 2 2 2 2
          2 2 2 2 2 2
          2 2 2 2 2 2
          2 2 2 2 2 2
          2 2 2 2 2 2
          2 2 2 2 2 2
          2 2 2 2 2 2
          2 2 2 2 2 2
          1 1 0 1 1 1
          1 1 0 0 0 1
          1 0 1 0 1 1
          1 0 0 1 1 0
          0 0 0 0 0 0
          0 0 0 0 0 1.3333333333333333
          0.75 0 0 1.5 1.5 0.5
          0 0.5 0 2 2 1
          1 0 0 0.3333333333333333 0 0
          0 0.5 0.25 0 0 1.6666666666666667
          1.5 0 0 1.5 2 2
          2 2 2 2 2 2
          2 2 2 1.3333333333333333 2 2
          2 2 2 2 2 2
          2 2 2 2 2 2
          2 2 2 2 2 2
          2 2 2 2 2 2
          2 2 2 2 2 2
          2 2 2 2 2 2
          2 2 2 2 2 2
          2 2 2 2 2 2
          2 2 2 2 2 2
          2 2 2 2
        </DataArray>
        <DataArray type="Float64" Name="markers_norefine" format="ascii" RangeMin="0" RangeMax="2">
          0 0 0 0 0 2
          0 0 0 0 0 0
          0 0 0 0 0 0
          0 1 0.25 0 0 0
          0 0 0 0 2 1.75
          2 0.75 0 0 2 2
          1.5 0 0 0 0 0
          0 0 0 0 0 0
          0 0 0 0 0 0
          0 0 0 0 0 0
          0 0 0 0 0 0
          0 0 0 0 0 0
          2 2 1 1 0 0
          0 0 0 0 0.5 0.25
          0 0 0 0 0 0
          0 0 0 0 0 0
          0 0 0 0 0 0
          0 0 0 0 0 0
          0 0 0 0 0 0
          0 0 0 0 0 0
          0 0 0 0 0 0
          0 0 0 0 0 0
          0 0 0 0 0 0
          0 0 2 2 2 1.75
          1.5 1 2 2 2 2
          1.5 1.25 1 0.75 0.5 0.25
          2 2 1.75 1.25 0.5 0.25
          0 0 1 0.75 0 0
          0 0 0 0.25 0 0
          2 2 2 2 2 2
          2 2 2 2 2 2
          2 2 1.75 1.25 2 2
          2 2 1.25 1 0.5 0
          1.5 1 1 0.75 0.25 0
          0 1 0.5 0 0.5 0.25
          0 1.5 1 0.25 0 0
          0 0 2 1.5 0.5 2
          1.5 0.5 0 0 0 0
          0 0 0 0 0 0
          0 0 0 0 0 0
          0 0 0 0 0 0
          0 0 0 0 0 0
          0 0 0 0 0 0
          0 0 0 0 0 0
          0 0 0 0 0 0
          0 0 0 0 0 0
          0 0 0 0 0 0
          0 0 0 0 0 0
          0 0 0 0 0 0
          0 0 0 0 0 0
          0 0 0 0 0 0
          0 0 0 0 0 0
          0 0 0 0 0 0
          0 0 0 0 0 0
          0 0 0 0 0 0
          0 0 0 0 0 0
          0 0 0 0 0 0
          0 0 1.5 0.75 0 0
          0 0 0 0 0 0.25
          0 0 1 0 0 0
          0 0 0 0 0 0
          0 0 0 0 0 0
          0 0 0 0 0 0
          0 0 0 0 0 0
          0 0 0 0 0 0
          0 0 1.6666666666666667 2 2 1.75
          2 2 2 0.5 0.75 0
          1.25 2 2 2 2 2
          2 1.75 1.5 2
        </DataArray>
        <DataArray type="Float64" Name="markers_mustrefine" format="ascii" RangeMin="0" RangeMax="2">
          0 0 2 2 1.5 2
          2 2 0.25 0 0 0
          0.5 0 0 0 0 0
          0.3333333333333333 2 2 2 2 0.75
          0.5 2 2 1.5 2 2
          2 2 2 2 2 2
          2 2 2 2 2 2
          2 2 2 0.5 1 0
          1 0.25 0.5 0 0 0
          0 0 0.5 0 0 0
          0 0 0 0 0 0
          0 0 0 2 2 2
          2 2 2 2 2 2
          2 2 2 2 2 2
          2 2 2 2 2 2
          2 2 2 2 2 2
          2 2 2 2 2 2
          2 1 1 0 1.5 1
          1 1 1 0 0 0
          1.5 1.5 1 2 2 2
          2 2 2 2 2 2
          2 2 2 2 2 2
          2 2 2 2 2 2
          2 2 2 2 2 2
          2 2 2 2 2 2
          2 2 2 2 2 2
          2 2 2 2 2 2
          2 2 2 2 2 2
          2 2 2 2 2 2
          2 2 2 2 2 2
          2 2 2 2 2 2
          2 2 2 2 2 2
          2 2 2 2 2 2
          2 2 2 2 2 2
          2 2 2 2 2 2
          2 2 2 2 2 2
          2 2 2 2 2 2
          2 2 2 2 2 2
          2 2 2 2 2 2
          2 2 2 2 2 2
          2 2 2 2 2 2
          2 2 2 2 2 2
          2 2 2 2 2 2
          2 2 2 2 2 2
          2 2 2 2 2 2
          2 2 2 2 2 2
          1 1 0 1 1 1
          1 1 0 0 0 1
          1 0 1 0 1 1
          1 0 0 1 1 0
          0 0 0 0 0 0
          0 0 0 0 0 1.3333333333333333
          0.75 0 0 1.5 1.5 0.5
          0 0.5 0 2 2 1
          1 0 0 0.3333333333333333 0 0
          0 0.5 0.25 0 0 1.6666666666666667
          1.5 0 0 1.5 2 2
          2 2 2 2 2 2
          2 2 2 1.3333333333333333 2 2
          2 2 2 2 2 2
          2 2 2 2 2 2
          2 2 2 2 2 2
          2 2 2 2 2 2
          2 2 2 2 2 2
          2 2 2 2 2 2
          2 2 2 2 2 2
          2 2 2 2 2 2
          2 2 2 2 2 2
          2 2 2 2
        </DataArray>
        <DataArray type="Float64" Name="gradient_marker" format="ascii" RangeMin="0" RangeMax="1">
          0.75 1 1 1 1 1
          1 1 0.375 0 0 0.5
          0.5 0 1 1 1 1
          0.5 0.75 0.75 1 0.75 0.5
          1 0.625 1 0.5 0.5 0.5
          1 1 0.75 1 0.5 0.5
          1 0.75 0.75 1 0.5 1
          0.75 1 0.5 0 0 0
          0 0.5 0.5 1 1 0.5
          0.5 1 0.5 1 0.5 0
          0 0 0.5 0.5 1 1
          0.5 0.5 1 1 1 1
          0 0 0.6666666666666666 0 1 1
          1 1 1 1 1 1
          1 1 1 1 0 0.6666666666666666
          0 1 1 1 1 1
          1 1 1 1 1 1
          1 1 1 1 1 1
          1 1 1 1 1 1
          1 1 1 1 1 1
          1 1 1 1 1 1
          1 1 1 1 1 1
          1 1 1 1 1 1
          1 1 0 0 0.5 0.5
          0 0.5 0 0 0.5 0
          1 1 1 1 1 1
          1 1 1 1 0 0.5
          0 0.6666666666666666 0 0.5 0 1
          1 1 1 1 1 1
          0 0 0.5 0.5 0 0.5
          0 0 0.5 0 1 1
          1 1 1 1 1 1
          1 1 0 0.5 0 0.6666666666666666
          0 0.5 0 1 1 1
          1 1 1 1 1 1
          1 1 1 1 1 1
          1 1 1 1 1 1
          1 1 1 1 1 1
          1 1 1 1 1 1
          1 1 1 1 1 1
          1 1 1 1 1 1
          1 1 1 1 1 1
          1 1 1 1 1 1
          1 1 1 1 1 1
          1 1 1 1 1 1
          1 1 1 1 1 1
          1 1 1 1 1 1
          1 1 1 1 1 1
          1 1 1 1 1 1
          1 1 1 1 1 1
          0.75 0.875 1 1 0.5 1
          1 1 1 1 1 0.3333333333333333
          0.25 0.5 0.25 0.375 0.125 0.375
          0.5 0.5 0 1 0.25 0.5
          0.5 1 1 0.5 1 1
          1 0 0.5 0.5 0 0
          0.5 1 1 1 0.5 0.75
          0.75 0.5 0.25 0.375 0.625 0.375
          0.625 0.125 0.5 0 0.375 0.5
          0.5 0 0.5 0.5 1 1
          1 1 1 1 1 1
          1 1 1 1 1 1
          1 1 1 1 1 1
          1 1 1 1 1 1
          1 1 1 1 1 1
          1 1 0 0 0 0
          0 0 0 0 0 0
          0 0 0 0 0 0
          0 0 0 0
        </DataArray>
        <DataArray type="Float64" Name="gradient_matprop_marker" format="ascii" RangeMin="0" RangeMax="0">
          0 0 0 0 0 0
          0 0 0 0 0 0
          0 0 0 0 0 0
          0 0 0 0 0 0
          0 0 0 0 0 0
          0 0 0 0 0 0
          0 0 0 0 0 0
          0 0 0 0 0 0
          0 0 0 0 0 0
          0 0 0 0 0 0
          0 0 0 0 0 0
          0 0 0 0 0 0
          0 0 0 0 0 0
          0 0 0 0 0 0
          0 0 0 0 0 0
          0 0 0 0 0 0
          0 0 0 0 0 0
          0 0 0 0 0 0
          0 0 0 0 0 0
          0 0 0 0 0 0
          0 0 0 0 0 0
          0 0 0 0 0 0
          0 0 0 0 0 0
          0 0 0 0 0 0
          0 0 0 0 0 0
          0 0 0 0 0 0
          0 0 0 0 0 0
          0 0 0 0 0 0
          0 0 0 0 0 0
          0 0 0 0 0 0
          0 0 0 0 0 0
          0 0 0 0 0 0
          0 0 0 0 0 0
          0 0 0 0 0 0
          0 0 0 0 0 0
          0 0 0 0 0 0
          0 0 0 0 0 0
          0 0 0 0 0 0
          0 0 0 0 0 0
          0 0 0 0 0 0
          0 0 0 0 0 0
          0 0 0 0 0 0
          0 0 0 0 0 0
          0 0 0 0 0 0
          0 0 0 0 0 0
          0 0 0 0 0 0
          0 0 0 0 0 0
          0 0 0 0 0 0
          0 0 0 0 0 0
          0 0 0 0 0 0
          0 0 0 0 0 0
          0 0 0 0 0 0
          0 0 0 0 0 0
          0 0 0 0 0 0
          0 0 0 0 0 0
          0 0 0 0 0 0
          0 0 0 0 0 0
          0 0 0 0 0 0
          0 0 0 0 0 0
          0 0 0 0 0 0
          0 0 0 0 0 0
          0 0 0 0 0 0
          0 0 0 0 0 0
          0 0 0 0 0 0
          0 0 0 0 0 0
          0 0 0 0 0 0
          0 0 0 0 0 0
          0 0 0 0 0 0
          0 0 0 0
        </DataArray>
        <DataArray type="Float64" Name="combo" format="ascii" RangeMin="0" RangeMax="2">
          0.75 1 1 1 1 2
          1 1 0.375 0 0 0.5
          0.5 0 1 1 1 1
          0.5 1.5 1 1 0.75 0.5
          1 0.625 1 0.5 2 1.875
          2 1.375 0.75 1 2 2
          1.75 0.75 0.75 1 0.5 1
          0.75 1 0.5 0 0 0
          0 0.5 0.5 1 1 0.5
          0.5 1 0.5 1 0.5 0
          0 0 0.5 0.5 1 1
          0.5 0.5 1 1 1 1
          2 2 1.5 1 1 1
          1 1 1 1 1.25 1.125
          1 1 1 1 0 0.6666666666666666
          0 1 1 1 1 1
          1 1 1 1 1 1
          1 1 1 1 1 1
          1 1 1 1 1 1
          1 1 1 1 1 1
          1 1 1 1 1 1
          1 1 1 1 1 1
          1 1 1 1 1 1
          1 1 2 2 2 1.875
          1.5 1.375 2 2 2 2
          1.75 1.625 1.5 1.375 1.25 1.125
          2 2 1.875 1.625 0.5 0.75
          0 0.6666666666666666 1 1.125 0 1
          1 1 1 1.125 1 1
          2 2 2 2 2 2
          2 2 2 2 2 2
          2 2 1.875 1.625 2 2
          2 2 1.25 1.25 0.5 0.6666666666666666
          1.5 1.25 1 1.375 1.125 1
          1 1.5 1.25 1 1.25 1.125
          1 1.75 1.5 1.125 1 1
          1 1 2 1.75 1.25 2
          1.75 1.25 1 1 1 1
          1 1 1 1 1 1
          1 1 1 1 1 1
          1 1 1 1 1 1
          1 1 1 1 1 1
          1 1 1 1 1 1
          1 1 1 1 1 1
          1 1 1 1 1 1
          1 1 1 1 1 1
          1 1 1 1 1 1
          1 1 1 1 1 1
          1 1 1 1 1 1
          1 1 1 1 1 1
          0.75 0.875 1 1 0.5 1
          1 1 1 1 1 0.3333333333333333
          0.25 0.5 0.25 0.375 0.125 0.375
          0.5 0.5 0 1 0.25 0.5
          0.5 1 1 0.5 1 1
          1 0 0.5 0.5 0 0
          0.5 1 1 1 0.5 0.75
          0.75 0.5 1.75 1.125 0.625 0.375
          0.625 0.125 0.5 0 0.375 0.75
          0.5 0 1.5 0.5 1 1
          1 1 1 1 1 1
          1 1 1 1 1 1
          1 1 1 1 1 1
          1 1 1 1 1 1
          1 1 1 1 1 1
          1 1 1.6666666666666667 2 2 1.75
          2 2 2 0.5 0.75 0
          1.25 2 2 2 2 2
          2 1.75 1.5 2
        </DataArray>
        <DataArray type="Float64" Name="dHdT" format="ascii" RangeMin="25.81211436980906" RangeMax="56.435838958747716">
          25.831843174942993 25.87824585376184 39.31307267399744 29.275154966086 26.033184017144972 50.671912593032474
          33.67418332340573 26.201686338817694 26.025830520287567 25.888546259991152 25.887117147678257 25.849773579076995
          26.09173714830458 25.885688035365366 25.84527760427394 25.828601841618493 25.85432094339332 25.829558872871004
          26.020167867190583 45.73502720598727 40.049025141810944 35.20644550648125 32.11291576771306 26.168749068174005
          25.93458266163373 28.123784179764783 26.687016773127247 26.460724047517132 49.06289268423082 50.32410519512516
          53.54146320017371 44.989907514726895 36.08968069238667 32.46819157234886 46.30862042475019 49.73167180345203
          49.57291551059212 39.023654751607225 29.43997244456133 27.300473473267147 26.77591382100512 26.149838902293986
          30.014928038351492 27.6062840273869 26.911928331213456 26.115825597590145 26.217530362376838 26.025155880606917
          26.264736721201956 26.026629376678923 26.0979150120897 25.890340899686386 25.90017471223394 25.930206953969087
          25.961910931438737 25.873743495545984 26.13137036262209 25.909587774657872 25.976726413467894 25.95694810217814
          26.009137646903355 25.93304524169676 25.91962271123154 25.955912144534782 25.863377923583244 25.877170482807685
          25.88542695980626 25.899372709167423 25.851276060795882 36.851911799066755 36.05948081095866 34.3660097202414
          52.96749981494758 51.54083048692121 45.8993873583673 46.76474484913771 35.837534503453846 35.15024252834818
          34.00774370643329 33.40361528742076 33.46674980493308 31.71642551566921 43.237910507404735 41.518537393755885
          38.00286895932293 37.748308521348946 32.00668406057799 29.438696377998557 39.738416319700704 36.07371363897628
          36.06150410002082 31.123380430839504 29.574362276026367 28.856763648906664 27.89707287884709 33.998064703307186
          32.08740999691034 30.702047795851517 36.161441944483 35.296086952273114 33.13948954344198 30.42351854915797
          28.196706623140166 26.031509145718573 26.087735534063103 26.019841162741983 26.22718378582963 25.98996328606308
          26.03591606249502 25.92324458672666 25.95247563200119 25.948460131883024 25.98078963731058 25.918456549091587
          26.150446313939835 26.026075149249003 26.059436132255257 27.78610112421438 26.916276948036487 28.79954628039946
          27.467703470861064 26.938593032908894 26.72518647189085 26.412465431443263 28.324153902915395 27.53429198202468
          27.125080736372528 26.41856066911655 26.247775438115532 26.643982264396346 26.308082577141573 26.128704185534744
          26.16388365946561 26.03087820542911 26.496420924349266 26.254982436891154 26.220321519183955 26.208983607454158
          26.996930420150143 26.39858794220565 50.641220198780644 50.992518875822874 51.970005964756425 51.041137479988976