<?xml version="1.0"?>
<VTKFile type="UnstructuredGrid" version="0.1" byte_order="LittleEndian" header_type="UInt32" compressor="vtkZLibDataCompressor">
  <UnstructuredGrid>
    <Piece NumberOfPoints="383" NumberOfCells="224">
      <PointData>
        <DataArray type="Int32" Name="libmesh_node_id" format="ascii" RangeMin="372" RangeMax="2805">
          372 380 450 620 621 622
          623 624 625 626 630 631
          632 954 955 956 957 958
          959 960 1202 1203 1204 1207
          1210 1212 1213 1214 1215 1216
          1217 1218 1219 1220 1221 1222
          1223 1224 1225 1234 1248 1249
          1251 1254 1256 1257 1258 1259
          1260 1261 1262 1263 1264 1265
          1267 1271 1632 1633 1634 1635
          1636 1637 1638 1639 1640 1641
          1642 1643 1644 1645 1945 1946
          1947 1948 1949 1950 1951 1952
          1953 1958 1959 1960 1961 1962
          1963 1964 1968 1969 1970 1971
          1972 1973 1974 1975 1976 1977
          1978 1979 1980 1981 1982 1983
          1984 1985 1986 1987 1988 1989
          1990 1991 1992 1993 1994 1995
          1996 1997 1998 1999 2000 2001
          2002 2003 2004 2005 2006 2007
          2008 2009 2010 2011 2012 2013
          2014 2015 2016 2017 2018 2019
          2020 2021 2022 2023 2024 2025
          2026 2027 2028 2029 2030 2031
          2032 2033 2034 2035 2036 2037
          2038 2039 2040 2041 2042 2043
          2044 2045 2046 2047 2048 2049
          2050 2051 2052 2053 2054 2061
          2090 2091 2097 2098 2130 2131
          2132 2133 2134 2135 2136 2137
          2138 2139 2147 2148 2149 2150
          2151 2152 2153 2164 2165 2166
          2167 2168 2169 2170 2171 2172
          2173 2181 2182 2183 2184 2185
          2186 2187 2188 2189 2190 2191
          2192 2193 2194 2195 2196 2197
          2198 2199 2200 2201 2202 2203
          2204 2205 2206 2207 2208 2209
          2210 2211 2212 2213 2214 2215
          2216 2217 2218 2219 2220 2221
          2222 2223 2224 2225 2226 2227
          2228 2229 2230 2231 2232 2233
          2234 2235 2236 2237 2238 2239
          2240 2241 2242 2243 2244 2245
          2246 2247 2248 2249 2250 2251
          2252 2253 2254 2255 2256 2258
          2262 2264 2268 2269 2272 2273
          2275 2276 2279 2280 2296 2297
          2300 2301 2303 2304 2307 2308
          2367 2368 2373 2375 2376 2378
          2394 2398 2400 2402 2413 2414
          2417 2419 2420 2422 2433 2435
          2437 2439 2553 2637 2638 2641
          2643 2644 2646 2657 2659 2661
          2663 2671 2672 2675 2677 2678
          2680 2691 2693 2695 2697 2773
          2777 2801 2805 949 950 447
          610 1198 1199 1200 1201 1205
          1206 1208 1209 1211 1233 1250
          1266 1255 1270 1956 2122 2123
          2125 1246 2128 1247 1966 2141
          2143 2145 2156 2157 2159 1252
          2162 1253 2175 2177 2179
        </DataArray>
        <DataArray type="Float64" Name="bounds" format="ascii" RangeMin="0" RangeMax="0">
          0 0 0 0 0 0
          0 0 0 0 0 0
          0 0 0 0 0 0
          0 0 0 0 0 0
          0 0 0 0 0 0
          0 0 0 0 0 0
          0 0 0 0 0 0
          0 0 0 0 0 0
          0 0 0 0 0 0
          0 0 0 0 0 0
          0 0 0 0 0 0
          0 0 0 0 0 0
          0 0 0 0 0 0
          0 0 0 0 0 0
          0 0 0 0 0 0
          0 0 0 0 0 0
          0 0 0 0 0 0
          0 0 0 0 0 0
          0 0 0 0 0 0
          0 0 0 0 0 0
          0 0 0 0 0 0
          0 0 0 0 0 0
          0 0 0 0 0 0
          0 0 0 0 0 0
          0 0 0 0 0 0
          0 0 0 0 0 0
          0 0 0 0 0 0
          0 0 0 0 0 0
          0 0 0 0 0 0
          0 0 0 0 0 0
          0 0 0 0 0 0
          0 0 0 0 0 0
          0 0 0 0 0 0
          0 0 0 0 0 0
          0 0 0 0 0 0
          0 0 0 0 0 0
          0 0 0 0 0 0
          0 0 0 0 0 0
          0 0 0 0 0 0
          0 0 0 0 0 0
          0 0 0 0 0 0
          0 0 0 0 0 0
          0 0 0 0 0 0
          0 0 0 0 0 0
          0 0 0 0 0 0
          0 0 0 0 0 0
          0 0 0 0 0 0
          0 0 0 0 0 0
          0 0 0 0 0 0
          0 0 0 0 0 0
          0 0 0 0 0 0
          0 0 0 0 0 0
          0 0 0 0 0 0
          0 0 0 0 0 0
          0 0 0 0 0 0
          0 0 0 0 0 0
          0 0 0 0 0 0
          0 0 0 0 0 0
          0 0 0 0 0 0
          0 0 0 0 0 0
          0 0 0 0 0 0
          0 0 0 0 0 0
          0 0 0 0 0 0
          0 0 0 0 0
        </DataArray>
        <DataArray type="Float64" Name="gradient_error" format="ascii" RangeMin="1.0854696385805347e-9" RangeMax="1.0690295241441714e-7">
          4.319873953655005e-9 1.2937039763339803e-8 3.488895722841018e-9 3.5947692721637786e-8 2.8558217889945042e-8 3.9854478295698124e-8
          3.714679879405675e-8 2.4901844009952103e-9 1.2282010915545168e-8 6.7144600794983004e-9 1.2299917395232628e-8 5.273694526861766e-8
          1.700826618496581e-8 7.876811803958856e-9 7.139834571785622e-9 2.8189243318009676e-8 2.3494267996615327e-8 3.5255993890949146e-9
          2.9644661568830313e-9 2.5306550248204175e-9 1.6520341911119064e-8 3.886175297028608e-8 3.538838624281204e-8 2.670630137958163e-8
          3.556929787046708e-8 5.486774687881002e-9 5.052120338518569e-9 5.868470096700581e-9 5.2421381178560866e-9 3.205282562161749e-9
          4.052391481332563e-9 3.5761304916173106e-9 4.0474523051745715e-9 3.74606954298404e-9 2.468266723164326e-9 1.5903196635105853e-8
          1.376530789235926e-8 1.0509799531841519e-8 9.085061991811365e-9 3.307698538552201e-8 2.4040133586954685e-8 2.467911388726681e-8
          4.559422642472178e-8 1.9688866756425153e-8 2.4222023960237806e-8 2.4121522014988793e-8 2.236857133532321e-8 2.1038758452600392e-8
          1.734737061344705e-8 1.3628852822971241e-8 1.3513532622159139e-8 2.008024081455188e-8 1.9646325209015564e-8 2.0894160503905763e-8
          5.0423603246262784e-8 5.804324287672583e-8 6.132137443019818e-9 8.425099011192891e-9 7.767759335632136e-9 6.3923006770183916e-9
          4.655166045871611e-9 4.302628002470822e-9 6.601696356534308e-9 6.1045482386600104e-9 1.8465817975321445e-9 3.7064268648703237e-9
          3.440347232393043e-9 3.5068115617794546e-9 4.978489120572849e-9 2.7559298041306397e-9 3.83780075176879e-9 4.505576645733577e-9
          4.4143531414801935e-9 4.165496736327313e-9 7.580585665782447e-9 3.192171896546457e-9 3.726341904430339e-9 3.1746599438067282e-9
          6.122708200282986e-9 1.1985987061902182e-8 1.1535268247209664e-8 1.0576048004358584e-8 2.3537989346692308e-8 2.282775523032182e-8
          1.8956010060495167e-8 2.0683876769173846e-8 9.18905727706673e-9 7.487649973124248e-9 1.7673693095162035e-8 1.4563432537292265e-8
          1.6097153765927704e-8 3.31057948907158e-9 3.2440798518952174e-9 4.137129452371823e-9 4.045937675855157e-9 2.3678869530645462e-9
          3.404176497826282e-9 3.317405353680272e-9 3.0363166550508313e-9 3.786277531676877e-9 3.0664326898398416e-9 7.102290436523905e-9
          6.890975168858421e-9 5.705878829976978e-9 6.355006949804893e-9 1.936135504573021e-9 1.884616362415537e-9 2.7522260528141347e-9
          2.676825141458709e-9 1.4924750564048976e-9 2.206788698730929e-9 2.14462783012808e-9 1.7406061966105107e-9 2.4641274351026888e-9
          1.9683442679696108e-9 4.914531291349472e-9 4.7701452134664704e-9 3.927392318123136e-9 4.362517363115964e-9 2.6897176840266934e-9
          3.362180586368106e-9 1.9431372614516777e-9 2.691650002033272e-9 2.275589979685135e-9 2.8439042920519373e-9 2.2489655297496303e-9
          5.550204333584891e-9 4.554433902123413e-9 4.591919834067212e-9 1.5318323479273155e-9 2.1508439901944116e-9 1.2052835004777651e-9
          1.7084798369355564e-9 1.2868953852408694e-9 1.7822365579547718e-9 1.4043248451572838e-9 3.761751167674471e-9 3.062178586179141e-9
          3.061653919906043e-9 1.1186361723244455e-8 1.0801551713058221e-8 9.737508286678901e-9 9.431625219901885e-9 9.870199118352918e-9
          8.57418911102349e-9 1.72598966486814e-8 1.663286194619909e-8 1.533839429053981e-8 1.5004537310409764e-8 8.447127364301484e-9
          8.171620723327476e-9 7.178978484062809e-9 6.93744350889515e-9 7.405384905224979e-9 6.261790518387503e-9 1.4172315300428939e-8
          1.3646019693788977e-8 1.1808620798576912e-8 1.2186399833524498e-8 8.53372773106576e-9 7.346932228717399e-9 6.959263887061944e-9
          5.956256587821494e-9 1.27253203540552e-8 1.152458274462115e-8 1.0211252097184657e-8 6.298492613013148e-9 5.283148589053086e-9
          5.036777405472005e-9 4.174775958140546e-9 1.0128927155409669e-8 8.693515064427616e-9 7.897660127364842e-9 8.492861708510512e-9
          7.90625017574637e-9 6.807731164263725e-9 5.810075567887948e-9 4.8602161666033235e-9 2.4291057915348795e-8 2.405221254932781e-8
          2.4395624421520475e-8 2.406117148695242e-8 2.2944516463603346e-8 2.2623581034634052e-8 2.342797924505115e-8 2.3651425017292768e-8
          2.4306279465704335e-8 2.4108241822021875e-8 2.017171092078786e-8 1.9472767446308906e-8 1.8267756097675843e-8 1.6032166555689577e-8
          2.3427642513404435e-8 2.3397971909237534e-8 2.2513672172299502e-8 1.6496173359312306e-8 1.8277793889439592e-8 1.7193000858673387e-8
          1.885798702213032e-8 2.114521462549229e-8 2.1750409852018548e-8 1.1180514712527584e-8 1.4529407612627436e-8 1.5241878343037067e-8
          1.927910176497368e-8 2.3443668402019126e-8 2.379117027022931e-8 2.465632197262055e-8 2.2588759217124443e-8 2.2701780523643077e-8
          2.3083387841603833e-8 2.4723658030066077e-8 2.4082011902343375e-8 2.3575749060438757e-8 2.3074390206576e-8 2.242818424104639e-8
          2.1777428188917975e-8 2.039052628169469e-8 2.4370851814627415e-8 2.4630345932242338e-8 2.4396818644116773e-8 2.4728825486625226e-8
          2.1331406091159646e-8 2.063354484661222e-8 1.9070278891714035e-8 1.8380115626237104e-8 1.8538970752523766e-8 1.6358773002643442e-8
          2.3523249515529297e-8 2.3559568339853337e-8 2.2208737195416483e-8 2.2867760567368912e-8 1.8479138299354603e-8 1.7071259018482293e-8
          1.4507427156206034e-8 1.315992487443166e-8 2.290141749522934e-8 2.182267580612381e-8 1.85398675762734e-8 1.5307605312231032e-8
          1.3354565976703416e-8 1.1651254178908323e-8 1.0066984383564082e-8 2.0134032854493753e-8 1.7980098986986816e-8 1.559176149489536e-8
          1.753565427867772e-8 1.9139669469454834e-8 1.7747043366325124e-8 1.9232343285088774e-8 2.2168554063911543e-8 2.223682645101603e-8
          1.3105657424537729e-8 1.557336989111903e-8 1.556904571710297e-8 1.9991861656988026e-8 1.7633624620991707e-8 1.908904567484887e-8
          1.7481897217334322e-8 1.8879593329554573e-8 2.1863373278738828e-8 2.1047169520101226e-8 1.3172440539345501e-8 1.5305989915861453e-8
          1.5301584908991846e-8 1.9969751018551252e-8 2.3753597343816298e-8 2.3257117674206835e-8 2.1167471732595618e-8 2.0082804373684002e-8
          2.3213685871443974e-8 2.2987395679691172e-8 2.19944651410954e-8 2.2120802673756972e-8 2.0327897353344392e-8 1.8295336988606763e-8
          1.617173745839239e-8 2.217423447530803e-8 2.0671314736407997e-8 1.914216379231036e-8 1.1763757541034437e-8 1.448623366815809e-8
          1.678591337314857e-8 1.7958976931079392e-8 1.0953996047349915e-8 9.536546869886295e-9 1.3791094934048949e-8 1.238662971348592e-8
          8.31618531670661e-9 7.095220252749545e-9 1.0929808515864837e-8 9.430653673083211e-9 1.6054596059244046e-8 1.4548199321464579e-8
          1.7034460990145913e-8 1.5324531938670113e-8 1.2921647594742452e-8 1.1200662951414801e-8 1.365283861840154e-8 1.185001871706166e-8
          1.7309945836429702e-9 1.6806818266329594e-9 1.538088536856662e-9 3.2643395552725917e-9 3.159488392250931e-9 2.865762377204583e-9
          1.328609258446406e-9 1.0854696385805347e-9 2.4384709068108782e-9 1.949154844136448e-9 5.95278318156974e-9 5.743572267379364e-9
          5.159333136422486e-9 1.0366167473490337e-8 9.96084169951918e-9 8.846751954499152e-9 4.318044505601931e-9 3.3756773475010895e-9
          7.2787467550681634e-9 5.561185805497441e-9 3.963648528939473e-9 1.6500283442056274e-8 1.5845534727579992e-8 1.399343347629293e-8
          2.0623640182522684e-8 2.0255149092102653e-8 1.868238212248893e-8 1.1344234708031137e-8 8.48721788773851e-9 1.553460158771033e-8
          1.1597990294681317e-8 1.7571557634127217e-8 1.861675641856316e-8 1.970929650997239e-8 1.3819510908460607e-8 1.587064037340562e-8
          1.8951005061522478e-8 1.798215659728506e-8 1.3848801623319856e-8 1.851856204816746e-8 1.4611606687982992e-8 5.898784260657023e-9
          7.942634047590986e-9 9.485957226258006e-9 1.0047828033485896e-8 6.35342641887604e-8 5.354667724972766e-8 8.163339509784752e-8
          6.604927247333762e-8 4.3299128153081416e-8 4.024378137387888e-8 7.447750539493207e-8 6.822293366715956e-8 3.208693425134987e-8
          5.223930715036686e-8 6.467591110810293e-8 5.871123657197236e-8 6.728153496710174e-8 6.349941375991162e-8 7.418008196541755e-8
          9.420130888688115e-8 8.396135722883018e-8 1.0690295241441714e-7 2.3081037996353324e-8 2.3847588753481252e-8 2.3641897000072452e-8
          2.2783543054121472e-8 2.248653432937379e-8 2.2711894970866098e-8 2.3210612150107388e-8 1.8409815598627047e-8 2.0514780039967502e-8
          1.8898679218355707e-8 2.302221217498782e-8 1.5493219884346554e-8 1.740587906171616e-8 2.0384528079453426e-8 1.0012609037484864e-8
          1.3590724185491693e-8 1.8694530783430526e-8 2.2722666604259332e-8 2.3994815288697573e-8 2.2020653339850984e-8
        </DataArray>
        <DataArray type="Float64" Name="gradient_matprop_error" format="ascii" RangeMin="0" RangeMax="0">
          0 0 0 0 0 0
          0 0 0 0 0 0
          0 0 0 0 0 0
          0 0 0 0 0 0
          0 0 0 0 0 0
          0 0 0 0 0 0
          0 0 0 0 0 0
          0 0 0 0 0 0
          0 0 0 0 0 0
          0 0 0 0 0 0
          0 0 0 0 0 0
          0 0 0 0 0 0
          0 0 0 0 0 0
          0 0 0 0 0 0
          0 0 0 0 0 0
          0 0 0 0 0 0
          0 0 0 0 0 0
          0 0 0 0 0 0
          0 0 0 0 0 0
          0 0 0 0 0 0
          0 0 0 0 0 0
          0 0 0 0 0 0
          0 0 0 0 0 0
          0 0 0 0 0 0
          0 0 0 0 0 0
          0 0 0 0 0 0
          0 0 0 0 0 0
          0 0 0 0 0 0
          0 0 0 0 0 0
          0 0 0 0 0 0
          0 0 0 0 0 0
          0 0 0 0 0 0
          0 0 0 0 0 0
          0 0 0 0 0 0
          0 0 0 0 0 0
          0 0 0 0 0 0
          0 0 0 0 0 0
          0 0 0 0 0 0
          0 0 0 0 0 0
          0 0 0 0 0 0
          0 0 0 0 0 0
          0 0 0 0 0 0
          0 0 0 0 0 0
          0 0 0 0 0 0
          0 0 0 0 0 0
          0 0 0 0 0 0
          0 0 0 0 0 0
          0 0 0 0 0 0
          0 0 0 0 0 0
          0 0 0 0 0 0
          0 0 0 0 0 0
          0 0 0 0 0 0
          0 0 0 0 0 0
          0 0 0 0 0 0
          0 0 0 0 0 0
          0 0 0 0 0 0
          0 0 0 0 0 0
          0 0 0 0 0 0
          0 0 0 0 0 0
          0 0 0 0 0 0
          0 0 0 0 0 0
          0 0 0 0 0 0
          0 0 0 0 0 0
          0 0 0 0 0
        </DataArray>
        <DataArray type="Float64" Name="initial_marker" format="ascii" RangeMin="0" RangeMax="2">
          0 2 1 1 0.75 2
          2 0.5 2 2 2 2
          2 0 0 0 0 0
          0 0 1.3333333333333333 2 2 2
          2 1 1 2 2 1
          2 2 0.5 2 2 2
          2 2 2 2 2 2
          2 2 2 2 2 2
          2 2 2 2 2 2
          2 2 0 0 0 0
          0 0 0 0 0 0
          0 0 0 0 2 2
          2 2 2 2 2 1.5
          2 2 2 2 2 2
          2 2 2 2 2 2
          2 2 2 2 2 2
          2 2 2 2 2 2
          2 2 2 2 2 2
          2 2 2 2 2 2
          2 2 2 2 2 2
          2 2 2 1 1.5 1.5
          2 2 2 2 2 2
          2 1 1.5 1.5 2 2
          2 2 2 2 2 2
          2 2 2 2 2 2
          2 2 2 2 2 2
          2 2 2 2 2 2
          2 2 2 2 2 2
          2 2 2 2 2 2
          2 2 2 2 2 2
          2 2 2 2 2 2
          2 2 2 2 2 2
          2 2 2 2 2 2
          2 2 2 2 2 2
          2 2 2 2 2 2
          2 2 2 2 2 2
          2 2 2 2 2 2
          2 2 2 2 2 2
          2 2 2 2 2 2
          2 2 2 2 2 2
          2 2 2 2 2 2
          2 2 2 2 2 2
          2 2 2 2 2 2
          2 2 2 2 2 2
          2 2 2 2 2 2
          2 2 2 2 2 2
          2 2 2 2 2 2
          2 2 2 2 2 2
          2 2 2 2 2 2
          2 2 2 2 2 2
          2 2 2 2 2 2
          2 1.5 2 2 2 2
          2 2 2 2 2 2
          2 2 2 2 2 2
          2 2 2 2 2 2
          2 2 2 2 2 2
          2 2 2 2 2 2
          2 2 2 0 0 1
          1 2 2 2 2 2
          2 2 2 2 2 2
          2 2 2 2 2 2
          2 2 2 2 2 2
          2 2 2 2 2 2
          2 2 2 2 2
        </DataArray>
        <DataArray type="Float64" Name="markers_norefine" format="ascii" RangeMin="0" RangeMax="2">
          0 2 0 0 0 0
          0 0 0 0 2 0.5
          0 0 0 0 0 0
          0 0 0 0 0 0
          0 0 0 0 0 0
          0 0 0 0 0 0
          0 0 0 0 2 1.5
          0 2 1.5 0.75 0.5 0.25
          0 0 2 2 1 0
          0 0 0 0 0 0
          0 0 0 0 0 0
          0 0 0 0 0 0
          0 0 0 0 0 0
          0 0 0 0 0 0
          0 0 0 0 0 0
          0 0 0 0 0 0
          0 0 0 0 0 0
          0 0 0 0 0 0
          0 0 0 0 0 0
          0 0 0 0 0 0
          0 0 0 0 0 0
          0 0 0 0 0 0
          0 0 0 0 0 0
          0 0 0 0 0 0
          0 0 0 0 0 0
          0 0 0 0 0 0
          0 0 0 0 0 0
          0 0 0 0 0 0
          0 0 0 0 0 0
          0 0 0 0 1 1
          1 1 0.75 0.5 2 2
          2 1.75 0.25 0 0 0
          1 0.5 0.5 2 2 2
          2 2 2 2 2 2
          2 1.75 1.25 1.5 0.3333333333333333 2
          1.5 2 1 0.75 0.5 0.25
          0.25 0 2 1.75 1.25 1.25
          0 0 0 0 0 0
          1 1 0.5 0.5 0 0
          0 0 0.5 0.25 0 0
          0 0 0 0 0 0
          2 2 2 2 2 1.75
          2 2 2 2 2 2
          1.5 1.5 1.25 0.75 2 2
          2 1.5 1 0.75 0 0
          1 1 0 0.25 0 0
          0 0.5 0 0 0 0
          0 0 0 0 0 0
          0 0 0 0 0 0
          0 0 0 0 0 0
          0 0 0 0 0 0
          0 0 0 0 0 0
          0 0 0 0 0 0
          0 0 0 0 0 0
          0 0 0 0 0 0
          0 0.5 0.5 0.25 1 1
          0.5 0 0 0 0 0
          0 0 0 0 0 0
          0 0 0 0 0 0
          0 0 0 0 0 0.5
          0 1 0 0 1 1
          1 2 2 2 0 0.5
          0 1.5 2 2 2 2
          2 2 2 2 2
        </DataArray>
        <DataArray type="Float64" Name="markers_mustrefine" format="ascii" RangeMin="0" RangeMax="2">
          0 2 1 1 0.75 2
          2 0.5 2 2 2 2
          2 0 0 0 0 0
          0 0 1.3333333333333333 2 2 2
          2 1 1 2 2 1
          2 2 0.5 2 2 2
          2 2 2 2 2 2
          2 2 2 2 2 2
          2 2 2 2 2 2
          2 2 0 0 0 0
          0 0 0 0 0 0
          0 0 0 0 2 2
          2 2 2 2 2 1.5
          2 2 2 2 2 2
          2 2 2 2 2 2
          2 2 2 2 2 2
          2 2 2 2 2 2
          2 2 2 2 2 2
          2 2 2 2 2 2
          2 2 2 2 2 2
          2 2 2 1 1.5 1.5
          2 2 2 2 2 2
          2 1 1.5 1.5 2 2
          2 2 2 2 2 2
          2 2 2 2 2 2
          2 2 2 2 2 2
          2 2 2 2 2 2
          2 2 2 2 2 2
          2 2 2 2 2 2
          2 2 2 2 2 2
          2 2 2 2 2 2
          2 2 2 2 2 2
          2 2 2 2 2 2
          2 2 2 2 2 2
          2 2 2 2 2 2
          2 2 2 2 2 2
          2 2 2 2 2 2
          2 2 2 2 2 2
          2 2 2 2 2 2
          2 2 2 2 2 2
          2 2 2 2 2 2
          2 2 2 2 2 2
          2 2 2 2 2 2
          2 2 2 2 2 2
          2 2 2 2 2 2
          2 2 2 2 2 2
          2 2 2 2 2 2
          2 2 2 2 2 2
          2 2 2 2 2 2
          2 2 2 2 2 2
          2 2 2 2 2 2
          2 1.5 2 2 2 2
          2 2 2 2 2 2
          2 2 2 2 2 2
          2 2 2 2 2 2
          2 2 2 2 2 2
          2 2 2 2 2 2
          2 2 2 0 0 1
          1 2 2 2 2 2
          2 2 2 2 2 2
          2 2 2 2 2 2
          2 2 2 2 2 2
          2 2 2 2 2 2
          2 2 2 2 2
        </DataArray>
        <DataArray type="Float64" Name="gradient_marker" format="ascii" RangeMin="0" RangeMax="1">
          1 1 1 0.5 0.5 0.25
          0.375 1 1 1 0 0.25
          1 0.5 0.5 0.75 0.75 1
          1 1 0.3333333333333333 0.25 0.25 0.25
          0.25 1 1 1 1 1
          1 1 1 1 1 1
          1 1 1 0.375 0 0
          0.25 0 1 1 1 1
          1 1 1 1 1 1
          0.5 0.5 1 1 1 1
          1 1 1 1 1 1
          1 1 1 1 0 0
          0 0 0 0 0 0
          0 0 0 0 0 0
          0 0 0 0 0 0
          0 0.5 0.5 0.5 0.5 1
          1 1 0.5 0.5 1 0.5
          0.5 1 0.5 1 1 1
          1 1 1 1 1 1
          1 1 1 1 1 0.5
          0.5 1 1 0.5 0.5 1
          0.5 1 0.5 1 1 1
          1 1 1 1 1 1
          1 0.5 0.5 1 1 0.5
          1 0.5 0.5 1 0.5 1
          1 1 1 1 1 1
          1 1 1 0.5 1 0.5
          1 0.5 1 0.5 1 1
          1 1 1 1 1 0
          0.5 1 1 1 0 0
          0 0 0 0 0 0
          0 0 0 0 0 0
          0 0 0 0 0 0
          0 0 0 0 0 0
          0 0 0 0 0 0
          0 0 0.5 0.5 1 1
          0.5 1 0.5 0.5 1 0.5
          1 1 1 1 1 1
          1 1 1 1 0.5 1
          0.5 1 0.5 1 0.5 1
          1 1 1 1 1 1
          0.5 0.5 1 1 0.5 1
          0.5 0.5 1 0.5 1 1
          1 1 1 1 1 1
          1 1 0.5 1 0.5 1
          0.5 1 0.5 1 1 1
          1 1 1 1 0 0
          0 0 0.5 1 0.5 1
          1 1 1 1 0.5 1
          0.5 1 1 1 1 1
          1 1 1 1 1 1
          1 1 1 1 1 1
          1 1 1 1 1 1
          1 1 1 1 1 1
          1 1 1 1 1 1
          1 1 1 1 1 1
          1 1 1 1 1 1
          1 1 1 0.5 0.5 0.75
          0.5 0 0 0.5 0.5 0
          0.5 0.5 0.5 0.75 0.75 0.5
          1 0.5 1 0 0 0
          0 0 0 0 0 0
          0 0 0 0 0 0
          0 0 0 0 0
        </DataArray>
        <DataArray type="Float64" Name="gradient_matprop_marker" format="ascii" RangeMin="0" RangeMax="0">
          0 0 0 0 0 0
          0 0 0 0 0 0
          0 0 0 0 0 0
          0 0 0 0 0 0
          0 0 0 0 0 0
          0 0 0 0 0 0
          0 0 0 0 0 0
          0 0 0 0 0 0
          0 0 0 0 0 0
          0 0 0 0 0 0
          0 0 0 0 0 0
          0 0 0 0 0 0
          0 0 0 0 0 0
          0 0 0 0 0 0
          0 0 0 0 0 0
          0 0 0 0 0 0
          0 0 0 0 0 0
          0 0 0 0 0 0
          0 0 0 0 0 0
          0 0 0 0 0 0
          0 0 0 0 0 0
          0 0 0 0 0 0
          0 0 0 0 0 0
          0 0 0 0 0 0
          0 0 0 0 0 0
          0 0 0 0 0 0
          0 0 0 0 0 0
          0 0 0 0 0 0
          0 0 0 0 0 0
          0 0 0 0 0 0
          0 0 0 0 0 0
          0 0 0 0 0 0
          0 0 0 0 0 0
          0 0 0 0 0 0
          0 0 0 0 0 0
          0 0 0 0 0 0
          0 0 0 0 0 0
          0 0 0 0 0 0
          0 0 0 0 0 0
          0 0 0 0 0 0
          0 0 0 0 0 0
          0 0 0 0 0 0
          0 0 0 0 0 0
          0 0 0 0 0 0
          0 0 0 0 0 0
          0 0 0 0 0 0
          0 0 0 0 0 0
          0 0 0 0 0 0
          0 0 0 0 0 0
          0 0 0 0 0 0
          0 0 0 0 0 0
          0 0 0 0 0 0
          0 0 0 0 0 0
          0 0 0 0 0 0
          0 0 0 0 0 0
          0 0 0 0 0 0
          0 0 0 0 0 0
          0 0 0 0 0 0
          0 0 0 0 0 0
          0 0 0 0 0 0
          0 0 0 0 0 0
          0 0 0 0 0 0
          0 0 0 0 0 0
          0 0 0 0 0
        </DataArray>
        <DataArray type="Float64" Name="combo" format="ascii" RangeMin="0" RangeMax="2">
          1 2 1 0.5 0.5 0.25
          0.375 1 1 1 2 0.75
          1 0.5 0.5 0.75 0.75 1
          1 1 0.3333333333333333 0.25 0.25 0.25
          0.25 1 1 1 1 1
          1 1 1 1 1 1
          1 1 1 0.375 2 1.5
          0.25 2 1.75 1.375 1.25 1.125
          1 1 2 2 1.5 1
          0.5 0.5 1 1 1 1
          1 1 1 1 1 1
          1 1 1 1 0 0
          0 0 0 0 0 0
          0 0 0 0 0 0
          0 0 0 0 0 0
          0 0.5 0.5 0.5 0.5 1
          1 1 0.5 0.5 1 0.5
          0.5 1 0.5 1 1 1
          1 1 1 1 1 1
          1 1 1 1 1 0.5
          0.5 1 1 0.5 0.5 1
          0.5 1 0.5 1 1 1
          1 1 1 1 1 1
          1 0.5 0.5 1 1 0.5
          1 0.5 0.5 1 0.5 1
          1 1 1 1 1 1
          1 1 1 0.5 1 0.5
          1 0.5 1 0.5 1 1
          1 1 1 1 1 0
          0.5 1 1 1 1 1
          1 1 0.75 0.5 2 2
          2 1.75 0.25 0 0 0
          1 0.5 0.5 2 2 2
          2 2 2 2 2 2
          2 1.75 1.25 1.5 0.3333333333333333 2
          1.5 2 1.25 1.125 1.25 1.125
          0.75 1 2 1.875 1.625 1.5
          1 1 1 1 1 1
          1.5 1.5 1.25 1.25 0.5 1
          0.5 1 0.875 1.125 0.5 1
          1 1 1 1 1 1
          2 2 2 2 2 1.875
          2 2 2 2 2 2
          1.75 1.75 1.625 1.375 2 2
          2 1.75 1.25 1.375 0.5 1
          1.25 1.5 0.5 1.125 1 1
          1 1.25 1 1 0 0
          0 0 0.5 1 0.5 1
          1 1 1 1 0.5 1
          0.5 1 1 1 1 1
          1 1 1 1 1 1
          1 1 1 1 1 1
          1 1 1 1 1 1
          1 1 1 1 1 1
          1 1 1 1 1 1
          1 1.25 1.25 1.125 1.5 1.5
          1.25 1 1 1 1 1
          1 1 1 0.5 0.5 0.75
          0.5 0 0 0.5 0.5 0
          0.5 0.5 0.5 0.75 0.75 1
          1 1.5 1 0 1 1
          1 2 2 2 0 0.5
          0 1.5 2 2 2 2
          2 2 2 2 2
        </DataArray>
        <DataArray type="Float64" Name="dHdT" format="ascii" RangeMin="25.843772118251906" RangeMax="65.58502661651123">
          25.843772118251906 65.58502661651123 26.410997079382803 27.632394797765137 27.118802493505907 37.81028816473224
          33.70426071463849 26.227403047221934 33.335357693486415 29.32939919982445 46.2512260443407 45.0681257697409
          36.37463464825356 25.919004946056337 25.90746897642652 26.22247894364626 26.14610050466709 25.858302889518548
          25.91486943438756 25.896517111220287 27.697400213245725 31.28055493815496 30.726155394594237 29.389185537830976
          36.20077494305998 26.834339683459675 26.74509783042141 29.094922567853867 28.678176601573455 26.356836367203808
          27.829430832025523 27.575265327839777 26.535845091485193 27.78855524727265 27.01728965770186 35.67507788257127
          34.708677518444595 32.14620571195294 31.50188435192417 30.227973888015647 53.239723951730134 52.03113965721181
          39.05592568288211 52.18739853573812 52.529707381691125 46.832172009314874 45.421870277008566 39.97491846816097
          36.75164170866788 34.31894636053304 46.47438560526156 56.393643071861675 51.04309786854262 39.89154361971673
          33.45626883993159 34.97968645450712 26.165001285389017 26.4543251077765 26.408997070825333 26.30098600904275
          26.09749816944985 26.080847493558675 26.311800785508744 26.276752366639318 25.956614093798905 26.090424051930253
          26.070780395372147 26.039390959361477 26.191359045215393 26.021453002157223 27.69230275591973 28.416144594101127
          28.340184135380927 28.14658718882404 30.434398264914662 27.376826606169843 27.87909845672815 27.56752267376666
          29.33490543847448 34.4546253288309 34.21088655777308 33.42633133683186 43.76149635515948 41.78750400081856
          38.0991939192327 38.58448426389197 32.07015215428263 30.54935906433191 37.2269177709788 35.911684401787035
          37.09837866065129 27.52690279645756 27.478547081950925 28.135284448435808 28.06892920415271 27.109008333606603
          27.635949995460265 27.585316155913056 27.35824606246115 27.894792682421848 27.446339178669216 30.05360097431455
          29.897965198412482 28.983061141292055 29.49241448657345 26.848519539282098 26.822544393949762 27.239890542455534
          27.200226705336632 26.585785527161935 26.9178812381708 26.88672553614463 26.750210084141777 27.08980840890604
          26.79956059871093 28.392468475748828 28.30544184897093 27.761763462455185 28.067203224609415 27.196836302192832
          27.65033214277619 26.88463579369032 27.24597507778665 27.00734556399921 27.36679335691992 27.015078550516428
          28.939430043145684 28.253260048166126 28.343379933941577 26.642516921770124 26.928794982065636 26.444482736662366
          26.672257036848713 26.51640468589744 26.7436928719935 26.5263583880827 27.73144439193365 27.31039689486644
          27.361310606797872 33.681287659374995 33.42706619675764 32.223891723106554 31.954746686266134 32.63472346585565
          31.19536300643577 36.63699225800178 36.46571497297752 35.44214933629563 35.861173169405184 30.880304218962728
          30.6434473971506 29.70981810102734 29.536677910040673 30.02190751732809 29.079981005755243 34.56697140390459
          34.30596952512899 33.04530108818355 33.48628472460408 31.375238262818183 30.15553148032821 30.02998313918735
          29.12232254227125 34.661265860417195 33.372566060302624 32.81786834132239 29.22022848999401 28.47696379757938
          28.423729221415257 27.859776650973036 32.05459581230086 30.757140397182404 30.327055644218508 31.361735457671394
          30.756829856620584 29.691980643900028 28.86995946378106 28.211942221377033 49.51539097333172 48.16271786021455
          46.865442319021106 45.83109562034383 44.74014259783984 42.91688083747614 52.56205494464778 53.426352780171065
          53.7282494013246 53.23263760322981 40.42290611425898 39.07905271941987 38.17557177993563 36.564149126038735
          47.95621766303783 45.56295964627925 43.73781073531037 48.06210069481718 49.26657053312945 49.45012180065047
          50.451248593281704 53.21619202482866 53.97153314395772 46.269377091842784 46.218367225527324 46.22991979603233
          50.86290977498542 53.52394349787133 52.51619786345084 51.086543317527074 44.80372247899293 54.75434612720617
          55.12298713995375 53.95023006365337 44.516674519900825 43.634103398443074 42.33572701161924 41.48035325028883
          40.919692486667685 39.0233402640459 53.35643811615208 53.01684603242012 51.27647956177965 49.78327375935481
          39.70486249949094 38.925900605926834 37.341942638451464 36.74933217055818 37.11315958781781 35.56532368071148
          49.69459999140676 48.02065170501448 43.74168981786045 43.37419182184684 37.804890056662636 36.51908714432594
          35.62120045087974 34.43365110601179 43.0716176018957 40.71050881889445 37.95058562515199 35.24981456838029
          33.98623919312715 33.10865606502163 31.733939548446457 38.51913655325489 36.83213009006198 35.546443894908066