<?xml version="1.0"?>
<VTKFile type="UnstructuredGrid" version="0.1" byte_order="LittleEndian" header_type="UInt32" compressor="vtkZLibDataCompressor">
  <UnstructuredGrid>
    <Piece NumberOfPoints="1148" NumberOfCells="816">
      <PointData>
        <DataArray type="Int32" Name="libmesh_node_id" format="ascii" RangeMin="1386" RangeMax="11111">
          1386 1662 1664 1665 1672 1673
          1851 1858 2459 2460 2461 2464
          2563 2564 2565 2566 2567 2568
          2569 2573 2574 2575 2576 2577
          2578 2579 2580 2581 2582 2583
          2584 2585 2586 3792 3793 3794
          3797 4196 4197 4198 4199 4200
          4201 4202 4203 4204 4205 4206
          4207 4208 4209 4210 4211 4212
          4213 4214 4215 4216 4217 4218
          4219 4220 4221 4222 4223 4224
          4225 4226 4227 4228 4229 4231
          4232 4233 4234 4235 4236 4237
          4241 4242 4243 4244 4245 4246
          4247 4248 4249 4250 4251 4252
          4253 4254 4255 4256 4257 4258
          4259 4260 4261 4262 4263 4264
          4265 4266 4267 4268 4269 4270
          4271 4272 4273 4274 4275 4276
          4277 4278 4279 4280 4281 4282
          4283 4284 4285 4286 4287 4288
          4289 4290 4291 4292 4293 4294
          4295 4296 4297 4298 4299 4300
          4301 4302 4303 4304 4305 4306
          4307 4308 4309 4310 4311 4312
          4313 4314 4315 4319 4320 4322
          4323 4325 4340 4341 4344 4345
          4347 4349 4360 4361 4364 4366
          4367 4369 4380 4382 4384 4386
          4394 4395 4401 5136 5137 5142
          5155 5169 9185 9186 9187 9188
          9189 9190 9191 9192 9193 9194
          9195 9196 9197 9198 9199 9200
          9201 9202 9203 9204 9205 9206
          9207 9208 9209 9210 9211 9212
          9213 9214 9215 9216 9217 9218
          9219 9220 9221 9222 9223 9224
          9225 9226 9227 9228 9229 9230
          9231 9232 9233 9234 9235 9236
          9237 9238 9239 9240 9241 9242
          9243 9244 9245 9246 9247 9248
          9249 9250 9251 9252 9253 9254
          9255 9256 9257 9258 9259 9260
          9261 9262 9263 9264 9265 9266
          9267 9268 9269 9270 9271 9272
          9273 9274 9275 9276 9277 9278
          9279 9280 9283 9284 9287 9288
          9289 9290 9291 9292 9293 9294
          9295 9296 9297 9298 9299 9300
          9303 9304 9307 9309 9311 9312
          9313 9314 9315 9316 9317 9318
          9319 9320 9321 9322 9323 9324
          9325 9326 9327 9328 9329 9330
          9331 9332 9333 9334 9335 9336
          9337 9338 9339 9340 9341 9342
          9343 9344 9345 9346 9347 9348
          9349 9350 9351 9352 9353 9354
          9355 9356 9357 9358 9359 9360
          9361 9362 9363 9364 9365 9366
          9367 9368 9369 9370 9371 9372
          9373 9374 9375 9376 9377 9378
          9379 9380 9381 9382 9383 9384
          9385 9386 9387 9388 9389 9390
          9391 9392 9393 9394 9395 9396
          9397 9398 9399 9400 9401 9402
          9403 9404 9405 9406 9407 9408
          9409 9410 9411 9412 9413 9414
          9415 9416 9417 9418 9419 9420
          9421 9422 9423 9424 9425 9426
          9427 9428 9429 9430 9431 9432
          9433 9434 9435 9436 9437 9438
          9439 9440 9441 9442 9443 9444
          9445 9446 9447 9448 9449 9450
          9451 9452 9453 9454 9455 9456
          9457 9458 9459 9460 9461 9462
          9463 9464 9465 9466 9467 9468
          9469 9470 9471 9472 9473 9474
          9475 9476 9477 9478 9479 9480
          9481 9482 9483 9484 9485 9486
          9487 9488 9489 9490 9492 9494
          9496 9498 9499 9500 9501 9502
          9503 9504 9505 9506 9507 9508
          9509 9510 9511 9512 9513 9514
          9515 9516 9517 9518 9520 9522
          9524 9526 9527 9528 9529 9530
          9531 9532 9533 9534 9535 9536
          9537 9538 9539 9540 9541 9542
          9543 9544 9545 9546 9547 9548
          9549 9550 9551 9552 9553 9554
          9555 9556 9557 9558 9559 9560
          9561 9562 9563 9564 9565 9566
          9567 9568 9569 9570 9571 9572
          9573 9574 9575 9576 9577 9578
          9579 9580 9581 9582 9583 9584
          9585 9586 9587 9588 9589 9590
          9591 9592 9593 9594 9595 9596
          9597 9598 9599 9600 9601 9602
          9603 9604 9605 9606 9607 9608
          9609 9610 9611 9612 9613 9614
          9615 9616 9617 9618 9619 9620
          9621 9622 9623 9624 9625 9626
          9627 9628 9629 9630 9631 9632
          9633 9634 9635 9636 9637 9638
          9639 9640 9641 9642 9643 9644
          9645 9646 9647 9648 9649 9650
          9651 9652 9653 9654 9655 9656
          9657 9658 9659 9660 9661 9662
          9663 9664 9665 9666 9667 9668
          9669 9670 9671 9672 9673 9674
          9675 9676 9677 9678 9679 9680
          9681 9682 9683 9684 9685 9686
          9687 9688 9689 9690 9691 9692
          9693 9694 9695 9696 9697 9698
          9699 9700 9701 9702 9703 9704
          9705 9706 9707 9708 9709 9710
          9711 9712 9713 9714 9715 9716
          9717 9718 9719 9720 9721 9722
          9723 9724 9725 9726 9727 9728
          9729 9730 9731 9732 9733 9734
          9735 9736 9737 9738 9739 9740
          9741 9742 9743 9744 9746 9748
          9750 9752 9753 9754 9755 9756
          9757 9758 9759 9760 9761 9762
          9763 9764 9765 9766 9767 9768
          9769 9770 9771 9772 9774 9776
          9778 9780 9781 9782 9783 9784
          9785 9786 9787 9788 9789 9790
          9791 9792 9793 9794 9795 9796
          9797 9798 9799 9800 9801 9802
          9803 9804 9805 9806 9807 9808
          9809 9810 9811 9812 9813 9814
          9815 9816 9817 9818 9819 9820
          9821 9822 9823 9824 9825 9826
          9827 9828 9829 9830 9831 9832
          9833 9834 9835 9836 9837 9838
          9839 9840 9841 9842 9843 9844
          9845 9846 9847 9848 9849 9850
          9851 9852 9853 9854 9855 9856
          9871 9872 9873 9874 9875 9876
          9877 9878 9879 9880 9891 9892
          9893 9894 9895 9896 9897 9898
          9899 9900 9901 9902 9905 9907
          9908 9910 9911 9912 9913 9914
          9915 9916 9917 9918 9920 9922
          9924 10007 10008 10009 10010 10011
          10012 10013 10014 10015 10016 10027
          10028 10029 10030 10031 10032 10033
          10034 10035 10036 10047 10048 10049
          10050 10051 10052 10053 10054 10056
          10058 10060 10061 10062 10063 10064
          10065 10066 10067 10068 10072 10074
          10143 10144 10145 10146 10147 10148
          10149 10150 10151 10152 10153 10154
          10157 10159 10160 10162 10163 10164
          10165 10166 10167 10168 10169 10170
          10172 10174 10176 10177 10178 10179
          10180 10181 10182 10183 10184 10185
          10186 10187 10188 10191 10193 10194
          10196 10197 10198 10199 10200 10201
          10202 10203 10204 10206 10208 10210
          10279 10280 10281 10282 10283 10284
          10285 10286 10288 10290 10292 10293
          10294 10295 10296 10297 10298 10299
          10300 10302 10304 10306 10307 10308
          10309 10310 10311 10312 10313 10314
          10316 10318 10320 10321 10322 10323
          10324 10325 10326 10327 10328 10330
          10332 10334 10393 10394 10397 10399
          10401 10402 10403 10404 10405 10406
          10408 10409 10410 10432 10434 10436
          10438 10439 10440 10459 10460 10461
          10462 10466 10467 10469 10470 10471
          10472 10476 10477 10499 10500 10506
          10507 10643 10647 10671 10675 10866
          10867 10868 10869 10873 10874 10906
          10907 1859 1852 1663 1632 2570
          2571 2572 4230 4238 4239 4240
          5159 5171 4396 5176 4404 5178
          4406 5197 4462 10407 4397 10441
          10442 10443 10444 4402 10463 10464
          10465 10468 4405 10473 10474 10475
          10478 4407 10501 10502 10503 10504
          10505 4411 10508 10509 10510 10511
          10512 4412 10649 10650 10653 10654
          10677 10678 10681 10682 10698 10699
          10702 10703 10705 10706 10709 10710
          10726 10727 10730 10731 10733 10734
          10737 10738 10870 10871 10872 10875
          4463 10908 10909 10910 10911 10912
          4469 11072 11073 11076 11077 10917
          11079 11083 11100 11101 11104 11105
          11107 11111
        </DataArray>
        <DataArray type="Float64" Name="bounds" format="ascii" RangeMin="0" RangeMax="0">
          0 0 0 0 0 0
          0 0 0 0 0 0
          0 0 0 0 0 0
          0 0 0 0 0 0
          0 0 0 0 0 0
          0 0 0 0 0 0
          0 0 0 0 0 0
          0 0 0 0 0 0
          0 0 0 0 0 0
          0 0 0 0 0 0
          0 0 0 0 0 0
          0 0 0 0 0 0
          0 0 0 0 0 0
          0 0 0 0 0 0
          0 0 0 0 0 0
          0 0 0 0 0 0
          0 0 0 0 0 0
          0 0 0 0 0 0
          0 0 0 0 0 0
          0 0 0 0 0 0
          0 0 0 0 0 0
          0 0 0 0 0 0
          0 0 0 0 0 0
          0 0 0 0 0 0
          0 0 0 0 0 0
          0 0 0 0 0 0
          0 0 0 0 0 0
          0 0 0 0 0 0
          0 0 0 0 0 0
          0 0 0 0 0 0
          0 0 0 0 0 0
          0 0 0 0 0 0
          0 0 0 0 0 0
          0 0 0 0 0 0
          0 0 0 0 0 0
          0 0 0 0 0 0
          0 0 0 0 0 0
          0 0 0 0 0 0
          0 0 0 0 0 0
          0 0 0 0 0 0
          0 0 0 0 0 0
          0 0 0 0 0 0
          0 0 0 0 0 0
          0 0 0 0 0 0
          0 0 0 0 0 0
          0 0 0 0 0 0
          0 0 0 0 0 0
          0 0 0 0 0 0
          0 0 0 0 0 0
          0 0 0 0 0 0
          0 0 0 0 0 0
          0 0 0 0 0 0
          0 0 0 0 0 0
          0 0 0 0 0 0
          0 0 0 0 0 0
          0 0 0 0 0 0
          0 0 0 0 0 0
          0 0 0 0 0 0
          0 0 0 0 0 0
          0 0 0 0 0 0
          0 0 0 0 0 0
          0 0 0 0 0 0
          0 0 0 0 0 0
          0 0 0 0 0 0
          0 0 0 0 0 0
          0 0 0 0 0 0
          0 0 0 0 0 0
          0 0 0 0 0 0
          0 0 0 0 0 0
          0 0 0 0 0 0
          0 0 0 0 0 0
          0 0 0 0 0 0
          0 0 0 0 0 0
          0 0 0 0 0 0
          0 0 0 0 0 0
          0 0 0 0 0 0
          0 0 0 0 0 0
          0 0 0 0 0 0
          0 0 0 0 0 0
          0 0 0 0 0 0
          0 0 0 0 0 0
          0 0 0 0 0 0
          0 0 0 0 0 0
          0 0 0 0 0 0
          0 0 0 0 0 0
          0 0 0 0 0 0
          0 0 0 0 0 0
          0 0 0 0 0 0
          0 0 0 0 0 0
          0 0 0 0 0 0
          0 0 0 0 0 0
          0 0 0 0 0 0
          0 0 0 0 0 0
          0 0 0 0 0 0
          0 0 0 0 0 0
          0 0 0 0 0 0
          0 0 0 0 0 0
          0 0 0 0 0 0
          0 0 0 0 0 0
          0 0 0 0 0 0
          0 0 0 0 0 0
          0 0 0 0 0 0
          0 0 0 0 0 0
          0 0 0 0 0 0
          0 0 0 0 0 0
          0 0 0 0 0 0
          0 0 0 0 0 0
          0 0 0 0 0 0
          0 0 0 0 0 0
          0 0 0 0 0 0
          0 0 0 0 0 0
          0 0 0 0 0 0
          0 0 0 0 0 0
          0 0 0 0 0 0
          0 0 0 0 0 0
          0 0 0 0 0 0
          0 0 0 0 0 0
          0 0 0 0 0 0
          0 0 0 0 0 0
          0 0 0 0 0 0
          0 0 0 0 0 0
          0 0 0 0 0 0
          0 0 0 0 0 0
          0 0 0 0 0 0
          0 0 0 0 0 0
          0 0 0 0 0 0
          0 0 0 0 0 0
          0 0 0 0 0 0
          0 0 0 0 0 0
          0 0 0 0 0 0
          0 0 0 0 0 0
          0 0 0 0 0 0
          0 0 0 0 0 0
          0 0 0 0 0 0
          0 0 0 0 0 0
          0 0 0 0 0 0
          0 0 0 0 0 0
          0 0 0 0 0 0
          0 0 0 0 0 0
          0 0 0 0 0 0
          0 0 0 0 0 0
          0 0 0 0 0 0
          0 0 0 0 0 0
          0 0 0 0 0 0
          0 0 0 0 0 0
          0 0 0 0 0 0
          0 0 0 0 0 0
          0 0 0 0 0 0
          0 0 0 0 0 0
          0 0 0 0 0 0
          0 0 0 0 0 0
          0 0 0 0 0 0
          0 0 0 0 0 0
          0 0 0 0 0 0
          0 0 0 0 0 0
          0 0 0 0 0 0
          0 0 0 0 0 0
          0 0 0 0 0 0
          0 0 0 0 0 0
          0 0 0 0 0 0
          0 0 0 0 0 0
          0 0 0 0 0 0
          0 0 0 0 0 0
          0 0 0 0 0 0
          0 0 0 0 0 0
          0 0 0 0 0 0
          0 0 0 0 0 0
          0 0 0 0 0 0
          0 0 0 0 0 0
          0 0 0 0 0 0
          0 0 0 0 0 0
          0 0 0 0 0 0
          0 0 0 0 0 0
          0 0 0 0 0 0
          0 0 0 0 0 0
          0 0 0 0 0 0
          0 0 0 0 0 0
          0 0 0 0 0 0
          0 0 0 0 0 0
          0 0 0 0 0 0
          0 0 0 0 0 0
          0 0 0 0 0 0
          0 0 0 0 0 0
          0 0 0 0 0 0
          0 0 0 0 0 0
          0 0 0 0 0 0
          0 0 0 0 0 0
          0 0 0 0 0 0
          0 0 0 0 0 0
          0 0 0 0 0 0
          0 0 0 0 0 0
          0 0
        </DataArray>
        <DataArray type="Float64" Name="gradient_error" format="ascii" RangeMin="1.4642949204716042e-12" RangeMax="4.088590257518314e-9">
          4.106466303914784e-11 5.639915397502922e-12 9.518455792946211e-12 6.7008860669857705e-12 9.162002252810898e-10 4.156081774313268e-10
          2.9124369672943967e-11 7.0811834646920455e-12 4.255593734697305e-11 4.2492860352522906e-11 3.6919737987150464e-11 2.3966264047248977e-11
          1.3841166717730155e-11 1.2322402285044815e-11 1.2591018318207846e-11 1.0941275282326521e-11 3.6189507900357913e-12 3.3273468700562296e-12
          2.923640642153438e-12 2.4377575122507882e-11 1.9225016934246835e-11 7.58104711285159e-12 1.7793101858580906e-11 9.383996447659875e-10
          7.025432599148829e-10 3.3108301361849185e-10 2.426954607659478e-10 2.8981723602453683e-10 9.588095943699828e-11 1.8231650835853308e-9
          1.841235346778338e-9 8.279916228537421e-10 1.08152101073557e-9 3.5674649670199814e-11 2.6675141336867228e-11 2.547048469822262e-11
          2.21785183055817e-11 2.1006344555937462e-11 2.011776204024634e-11 1.5075649042572026e-11 1.4395067362642864e-11 1.0895007779913815e-11
          8.167236236920835e-12 7.814063233750292e-12 1.769235033279132e-11 1.2572967446760558e-11 6.830428191597069e-12 4.3251176358871436e-11
          4.078993729884557e-11 2.297923463273094e-11 3.4214596358124584e-11 5.841058522514573e-12 5.637702558390026e-12 4.313236542293393e-12
          4.137725548019475e-12 2.5164382349662556e-12 5.305806520699636e-12 5.055679172659114e-12 4.90700805268556e-12 3.597932421907038e-12
          4.369932225792673e-12 1.3123560038088358e-11 1.236789138478149e-11 8.990058909258907e-12 1.0332365928320598e-11 1.401421334431791e-11
          1.0017415646016468e-11 7.230180860779996e-12 8.67257248418515e-12 9.369098329836042e-12 1.7980822952158506e-11 2.546266343287024e-11
          1.6883652846432426e-11 2.6458589400711955e-11 3.576309309179482e-12 7.774261051990026e-12 1.8065513504483523e-12 5.224984606833226e-12
          1.2004370550376259e-11 7.34185997430256e-12 1.2680051869735658e-11 2.7687391490613575e-10 2.5915752442832193e-10 1.6506143232733517e-10
          1.5428434576845439e-10 2.1257873906757857e-10 1.2606551415256813e-10 1.4279696092084648e-9 1.3344252744317764e-9 8.732780730332767e-10
          1.0861334741955293e-9 9.356526327492838e-11 8.737768729663947e-11 5.052298754497846e-11 4.715626162532354e-11 7.121184252516475e-11
          3.836885743812216e-11 5.760496369392318e-10 5.342624883408672e-10 3.0636398997122953e-10 4.258387502498771e-10 1.529876407215912e-10
          9.019487752132078e-11 9.682513477211984e-11 5.6699462567907326e-11 7.653806104498341e-10 4.866960839661555e-10 4.643925350651012e-10
          5.074982108022088e-11 2.7275134331877493e-11 3.1747847995453026e-11 1.700590772194051e-11 2.9129023502359315e-10 1.6463466193690012e-10
          1.711604072798602e-10 3.4586989885349745e-9 3.2630152511540633e-9 2.4588463110012198e-9 2.3243674463827445e-9 2.7461272145101267e-9
          1.9463436543519387e-9 2.5605408177533877e-9 2.5934075042006164e-9 1.8609077608465696e-9 2.50438536366004e-9 1.6665354771616915e-9
          1.5644636154369067e-9 1.0398337344939974e-9 9.70858303431837e-10 1.2848409607975936e-9 7.855702618899443e-10 1.3564642870411472e-9
          1.3608788658126325e-9 9.047179871308867e-10 1.2887557182896895e-9 2.0430034981595545e-9 1.411193112784017e-9 1.2971152817410219e-9
          8.65780126643369e-10 2.175209726379502e-9 1.5668677970735213e-9 1.5740445159941264e-9 9.071193227668573e-10 5.433703319718006e-10
          5.409481073185945e-10 3.172037059105938e-10 1.0464586571299537e-9 6.481841123875645e-10 6.933796846720805e-10 7.807727642983523e-12
          7.390483500156962e-12 2.6042938054121068e-11 2.4298789641292134e-11 6.278674232116858e-12 1.975022360054765e-11 1.79150644588686e-10
          1.6554166461166592e-10 1.306378901133129e-10 4.8202375539252425e-12 1.4014911632536791e-11 3.367589546354742e-12 8.715553353325641e-12
          8.814887088788704e-11 5.1025635762610026e-11 6.009053298520102e-10 5.587224093383408e-10 4.47041829313341e-10 5.665791759198574e-10
          5.525437088008705e-10 4.919524673330067e-10 3.0456634657183043e-10 1.7509940345959454e-10 3.7388967151719603e-10 2.3367387877031816e-10
          2.6311211623310937e-11 5.417139281119569e-11 2.428863532800128e-10 5.897944795722245e-12 5.608741250695911e-12 4.843324725705458e-12
          3.848617539543833e-12 2.2187439052756272e-11 1.217435146851397e-11 1.201224334850334e-11 2.2020769822729208e-11 2.1719546190865374e-11
          9.022502324009568e-12 1.6623311621539313e-11 1.6394895566257438e-11 1.1548661709361823e-11 2.0845324105056888e-11 1.5731738987550983e-11
          5.6706024696786345e-11 5.588567223635825e-11 4.2622176963569195e-11 5.349599588687011e-11 6.782556047553242e-12 6.6930802130057164e-12
          1.2414375499369505e-11 1.2243842694529344e-11 4.929266759727373e-12 9.178872691902338e-12 9.053138966022653e-12 6.430392190262602e-12
          1.1745445155262104e-11 8.682458676128414e-12 3.2644471444389387e-11 3.216759721526641e-11 2.402010760379018e-11 3.077864450748189e-11
          1.0832771042735601e-11 1.947356044671317e-11 8.132324003667902e-12 1.469135897229015e-11 9.900190799580092e-12 1.7698553985053085e-11
          1.334935783805162e-11 4.9740413545241956e-11 3.79101844595352e-11 4.492580401322787e-11 6.016318552832087e-12 1.0960289599357196e-11
          4.415315732888194e-12 8.094828231500711e-12 5.548008962951725e-12 9.963527483933774e-12 7.368506229975864e-12 2.8595715500715533e-11
          2.1343274418203616e-11 2.5782463880175425e-11 3.684744060566813e-12 3.6372958207379683e-12 6.7226307450873174e-12 6.630475643428733e-12
          2.748684984929444e-12 4.87054377786399e-12 4.803544110371687e-12 3.49150281117774e-12 6.3582755645697e-12 4.6065015857637175e-12
          1.8001098497207202e-11 1.773645785016123e-11 1.293032008579829e-11 1.696594179965523e-11 2.282093257233875e-12 2.250428109016105e-12
          3.4611578898853128e-12 3.412888257823765e-12 2.1036952182323015e-12 2.8482879939277086e-12 2.8079262855351787e-12 2.1581475273321435e-12
          3.2741427004253045e-12 2.6950393418844036e-12 9.412348317140399e-12 9.27328857209885e-12 7.944315520846878e-12 8.870271119900079e-12
          3.2550619233201274e-12 5.926848767219375e-12 2.4605567967074297e-12 4.295434520639026e-12 3.0330427045322475e-12 5.398066903549124e-12
          3.9126976021819755e-12 1.5754427591271604e-11 1.1483481265001875e-11 1.4180504040067937e-11 2.012266723668145e-12 3.0550231211889643e-12
          1.879347768343251e-12 2.516458995135529e-12 1.853439040930285e-12 2.782921682291741e-12 2.2901278064538485e-12 8.236978332063934e-12
          7.049843571772538e-12 7.413536421853594e-12 6.707855756495876e-12 1.1797811909677723e-11 1.0169651630928115e-11 3.941657443245041e-11
          2.997688258469499e-11 3.3555332544109615e-11 5.170432399942467e-12 8.7991481409643e-12 4.063614209615561e-12 6.5029095901999676e-12
          4.8665680718184126e-12 7.54171284431072e-12 5.95051827021259e-12 2.253922396136581e-11 1.672420489014494e-11 1.9061613855993346e-11
          5.772990154515429e-12 8.527114914042165e-12 7.697554189934204e-12 2.0821568791194197e-11 4.6384210983327975e-12 6.319127223014834e-12
          4.234519179537746e-12 5.348009535542559e-12 4.564010030607419e-12 5.72906884934865e-12 4.8863664031188876e-12 1.5542352796513214e-11
          1.3750745205448679e-11 1.459195737879679e-11 3.1398061779829695e-12 4.784745676371757e-12 2.356670850068017e-12 3.4851496486128195e-12
          3.330492752095343e-12 4.448824492714763e-12 3.259314405491687e-12 1.2272556275586792e-11 8.928468285012237e-12 1.2209252215565622e-11
          1.825219584093892e-12 2.4874753377449706e-12 1.631238087193766e-12 2.059925251289453e-12 1.8705624397975526e-12 2.3354867781959964e-12
          1.9499987733161095e-12 6.4149318368740645e-12 5.501164926384328e-12 6.37944463708688e-12 1.4317285286189369e-10 1.4097118420067801e-10
          1.1070842623639626e-10 1.08992837190068e-10 1.345710072501236e-10 1.0400684771489912e-10 3.5159304266143813e-10 3.4591141069920887e-10
          2.723337171160791e-10 3.294078570981602e-10 8.462716058954234e-11 8.330706943488057e-11 6.396306228011108e-11 6.296016087667505e-11
          7.947139738624967e-11 6.004639503437024e-11 2.1516403199187193e-10 2.1159477288001595e-10 1.622974299178768e-10 2.0124247034245545e-10
          1.2455601001595607e-10 9.620825830101202e-11 1.1180072064163574e-10 8.628982070981855e-11 3.036265963482742e-10 2.386098119972635e-10
          2.70890670548033e-10 7.347412319595273e-11 5.549093833525319e-11 6.585387171290641e-11 4.970145680017683e-11 1.8511687469703607e-10
          1.4181369977999843e-10 1.6472360938342035e-10 8.186185984651301e-10 8.050737716249879e-10 6.607795581468776e-10 6.495953135969571e-10
          7.657129712794555e-10 6.171255751606614e-10 1.7182307025136294e-9 1.6904274977765573e-9 1.4040517988363693e-9 1.6093689404337363e-9
          5.253805005135175e-10 5.162955529008581e-10 4.1139353276229104e-10 4.0414932439626257e-10 4.899502465450695e-10 3.831649775312598e-10
          1.1673690054711607e-9 1.1471869588734629e-9 9.217048774402163e-10 1.088547812194601e-9 7.041839363594877e-10 5.664614174058355e-10
          6.259814767151356e-10 5.022566206586707e-10 1.4818287348029675e-9 1.225269975109746e-9 1.3183627770370138e-9 4.4893571332944753e-10
          3.5056568618648147e-10 3.971345387872768e-10 3.0951458285682725e-10 9.96930079794678e-10 7.97848306487776e-10 8.806789887955579e-10
          4.781676674963277e-11 4.7063924605078786e-11 3.537888116339746e-11 3.4820028515525995e-11 4.487688695965319e-11 3.3196724265759096e-11
          1.2503923125679175e-10 1.2292980041699803e-10 9.197756173043478e-11 1.1681647179118484e-10 2.5956387479563274e-11 2.5545256106871224e-11
          1.882577900616334e-11 1.8526881701062222e-11 2.4351054852499234e-11 1.7658447131180087e-11 6.916631902056964e-11 6.798746473389603e-11
          4.9658880955781975e-11 6.457272120043552e-11 4.1457390746404155e-11 3.065863803194339e-11 3.7109098988216126e-11 2.742791614329915e-11
          1.0730879194880488e-10 8.022746046644287e-11 9.531389207356474e-11 2.248489078521206e-11 1.630267336952816e-11 2.0106387419697365e-11
          1.4573140406581654e-11 5.926619394334668e-11 4.326803751954359e-11 5.2577729403850134e-11 3.173538002984082e-10 3.116836378854397e-10
          2.413024886491927e-10 2.369423893662838e-10 2.9527420566402846e-10 2.2433180388239701e-10 7.41536662641763e-10 7.28008598282113e-10
          5.653158986076345e-10 6.888171686438712e-10 1.809461798075022e-10 1.776476412959365e-10 1.3388542758755277e-10 1.3142844687124486e-10
          1.681127772528666e-10 1.2432896804639183e-10 4.4017301140427336e-10 4.318301406645333e-10 3.2472363270059393e-10 4.0772227480277586e-10
          2.698262362735165e-10 2.047993978555576e-10 2.378549694686782e-10 1.8030528034155563e-10 6.279415324397295e-10 4.861514025305369e-10
          5.513512706180123e-10 1.5335978329283492e-10 1.1335222266797297e-10 1.3488496702681578e-10 9.962047368837616e-11 3.704521570132514e-10
          2.7802919683644617e-10 3.2386803471577787e-10 9.733763974433616e-11 7.507198256182027e-11 8.222175923744518e-11 6.33581590790393e-11
          2.3396274961491334e-10 1.8328886044010386e-10 1.9566055078565888e-10 5.730035697099259e-11 4.3258964868001004e-11 4.839287434277154e-11
          3.656798583046988e-11 1.4181971563389177e-10 1.0840145083490222e-10 1.1817364227906221e-10 5.194557207525639e-11 4.133278784951189e-11
          1.236502229118223e-10 3.9610102497722116e-11 2.9886709556637286e-11 3.140858504001828e-11 2.3631800792391282e-11 9.534110586887936e-11
          7.265832319643057e-11 7.451714992224007e-11 5.376889637613774e-10 4.300763488213612e-10 4.4614394998251603e-10 3.5563073180957e-10
          1.1322636029151647e-9 9.28724106868508e-10 9.378567681540697e-10 3.391439603944892e-10 2.637217467520946e-10 2.796127034317343e-10
          2.1689346414725345e-10 7.498902313138337e-10 5.959039246096855e-10 6.150657735943668e-10 2.8402696463323383e-10 2.191893048043264e-10
          6.075346986353388e-10 2.226286078082712e-10 1.7224609811762675e-10 1.712748259561917e-10 1.3216951188101343e-10 4.857688799372709e-10
          3.8270747590650277e-10 3.694544751717952e-10 3.226498690002011e-11 2.3805109157172188e-11 2.723040933497646e-11 2.003685866758364e-11
          8.187658338348509e-11 6.112216218971582e-11 6.804708431552428e-11 1.741936597025188e-11 1.260918472865393e-11 1.4621262600501904e-11
          1.0563938732683469e-11 4.50984659256211e-11 3.289412364002146e-11 3.741677432492652e-11 1.2765008042415373e-11 2.2214266847030188e-11
          9.22927319614163e-12 1.6316678259962788e-11 1.0114572745323049e-11 1.7545712507945687e-11 1.288119753162356e-11 5.474731926649247e-11
          4.078641248557437e-11 4.2664038979490435e-11 6.65869147201007e-12 1.1884738484347011e-11 4.778515149077201e-12 8.5771079707183e-12
          5.2763366754721806e-12 9.375734844661702e-12 6.7623575174685505e-12 3.004451962126951e-11 2.1885750061992612e-11 2.33642081307201e-11
          2.0228934544828036e-10 1.5311819146548189e-10 1.6603212295946767e-10 1.2546981829961107e-10 4.6610529915414e-10 3.590051811803858e-10
          3.793153197417597e-10 1.1441298211673797e-10 8.442278694737165e-11 9.363188215409551e-11 6.90162616046647e-11 2.7242975496216456e-10
          2.0378667180359544e-10 2.2051371828510818e-10 1.31575389748269e-10 9.926030032118652e-11 1.00744477484103e-10 7.586618329840938e-11
          2.971716935325688e-10 2.2751757791919256e-10 2.242295877895519e-10 7.39693474581151e-11 5.445988575901536e-11 5.645187516595909e-11
          4.1510597013501794e-11 1.7181275881259132e-10 1.280200557139808e-10 1.2893838415326167e-10 3.0223333332709203e-9 2.9741018884321907e-9
          2.5589377933927674e-9 2.5185166272836267e-9 2.834532041234229e-9 2.400850024022073e-9 4.088590257518314e-9 4.027858534647723e-9
          3.4085391982079095e-9 3.850487677503609e-9 2.146620732248852e-9 2.1119578645916934e-9 1.7736344130441843e-9 1.743825467573771e-9
          2.0106950616334633e-9 1.6568778236622096e-9 2.918784712552638e-9 2.8785633146768536e-9 2.424841531157478e-9 2.7609896727745544e-9
          2.6174682457708794e-9 2.2157652871860163e-9 2.3413827641127043e-9 1.9774211536301056e-9 3.5719403715324226e-9 3.036044084434703e-9
          3.2185774535351953e-9 1.8507928862865867e-9 1.5200858436740256e-9 1.6448628674855945e-9 1.3449828066676896e-9 2.5740396129781915e-9
          2.162102416094459e-9 2.3280285543240774e-9 3.7136397153318132e-9 3.6935121957262215e-9 3.1445874852521623e-9 3.125540960021803e-9
          3.6215157179259506e-9 3.0607137398706504e-9 2.997156133256123e-9 3.018578698281688e-9 2.573964982745563e-9 3.0572845200355178e-9
          2.6410654327906683e-9 2.626859102887354e-9 2.2425944255088054e-9 2.232956131851079e-9 2.5801776098524413e-9 2.1989578846803166e-9
          2.145509404316226e-9 2.155608497514428e-9 1.8352312883291694e-9 2.1745319293165226e-9 3.475223177023608e-9 2.937694057084511e-9
          3.2421171439450374e-9 2.755656545405098e-9 3.0567048557327412e-9 2.5778403218931667e-9 2.9625477177326116e-9 2.492534148723745e-9
          2.1278339877743484e-9 2.3551366187413343e-9 2.005278120239929e-9 2.1780134377761043e-9 1.8735118591094558e-9 2.141927606692678e-9
          1.438806148223306e-9 1.4136671675621508e-9 1.145212847431984e-9 1.1245225678413231e-9 1.3405326784616137e-9 1.0644448639414817e-9
          2.045285934934451e-9 2.0153151826511172e-9 1.6406112059713413e-9 1.926806341519076e-9 8.944303673164445e-10 8.778075496864493e-10
          6.859266484215025e-10 6.728808753955448e-10 8.296273164331851e-10 6.351255449520615e-10 1.3296377403830936e-9 1.307985628408119e-9
          1.0222464223213956e-9 1.244573237755092e-9 1.2260057307852945e-9 9.707249704153792e-10 1.0802775349839661e-9 8.521431970451931e-10
          1.7844282983091978e-9 1.4430568255181222e-9 1.5969552373011282e-9 7.547285705467038e-10 5.766028240090243e-10 6.604249576744833e-10
          5.032178369829035e-10 1.1440386572020059e-9 8.897595005461989e-10 1.0140418365446733e-9 1.9132725186249405e-9 1.903267038214988e-9
          1.602134027193112e-9 1.5908387534066675e-9 1.8682082943957293e-9 1.553650095958934e-9 1.5845331305617555e-9 1.5930071136006548e-9
          1.3594359087049968e-9 1.6081973317724357e-9 1.3087579323346677e-9 1.2977441074220368e-9 1.0460599746011643e-9 1.036015315544032e-9
          1.2625118236231614e-9 1.0044780038591915e-9 1.128043118148738e-9 1.1279114126719249e-9 9.142847724633738e-10 1.1221190724405363e-9
          1.7964401243947764e-9 1.4832544570301956e-9 1.677734664654679e-9 1.3739571159091353e-9 1.6051914994330942e-9 1.3431668993505142e-9
          1.5581138192280992e-9 1.198393435905724e-9 9.486376475120244e-10 1.1023903572770983e-9 8.672575794166517e-10 1.0980431675983236e-9
          8.78679285066027e-10 1.0435234689475331e-9 2.0258155765781073e-9 1.7031955566003056e-9 1.6909504282665602e-9 1.4129509780551482e-9
          2.8204883659090216e-9 2.410154628279303e-9 2.3991145884044153e-9 1.409124550154767e-9 1.1460893824922719e-9 1.1616663379967082e-9