<?xml version="1.0"?>
<VTKFile type="UnstructuredGrid" version="0.1" byte_order="LittleEndian" header_type="UInt32" compressor="vtkZLibDataCompressor">
  <UnstructuredGrid>
    <Piece NumberOfPoints="1249" NumberOfCells="824">
      <PointData>
        <DataArray type="Int32" Name="libmesh_node_id" format="ascii" RangeMin="1372" RangeMax="7654">
          1391 1614 1615 1616 1617 1624
          1625 1626 2363 2364 2365 2366
          2367 2368 2369 2370 2371 2372
          2373 2374 2375 2377 2378 2379
          2380 2384 2385 2387 2388 2390
          2391 2392 2393 2394 2395 2396
          2397 2399 2404 2407 2408 2409
          2410 2412 2413 2414 2415 2417
          2418 2419 2420 2421 2422 2423
          2424 2425 2426 2428 2432 2434
          2438 3532 3534 3536 3537 3538
          3539 3543 3544 3545 3546 3547
          3548 3549 3550 3551 3552 3553
          3554 3555 3556 3557 3558 3559
          3560 3562 3563 3565 3566 3567
          3568 3570 3571 3572 3573 3574
          3575 3576 3577 3578 3579 3587
          3588 3589 3590 3591 3592 3593
          3594 3595 3596 3597 3599 3600
          3601 3602 3604 3605 3606 3607
          3608 3609 3610 3611 3612 3613
          3615 3619 3621 3622 3623 3624
          3625 3626 3627 3628 3629 3630
          3631 3632 3633 3634 3635 3636
          3637 3638 3639 3640 3641 3642
          3643 3644 3645 3646 3647 3648
          3649 3650 3651 3652 3653 3654
          3655 3656 3657 3658 3659 3660
          3661 3662 3663 3664 3665 3666
          3667 3668 3669 3670 3671 3672
          3673 3674 3675 3676 3677 3678
          3679 3680 3681 3682 3683 3684
          3685 3686 3687 3688 3689 3690
          3691 3692 3693 3694 3695 3699
          3700 3701 3709 3710 3711 3712
          3713 3714 3715 3716 3717 3718
          3719 3720 3721 3722 3723 3724
          3725 3726 3727 3728 3729 3730
          3731 3732 3733 3734 3735 3740
          3741 3743 3761 3763 3856 3857
          3860 3862 3863 3865 3876 3878
          3880 3882 3890 3891 3894 3896
          3897 3899 3910 3912 3914 3916
          3994 3996 4018 4020 4022 4024
          6293 6294 6295 6297 6298 6299
          6300 6304 6305 6306 6307 6308
          6309 6310 6312 6313 6314 6315
          6317 6318 6319 6320 6321 6322
          6323 6324 6325 6326 6334 6335
          6336 6337 6338 6339 6340 6341
          6342 6343 6344 6345 6346 6347
          6348 6349 6350 6351 6352 6353
          6354 6355 6356 6357 6358 6359
          6360 6361 6362 6363 6364 6365
          6366 6367 6368 6369 6370 6371
          6372 6373 6374 6375 6376 6377
          6378 6379 6380 6381 6382 6383
          6384 6385 6386 6387 6388 6392
          6393 6401 6402 6403 6404 6405
          6406 6407 6408 6409 6410 6411
          6412 6415 6416 6418 6421 6423
          6424 6425 6426 6427 6428 6429
          6430 6431 6432 6440 6441 6442
          6443 6444 6445 6446 6449 6450
          6452 6455 6457 6458 6459 6460
          6461 6462 6463 6464 6465 6466
          6474 6475 6476 6477 6478 6479
          6480 6481 6482 6483 6484 6485
          6486 6487 6488 6489 6490 6491
          6492 6493 6494 6495 6496 6497
          6498 6499 6500 6501 6502 6503
          6504 6505 6506 6507 6508 6509
          6510 6511 6512 6513 6514 6515
          6516 6517 6518 6519 6520 6521
          6522 6523 6524 6525 6526 6527
          6528 6529 6530 6531 6532 6533
          6534 6535 6536 6537 6538 6539
          6540 6541 6542 6543 6544 6545
          6546 6547 6548 6556 6557 6559
          6560 6561 6584 6585 6587 6588
          6589 6605 6606 6607 6608 6609
          6610 6611 6612 6613 6614 6615
          6616 6617 6618 6619 6620 6621
          6622 6623 6624 6625 6626 6627
          6628 6629 6630 6631 6632 6633
          6634 6635 6636 6637 6638 6639
          6640 6641 6642 6643 6644 6645
          6646 6647 6648 6649 6650 6651
          6652 6653 6654 6655 6656 6657
          6658 6659 6660 6661 6662 6663
          6664 6665 6666 6667 6668 6669
          6670 6671 6672 6673 6674 6675
          6676 6677 6678 6679 6680 6681
          6682 6683 6684 6685 6686 6687
          6688 6689 6690 6691 6692 6693
          6694 6695 6696 6697 6698 6699
          6700 6701 6702 6703 6704 6705
          6706 6707 6708 6709 6710 6711
          6712 6713 6714 6715 6716 6717
          6718 6719 6720 6721 6722 6723
          6724 6725 6726 6727 6728 6729
          6730 6731 6732 6733 6734 6735
          6736 6737 6738 6739 6740 6741
          6742 6743 6744 6745 6746 6747
          6748 6749 6750 6751 6752 6753
          6754 6755 6756 6757 6758 6759
          6760 6761 6762 6763 6764 6765
          6766 6767 6768 6769 6770 6771
          6772 6773 6774 6775 6776 6777
          6778 6779 6780 6781 6782 6783
          6784 6785 6786 6787 6788 6789
          6790 6791 6792 6793 6794 6795
          6796 6797 6798 6799 6800 6801
          6802 6803 6804 6805 6806 6807
          6808 6809 6810 6811 6812 6813
          6814 6815 6816 6817 6818 6819
          6820 6821 6822 6823 6824 6825
          6826 6827 6828 6829 6830 6831
          6832 6833 6834 6835 6836 6837
          6838 6839 6840 6841 6842 6843
          6844 6845 6846 6847 6848 6849
          6850 6851 6852 6853 6854 6855
          6856 6857 6858 6859 6860 6861
          6862 6863 6864 6865 6866 6867
          6868 6869 6870 6871 6872 6873
          6874 6875 6876 6877 6878 6879
          6880 6881 6882 6883 6884 6885
          6886 6887 6888 6889 6890 6891
          6892 6893 6894 6895 6896 6897
          6898 6899 6900 6901 6902 6903
          6904 6905 6906 6907 6908 6909
          6910 6911 6912 6913 6914 6915
          6916 6917 6918 6919 6920 6921
          6922 6923 6924 6925 6926 6927
          6928 6929 6930 6931 6932 6933
          6934 6935 6936 6937 6938 6939
          6940 6941 6942 6943 6944 6945
          6946 6947 6948 6949 6950 6951
          6952 6953 6954 6955 6956 6957
          6958 6959 6960 6961 6962 6963
          6964 6965 6966 6967 6968 6969
          6970 6971 6972 6973 6974 6975
          6976 6977 6978 6979 6980 6981
          6982 6983 6984 6985 6986 6987
          7008 7009 7010 7011 7012 7013
          7014 7015 7016 7017 7018 7019
          7020 7021 7022 7023 7024 7025
          7026 7027 7028 7029 7030 7031
          7032 7033 7034 7035 7036 7037
          7038 7039 7040 7041 7042 7043
          7044 7045 7046 7047 7048 7049
          7050 7051 7052 7053 7054 7055
          7056 7057 7349 7350 7351 7352
          7353 7354 7356 7357 7358 7359
          7360 7362 7416 7417 7418 7419
          7421 7422 7423 7424 7467 7468
          7469 7470 7471 7472 7473 7474
          7475 7476 7477 7478 7481 7483
          7484 7486 7487 7488 7489 7490
          7491 7492 7493 7494 7496 7498
          7500 7501 7502 7503 7504 7505
          7506 7507 7508 7509 7510 7511
          7512 7515 7517 7518 7520 7521
          7522 7523 7524 7525 7526 7527
          7528 7530 7532 7534 7603 7604
          7605 7606 7607 7608 7609 7610
          7612 7614 7616 7617 7618 7619
          7620 7621 7622 7623 7624 7626
          7627 7628 7629 7630 7631 7632
          7633 7634 7636 7638 7640 7641
          7642 7643 7644 7645 7646 7647
          7648 7650 7652 7654 1618 1384
          1621 1620 1623 1622 1373 1642
          1606 1589 1643 1607 1831 1838
          1839 1832 1372 1584 1841 1842
          1383 1844 1835 1845 2263 2264
          2265 2268 1585 2271 2376 1586
          2381 2382 2383 2386 1619 2389
          2277 2278 2282 2398 2285 2400
          2411 2427 2430 2429 2431 1627
          2433 2405 2435 2406 2436 2437
          2440 2439 1392 2454 2476 2493
          2509 2525 2523 2526 2524 2531
          2530 3533 3348 3436 3561 3437
          3535 3564 3541 3540 3581 3580
          3569 3585 3584 3583 3697 3617
          3703 3705 3707 2451 3742 3858
          3859 2452 3861 2489 3864 2490
          3762 3877 3879 3881 3911 3913
          3995 4019 4021 2498 4023 2513
          5975 5995 5996 6296 6311 5998
          2299 6001 6316 3442 6302 6301
          6328 6327 6332 6331 6330 6121
          6413 6414 6122 6417 6124 6419
          6420 6422 6434 6433 6438 6437
          6436 3598 6447 6448 6451 6453
          6454 6456 6468 6467 6472 6471
          6470 3603 6390 6550 6394 6558
          6552 6554 6562 3614 6399 6398
          6571 6570 6575 6574 6578 6586
          6580 6582 6590 3618 6599 6598
          6603 6602 6573 6601 2416 6992
          7002 7004 7006 7355 7479 7480
          7482 3892 7485 3893 7361 7495
          7497 7499 3895 7513 7514 7516
          2495 7519 3898 7529 7531 7533
          2496 7420 7611 7613 7615 7635
          7637 7639 3915 7625 7649 7651
          7653
        </DataArray>
        <DataArray type="Float64" Name="bounds" format="ascii" RangeMin="0" RangeMax="0">
          0 0 0 0 0 0
          0 0 0 0 0 0
          0 0 0 0 0 0
          0 0 0 0 0 0
          0 0 0 0 0 0
          0 0 0 0 0 0
          0 0 0 0 0 0
          0 0 0 0 0 0
          0 0 0 0 0 0
          0 0 0 0 0 0
          0 0 0 0 0 0
          0 0 0 0 0 0
          0 0 0 0 0 0
          0 0 0 0 0 0
          0 0 0 0 0 0
          0 0 0 0 0 0
          0 0 0 0 0 0
          0 0 0 0 0 0
          0 0 0 0 0 0
          0 0 0 0 0 0
          0 0 0 0 0 0
          0 0 0 0 0 0
          0 0 0 0 0 0
          0 0 0 0 0 0
          0 0 0 0 0 0
          0 0 0 0 0 0
          0 0 0 0 0 0
          0 0 0 0 0 0
          0 0 0 0 0 0
          0 0 0 0 0 0
          0 0 0 0 0 0
          0 0 0 0 0 0
          0 0 0 0 0 0
          0 0 0 0 0 0
          0 0 0 0 0 0
          0 0 0 0 0 0
          0 0 0 0 0 0
          0 0 0 0 0 0
          0 0 0 0 0 0
          0 0 0 0 0 0
          0 0 0 0 0 0
          0 0 0 0 0 0
          0 0 0 0 0 0
          0 0 0 0 0 0
          0 0 0 0 0 0
          0 0 0 0 0 0
          0 0 0 0 0 0
          0 0 0 0 0 0
          0 0 0 0 0 0
          0 0 0 0 0 0
          0 0 0 0 0 0
          0 0 0 0 0 0
          0 0 0 0 0 0
          0 0 0 0 0 0
          0 0 0 0 0 0
          0 0 0 0 0 0
          0 0 0 0 0 0
          0 0 0 0 0 0
          0 0 0 0 0 0
          0 0 0 0 0 0
          0 0 0 0 0 0
          0 0 0 0 0 0
          0 0 0 0 0 0
          0 0 0 0 0 0
          0 0 0 0 0 0
          0 0 0 0 0 0
          0 0 0 0 0 0
          0 0 0 0 0 0
          0 0 0 0 0 0
          0 0 0 0 0 0
          0 0 0 0 0 0
          0 0 0 0 0 0
          0 0 0 0 0 0
          0 0 0 0 0 0
          0 0 0 0 0 0
          0 0 0 0 0 0
          0 0 0 0 0 0
          0 0 0 0 0 0
          0 0 0 0 0 0
          0 0 0 0 0 0
          0 0 0 0 0 0
          0 0 0 0 0 0
          0 0 0 0 0 0
          0 0 0 0 0 0
          0 0 0 0 0 0
          0 0 0 0 0 0
          0 0 0 0 0 0
          0 0 0 0 0 0
          0 0 0 0 0 0
          0 0 0 0 0 0
          0 0 0 0 0 0
          0 0 0 0 0 0
          0 0 0 0 0 0
          0 0 0 0 0 0
          0 0 0 0 0 0
          0 0 0 0 0 0
          0 0 0 0 0 0
          0 0 0 0 0 0
          0 0 0 0 0 0
          0 0 0 0 0 0
          0 0 0 0 0 0
          0 0 0 0 0 0
          0 0 0 0 0 0
          0 0 0 0 0 0
          0 0 0 0 0 0
          0 0 0 0 0 0
          0 0 0 0 0 0
          0 0 0 0 0 0
          0 0 0 0 0 0
          0 0 0 0 0 0
          0 0 0 0 0 0
          0 0 0 0 0 0
          0 0 0 0 0 0
          0 0 0 0 0 0
          0 0 0 0 0 0
          0 0 0 0 0 0
          0 0 0 0 0 0
          0 0 0 0 0 0
          0 0 0 0 0 0
          0 0 0 0 0 0
          0 0 0 0 0 0
          0 0 0 0 0 0
          0 0 0 0 0 0
          0 0 0 0 0 0
          0 0 0 0 0 0
          0 0 0 0 0 0
          0 0 0 0 0 0
          0 0 0 0 0 0
          0 0 0 0 0 0
          0 0 0 0 0 0
          0 0 0 0 0 0
          0 0 0 0 0 0
          0 0 0 0 0 0
          0 0 0 0 0 0
          0 0 0 0 0 0
          0 0 0 0 0 0
          0 0 0 0 0 0
          0 0 0 0 0 0
          0 0 0 0 0 0
          0 0 0 0 0 0
          0 0 0 0 0 0
          0 0 0 0 0 0
          0 0 0 0 0 0
          0 0 0 0 0 0
          0 0 0 0 0 0
          0 0 0 0 0 0
          0 0 0 0 0 0
          0 0 0 0 0 0
          0 0 0 0 0 0
          0 0 0 0 0 0
          0 0 0 0 0 0
          0 0 0 0 0 0
          0 0 0 0 0 0
          0 0 0 0 0 0
          0 0 0 0 0 0
          0 0 0 0 0 0
          0 0 0 0 0 0
          0 0 0 0 0 0
          0 0 0 0 0 0
          0 0 0 0 0 0
          0 0 0 0 0 0
          0 0 0 0 0 0
          0 0 0 0 0 0
          0 0 0 0 0 0
          0 0 0 0 0 0
          0 0 0 0 0 0
          0 0 0 0 0 0
          0 0 0 0 0 0
          0 0 0 0 0 0
          0 0 0 0 0 0
          0 0 0 0 0 0
          0 0 0 0 0 0
          0 0 0 0 0 0
          0 0 0 0 0 0
          0 0 0 0 0 0
          0 0 0 0 0 0
          0 0 0 0 0 0
          0 0 0 0 0 0
          0 0 0 0 0 0
          0 0 0 0 0 0
          0 0 0 0 0 0
          0 0 0 0 0 0
          0 0 0 0 0 0
          0 0 0 0 0 0
          0 0 0 0 0 0
          0 0 0 0 0 0
          0 0 0 0 0 0
          0 0 0 0 0 0
          0 0 0 0 0 0
          0 0 0 0 0 0
          0 0 0 0 0 0
          0 0 0 0 0 0
          0 0 0 0 0 0
          0 0 0 0 0 0
          0 0 0 0 0 0
          0 0 0 0 0 0
          0 0 0 0 0 0
          0 0 0 0 0 0
          0 0 0 0 0 0
          0 0 0 0 0 0
          0 0 0 0 0 0
          0 0 0 0 0 0
          0 0 0 0 0 0
          0 0 0 0 0 0
          0 0 0 0 0 0
          0 0 0 0 0 0
          0 0 0 0 0 0
          0 0 0 0 0 0
          0
        </DataArray>
        <DataArray type="Float64" Name="gradient_error" format="ascii" RangeMin="1.325829068862954e-9" RangeMax="8.69685990595091e-8">
          2.4682220186292388e-9 4.575227328495753e-9 1.2572500173969168e-8 3.9422137926908294e-8 5.4828639483433726e-8 2.0778476002376857e-9
          4.762172600030132e-9 2.544318181489321e-8 4.903173946490565e-9 6.316973577486391e-9 3.573635956513671e-8 3.2316392006795185e-8
          5.147670970749699e-9 2.7851815845507978e-8 2.536157162114093e-8 7.837447786422143e-9 2.2629901527617835e-8 1.9838121740003026e-8
          4.7134489169839454e-8 4.124806547446641e-8 3.386826912959207e-8 1.37752391891134e-9 3.746123835096225e-9 2.0153857879648166e-8
          1.842257574262283e-8 6.11472375128111e-9 1.6691293605597493e-8 3.024729653220462e-8 2.585017324741276e-8 5.0559590814823155e-8
          6.47640334367562e-9 1.2830697377511084e-8 6.6837541166349726e-9 1.0994762706348779e-8 5.008684322989171e-9 9.298016148240163e-9
          8.217814986236256e-9 6.582477168454914e-8 7.679521617841331e-8 4.487863071938283e-9 1.2546835199449803e-8 5.5702057546624455e-9
          1.376600087431416e-8 4.9102413968889186e-8 1.6608464584455335e-9 3.0153147206930437e-9 3.9267104623212e-9 1.6819460729594646e-8
          2.402820254665154e-8 2.64822394363702e-8 2.264096748031513e-8 4.4379514062975525e-8 3.71727041443292e-8 2.185761977149416e-9
          4.812420689772211e-9 5.562203979318756e-9 5.564356077882276e-9 8.022596418268833e-8 7.234804052619077e-8 6.971488586560927e-8
          6.607019964043537e-8 2.7810016913113396e-8 2.6679539825244414e-8 2.7072920148954788e-8 2.597464165080166e-8 2.4676498956732947e-8
          2.3417901351047028e-8 2.0879492105637505e-8 1.9891573523590065e-8 1.979954466182949e-8 2.3908918980557838e-8 2.2795198941661973e-8
          2.0644633354409957e-8 2.0472421268204286e-8 1.9262293104806207e-8 1.8459461685018727e-8 1.6055430996879172e-8 1.6560429368485225e-8
          1.8418060605364927e-8 1.6650187480108012e-8 1.7572757577087398e-8 1.4714665304162813e-8 1.2664015894371003e-8 1.3965102136586421e-8
          1.6288580726319042e-8 1.6378878420872842e-8 1.578304777285319e-8 2.237468571797574e-8 4.013135289280715e-9 4.105455914989964e-9
          4.5607686012838275e-9 1.6193764882064195e-8 1.5534461923684023e-8 1.5652270749878897e-8 1.4971761261465882e-8 2.2378939797509388e-8
          2.1992748655584992e-8 5.009373769153347e-9 5.063072078031324e-9 5.566571318896273e-9 1.3220323919044738e-8 2.7239786397477786e-8
          2.6932877414060063e-8 2.4642572672373344e-8 2.4203828214999866e-8 1.9480333809883386e-8 1.986926604040647e-8 2.2936247077295138e-8
          3.087396407177166e-9 3.1666151956926973e-9 3.6771985755791965e-9 3.7455754996138196e-9 3.823588699422273e-9 1.4332875139812848e-9
          1.882642797932574e-9 2.190214123226385e-9 4.335555529732603e-9 4.3910254803266276e-9 5.041576217481484e-9 5.087075957490772e-9
          4.413394211316657e-9 5.034214920452537e-9 1.8953584617672517e-9 2.516980757588898e-9 2.8253848679511137e-9 3.4633400013074604e-9
          3.922387656979344e-9 3.4402575685070552e-9 4.40366405950824e-9 4.919457020619171e-9 1.2255026272569035e-8 1.2798929899572118e-8
          3.918165602192115e-9 4.411273741959446e-9 4.396740582789676e-9 1.4728520193665075e-8 1.9110374138759793e-8 2.424173847515372e-8
          2.8219285926194043e-8 2.618633862907422e-8 3.001561361414026e-8 6.089182586953933e-9 1.0829542493490057e-8 2.1194523454479054e-8
          1.9022701773771e-8 3.323776670062708e-8 3.194238331864907e-8 3.0960620739938164e-8 2.9648661514447655e-8 2.8367975363936664e-8
          2.6034090910911754e-8 2.7196012768198504e-8 2.6323639431184013e-8 2.548959162180379e-8 2.3643764918563755e-8 2.608743820964244e-8
          2.4758948428321698e-8 2.318353283699173e-8 2.168688795686108e-8 1.9953243485884202e-8 1.9646901405228396e-8 2.3372092793900988e-8
          2.2962572747081985e-8 2.0673876829038964e-8 1.98361947029617e-8 1.7616274125211562e-8 1.8893708364091537e-8 1.7596151048092512e-8
          2.2208386127769117e-8 5.790327592115928e-9 5.799582432912022e-9 6.541686625755617e-9 6.495183694648007e-9 5.660194570616642e-9
          6.258312170917774e-9 2.1432504567144965e-9 3.055857222647784e-9 3.2509039858283683e-9 4.382284836424843e-9 7.203409327848911e-9
          7.121236003046734e-9 7.765027972301079e-9 7.670489845417644e-9 6.802431669488398e-9 7.243374433375887e-9 2.2803899136329463e-9
          3.478547987196573e-9 3.781553502612422e-9 5.208944860451592e-9 5.4476801803829535e-9 5.963341602141137e-9 1.3219710582033782e-8
          1.3479629621759878e-8 4.8960788803016276e-9 5.3465579316247174e-9 5.162897441867771e-9 6.4044666860321865e-9 6.783413901867962e-9
          1.8457907873819612e-8 2.2941277392031987e-8 5.723953235541663e-9 5.954415572471689e-9 1.57667154107614e-8 3.028406388116679e-8
          3.070712960092407e-8 2.6433814777882644e-8 2.428437252646983e-8 2.4689966421616463e-8 2.905167312024807e-8 2.921619217247243e-8
          1.8293955433423365e-8 1.8699867009469474e-8 3.166953146261349e-8 3.067710394571524e-8 3.015892837413994e-8 2.561798947277185e-8
          2.9238372538821748e-8 2.776704278001191e-8 2.3133918592640062e-8 2.471861398803677e-8 2.428245123801353e-8 2.8907522734492384e-8
          2.799148757171519e-8 1.8793031095839887e-8 1.8470810814805805e-8 3.2197055996212914e-8 2.8477171511099038e-8 3.22074697933524e-8
          2.6580668526205102e-8 2.4998474099652545e-8 2.784058004353526e-8 3.664789680669289e-8 3.0027418459770135e-8 1.4084872312712543e-8
          1.3420512770317628e-8 1.188602833779888e-8 1.0600103519522937e-8 1.0184303591370827e-8 2.7887446479668577e-8 2.660437391636206e-8
          2.311074011404419e-8 2.491188993326803e-8 2.3916832328348998e-8 2.0977417485475836e-8 1.8038954584799414e-8 1.5177730294566003e-8
          2.093098087049956e-8 2.5855286644212858e-8 8.22546685860251e-9 8.04604012149882e-9 7.558556554465503e-9 2.923563535098669e-9
          4.166158535291376e-9 5.835749029560945e-9 1.1853719817583926e-8 2.6854234152389716e-8 5.995575439421896e-9 2.4570750430169707e-8
          2.5700591432566698e-8 1.9674326113824624e-8 3.0206018866260494e-8 2.318481319323848e-8 3.4711446299954294e-8 2.6695300272652327e-8
          4.618948052888629e-9 4.570103308162819e-9 4.7179535441239915e-9 4.914244979807237e-9 4.86337190102816e-9 5.002997722651958e-9
          4.758756862565564e-9 4.674645963957664e-9 4.7940567426493005e-9 4.6442770250332836e-9 4.380804852612578e-9 4.399602382197731e-9
          4.54229198120681e-9 4.559593169227206e-9 4.605284512313239e-9 3.7978241829287645e-9 3.825995397074282e-9 4.038336856592357e-9
          4.714185645852326e-9 4.729476085977946e-9 4.8928234830096965e-9 4.90627749145254e-9 4.770175056831924e-9 4.939901877418136e-9
          4.2440204298389645e-9 4.266440010085277e-9 4.508321111095786e-9 4.326149412240891e-9 4.769624039222052e-9 4.922974516070587e-9
          4.743664490883821e-9 4.885876777200284e-9 4.384794108384081e-9 4.601033302377116e-9 4.394518061900607e-9 5.194043753934603e-9
          5.131144470667695e-9 5.24253447548186e-9 4.999024663355771e-9 5.4099759634740475e-9 5.331333141542253e-9 5.4024642754614804e-9
          5.1744598004493194e-9 4.899927390057387e-9 4.991750424783614e-9 4.87005064080402e-9 5.0727429255313474e-9 5.16390178193302e-9
          5.049256569774514e-9 5.075325447394792e-9 5.0871455448358655e-9 5.261063558939044e-9 5.270769141671006e-9 5.111453200926073e-9
          5.282074081280795e-9 4.7431553541943026e-9 4.762480707608755e-9 5.027581777605902e-9 4.807528806669632e-9 5.4506094843938356e-9
          5.455476077504564e-9 5.640442051301209e-9 5.637274283356727e-9 5.447168963321271e-9 5.602595985327863e-9 5.286223732037309e-9
          5.301045219303353e-9 5.574147622514038e-9 5.320818196814475e-9 5.07321715667861e-9 5.217116992490139e-9 5.022493553782011e-9
          5.150560546821657e-9 4.827696734755349e-9 5.06045258611134e-9 4.825204296642332e-9 5.349940077051918e-9 5.467166027329717e-9
          5.265884898076585e-9 5.3632465994159516e-9 5.291632612535536e-9 5.5074217584609415e-9 5.289854675376734e-9 4.494797063773071e-9
          4.7048516681873074e-9 4.926765024019692e-9 5.162350208835236e-9 5.160390472449735e-9 5.4127056903047284e-9 5.6682433899567375e-9
          5.562130487753935e-9 5.169654603191665e-9 5.33546719188363e-9 5.040729253985527e-9 5.4738524528748605e-9 5.603218172356994e-9
          5.2942823607441455e-9 3.584630606182056e-9 3.570414220606556e-9 3.5497463900198063e-9 3.109275137080849e-9 3.868382052389042e-9
          3.85119170834795e-9 4.165816812754724e-9 4.144903560345758e-9 3.821063848379589e-9 4.105127759037174e-9 3.3726418432057724e-9
          3.3931424191191546e-9 3.6961586600706698e-9 3.4469617381973354e-9 3.8327515523144295e-9 4.104524352747574e-9 3.944192860559965e-9
          4.200033611992316e-9 3.5065410823121907e-9 3.796969065949154e-9 3.5460291082445598e-9 2.073825135822002e-9 2.1582147892485446e-9
          2.3689308445192533e-9 1.5632668266942114e-9 2.2638597084228216e-9 2.3539699004364567e-9 2.4660064239006343e-9 2.5621903986512633e-9
          2.5777682166616238e-9 2.799699386286513e-9 1.545285287431667e-9 1.686738630087683e-9 1.8147856359142534e-9 2.0330350803042567e-9
          2.8461061371736194e-9 3.0814884686615406e-9 3.0885218880859044e-9 3.331920698979301e-9 2.4396471120699956e-9 2.627913195657561e-9
          2.8031201663188852e-9 4.4744501750195786e-9 4.449020382758718e-9 4.789535324719526e-9 4.759668701693704e-9 4.399585920806156e-9
          4.7020387314252685e-9 3.999146818610447e-9 4.0165727873985634e-9 4.351786195234448e-9 4.060947509986503e-9 5.104312652741642e-9
          5.072392506122738e-9 5.413082057887968e-9 5.385409637844455e-9 5.011389055686165e-9 5.331764237275761e-9 4.683384942473135e-9
          4.699051005049617e-9 5.056902250194145e-9 4.7337438425108124e-9 4.389526000526884e-9 4.685496442397582e-9 4.469829413560755e-9
          4.751635583254026e-9 4.102104034020293e-9 4.420017249574448e-9 4.113415780349716e-9 4.990876710437113e-9 5.307697772441384e-9
          5.042384215402049e-9 5.337105177984473e-9 4.748971564914026e-9 5.0873844127383345e-9 4.721027267055208e-9 2.678794727633862e-9
          2.781379754057735e-9 2.8993144536978098e-9 3.008655550180572e-9 3.033201794837898e-9 3.2756162227295285e-9 1.7784926005523628e-9
          1.9458399026223056e-9 2.0769163659280004e-9 2.3525045364722127e-9 3.1205643877174664e-9 3.2377484431927935e-9 3.330933758993148e-9
          3.4580841517566986e-9 3.522242616712339e-9 3.765491270858385e-9 2.0017797372109515e-9 2.199708463392e-9 2.2969721250379143e-9
          2.6780173923396564e-9 3.328725202351956e-9 3.5855582260997296e-9 3.5867876221735266e-9 3.851181048476679e-9 2.8234077915062282e-9
          3.0236532258197114e-9 3.2360642991856314e-9 3.848687897747843e-9 4.113398805375171e-9 4.1226893744354225e-9 4.398217281751975e-9
          3.225058090043276e-9 3.4230110859609737e-9 3.6945672456887553e-9 4.099322165626671e-9 4.329229230177298e-9 4.570345672997541e-9
          3.5720186613085063e-9 3.829149098485888e-9 3.2546394107155277e-9 3.4992758603236506e-9 3.5547395604502644e-9 3.069088766294315e-9
          3.2938603158428134e-9 4.5707589816756285e-9 4.823349160448824e-9 4.779332305476452e-9 4.997551932483586e-9 4.097239904402866e-9
          4.3740806437166e-9 4.1575780799172536e-9 5.085556325555226e-9 5.351221738026539e-9 5.222129893324764e-9 5.451128909125664e-9
          4.656883148971371e-9 4.943276502289141e-9 4.658502611238326e-9 5.034766523268354e-9 5.219504495350065e-9 5.116198321752861e-9
          5.284049780735059e-9 4.472405758424841e-9 4.681617413564385e-9 4.779639400528824e-9 5.392356729208289e-9 5.563072736252532e-9
          5.4262455610791345e-9 5.561725062470056e-9 4.899727555129629e-9 5.124134951003923e-9 5.149352346930594e-9 3.753713197625905e-9
          4.016256427042257e-9 3.796493426606758e-9 4.045488393345066e-9 3.527699525777641e-9 3.768699678713725e-9 3.6761048318821783e-9
          4.28499907943626e-9 4.557628143606092e-9 4.299456601757459e-9 4.5561403706146714e-9 4.014638821735498e-9 4.262903368730244e-9
          4.16403727993386e-9 3.861577934136408e-9 4.077881928688102e-9 4.4010843878622946e-9 4.575000318612926e-9 3.6782227947681775e-9
          3.896070829063935e-9 4.228543369691451e-9 4.303222009552154e-9 4.532464780038438e-9 4.759795946712347e-9 4.951411068676276e-9
          4.11784991438677e-9 4.339586958217102e-9 4.574667753735864e-9 5.491584685462881e-9 5.48467999120685e-9 5.601622169189676e-9
          5.43502116736707e-9 5.744413355726049e-9 5.776671235241369e-9 5.883286805501288e-9 5.8089291147566886e-9 5.3135125756084966e-9
          5.409927511188519e-9 5.23475811343367e-9 5.8189780836717495e-9 5.802839868267356e-9 5.969320431231855e-9 5.935130690976575e-9
          5.733995148173539e-9 5.842689116696002e-9 5.848569579380586e-9 5.8251071045754936e-9 6.0346638752383595e-9 5.7761248894314955e-9
          6.0631934780497706e-9 6.012454902858267e-9 6.0910022066454735e-9 6.033307758465794e-9 5.961716327666764e-9 5.975613310286114e-9
          6.2500637468735826e-9 6.187743448537155e-9 6.398470981384174e-9 6.18586042151174e-9 5.551537751699232e-9 5.581286102631494e-9
          5.42178685991435e-9 5.436386756617573e-9 5.689037638760048e-9 5.904220338043417e-9 5.715634885253777e-9 6.314350309358567e-9
          6.604513223966025e-9 6.360254464173871e-9 6.852700336675566e-9 6.8531606065272724e-9 7.192210022718914e-9 6.88849893888071e-9
          7.565037226095729e-9 7.549345234679009e-9 7.81905831340865e-9 7.515257894951163e-9 6.905570937321317e-9 7.188938910726558e-9
          6.880638482223474e-9 7.432988281244002e-9 7.637884167100527e-9 7.318708272001788e-9 5.918691451102552e-9 6.1606851953865146e-9
          5.964221893676663e-9 6.3907659739402354e-9 6.608894654017625e-9 6.304702982449208e-9 5.740313305601708e-9 5.856594655066297e-9
          5.497601327148871e-9 5.921976238080554e-9 5.94643227411811e-9 5.61753518537879e-9 6.807299233978122e-9 6.970632878528589e-9
          6.520417454927728e-9 7.089433841671175e-9 7.1525833897889045e-9 6.571255934593499e-9 5.954025113916282e-9 5.936052048493868e-9
          5.608301694746594e-9 5.863722285232243e-9 5.746548457857596e-9 5.495497856464228e-9 5.718724839151047e-9 5.705009693267474e-9
          6.04009155295216e-9 6.040173249258248e-9 5.679742863827034e-9 6.0458558941665705e-9 5.410811820163495e-9 5.42432825468843e-9
          5.799131278246067e-9 5.444431852259956e-9 6.410249969444202e-9 6.403413250518242e-9 6.806847882567955e-9 6.7817143408674925e-9
          6.3936225215250855e-9 6.728264407460187e-9 6.171513304874691e-9 6.173888876684927e-9 6.53565266556725e-9 6.1523823048676706e-9
          5.6525271401436285e-9 6.013526567022486e-9 5.637579534031645e-9 5.941137075712227e-9 5.427267905790114e-9 5.760305162517637e-9
          5.348898237924883e-9 6.34171523626665e-9 6.642797410858432e-9 6.230403322854979e-9 6.502333843286237e-9 6.088334417132085e-9
          6.409186087108262e-9 5.964700942444285e-9 3.527079105081455e-9 3.6649547843949095e-9 3.715784126629252e-9 3.863706383268933e-9
          3.999561331780445e-9 4.225146304500176e-9 2.1192165712574616e-9 2.362057982124782e-9 2.4088081708489797e-9 2.950464036812059e-9
          3.901810381315782e-9 4.059761408641705e-9 4.087169848907169e-9 4.255692630036421e-9 4.445838544345135e-9 4.665151383763867e-9
          2.1629401983969166e-9 2.451323238350896e-9 2.497466494312216e-9 3.1526186600259107e-9 4.374934006186602e-9 4.630722228401074e-9
          4.674237127118952e-9 4.947462057767567e-9 3.611874131350105e-9 3.787879105783953e-9 4.156792321768279e-9 4.880552310246945e-9
          5.125879342149154e-9 5.215045787303756e-9 5.475437027366967e-9 3.953515949404454e-9 4.114468107832619e-9 4.60124187125503e-9
          7.153991986229469e-9 7.124292598664872e-9 7.462924155050914e-9 7.434898956501211e-9 7.0552129763264145e-9 7.362202348705437e-9
          6.891203634046568e-9 6.8740949914992854e-9 7.181595239823179e-9 6.8179790040077605e-9 7.772677307603589e-9 7.736678615558478e-9
          8.04281401186653e-9 7.995051484105574e-9 7.639594447302987e-9 7.866659739178028e-9 7.485508717264717e-9 7.468125817976666e-9
          7.746999611290831e-9 7.408302473293618e-9 6.939642645612501e-9 7.215498458011522e-9 6.760512246657005e-9 6.997743665867222e-9
          6.7166288038626735e-9 7.005990583349999e-9 6.539646422935886e-9 7.453975681048343e-9 7.650227919606633e-9 7.20783803609743e-9