<?xml version="1.0"?>
<VTKFile type="UnstructuredGrid" version="0.1" byte_order="LittleEndian" header_type="UInt32" compressor="vtkZLibDataCompressor">
  <UnstructuredGrid>
    <Piece NumberOfPoints="1118" NumberOfCells="736">
      <PointData>
        <DataArray type="Int32" Name="libmesh_node_id" format="ascii" RangeMin="2320" RangeMax="8503">
          2320 2575 2576 2582 2611 2616
          2619 2620 2621 2895 2896 2897
          2900 2903 2917 2918 2923 2929
          2930 2931 2932 2936 2937 2938
          2939 2940 2942 2950 2951 2952
          2956 2957 2958 2959 2960 2961
          2962 2963 2964 2965 2966 2967
          2968 2969 2970 2972 2974 2975
          2976 3468 3469 3472 3481 3485
          3486 3491 3492 3504 3505 3506
          3508 3509 3510 3511 3817 3818
          3819 3822 3825 3838 3852 3853
          3855 3858 3868 3870 3872 3874
          3875 3876 3877 3878 3879 3880
          3881 3882 3883 3884 3885 3886
          3887 3888 3889 3890 3891 3895
          3896 3898 3899 3901 3902 3903
          3904 3907 3908 3910 3911 3912
          3913 3914 3915 3916 3917 3918
          3919 3920 3925 3930 3931 3932
          3933 3934 3935 3936 3937 3938
          3940 3941 3942 3944 3977 3978
          3979 3982 3988 3989 3992 4015
          4016 4019 4022 4023 4026 4027
          4028 4029 4030 4031 4032 4033
          4034 4035 4036 4037 4038 4039
          4040 4041 4042 4043 4044 4045
          4046 4047 4048 4049 4050 4051
          4052 4053 4054 4055 4056 4057
          4058 4059 4060 4061 4062 4063
          4064 4065 4066 4067 4068 4069
          4070 4071 4072 4073 4074 4078
          4079 4080 4081 4082 4083 4084
          4085 4086 4087 4088 4089 4090
          4091 4092 4093 4094 4095 4096
          4097 4098 4099 4100 4101 4102
          4103 4104 4106 4107 4108 4409
          4410 4411 4420 4421 4424 4425
          5371 5372 5373 5398 5399 5400
          5408 5409 5410 5411 5412 5413
          5414 5415 5416 5417 5418 5419
          5422 5423 5424 5747 5748 5749
          5750 5751 5752 5753 5754 5755
          5756 5757 5758 5759 5760 5771
          5772 5773 5774 5775 5776 5777
          5778 5779 5780 5801 5802 5805
          5806 5807 5808 5810 5815 5816
          5817 5820 5835 5837 5838 5839
          5841 5844 5845 5848 5984 5985
          5986 5987 5988 5989 5990 5991
          5992 5993 6004 6005 6006 6007
          6008 6009 6010 6011 6012 6013
          6028 6030 6031 6032 6034 6037
          6038 6041 6056 6058 6059 6060
          6062 6065 6066 6069 6070 6071
          6072 6073 6074 6075 6076 6077
          6078 6079 6080 6081 6082 6083
          6084 6085 6086 6087 6088 6089
          6090 6091 6092 6093 6094 6095
          6096 6097 6098 6099 6100 6101
          6102 6103 6104 6105 6106 6107
          6108 6109 6110 6111 6112 6113
          6114 6115 6116 6117 6118 6119
          6120 6121 6122 6123 6124 6125
          6126 6127 6128 6129 6130 6131
          6132 6133 6134 6135 6136 6137
          6138 6139 6140 6141 6142 6143
          6144 6145 6146 6147 6148 6149
          6150 6151 6152 6153 6154 6155
          6156 6157 6158 6159 6160 6161
          6162 6163 6164 6165 6166 6167
          6168 6169 6170 6171 6172 6173
          6174 6175 6176 6177 6178 6179
          6180 6181 6182 6183 6184 6185
          6186 6187 6188 6189 6190 6191
          6192 6193 6194 6195 6196 6197
          6198 6199 6200 6201 6202 6203
          6204 6205 6206 6207 6208 6209
          6210 6211 6212 6213 6214 6215
          6216 6217 6218 6219 6220 6221
          6222 6223 6224 6225 6226 6227
          6228 6229 6230 6231 6232 6233
          6234 6235 6236 6237 6238 6239
          6240 6241 6242 6243 6244 6245
          6246 6247 6251 6252 6254 6255
          6256 6257 6258 6259 6260 6261
          6262 6263 6264 6265 6266 6267
          6268 6269 6270 6271 6272 6273
          6274 6275 6276 6277 6278 6279
          6280 6281 6282 6283 6284 6285
          6286 6287 6288 6289 6290 6291
          6292 6293 6294 6295 6296 6297
          6298 6299 6300 6301 6302 6303
          6304 6305 6306 6307 6308 6309
          6310 6311 6312 6313 6314 6315
          6316 6317 6318 6319 6320 6321
          6322 6323 6324 6325 6326 6327
          6328 6329 6330 6331 6332 6333
          6334 6335 6336 6337 6338 6339
          6340 6341 6342 6343 6344 6345
          6346 6347 6348 6349 6350 6351
          6352 6353 6354 6355 6356 6357
          6358 6359 6360 6361 6362 6363
          6364 6365 6366 6367 6368 6369
          6370 6371 6372 6373 6374 6375
          6376 6377 6378 6379 6380 6381
          6382 6383 6384 6385 6386 6387
          6388 6389 6390 6391 6392 6393
          6394 6395 6396 6397 6398 6399
          6400 6401 6402 6403 6404 6405
          6406 6407 6408 6409 6410 6411
          6412 6415 6416 6418 6419 6420
          6421 6422 6423 6424 6425 6426
          6427 6428 6429 6430 6431 6432
          6433 6434 6435 6436 6437 6438
          6439 6440 6443 6444 7542 7543
          7546 7547 7549 7551 7562 7563
          7566 7567 7569 7571 7582 7584
          7586 7588 7596 7598 7600 7602
          7671 7672 7673 7674 7675 7676
          7678 7679 7680 7691 7692 7698
          7751 7753 7755 7757 7765 7767
          7769 7771 7779 7781 7783 7785
          7793 7795 7797 7799 7863 7865
          7867 7869 7877 7881 7891 7893
          7895 7897 7905 7909 8380 8381
          8382 8383 8384 8385 8386 8387
          8388 8389 8390 8391 8392 8394
          8395 8398 8399 8401 8414 8416
          8417 8418 8421 8422 8438 8440
          8441 8442 8445 8446 8458 8462
          8492 8496 2933 2935 3027 3025
          3028 3026 3033 3032 3272 3275
          3278 3277 2609 2612 2436 2615
          3488 3489 2610 3487 3494 3500
          3496 3501 3512 3502 3513 3514
          3515 3516 2971 2617 3538 3542
          3005 3009 3554 3551 3555 3552
          3035 3892 3893 3894 3897 2934
          3900 3921 3922 3923 3924 3926
          3927 3928 3929 2941 3909 3939
          3943 3905 3973 3906 3974 3980
          4013 4017 4075 4076 4077 4277
          4293 4278 4294 4297 4298 4422
          4423 4426 4427 4412 4429 4428
          3036 4430 4431 4440 4413 4444
          4415 5381 5394 5370 5382 5395
          5396 5397 3952 3975 5401 5405
          5402 5406 3983 3987 5420 5407
          5421 2614 5493 5497 5494 5498
          5450 4141 4273 5741 5735 5742
          5743 5746 3976 5762 5766 5767
          5770 3981 5785 5786 5803 5787
          5804 5790 3984 5809 5811 5812
          5813 5814 5818 5819 5823 5824
          5836 5827 3990 5840 5842 5843
          5846 5847 5975 5979 5980 5983
          4014 5995 5999 6000 6003 4018
          6016 6017 6029 6020 4020 6033
          6035 6036 6039 6040 6044 6045
          6057 6048 4024 6061 6063 6064
          6067 6068 6248 6249 6250 6253
          2973 6413 6414 6417 4105 6441
          6442 6445 2444 6630 6634 6631
          6635 6637 6639 6664 6666 6668
          6670 6896 6898 6900 6902 6924
          6926 6928 6930 7544 6636 7545
          7548 4142 7550 4274 7564 7565
          7568 7570 6667 7583 7585 4146
          7587 4280 7597 7599 7601 4282
          7677 4300 7581 7681 7605 7682
          7685 7686 7609 7688 7690 7693
          7694 7695 7696 7697 7699 7700
          4302 6899 7752 7754 4179 7756
          4313 7766 7768 7770 4315 6927
          7780 7782 4183 7784 4317 7794
          7796 7798 4319 7864 7866 7868
          4327 7774 7870 7872 7878 7879
          7880 7882 7883 4329 7892 7894
          7896 4331 7906 7907 7908 7910
          7911 4333 8393 8396 8397 8400
          8402 8403 4437 8404 8405 8411
          8419 8415 8420 8423 4441 8443
          8439 8444 8447 4445 8459 8460
          8461 8463 8464 4447 8465 8469
          8493 8494 8495 8497 8498 4451
          8499 8503
        </DataArray>
        <DataArray type="Float64" Name="bounds" format="ascii" RangeMin="0" RangeMax="0">
          0 0 0 0 0 0
          0 0 0 0 0 0
          0 0 0 0 0 0
          0 0 0 0 0 0
          0 0 0 0 0 0
          0 0 0 0 0 0
          0 0 0 0 0 0
          0 0 0 0 0 0
          0 0 0 0 0 0
          0 0 0 0 0 0
          0 0 0 0 0 0
          0 0 0 0 0 0
          0 0 0 0 0 0
          0 0 0 0 0 0
          0 0 0 0 0 0
          0 0 0 0 0 0
          0 0 0 0 0 0
          0 0 0 0 0 0
          0 0 0 0 0 0
          0 0 0 0 0 0
          0 0 0 0 0 0
          0 0 0 0 0 0
          0 0 0 0 0 0
          0 0 0 0 0 0
          0 0 0 0 0 0
          0 0 0 0 0 0
          0 0 0 0 0 0
          0 0 0 0 0 0
          0 0 0 0 0 0
          0 0 0 0 0 0
          0 0 0 0 0 0
          0 0 0 0 0 0
          0 0 0 0 0 0
          0 0 0 0 0 0
          0 0 0 0 0 0
          0 0 0 0 0 0
          0 0 0 0 0 0
          0 0 0 0 0 0
          0 0 0 0 0 0
          0 0 0 0 0 0
          0 0 0 0 0 0
          0 0 0 0 0 0
          0 0 0 0 0 0
          0 0 0 0 0 0
          0 0 0 0 0 0
          0 0 0 0 0 0
          0 0 0 0 0 0
          0 0 0 0 0 0
          0 0 0 0 0 0
          0 0 0 0 0 0
          0 0 0 0 0 0
          0 0 0 0 0 0
          0 0 0 0 0 0
          0 0 0 0 0 0
          0 0 0 0 0 0
          0 0 0 0 0 0
          0 0 0 0 0 0
          0 0 0 0 0 0
          0 0 0 0 0 0
          0 0 0 0 0 0
          0 0 0 0 0 0
          0 0 0 0 0 0
          0 0 0 0 0 0
          0 0 0 0 0 0
          0 0 0 0 0 0
          0 0 0 0 0 0
          0 0 0 0 0 0
          0 0 0 0 0 0
          0 0 0 0 0 0
          0 0 0 0 0 0
          0 0 0 0 0 0
          0 0 0 0 0 0
          0 0 0 0 0 0
          0 0 0 0 0 0
          0 0 0 0 0 0
          0 0 0 0 0 0
          0 0 0 0 0 0
          0 0 0 0 0 0
          0 0 0 0 0 0
          0 0 0 0 0 0
          0 0 0 0 0 0
          0 0 0 0 0 0
          0 0 0 0 0 0
          0 0 0 0 0 0
          0 0 0 0 0 0
          0 0 0 0 0 0
          0 0 0 0 0 0
          0 0 0 0 0 0
          0 0 0 0 0 0
          0 0 0 0 0 0
          0 0 0 0 0 0
          0 0 0 0 0 0
          0 0 0 0 0 0
          0 0 0 0 0 0
          0 0 0 0 0 0
          0 0 0 0 0 0
          0 0 0 0 0 0
          0 0 0 0 0 0
          0 0 0 0 0 0
          0 0 0 0 0 0
          0 0 0 0 0 0
          0 0 0 0 0 0
          0 0 0 0 0 0
          0 0 0 0 0 0
          0 0 0 0 0 0
          0 0 0 0 0 0
          0 0 0 0 0 0
          0 0 0 0 0 0
          0 0 0 0 0 0
          0 0 0 0 0 0
          0 0 0 0 0 0
          0 0 0 0 0 0
          0 0 0 0 0 0
          0 0 0 0 0 0
          0 0 0 0 0 0
          0 0 0 0 0 0
          0 0 0 0 0 0
          0 0 0 0 0 0
          0 0 0 0 0 0
          0 0 0 0 0 0
          0 0 0 0 0 0
          0 0 0 0 0 0
          0 0 0 0 0 0
          0 0 0 0 0 0
          0 0 0 0 0 0
          0 0 0 0 0 0
          0 0 0 0 0 0
          0 0 0 0 0 0
          0 0 0 0 0 0
          0 0 0 0 0 0
          0 0 0 0 0 0
          0 0 0 0 0 0
          0 0 0 0 0 0
          0 0 0 0 0 0
          0 0 0 0 0 0
          0 0 0 0 0 0
          0 0 0 0 0 0
          0 0 0 0 0 0
          0 0 0 0 0 0
          0 0 0 0 0 0
          0 0 0 0 0 0
          0 0 0 0 0 0
          0 0 0 0 0 0
          0 0 0 0 0 0
          0 0 0 0 0 0
          0 0 0 0 0 0
          0 0 0 0 0 0
          0 0 0 0 0 0
          0 0 0 0 0 0
          0 0 0 0 0 0
          0 0 0 0 0 0
          0 0 0 0 0 0
          0 0 0 0 0 0
          0 0 0 0 0 0
          0 0 0 0 0 0
          0 0 0 0 0 0
          0 0 0 0 0 0
          0 0 0 0 0 0
          0 0 0 0 0 0
          0 0 0 0 0 0
          0 0 0 0 0 0
          0 0 0 0 0 0
          0 0 0 0 0 0
          0 0 0 0 0 0
          0 0 0 0 0 0
          0 0 0 0 0 0
          0 0 0 0 0 0
          0 0 0 0 0 0
          0 0 0 0 0 0
          0 0 0 0 0 0
          0 0 0 0 0 0
          0 0 0 0 0 0
          0 0 0 0 0 0
          0 0 0 0 0 0
          0 0 0 0 0 0
          0 0 0 0 0 0
          0 0 0 0 0 0
          0 0 0 0 0 0
          0 0 0 0 0 0
          0 0 0 0 0 0
          0 0 0 0 0 0
          0 0 0 0 0 0
          0 0 0 0 0 0
          0 0 0 0 0 0
          0 0 0 0 0 0
          0 0 0 0 0 0
          0 0
        </DataArray>
        <DataArray type="Float64" Name="gradient_error" format="ascii" RangeMin="6.2785111773412805e-12" RangeMax="3.4162661517431735e-8">
          1.2812381600690426e-8 1.0784804912255206e-8 2.4820236084637877e-8 3.199415383180912e-8 9.250153167172104e-9 1.3806887399739059e-9
          1.9177687024052547e-8 7.959724751469173e-10 3.7092975829665836e-9 2.000645394060636e-8 1.5353626209431844e-8 2.2747932163740744e-8
          3.4162661517431735e-8 1.4223260276315837e-8 1.2285390417675074e-8 2.5152688576125252e-8 3.342099328275723e-8 8.35731898210965e-9
          1.6793882401021396e-8 1.531460723232833e-8 2.1115039204178463e-8 1.878145638321944e-8 3.1001932167463694e-8 1.72787297533266e-8
          1.4473114143339552e-8 1.4942233180956764e-8 3.052136960120422e-8 2.7875940028682316e-10 5.518079996019096e-10 3.875768252527259e-10
          1.003157051780583e-9 8.421906061838086e-9 2.256423268599646e-8 4.082104571905524e-9 1.1519896122017293e-8 3.150637251616308e-9
          5.622794854896587e-9 2.732091215519881e-9 3.0927524377994684e-8 1.6447909646975177e-8 7.381550416060478e-9 2.6517563237994755e-10
          1.5555042143225553e-10 1.3497171485066034e-10 9.800871254731584e-11 2.714585252729513e-11 3.222338578448184e-10 2.2641569201063418e-10
          5.059894097064192e-11 8.45723221274178e-9 7.116929151290169e-9 4.871986595776021e-9 2.3412924238241738e-9 6.259756716476724e-9
          5.184272865240697e-9 3.3025652338807436e-9 1.4852621353022133e-9 1.8559905411229765e-9 3.837899285861361e-10 8.516670999300111e-10
          1.2156396284891355e-9 4.5941767217671065e-10 1.6573836592389904e-10 2.3934568594274676e-10 6.550605147299294e-9 9.097887495496295e-9
          8.668754477604648e-9 8.239621459713e-9 1.450655247185122e-8 1.2601676270212297e-8 1.581026068518603e-8 1.5858119462286797e-8
          1.5177938654679777e-8 1.3490037788781152e-8 1.295075098326558e-8 1.1451602896559163e-8 1.3299825696318862e-8 5.808335670050484e-9
          6.101620222570122e-9 8.693823672954705e-9 8.277896760321431e-9 5.576886952074522e-9 8.168127783712771e-9 7.773102853633098e-9
          6.394904775089759e-9 7.861969847688157e-9 7.378077923553429e-9 1.5431955003678834e-8 1.4527428022617837e-8 1.4365593716246395e-8
          1.3968315975818407e-8 4.655197013608508e-9 4.992762836958968e-9 7.522451783164798e-9 7.159342708464774e-9 5.3303286603094276e-9
          6.79623363376475e-9 1.4967578827804336e-8 1.399242758270494e-8 1.3401236759265853e-8 1.2567781976681068e-8 1.238501261951633e-8
          1.0476418109020591e-8 3.033979571365278e-9 1.2034116210211078e-8 9.89907481783569e-9 1.6448604435644612e-8 1.6381646271666687e-8
          1.7009713458820356e-8 1.6793300067377643e-8 1.546738499529978e-8 1.5595122044734557e-8 1.3612610539790482e-8 1.4162609796170444e-8
          1.4824731457454171e-8 1.4646813487015225e-8 1.553465422930429e-8 1.5098522623319844e-8 1.3008032703645486e-8 1.290576787373738e-8
          1.1395983524380177e-8 1.1198178333940575e-8 1.3448283430609905e-8 1.342652312795843e-8 1.2315548939739763e-8 1.2623001382326813e-8
          1.0852437692350952e-8 9.022072116184192e-9 1.3211886554442551e-8 1.1805800566866214e-8 9.025886580005506e-10 1.6708310560403798e-9
          2.382799725796104e-10 3.0840536595455247e-9 1.865692798789632e-10 1.4701160279729832e-10 4.6514374665881817e-10 4.612842279522963e-9
          9.588816610192425e-10 5.082835955175037e-9 8.557726389220696e-10 7.471313540631666e-10 9.02268970003663e-10 9.544833895455308e-10
          2.0089833707079613e-9 1.13472726523255e-9 3.5228113287557517e-9 4.156029718672406e-10 5.523301649417707e-10 2.655146128475665e-10
          8.887965605516691e-10 5.364685454013861e-9 2.9772343837366624e-9 6.15835713346349e-9 1.2815701541611852e-9 6.099188742307611e-10
          1.4746045452353328e-9 5.853502654567356e-10 1.0989112951376197e-9 1.714749167103337e-10 1.3942886023627534e-10 4.400141204379324e-10
          6.51429126186256e-10 1.2876309109545042e-10 1.9507378040844313e-9 3.138231150025184e-10 1.0701593325615067e-9 1.2111172467393366e-10
          1.0601824811504198e-10 8.828893186656352e-11 8.22376498082458e-11 1.186375599423084e-10 9.144650799489899e-11 6.889789492335219e-11
          2.565536506073371e-10 2.0906362823659527e-10 1.2299323677526478e-10 3.330177784464817e-10 3.529866417458823e-10 2.0582740700398575e-10
          1.2282721953763765e-10 1.5370917363771984e-10 1.6730649540182554e-10 5.50225403845511e-11 4.894296482942279e-10 6.808338804828304e-11
          2.3219631581139409e-10 1.3956787977874923e-10 8.438893716946984e-11 1.0255406526060362e-10 6.228337678741115e-11 5.2149964132768745e-11
          4.06524016551834e-11 2.005129444015068e-11 2.9912423245408995e-9 5.537808496688913e-10 1.6487526478589418e-9 2.709622146575849e-10
          3.443237249086315e-9 6.312723973332428e-10 1.93512189438735e-9 4.781928475919959e-10 4.065172084965479e-10 2.2529561224583874e-10
          1.8631124354651606e-10 5.506979380798153e-10 4.730071211975634e-10 2.709825056912322e-10 7.115894267087073e-10 1.1375433657975978e-10
          3.332528962547392e-10 4.2779783754857844e-11 8.227584613232524e-10 1.3632620878076502e-10 3.854686474137085e-10 9.13364951418547e-11
          7.355505592320293e-11 3.3001786704586474e-11 1.1087999345508427e-10 9.022834098820107e-11 3.957000785049256e-11 6.679113218725349e-11
          9.076576388325518e-11 6.640944791405548e-11 5.611820099915797e-11 6.401503139023123e-11 3.6914665991134586e-11 5.116610639002468e-11
          4.1811471216190204e-10 5.586027861886089e-10 4.204044215972184e-10 2.40490688823548e-10 3.814797696442524e-10 2.9419956853122127e-10
          2.181370308593005e-10 2.918729757408556e-10 2.313187556303361e-10 1.6815420763039423e-10 2.5682975939066893e-10 1.0073763620213695e-10
          1.8811206426206319e-10 1.3585784892038188e-10 1.9908593251192346e-10 1.4026442140788193e-10 7.14512431014655e-11 1.3273238375744676e-10
          5.938801163625686e-11 9.764877490500321e-11 6.981377633529323e-11 2.139738476971186e-10 2.4790484715209846e-10 2.025875401762735e-10
          3.795788223246427e-10 1.8290890747881426e-10 2.23777111597024e-10 1.3906156072578965e-10 1.8476764235157455e-10 1.4836712730342764e-10
          1.8188645975676245e-10 1.4863518084238287e-10 3.4798921779474444e-10 2.9777577236771016e-10 2.8093679853316856e-10 5.424787756433206e-10
          4.3796609061304645e-10 7.983793825871599e-10 5.145483877263499e-10 4.6383260813065534e-10 4.1339914408607415e-10 3.6927383472940485e-10
          7.609133334436573e-10 6.950963610737467e-10 6.073081275942485e-10 1.1805257734220046e-10 1.5943353379247522e-10 9.468545310375331e-11
          1.2740540517105897e-10 1.1150154364688103e-10 2.6416972812763017e-10 2.0988668784673027e-10 7.169883913246453e-11 9.790021365177892e-11
          8.574771191648512e-11 1.6589830310686863e-10 4.2105725956269147e-10 3.3296686518412894e-10 3.0097961665493107e-10 6.418121901298627e-10
          5.063065589816678e-10 2.7146692769440596e-10 2.437164130637199e-10 4.257597713556775e-10 1.0993139650101638e-9 8.788750763371248e-10
          1.2457333779083555e-9 1.0489496516634423e-9 9.691644473338868e-10 8.379203772576878e-10 7.709342612109118e-10 1.2310712503976474e-9
          1.189310851771978e-9 9.991218164291517e-10 1.3060818052627094e-9 1.0909092658595795e-9 1.3302017727991495e-9 1.2758985335390724e-9
          1.2187387396891512e-9 1.0669175970952888e-9 1.0178089040622628e-9 1.263490858300865e-9 1.1695793438578765e-9 1.0771465439750614e-9
          9.115896522881638e-10 7.204897505354077e-10 6.718899524994357e-10 1.1333324919704455e-9 9.080594535969444e-10 6.234916427118884e-10
          5.751092577120733e-10 8.020804385225933e-10 1.1642050735093617e-9 9.672112560773032e-10 9.153646729521328e-10 1.1158896405073076e-9
          9.529556999813598e-10 8.617009892731032e-10 8.063169426751904e-10 8.499436815596097e-10 1.3793221187399818e-10 1.6204558618107327e-10
          1.264560414252067e-10 2.4440909975042644e-10 1.172843764762891e-10 1.4423932305098652e-10 8.795003287897991e-11 1.1613619809482627e-10
          9.073666850666748e-11 1.1159560162498591e-10 8.842841082696499e-11 2.2133435221956845e-10 1.8499811620379596e-10 1.6954884946009215e-10
          8.145085050872165e-11 9.551178856513842e-11 8.216371001563506e-11 1.4083565160384912e-10 6.928107600905343e-11 8.371633180644766e-11
          5.141157512111641e-11 6.527459621089672e-11 6.040295811665959e-11 7.145906069832087e-11 5.48506192004438e-11 1.25376939894333e-10
          1.0143687978626002e-10 9.878917355831836e-11 3.4647668246192595e-10 2.662717910431144e-10 4.994564331886568e-10 3.2378075113402546e-10
          2.84681662648503e-10 2.4622243700020967e-10 2.1267480790938767e-10 4.715816029505269e-10 4.232416068359063e-10 3.54689797545584e-10
          1.9858629586489e-10 1.408132504950425e-10 2.786661334002695e-10 1.8161031749406767e-10 1.54017232899191e-10 1.2804456858200857e-10
          1.0737608332915232e-10 2.5843271144162317e-10 2.2479833220124548e-10 1.8085395842140714e-10 7.379008907554233e-11 9.883958942683278e-11
          6.381051685162442e-11 8.60805692879146e-11 5.609794773393621e-11 7.457347066174928e-11 6.457394061975976e-11 1.61619953707625e-10
          1.428787363842584e-10 1.2063415552992863e-10 5.539626116052251e-11 7.528083729439028e-11 4.8013249477643514e-11 6.572317375720863e-11
          4.176562295805507e-11 5.628878482385612e-11 4.9028930996785125e-11 1.2651763753334579e-10 1.1171876986634129e-10 9.347010286550743e-11
          4.210419763062217e-11 5.4296506279327476e-11 3.584299860305281e-11 4.6646082451259254e-11 3.645201319975346e-11 4.517377166623669e-11
          3.8588831340945343e-11 8.691264596841857e-11 7.59287334708348e-11 6.756981720882514e-11 3.1227446929390504e-11 4.066362325970363e-11
          2.727066180965204e-11 3.548105562361999e-11 2.7045150295128987e-11 3.369405377937066e-11 2.948910306731644e-11 6.666321129662723e-11
          5.844414256774255e-11 5.1547414550302613e-11 2.546436144059519e-10 2.2882572705800743e-10 1.884093683695205e-10 1.6822091685923988e-10
          3.8535397810465176e-10 3.517544203624776e-10 2.8304474611848145e-10 2.0537377840642145e-10 1.835730597555851e-10 1.5021017933540827e-10
          1.3367429952996608e-10 3.201391058647594e-10 2.898971986238541e-10 2.3210997972177077e-10 1.3518748791237425e-10 1.199340435795156e-10
          9.351109425876052e-11 8.24847067541512e-11 2.0073951575186756e-10 1.8062607321652482e-10 1.3766857569350302e-10 1.0653286312050792e-10
          9.436504116968021e-11 7.288320440092004e-11 6.425336182297132e-11 1.6243727748280367e-10 1.4553819305490138e-10 1.0995552790521475e-10
          8.232875224800106e-11 9.636276121882006e-11 6.669213986414367e-11 1.3200077243778267e-10 7.321666334312974e-11 8.748790563196853e-11
          5.898940780524563e-11 7.286919294805055e-11 5.01807710558436e-11 5.965474943275256e-11 4.851655638864047e-11 1.2170520018495276e-10
          1.0424119360322373e-10 8.159986947917895e-11 3.7097781857094105e-11 4.362996226156448e-11 2.8776980779992626e-11 5.8012629857621984e-11
          3.280691712216563e-11 3.897351709610032e-11 2.5959987555914084e-11 3.145622113322202e-11 2.1576010241943665e-11 2.5382066004837385e-11
          2.0063451128933435e-11 5.252448908695991e-11 4.351200268891113e-11 3.36548667016105e-11 5.037710735343883e-11 6.292654181916076e-11
          4.389582046259824e-11 5.5178369071652e-11 3.3715111958741423e-11 4.150480401819319e-11 3.6160160187392026e-11 9.151250227372108e-11
          8.11952007429735e-11 5.919903666146418e-11 3.8293657084406184e-11 4.8496010579337867e-11 3.337272929825364e-11 4.2563441014392796e-11
          2.535416570949511e-11 3.1611484982056564e-11 2.7622050220921584e-11 7.216803993075418e-11 6.399760455836894e-11 4.608014380345084e-11
          2.1749159586783588e-11 2.6620008630806726e-11 1.8695824067348846e-11 2.3018613338911e-11 1.3986622182042142e-11 1.682492281602697e-11
          1.4441997746600034e-11 3.740659577365292e-11 3.270139130459301e-11 2.3116022451819464e-11 1.613348255662827e-11 2.0007581027410917e-11
          1.3952002317280086e-11 1.7403460171109997e-11 2.872018850395442e-11 2.5203887352224823e-11 6.865338471284972e-10 5.18221646007516e-10
          8.062494380400946e-10 6.50189772608344e-10 5.912933735538819e-10 4.872750951336017e-10 4.3714737150714205e-10 7.862227259521704e-10
          7.435317693787164e-10 5.958513818725041e-10 3.7837118784478064e-10 2.6405561564729336e-10 4.5524349437730663e-10 3.5262351841996957e-10
          3.113004769413865e-10 2.446662043062377e-10 2.134698915058685e-10 4.3390239302692623e-10 3.956386438255868e-10 3.021620029632804e-10
          8.864740050841947e-10 6.919281884552627e-10 9.248980878790284e-10 8.608730845613243e-10 8.120630601521122e-10 6.655946266148134e-10
          6.181501038801506e-10 8.8260412398854e-10 8.168555711828294e-10 6.904587944841939e-10 5.155458541134525e-10 3.659541670642798e-10
          5.45088843504951e-10 4.910900470207937e-10 4.4847694761272423e-10 3.4505750660793767e-10 3.0995180377951e-10 5.133752647477388e-10
          4.6297922058109606e-10 3.6257845752550654e-10 5.48188301228929e-10 5.077138965903817e-10 4.012714957520745e-10 3.6882151697177793e-10
          6.984936908641647e-10 6.536981154509992e-10 5.149977978591077e-10 4.681809202825671e-10 4.2927196881700464e-10 3.378451593008276e-10
          3.078721683314445e-10 6.086722861644207e-10 5.633697107107835e-10 4.4212918341376717e-10 2.827245142149699e-10 2.577892192263983e-10
          1.920148165807455e-10 1.7370770171689037e-10 3.638787459599983e-10 3.3505760421990195e-10 2.4671075617890786e-10 2.34541696102758e-10
          2.1242838179974032e-10 1.5698535528050287e-10 1.4133246006699503e-10 3.075537060185878e-10 2.809068407103995e-10 2.0532050713955202e-10
          7.660001621754317e-10 7.200153200052132e-10 5.774471106944369e-10 5.386023033707247e-10 7.706180000458655e-10 7.247979646359392e-10
          5.899515442065904e-10 6.733500294232399e-10 6.259802821003699e-10 5.001528232914782e-10 4.61836962678631e-10 6.783168105276629e-10
          6.311123609807352e-10 5.118097385429947e-10 4.14399486588539e-10 3.833226695612517e-10 2.835913574596763e-10 2.6016774965510885e-10
          4.280499769992304e-10 3.9631620921927396e-10 2.950689121066651e-10 3.5337437547961223e-10 3.2410089838906785e-10 2.3811408510999757e-10
          2.1694739203703567e-10 3.656892793997358e-10 3.357017394884777e-10 2.4826357629965964e-10 1.7453536093855015e-10 1.174979905600234e-10
          2.1036732123067469e-10 1.6219447760768364e-10 1.4137747722769622e-10 1.0721480126554768e-10 9.097806656788533e-11 1.991571851042904e-10
          1.7845863314020174e-10 1.3101389131478182e-10 7.385428139088579e-11 4.775659073109448e-11 8.751613179760436e-11 6.759520202967204e-11
          5.7187084852639644e-11 4.279100663873808e-11 3.5087961190627e-11 8.141298203175676e-11 7.06567249927813e-11 5.1214121804530686e-11
          2.395082255509951e-10 1.6136431961156752e-10 2.537477558318149e-10 2.273672549571275e-10 2.0486875609316646e-10 1.4951706877052203e-10
          1.3041972209754433e-10 2.391578424719433e-10 2.138417912457299e-10 1.5736494629387937e-10 9.838581627278284e-11 6.3658201631821e-11
          1.0358481468291945e-10 9.204389451367068e-11 8.064137413908218e-11 5.773341102818387e-11 4.849491450314627e-11 9.65433679192871e-11
          8.427191733058878e-11 6.049898008929265e-11 1.2605900333941175e-10 1.1318247107825248e-10 8.03305837425266e-11 7.157396484851216e-11
          1.6100648239410536e-10 1.4586632308862833e-10 1.0162618861114418e-10 1.0161834360949063e-10 9.09509910143895e-11 6.384366018380314e-11
          5.681028184029371e-11 1.3200470121912643e-10 1.190249166120438e-10 8.20868582441114e-11 4.989704435219131e-11 4.4096237539333735e-11
          3.0303669605661185e-11 2.6558325143550926e-11 6.236209920160155e-11 5.55765547222966e-11 3.735681003438121e-11 3.9072148508596135e-11
          3.4564012345133696e-11 4.959774194547216e-11 4.4164120038099816e-11 1.8577516618491896e-10 1.6908934834248622e-10 1.1716345828845024e-10
          1.057973282463566e-10 1.941063459978912e-10 1.7688150885897946e-10 1.2263212959438182e-10 1.5366967282545596e-10 1.391125598949038e-10
          9.548357533105763e-11 8.589564016838091e-11 1.6092891464440147e-10 1.4583621220829307e-10 1.001892711892151e-10 7.158384444741934e-11
          6.410011420608982e-11 4.2596055447358175e-11 3.7807373098011344e-11 7.491524532354225e-11 6.717821404754107e-11 4.451700858364918e-11
          5.7443922877093666e-11 5.1349039280974193e-11 6.027796137072002e-11 5.394500649650643e-11 4.1529340401218073e-11 5.717798522767918e-11
          3.1224838579362423e-11 4.25434605303417e-11 9.818641459985938e-11 7.204293179633853e-11 2.3411594101741483e-11 3.066226288053075e-11
          2.032929259550182e-11 2.5397886227540396e-11 5.103943065468441e-11 3.931252052313455e-11 1.6320856487124842e-10 1.1837033437714147e-10
          2.609546734701166e-10 1.8726897992453393e-10 8.323932043497291e-11 5.6478187512422895e-11 1.297376097571814e-10 8.695503366226153e-11
          2.9097844583338044e-11 3.7272576326304216e-11 2.52571189035533e-11 3.2486929145556795e-11 1.9127899623410457e-11 2.4092728203502353e-11
          5.6514553065716254e-11 4.965916499528305e-11 3.573024032955144e-11 1.2076593286074713e-11 1.511662641504943e-11 2.2046939559170858e-11
          3.911113955271262e-10 2.7889019126074286e-10 5.180689358418001e-10 3.7146703516343764e-10 1.913422553778656e-10 1.2660261158226362e-10
          2.5508769143477584e-10 1.6816337418317102e-10 5.782118857873012e-10 4.2380958878623885e-10 5.8347027460194e-10 4.34444417560947e-10
          2.9550865339985995e-10 1.9658488094458927e-10 3.063639263914336e-10 2.0535900353277414e-10 8.103434047179746e-11 5.0346111251721235e-11