<?xml version="1.0"?>
<VTKFile type="UnstructuredGrid" version="0.1" byte_order="LittleEndian" header_type="UInt32" compressor="vtkZLibDataCompressor">
  <UnstructuredGrid>
    <Piece NumberOfPoints="1122" NumberOfCells="745">
      <PointData>
        <DataArray type="Int32" Name="libmesh_node_id" format="ascii" RangeMin="2435" RangeMax="7855">
          2435 2443 2608 2609 2610 2613
          2614 2618 2933 2934 2935 2941
          2943 2944 2945 2946 2947 2948
          2949 2953 2954 2955 2985 2990
          3271 3272 3274 3487 3488 3489
          3493 3494 3495 3496 3497 3498
          3499 3500 3501 3502 3892 3893
          3894 3897 3900 3905 3906 3909
          3921 3922 3923 3924 3926 3927
          3928 3929 3939 3943 3945 3946
          3947 3948 3949 3950 3951 3952
          3953 3954 3955 3956 3957 3958
          3959 3960 3961 3962 3963 3964
          3965 3966 3967 3968 3969 3970
          3971 3972 3973 3974 3975 3976
          3980 3981 3983 3984 3985 3986
          3987 3990 3991 3993 3994 3995
          3996 3997 3998 3999 4000 4001
          4002 4003 4004 4005 4006 4007
          4008 4009 4010 4011 4012 4013
          4014 4017 4018 4020 4021 4024
          4025 4109 4110 4111 4112 4116
          4117 4119 4120 4122 4137 4138
          4141 4142 4143 4144 4146 4157
          4158 4161 4163 4164 4166 4177
          4179 4180 4181 4183 4273 4274
          4275 4276 4277 4278 4280 4281
          4282 4313 4314 4317 4318 5367
          5368 5369 5370 5374 5375 5376
          5377 5378 5379 5380 5381 5382
          5383 5384 5385 5386 5387 5388
          5389 5390 5391 5392 5393 5394
          5395 5396 5397 5401 5402 5403
          5404 5405 5406 5407 5420 5421
          5425 5426 5427 5428 5432 5433
          5445 5446 5449 5450 5493 5494
          5495 5496 5497 5498 5499 5500
          5504 5589 5590 5591 5592 5593
          5594 5595 5596 5597 5598 5599
          5600 5601 5602 5603 5604 5605
          5606 5607 5608 5609 5610 5611
          5612 5613 5614 5615 5616 5617
          5618 5619 5620 5621 5622 5623
          5624 5625 5626 5627 5628 5629
          5630 5631 5632 5633 5634 5635
          5636 5637 5638 5639 5640 5641
          5642 5643 5644 5645 5646 5647
          5648 5649 5650 5651 5652 5653
          5654 5655 5656 5657 5658 5659
          5660 5661 5662 5663 5664 5665
          5666 5667 5668 5669 5670 5671
          5672 5673 5674 5675 5676 5677
          5678 5679 5680 5681 5682 5683
          5684 5685 5686 5687 5688 5689
          5690 5691 5692 5693 5694 5695
          5696 5697 5698 5699 5700 5701
          5702 5703 5704 5705 5706 5707
          5708 5709 5710 5711 5712 5713
          5714 5715 5716 5717 5718 5719
          5720 5721 5722 5723 5724 5725
          5726 5727 5728 5729 5730 5731
          5732 5733 5734 5735 5736 5737
          5738 5739 5740 5741 5742 5743
          5744 5745 5746 5761 5762 5763
          5764 5765 5766 5767 5768 5769
          5770 5781 5782 5783 5784 5785
          5786 5787 5788 5789 5790 5791
          5792 5793 5794 5795 5796 5797
          5798 5799 5800 5803 5804 5809
          5811 5812 5813 5814 5818 5819
          5821 5822 5823 5824 5825 5826
          5827 5828 5829 5830 5831 5832
          5833 5834 5836 5840 5842 5843
          5846 5847 5849 5850 5851 5852
          5853 5854 5855 5856 5857 5858
          5859 5860 5861 5862 5863 5864
          5865 5866 5867 5868 5869 5870
          5871 5872 5873 5874 5875 5876
          5877 5878 5879 5880 5881 5882
          5883 5884 5885 5886 5887 5888
          5889 5890 5891 5892 5893 5894
          5895 5896 5897 5898 5899 5900
          5901 5902 5903 5904 5905 5906
          5907 5908 5909 5910 5911 5912
          5913 5914 5915 5916 5917 5918
          5919 5920 5921 5922 5923 5924
          5925 5926 5927 5928 5929 5930
          5931 5932 5933 5934 5935 5936
          5937 5938 5939 5940 5941 5942
          5943 5944 5945 5946 5947 5948
          5949 5950 5951 5952 5953 5954
          5955 5956 5957 5958 5959 5960
          5961 5962 5963 5964 5965 5966
          5967 5968 5969 5970 5971 5972
          5973 5974 5975 5976 5977 5978
          5979 5980 5981 5982 5983 5994
          5995 5996 5997 5998 5999 6000
          6001 6002 6003 6014 6015 6016
          6017 6018 6019 6020 6021 6022
          6023 6024 6025 6026 6027 6029
          6033 6035 6036 6039 6040 6042
          6043 6044 6045 6046 6047 6048
          6049 6050 6051 6052 6053 6054
          6055 6057 6061 6063 6064 6067
          6068 6446 6447 6448 6449 6450
          6451 6452 6453 6454 6455 6456
          6457 6458 6459 6460 6461 6462
          6463 6467 6468 6470 6471 6473
          6474 6475 6476 6477 6478 6479
          6480 6481 6482 6483 6484 6485
          6488 6489 6491 6493 6494 6495
          6496 6497 6498 6499 6500 6501
          6502 6503 6504 6505 6508 6510
          6511 6513 6514 6515 6516 6517
          6518 6519 6520 6521 6523 6525
          6527 6610 6611 6612 6613 6614
          6615 6616 6617 6618 6619 6620
          6621 6624 6625 6627 6629 6630
          6631 6632 6633 6634 6635 6636
          6637 6638 6639 6640 6641 6644
          6645 6646 6647 6649 6650 6651
          6652 6653 6654 6655 6656 6657
          6659 6661 6663 6664 6665 6666
          6667 6668 6669 6670 6671 6673
          6674 6675 6677 6746 6747 6748
          6749 6750 6751 6752 6753 6754
          6755 6756 6757 6760 6762 6763
          6765 6766 6767 6768 6769 6770
          6771 6772 6773 6775 6777 6779
          6780 6781 6782 6783 6784 6785
          6786 6787 6788 6789 6790 6791
          6794 6796 6797 6799 6800 6801
          6802 6803 6804 6805 6806 6807
          6809 6811 6813 6882 6883 6884
          6885 6886 6887 6888 6889 6891
          6893 6895 6896 6897 6898 6899
          6900 6901 6902 6903 6905 6906
          6907 6909 6910 6911 6912 6913
          6914 6915 6916 6917 6919 6921
          6923 6924 6925 6926 6927 6928
          6929 6930 6931 6933 6934 6935
          6937 7544 7545 7548 7550 7552
          7553 7554 7555 7556 7557 7558
          7559 7560 7561 7564 7565 7568
          7570 7572 7573 7574 7575 7576
          7577 7578 7579 7580 7583 7585
          7587 7589 7590 7591 7592 7593
          7594 7595 7597 7599 7601 7603
          7604 7607 7608 7610 7611 7614
          7615 7630 7631 7632 7633 7634
          7635 7636 7752 7754 7756 7758
          7759 7760 7761 7762 7763 7764
          7766 7770 7772 7773 7776 7777
          7780 7782 7784 7786 7787 7788
          7789 7790 7791 7792 7794 7798
          7800 7801 7804 7805 3275 2612
          3281 3282 2622 2623 3517 3518
          3519 3520 3524 3525 3537 3512
          3538 3513 3539 3526 3540 3005
          4295 4293 4279 4296 4294 5429
          5430 5431 5434 2977 4113 2978
          5447 5448 5451 4139 2984 5456
          5457 5501 5502 5458 5503 5505
          5506 4151 4283 4287 6464 6465
          6466 6469 4114 6472 4115 6486
          6487 6490 6492 4118 6506 6507
          6509 2979 6512 4121 6522 6524
          6526 2980 6622 6623 6626 6628
          4140 6642 6643 6648 6658 6660
          6662 4145 6672 6676 6698 6702
          6699 6703 6705 6707 6732 6734
          6736 6738 6758 6759 6761 4159
          6764 4160 6774 6776 6778 4162
          6792 6793 6795 2987 6798 4165
          6808 6810 6812 2988 6890 6892
          6894 4178 6904 6908 6918 6920
          6922 4182 6932 6936 6952 6954
          6956 6958 6980 6982 6984 6986
          7581 7605 7606 7609 3006 7612
          6704 7613 7616 7617 4152 7618
          7619 4284 7637 7638 7639 4288
          7640 7642 7644 7646 7654 7656
          7658 7660 7774 7768 7775 7778
          4315 4316 7802 7796 7803 7806
          4319 3012 7807 7809 7811 7813
          7821 7823 7825 7827 7835 7837
          7839 7841 7849 7851 7853 7855
        </DataArray>
        <DataArray type="Float64" Name="bounds" format="ascii" RangeMin="0" RangeMax="0">
          0 0 0 0 0 0
          0 0 0 0 0 0
          0 0 0 0 0 0
          0 0 0 0 0 0
          0 0 0 0 0 0
          0 0 0 0 0 0
          0 0 0 0 0 0
          0 0 0 0 0 0
          0 0 0 0 0 0
          0 0 0 0 0 0
          0 0 0 0 0 0
          0 0 0 0 0 0
          0 0 0 0 0 0
          0 0 0 0 0 0
          0 0 0 0 0 0
          0 0 0 0 0 0
          0 0 0 0 0 0
          0 0 0 0 0 0
          0 0 0 0 0 0
          0 0 0 0 0 0
          0 0 0 0 0 0
          0 0 0 0 0 0
          0 0 0 0 0 0
          0 0 0 0 0 0
          0 0 0 0 0 0
          0 0 0 0 0 0
          0 0 0 0 0 0
          0 0 0 0 0 0
          0 0 0 0 0 0
          0 0 0 0 0 0
          0 0 0 0 0 0
          0 0 0 0 0 0
          0 0 0 0 0 0
          0 0 0 0 0 0
          0 0 0 0 0 0
          0 0 0 0 0 0
          0 0 0 0 0 0
          0 0 0 0 0 0
          0 0 0 0 0 0
          0 0 0 0 0 0
          0 0 0 0 0 0
          0 0 0 0 0 0
          0 0 0 0 0 0
          0 0 0 0 0 0
          0 0 0 0 0 0
          0 0 0 0 0 0
          0 0 0 0 0 0
          0 0 0 0 0 0
          0 0 0 0 0 0
          0 0 0 0 0 0
          0 0 0 0 0 0
          0 0 0 0 0 0
          0 0 0 0 0 0
          0 0 0 0 0 0
          0 0 0 0 0 0
          0 0 0 0 0 0
          0 0 0 0 0 0
          0 0 0 0 0 0
          0 0 0 0 0 0
          0 0 0 0 0 0
          0 0 0 0 0 0
          0 0 0 0 0 0
          0 0 0 0 0 0
          0 0 0 0 0 0
          0 0 0 0 0 0
          0 0 0 0 0 0
          0 0 0 0 0 0
          0 0 0 0 0 0
          0 0 0 0 0 0
          0 0 0 0 0 0
          0 0 0 0 0 0
          0 0 0 0 0 0
          0 0 0 0 0 0
          0 0 0 0 0 0
          0 0 0 0 0 0
          0 0 0 0 0 0
          0 0 0 0 0 0
          0 0 0 0 0 0
          0 0 0 0 0 0
          0 0 0 0 0 0
          0 0 0 0 0 0
          0 0 0 0 0 0
          0 0 0 0 0 0
          0 0 0 0 0 0
          0 0 0 0 0 0
          0 0 0 0 0 0
          0 0 0 0 0 0
          0 0 0 0 0 0
          0 0 0 0 0 0
          0 0 0 0 0 0
          0 0 0 0 0 0
          0 0 0 0 0 0
          0 0 0 0 0 0
          0 0 0 0 0 0
          0 0 0 0 0 0
          0 0 0 0 0 0
          0 0 0 0 0 0
          0 0 0 0 0 0
          0 0 0 0 0 0
          0 0 0 0 0 0
          0 0 0 0 0 0
          0 0 0 0 0 0
          0 0 0 0 0 0
          0 0 0 0 0 0
          0 0 0 0 0 0
          0 0 0 0 0 0
          0 0 0 0 0 0
          0 0 0 0 0 0
          0 0 0 0 0 0
          0 0 0 0 0 0
          0 0 0 0 0 0
          0 0 0 0 0 0
          0 0 0 0 0 0
          0 0 0 0 0 0
          0 0 0 0 0 0
          0 0 0 0 0 0
          0 0 0 0 0 0
          0 0 0 0 0 0
          0 0 0 0 0 0
          0 0 0 0 0 0
          0 0 0 0 0 0
          0 0 0 0 0 0
          0 0 0 0 0 0
          0 0 0 0 0 0
          0 0 0 0 0 0
          0 0 0 0 0 0
          0 0 0 0 0 0
          0 0 0 0 0 0
          0 0 0 0 0 0
          0 0 0 0 0 0
          0 0 0 0 0 0
          0 0 0 0 0 0
          0 0 0 0 0 0
          0 0 0 0 0 0
          0 0 0 0 0 0
          0 0 0 0 0 0
          0 0 0 0 0 0
          0 0 0 0 0 0
          0 0 0 0 0 0
          0 0 0 0 0 0
          0 0 0 0 0 0
          0 0 0 0 0 0
          0 0 0 0 0 0
          0 0 0 0 0 0
          0 0 0 0 0 0
          0 0 0 0 0 0
          0 0 0 0 0 0
          0 0 0 0 0 0
          0 0 0 0 0 0
          0 0 0 0 0 0
          0 0 0 0 0 0
          0 0 0 0 0 0
          0 0 0 0 0 0
          0 0 0 0 0 0
          0 0 0 0 0 0
          0 0 0 0 0 0
          0 0 0 0 0 0
          0 0 0 0 0 0
          0 0 0 0 0 0
          0 0 0 0 0 0
          0 0 0 0 0 0
          0 0 0 0 0 0
          0 0 0 0 0 0
          0 0 0 0 0 0
          0 0 0 0 0 0
          0 0 0 0 0 0
          0 0 0 0 0 0
          0 0 0 0 0 0
          0 0 0 0 0 0
          0 0 0 0 0 0
          0 0 0 0 0 0
          0 0 0 0 0 0
          0 0 0 0 0 0
          0 0 0 0 0 0
          0 0 0 0 0 0
          0 0 0 0 0 0
          0 0 0 0 0 0
          0 0 0 0 0 0
          0 0 0 0 0 0
          0 0 0 0 0 0
          0 0 0 0 0 0
          0 0 0 0 0 0
          0 0 0 0 0 0
          0 0 0 0 0 0
          0 0 0 0 0 0
          0 0 0 0 0 0
          0 0 0 0 0 0
        </DataArray>
        <DataArray type="Float64" Name="gradient_error" format="ascii" RangeMin="1.1255045491013107e-11" RangeMax="1.742026158934864e-8">
          2.0921724860764103e-10 1.0993123593502597e-9 7.176110815133135e-10 6.15587918636202e-10 4.745967273864636e-9 3.652301550017816e-10
          1.4847400755804292e-10 8.695477843018498e-9 8.701837103169283e-9 1.4241218542716527e-8 1.5308886577292107e-8 1.50501504661227e-8
          6.253889696945136e-10 5.152626941587668e-10 1.436767820970777e-9 1.1397702213863117e-9 2.914548488556281e-10 1.1018028950059076e-9
          8.570334377397405e-10 1.213935647807582e-9 1.4730725807545296e-9 1.1780105924207812e-9 2.4917791410402094e-10 5.726597525753692e-10
          4.3556536028479077e-10 3.650406293841554e-10 7.761690312476153e-11 7.119629260069546e-10 2.956823854454833e-9 2.3988605052389173e-9
          4.6006524798690614e-10 4.284163495976053e-10 3.969683655426242e-10 3.4203462504919996e-10 2.4413363088298057e-10 2.2205364206027975e-10
          1.8880054939712025e-10 3.106177405066817e-10 2.2685306025164735e-10 1.1687264559505605e-10 3.24077462959371e-9 6.794391519954646e-9
          6.473073839315509e-9 5.72468502478686e-9 1.3355004972624045e-8 2.046000921658551e-9 4.2506182523733534e-9 9.382905458643477e-9
          1.742026158934864e-8 1.7048002487827277e-8 1.397441153039994e-8 1.5199553652123764e-8 1.5211967332708755e-8 1.5295072075809692e-8
          1.5437072390215245e-8 1.2255108454035156e-8 1.2162726586524768e-8 1.2805257745906776e-8 1.6256082447215498e-9 1.6136103537500205e-9
          3.575560525555052e-9 3.405741112024418e-9 5.962811992228736e-10 6.093334835555027e-10 5.748408267090408e-10 1.529322862350946e-9
          2.968171924963043e-9 4.83284485785868e-10 7.681170575706308e-9 7.248838430553404e-9 1.3575397878265492e-9 6.068530679330905e-9
          4.833843570720398e-10 4.5786091856487666e-10 5.023978326595775e-10 4.728781655440655e-10 3.451955304983445e-10 4.1020002794753827e-10
          3.8512273947805623e-10 3.888101208184966e-10 3.937406948438823e-10 3.1831645249949946e-10 1.2661720679954882e-9 1.1923716551126865e-9
          1.0354792677459716e-9 9.943049961605003e-10 1.2688311287688636e-9 2.35111340861822e-9 4.00317405922706e-10 3.60842409354398e-10
          4.563349408611976e-9 8.465838297358712e-10 2.957806168318544e-10 2.89030614727055e-10 2.1989744720783972e-10 2.31008794480262e-10
          2.017668007561038e-10 7.291548342607008e-10 6.196284401497608e-10 6.466088280537338e-9 7.785065767896483e-9 2.3870153875504347e-9
          2.254682631428718e-9 8.442504840939942e-9 1.889208891895064e-9 1.1986397238978846e-9 5.145465373703445e-9 1.3487024558581504e-9
          8.362092434980256e-9 2.186584088459717e-9 2.0571120799225183e-9 1.9444791662888216e-9 1.831520476193397e-9 1.7203675699212959e-9
          1.5428989519095957e-9 1.177113731088702e-9 1.2773878485302922e-9 1.1561365697547607e-9 1.3264251060719913e-9 6.680192381390331e-9
          1.4251110314487772e-9 7.0347419671014375e-9 1.306815784419079e-9 1.2971144596991682e-9 1.1570369642268428e-9 1.1861833562790277e-9
          1.0687863031185392e-9 2.7240041103844913e-10 2.5716452957756303e-10 3.267602051528691e-10 3.0606947865871477e-10 2.164279838930648e-10
          2.5130942580079335e-10 9.368917415682202e-10 8.779303985657251e-10 7.201149412328736e-10 1.6249464659900758e-10 1.8060105709401059e-10
          1.0906250158123117e-10 1.1362044401404325e-10 8.571591169856027e-11 5.129997581013275e-10 3.150528312399322e-10 1.7060014716860419e-9
          1.6131951105734253e-9 1.3611269324179925e-9 9.715048327850774e-10 1.0131674234587964e-9 1.0495176737146808e-9 1.0061017582424154e-9
          6.352908054255442e-10 5.249356764569407e-10 9.431398038096364e-10 6.846352804185475e-10 6.435253823319194e-11 6.277637761553951e-11
          4.612910041702499e-11 4.6756909678286436e-11 6.389276337162416e-11 5.156105689821613e-11 1.6674376480987813e-10 1.2974800860290223e-10
          7.674082986385753e-11 3.3723365401396776e-10 2.7237408947381096e-10 3.9642854035062506e-10 3.234424640404435e-10 7.358846713882477e-10
          1.0409486459048461e-9 9.298606024017302e-10 7.237982419663853e-10 6.236871569892399e-10 5.549689612007983e-10 8.956834870007187e-10
          8.201712530010577e-10 3.102535107449006e-10 6.54995697791704e-10 6.21055070178851e-10 4.2582953927178114e-10 6.666959386178404e-10
          5.324564411059725e-10 2.2407578470234426e-10 2.1324817453894028e-10 4.882767013654546e-10 4.635544158829562e-10 1.5490677063126839e-10
          3.631164056932685e-10 3.442321914270124e-10 1.834713876625759e-10 3.962097137196157e-10 2.9303646314727934e-10 3.2296956221894754e-10
          5.185594056266871e-10 1.9674634947149915e-10 4.151189347960726e-10 1.4355006771506758e-10 3.0505991744064563e-10 1.0430753048552864e-10
          2.2416638615027605e-10 1.0304619952359688e-10 2.121742652262041e-10 1.5445143309030074e-10 5.071158440932993e-11 9.555440967457247e-11
          1.1668915975466807e-10 1.111107594023372e-10 2.673145300967074e-10 2.531713275778882e-10 9.560314101020072e-11 2.1494612972095798e-10
          7.453140586636887e-11 1.6374974687279319e-10 5.284586187153179e-11 1.1219824757603422e-10 3.568134628496271e-11 6.878023362898876e-11
          2.499829060785965e-11 4.877076791598366e-11 2.905985758920443e-11 4.979933146864831e-11 3.495767754092061e-11 1.7334376852464586e-11
          1.4265569919567327e-11 2.2028665423086505e-9 1.983209402059043e-9 1.974874264580428e-9 1.9665391271018132e-9 1.7468819868522056e-9
          3.8527197259452203e-10 4.39039198034845e-10 4.358108793324684e-10 4.2481165444680413e-10 7.2188491245139e-10 3.40892521901297e-10
          3.3797148015935815e-10 4.1622944554859417e-10 4.1210655733262125e-10 2.712101484790659e-10 3.7054285697918217e-10 3.655354989940861e-10
          3.2780875433957876e-10 3.9905914787188907e-10 3.507118229662635e-10 6.866164740488117e-10 6.760091301493172e-10 6.004840583932674e-10
          6.477498994108139e-10 3.5525874731849437e-10 4.0282507807709133e-10 3.7248446211460964e-10 6.469017206753533e-10 3.089253259152394e-10
          3.7587832710631036e-10 2.4367670597627675e-10 3.2710245623383384e-10 2.831813769493799e-10 3.447576343833328e-10 2.964046692179744e-10
          6.044290375353823e-10 5.347606389265046e-10 5.495909920748437e-10 1.0895084549660921e-9 1.0674510087622485e-9 1.0164758992828503e-9
          1.5924056369687922e-9 1.043175965532972e-9 1.025026429128813e-9 9.582746710127836e-10 9.445378135142641e-10 9.786877221684718e-10
          9.043181336136613e-10 1.5468730319154733e-9 1.5276208011044172e-9 1.416773468154832e-9 1.4702452576341379e-9 9.442893740759626e-10
          8.566250281462967e-10 1.4309960294462152e-9 9.09784328658955e-10 8.40824406622354e-10 8.237453945152858e-10 7.589392681819907e-10
          1.3688824036306066e-9 1.2627725708766277e-9 1.2355354374603928e-9 2.4129030055544934e-10 2.378065380729917e-10 3.29481913435574e-10
          3.2468242988861814e-10 2.1112918212226622e-10 2.9482035856665494e-10 2.904217124216296e-10 2.276630413076178e-10 3.106898784299692e-10
          2.775772836808074e-10 5.529504190361195e-10 5.448336233522946e-10 4.948617550804338e-10 5.21147994649045e-10 1.8960469733711445e-10
          1.8675807135942607e-10 2.630873583063681e-10 2.590881300543498e-10 1.6428435891533785e-10 2.335616793120247e-10 2.299516060619007e-10
          1.784086338535797e-10 2.474117338066124e-10 2.1942053262008274e-10 4.551436817526273e-10 4.4817092234636706e-10 4.037903222512478e-10
          4.278470626096724e-10 2.1182910232595935e-10 2.887185581824852e-10 1.8735418555759409e-10 2.574103105468428e-10 1.9132546199311215e-10
          2.604064702347422e-10 2.315117208057954e-10 4.83807730329475e-10 4.38245388524282e-10 4.3575257686734763e-10 1.65353949991697e-10
          2.2910065129085863e-10 1.4520745413073553e-10 2.0293232717577694e-10 1.4858858038767394e-10 2.0564191301948412e-10 1.8185322995698424e-10
          3.9587921914007247e-10 3.5580775411294435e-10 3.5489488961551686e-10 8.853313917957066e-10 8.724374695306127e-10 8.182435212395176e-10
          8.060441379371322e-10 8.347297580575322e-10 7.704178297843602e-10 1.3491000373374506e-9 1.329298191958907e-9 1.2473197364017816e-9
          1.2716072997754909e-9 7.536248623508424e-10 7.421443534090308e-10 6.904174357244624e-10 6.796684872870531e-10 7.086379794566231e-10
          6.483201629414475e-10 1.1840500684640689e-9 1.1661746776972171e-9 1.0848821195214386e-9 1.114021352690828e-9 7.7507979075785e-10
          7.141792970983031e-10 6.980266096262315e-10 6.416812793667586e-10 1.180807233269722e-9 1.1058217027165376e-9 1.0638696566918468e-9
          6.558122900333872e-10 5.98968247519785e-10 5.87848778745278e-10 5.356162310456481e-10 1.0317629070877342e-9 9.57511553216064e-10
          9.257026764381017e-10 2.9300944863587467e-10 3.351269716006524e-10 2.9228399872038823e-10 5.242706680361454e-10 2.523844890863423e-10
          3.075354736738775e-10 1.9526266721556205e-10 2.6089204939699826e-10 2.180139880170646e-10 2.6611002780683964e-10 2.228316193388171e-10
          4.859067516716578e-10 4.2398100230372306e-10 4.168382213144199e-10 7.568784256176169e-10 6.478265691489396e-10 1.1331179729765906e-9
          7.252640063340969e-10 6.645732223110154e-10 6.189744018519955e-10 5.641206382848607e-10 1.0838291106242713e-9 9.97864447166441e-10
          9.20317691125239e-10 1.6782116570215073e-10 2.2793943887807167e-10 1.4745315204058117e-10 2.0197570273752372e-10 1.4276060913344586e-10
          1.9350698939938552e-10 1.708272462070487e-10 3.8056636583634676e-10 3.427752704887912e-10 3.2213229457819216e-10 1.2961355797863168e-10
          1.789746097374313e-10 1.1346775855371577e-10 1.5795046591724095e-10 1.0960616361101651e-10 1.509583414406321e-10 1.3291905282302244e-10
          3.0810865951248737e-10 2.7565433289189883e-10 2.5896191606266425e-10 1.0295030600937682e-10 1.4016195246892249e-10 2.359828363742412e-10
          9.00434763392437e-11 1.2348384114849945e-10 7.851914306519564e-11 1.0845622096728306e-10 2.1066742620348073e-10 1.8732368639883682e-10
          6.092507277966661e-10 5.583441084008314e-10 5.149155773220347e-10 4.700703277133744e-10 9.290959139808791e-10 8.658365070996815e-10
          7.854382500957346e-10 5.099449767356066e-10 4.6323271492045506e-10 4.2774358444115405e-10 3.8717990658339295e-10 8.036337902567201e-10
          7.416274925598827e-10 6.741208843071566e-10 3.826204889853269e-10 5.92979784205975e-10 3.4670283177258916e-10 3.125815775398247e-10
          5.456551570357714e-10 4.992336616214193e-10 2.178729813539131e-9 2.1638529789536076e-9 2.107549048544295e-9 2.413400154312698e-9
          2.3141130411593316e-9 2.3986360788351934e-9 2.2148259280059655e-9 2.1231994279486583e-9 2.0997530814174517e-9 2.0182336241584714e-9
          1.9866137203369848e-9 2.0249063885433796e-9 1.895031692954841e-9 2.4304601078303654e-9 2.3895540743121773e-9 2.3536333486503528e-9
          2.2793777676003373e-9 1.967359511311163e-9 1.7728352019901093e-9 2.0948511345527813e-9 1.883021730338824e-9 1.7544265228033808e-9
          1.6965090515715566e-9 1.5795683605725367e-9 2.1153990020703318e-9 2.095055389048288e-9 1.922457716709198e-9 1.9269672135364976e-9
          1.9423829638061943e-9 1.8695020144123413e-9 1.9011725827220312e-9 1.9577987140758914e-9 1.9437438390521675e-9 1.4405342727602967e-9
          1.570652886453057e-9 1.3645793785221533e-9 1.7007715001458172e-9 1.8581485880674521e-9 1.874515221617432e-9 1.8303623772820492e-9
          1.8367961178233445e-9 1.903886609684906e-9 1.8417057087750906e-9 1.2127151047047552e-9 1.298463087701453e-9 1.253974402461388e-9
          1.4905251329071362e-9 1.916394092175121e-9 1.8416577946508893e-9 1.7609795946114813e-9 1.8809470727572074e-9 1.8135370249284816e-9
          1.8020554805721677e-9 1.7245202947751985e-9 1.6129167053347128e-9 1.4429269174969833e-9 1.6357854526464357e-9 1.9178281000705585e-9
          1.8874793102834523e-9 1.8149174937602083e-9 1.7864772744237165e-9 1.8002776097532181e-9 1.7047558320281882e-9 2.2956325376338242e-9
          2.2620646150837085e-9 2.1535764571970003e-9 2.163042154225888e-9 1.711083247573807e-9 1.6847177443230517e-9 1.6078382404191478e-9
          1.5833637950922801e-9 1.6086606114711456e-9 1.512333909955697e-9 2.0677552368362813e-9 2.036124983920361e-9 1.9152564896592638e-9
          1.94485439822646e-9 1.6665832501021457e-9 1.5790450775254057e-9 1.4997015210000612e-9 1.4206711520352764e-9 2.0059086087849486e-9
          1.9068922880114027e-9 1.8074930396387804e-9 1.4906208179456451e-9 1.4010140850468542e-9 1.3402091753470513e-9 1.2578654627647746e-9
          1.8050149701282795e-9 1.703494873442086e-9 1.6319003260212387e-9 1.785261678748542e-9 1.7879178316935801e-9 1.7228750291505105e-9
          1.7223585591659141e-9 1.7832290521526771e-9 1.709235469302451e-9 1.1991498795305256e-9 1.2348346839297131e-9 1.2079582884160875e-9
          1.3185946581783272e-9 1.6463838375455777e-9 1.6429214113452834e-9 1.5577346361975903e-9 1.5520957402138408e-9 1.6227924999624389e-9
          1.5285328871645441e-9 1.1448559401101215e-9 1.170044038976116e-9 1.118017035530911e-9 1.2231513884861404e-9 1.7424722414628165e-9
          1.6592512754583824e-9 1.6454991266029043e-9 1.562097762684012e-9 1.3928314339163437e-9 1.3304989771958295e-9 1.4017114465388165e-9
          1.5688016189528402e-9 1.477031732573783e-9 1.4782679195913744e-9 1.3970713342557983e-9 1.2580026137415923e-9 1.181056968959475e-9
          1.250351208868987e-9 1.5586266314007564e-9 1.3222523679036552e-9 1.7145811938040291e-9 1.489507589483174e-9 1.3836380556638922e-9
          1.2661276920839394e-9 1.1769364983642751e-9 1.7047529358628866e-9 1.6603281465592236e-9 1.462980962187619e-9 1.7197157029530991e-9
          1.5044493152665576e-9 1.703746344874845e-9 1.667901394414956e-9 1.5786131027609032e-9 1.4708497731984681e-9 1.4056280526230158e-9
          1.5790548424082355e-9 1.4158230009912812e-9 1.425836052610865e-9 1.311558290578177e-9 1.240295465331035e-9 1.1121285346641797e-9
          1.0481764878832935e-9 1.5889346112632089e-9 1.514303643959355e-9 1.362750267254924e-9 1.1674514246653208e-9 1.0926688296769927e-9
          9.829831738578048e-10 9.163261237388363e-10 1.4375323494886171e-9 1.3583746996801927e-9 1.2285923890868148e-9 8.551141605150219e-10
          1.074325596075818e-9 7.980552078037474e-10 7.402604559082916e-10 1.0128310188615183e-9 9.49017674495618e-10 1.5046733051302026e-9
          1.4323534961431546e-9 1.3433979008013853e-9 1.2818132582714632e-9 1.3418285769032153e-9 1.272653550088853e-9 1.2444957713828234e-9
          1.3611677281666908e-9 1.290537179721366e-9 1.2188643961290909e-9 1.1535270935712112e-9 1.2069143221158185e-9 1.1439975716544445e-9
          1.1281424492130751e-9 1.1079390080542503e-9 1.062144480725598e-9 1.0491720947300524e-9 9.877796865293927e-10 1.0064772703689923e-9
          9.484866937926403e-10 1.4593335323436606e-10 1.4368271905622482e-10 2.0610901048202646e-10 2.0287650223070878e-10 1.2488474797897872e-10
          1.807094763843979e-10 1.7783812452728076e-10 1.370905927788254e-10 1.934532038041678e-10 1.6947248296179592e-10 3.673699041831958e-10
          3.615208014154381e-10 3.214648655169789e-10 3.445004111110796e-10 1.095952447513125e-10 1.0787234002994189e-10 1.573919747864814e-10
          1.5486129264779729e-10 1.028286325325121e-10 1.4749254395668967e-10 2.88559866420865e-10 2.8380611718874403e-10 2.6999710827688445e-10
          1.2681647370176593e-10 1.7871977077689606e-10 1.1008497382204959e-10 1.5640828800665733e-10 1.1366684411982284e-10 1.599203766582873e-10
          1.3976805467652476e-10 3.178172162251046e-10 2.8197455234330265e-10 2.837756626407616e-10 9.498273950249467e-11 1.359984846545477e-10
          8.496556600665098e-11 1.2138180857563034e-10 2.484205831829014e-10 2.21025102066566e-10 6.285013607492013e-10 6.184989400944442e-10
          5.681474907775566e-10 5.589051289316395e-10 5.893519078604788e-10 5.319972908104834e-10 1.019352622667875e-9 1.0033623922495897e-9
          9.218383865801846e-10 9.56680316653117e-10 5.097771819185692e-10 5.013048525180264e-10 4.766651585910139e-10 8.5488893472218e-10
          8.408083604081461e-10 7.997801802013724e-10 5.435416372940384e-10 4.897871221965543e-10 4.8488879243564e-10 4.359018966200072e-10
          8.83061115067885e-10 8.088035750892313e-10 7.883599513570173e-10 4.380939485948694e-10 3.890037746191927e-10 7.353223284628191e-10
          6.528913713754342e-10 9.883767041178874e-11 1.386514558011544e-10 8.559757517904595e-11 1.2098197440341593e-10 8.328439128299845e-11
          1.1644047414055318e-10 1.0141421805120678e-10 2.451603840005754e-10 2.1663060982056652e-10 2.0489884783484664e-10 7.369755550321297e-11
          1.0491108420601486e-10 6.192738470732072e-11 8.779617234522693e-11 1.901342720008747e-10 1.5814546287405582e-10 6.815280094750412e-11
          9.479671096293917e-11 5.883447376126394e-11 8.239608660640482e-11 5.403260894430012e-11 7.477372439177494e-11 6.485977543396511e-11
          1.6566549593581083e-10 1.456279934521859e-10 1.296155290169386e-10 5.052156692993226e-11 7.120498281848193e-11 3.994049487530238e-11
          5.5945926621196405e-11 4.797627220085936e-11 1.2720511977255748e-10 9.89946235137476e-11 4.181152006363617e-10 3.747897806342374e-10
          3.482707255954108e-10 3.111584713304088e-10 6.799212179277424e-10 6.189472047801299e-10 5.657907643222636e-10 3.3354480901956504e-10
          2.7605872925801657e-10 5.592685651993534e-10 4.6173869644271174e-10 2.801153488319054e-10 2.493821545052992e-10 2.175466084975333e-10
          1.92973789566154e-10 4.537967112517314e-10 4.0965264438122157e-10 3.5060676445788465e-10 2.2052053880883066e-10 1.7006961467455014e-10
          1.4889952412653892e-10 3.671724980206596e-10 2.8116491744710095e-10 1.5052887407924043e-9 1.4823538359173286e-9 1.402643536404764e-9