<?xml version="1.0"?>
<VTKFile type="UnstructuredGrid" version="0.1" byte_order="LittleEndian" header_type="UInt32" compressor="vtkZLibDataCompressor">
  <UnstructuredGrid>
    <Piece NumberOfPoints="1098" NumberOfCells="779">
      <PointData>
        <DataArray type="Int32" Name="libmesh_node_id" format="ascii" RangeMin="2322" RangeMax="9412">
          2322 2438 2626 2627 2628 2634
          2656 2657 2658 2659 2666 2995
          2996 2997 3000 3003 3065 3066
          3067 3068 3069 3070 3071 3072
          3073 3074 3075 3076 3077 3281
          3282 3284 3285 3305 3306 3531
          3532 3533 3536 3599 3600 3601
          3602 3603 3604 3605 3606 3607
          3608 4205 4206 4207 4208 4209
          4210 4211 4212 4213 4214 4215
          4216 4217 4218 4229 4230 4231
          4232 4233 4234 4235 4236 4237
          4238 4249 4250 4251 4252 4253
          4254 4255 4256 4257 4258 4266
          4267 4268 4269 4270 4271 4272
          4555 4556 4557 4558 4559 4560
          4561 4562 4563 4564 4565 4566
          4567 4568 4569 4570 4571 4572
          4573 4574 4575 4576 4577 4578
          4579 4580 4581 4582 4583 4584
          4585 4586 4587 4588 4589 4590
          4591 4592 4593 4594 4595 4596
          4597 4598 4599 4600 4601 4602
          4603 4604 4605 4606 4607 4608
          4609 4610 4611 4612 4613 4614
          4615 4616 4617 4618 4619 4620
          4621 4622 4623 4624 4625 4626
          4627 4628 4629 4630 4631 4632
          4633 4634 4635 5469 5470 5471
          5472 5473 5474 5475 5476 5477
          5478 5486 5487 5488 5489 5490
          5491 5492 5521 5522 5523 5524
          5525 5526 5527 5528 5529 5530
          5531 5532 5533 5534 5535 5536
          5537 5538 5539 5540 5541 5542
          5543 5544 5545 5546 5547 5548
          5549 5550 5551 5552 5553 5554
          7076 7077 7078 7079 7080 7081
          7082 7083 7084 7085 7086 7087
          7088 7089 7090 7091 7092 7093
          7094 7095 7096 7097 7098 7099
          7100 7101 7102 7103 7104 7105
          7106 7107 7108 7109 7110 7111
          7112 7113 7114 7115 7116 7117
          7118 7119 7120 7121 7122 7123
          7124 7125 7126 7127 7128 7129
          7130 7131 7132 7133 7134 7135
          7136 7137 7138 7139 7140 7141
          7142 7143 7144 7145 7146 7147
          7148 7149 7150 7151 7152 7153
          7154 7155 7156 7157 7226 7227
          7228 7229 7230 7231 7232 7233
          7234 7235 7236 7237 7238 7239
          7240 7241 7242 7243 7244 7245
          7246 7247 7248 7249 7250 7251
          7252 7253 7254 7255 7256 7257
          7258 7259 7260 7261 7262 7263
          7264 7265 7266 7267 7268 7269
          7270 7271 7272 7273 7274 7275
          7276 7277 7278 7279 7280 7281
          7282 7283 7284 7285 7286 7287
          7288 7289 7290 7291 7292 7293
          7362 7363 7364 7365 7366 7367
          7368 7369 7370 7371 7372 7373
          7374 7375 7376 7377 7378 7379
          7380 7381 7382 7383 7384 7385
          7386 7387 7388 7389 7390 7391
          7392 7393 7394 7395 7396 7397
          7398 7399 7400 7401 7402 7403
          7404 7405 7406 7407 7408 7409
          7410 7411 7412 7413 7414 7415
          7416 7417 7418 7419 7420 7421
          7422 7423 7424 7425 7426 7427
          7428 7429 7486 7487 7488 7489
          7490 7491 7492 7493 7494 7495
          7496 7497 7498 7499 7500 7501
          7502 7503 7504 7505 7506 7507
          7508 7509 7510 7511 7512 7513
          7514 7515 7516 7517 7518 7519
          7520 7521 7522 7523 7524 7525
          7526 7527 7528 7529 7530 7531
          7532 7533 7534 7535 7536 7537
          7538 7539 7540 7541 8901 8902
          8903 8904 8905 8906 8907 8908
          8909 8910 8911 8912 8913 8914
          8915 8916 8917 8918 8919 8920
          8921 8922 8923 8924 8925 8926
          8927 8928 8929 8930 8931 8932
          8933 8934 8935 8936 8937 8938
          8939 8940 8941 8942 8943 8944
          8945 8946 8947 8948 8949 8950
          8951 8952 8953 8954 8955 8956
          8957 8958 8959 8960 8961 8962
          8963 8964 8965 8966 8967 8968
          8969 8970 8971 8972 8973 8974
          8975 8976 8977 8978 8979 8980
          8981 8982 8983 8984 8985 8986
          8987 8988 8989 8990 8991 8992
          8993 8994 8995 8996 8997 8998
          8999 9000 9001 9002 9003 9004
          9005 9006 9007 9008 9009 9010
          9011 9012 9013 9014 9015 9016
          9017 9018 9019 9020 9021 9022
          9023 9024 9025 9026 9027 9028
          9029 9030 9031 9032 9033 9034
          9035 9036 9037 9038 9039 9040
          9041 9042 9043 9044 9045 9046
          9047 9048 9049 9050 9051 9052
          9053 9054 9055 9056 9057 9058
          9059 9060 9061 9062 9063 9064
          9065 9066 9067 9068 9069 9070
          9071 9072 9073 9074 9075 9076
          9077 9078 9079 9080 9081 9082
          9083 9084 9085 9086 9087 9088
          9089 9090 9091 9092 9093 9094
          9095 9096 9097 9098 9099 9100
          9101 9102 9103 9104 9105 9106
          9107 9108 9109 9110 9111 9112
          9113 9114 9115 9116 9117 9118
          9119 9120 9121 9122 9123 9124
          9125 9126 9127 9128 9129 9130
          9131 9132 9133 9134 9135 9136
          9137 9138 9139 9140 9141 9142
          9143 9144 9145 9146 9147 9148
          9149 9150 9151 9152 9153 9154
          9155 9156 9157 9158 9159 9160
          9161 9162 9163 9164 9165 9166
          9167 9168 9169 9170 9171 9172
          9173 9174 9175 9176 9177 9178
          9179 9180 9181 9182 9183 9184
          9185 9186 9187 9188 9189 9190
          9191 9192 9193 9194 9195 9196
          9197 9198 9199 9200 9201 9202
          9203 9204 9205 9206 9207 9208
          9209 9210 9211 9212 9213 9214
          9215 9216 9217 9218 9219 9220
          9221 9222 9223 9224 9225 9226
          9227 9228 9229 9230 9231 9232
          9233 9234 9235 9236 9237 9238
          9239 9240 9241 9242 9243 9244
          9245 9246 9247 9248 9249 9250
          9251 9252 9253 9254 9255 9256
          9257 9258 9259 9260 9261 9262
          9263 9264 9265 9266 9267 9268
          9269 9270 9271 9272 9273 9274
          9275 9276 9277 9278 9279 9280
          9281 9282 9283 9284 9285 9286
          9287 9288 9289 9290 9291 9292
          9293 9294 9295 9296 9297 9298
          9299 9300 9301 9302 9303 9304
          9305 9306 9307 9308 9309 9310
          9311 9312 9313 9314 9315 9316
          9317 9318 9319 9320 9321 9322
          9323 9324 9325 9326 9327 9328
          9329 9330 9331 9332 9333 9334
          9335 9336 9337 9338 9339 9340
          9341 9342 9343 9344 9345 9346
          9347 9348 9349 9350 9351 9352
          9353 9355 9356 9357 9358 9359
          9360 9361 9362 9363 9364 9365
          9366 9367 9368 9369 9370 9371
          9372 9373 9374 9375 9376 9377
          9378 9379 9380 9381 9382 9383
          9384 9385 9386 9387 9388 9389
          9390 9391 9392 9393 9394 9395
          9396 9397 9398 9399 9400 9401
          9404 9405 9407 9408 9411 9412
          2622 2623 3527 3528 3529 3530
          3534 3535 5463 5464 5465 5468
          2991 4195 2992 5481 5482 5485
          4221 2998 7012 7013 7014 7017
          4196 7020 4197 7034 7035 7038
          7040 4200 7054 7055 7057 2993
          7060 4203 7070 7072 7074 2994
          7170 7171 7174 7176 4222 7190
          7191 7194 7196 4225 7206 7208
          7210 4227 7220 7222 7224 2999
          7306 7307 7309 4241 7312 4242
          7322 7324 7326 4244 7340 7341
          7343 3001 7346 4247 7356 7358
          7360 3002 7438 7440 7442 4260
          7452 7454 7456 4262 7466 7468
          7470 4264 7480 7482 7484 3004
        </DataArray>
        <DataArray type="Float64" Name="bounds" format="ascii" RangeMin="0" RangeMax="0">
          0 0 0 0 0 0
          0 0 0 0 0 0
          0 0 0 0 0 0
          0 0 0 0 0 0
          0 0 0 0 0 0
          0 0 0 0 0 0
          0 0 0 0 0 0
          0 0 0 0 0 0
          0 0 0 0 0 0
          0 0 0 0 0 0
          0 0 0 0 0 0
          0 0 0 0 0 0
          0 0 0 0 0 0
          0 0 0 0 0 0
          0 0 0 0 0 0
          0 0 0 0 0 0
          0 0 0 0 0 0
          0 0 0 0 0 0
          0 0 0 0 0 0
          0 0 0 0 0 0
          0 0 0 0 0 0
          0 0 0 0 0 0
          0 0 0 0 0 0
          0 0 0 0 0 0
          0 0 0 0 0 0
          0 0 0 0 0 0
          0 0 0 0 0 0
          0 0 0 0 0 0
          0 0 0 0 0 0
          0 0 0 0 0 0
          0 0 0 0 0 0
          0 0 0 0 0 0
          0 0 0 0 0 0
          0 0 0 0 0 0
          0 0 0 0 0 0
          0 0 0 0 0 0
          0 0 0 0 0 0
          0 0 0 0 0 0
          0 0 0 0 0 0
          0 0 0 0 0 0
          0 0 0 0 0 0
          0 0 0 0 0 0
          0 0 0 0 0 0
          0 0 0 0 0 0
          0 0 0 0 0 0
          0 0 0 0 0 0
          0 0 0 0 0 0
          0 0 0 0 0 0
          0 0 0 0 0 0
          0 0 0 0 0 0
          0 0 0 0 0 0
          0 0 0 0 0 0
          0 0 0 0 0 0
          0 0 0 0 0 0
          0 0 0 0 0 0
          0 0 0 0 0 0
          0 0 0 0 0 0
          0 0 0 0 0 0
          0 0 0 0 0 0
          0 0 0 0 0 0
          0 0 0 0 0 0
          0 0 0 0 0 0
          0 0 0 0 0 0
          0 0 0 0 0 0
          0 0 0 0 0 0
          0 0 0 0 0 0
          0 0 0 0 0 0
          0 0 0 0 0 0
          0 0 0 0 0 0
          0 0 0 0 0 0
          0 0 0 0 0 0
          0 0 0 0 0 0
          0 0 0 0 0 0
          0 0 0 0 0 0
          0 0 0 0 0 0
          0 0 0 0 0 0
          0 0 0 0 0 0
          0 0 0 0 0 0
          0 0 0 0 0 0
          0 0 0 0 0 0
          0 0 0 0 0 0
          0 0 0 0 0 0
          0 0 0 0 0 0
          0 0 0 0 0 0
          0 0 0 0 0 0
          0 0 0 0 0 0
          0 0 0 0 0 0
          0 0 0 0 0 0
          0 0 0 0 0 0
          0 0 0 0 0 0
          0 0 0 0 0 0
          0 0 0 0 0 0
          0 0 0 0 0 0
          0 0 0 0 0 0
          0 0 0 0 0 0
          0 0 0 0 0 0
          0 0 0 0 0 0
          0 0 0 0 0 0
          0 0 0 0 0 0
          0 0 0 0 0 0
          0 0 0 0 0 0
          0 0 0 0 0 0
          0 0 0 0 0 0
          0 0 0 0 0 0
          0 0 0 0 0 0
          0 0 0 0 0 0
          0 0 0 0 0 0
          0 0 0 0 0 0
          0 0 0 0 0 0
          0 0 0 0 0 0
          0 0 0 0 0 0
          0 0 0 0 0 0
          0 0 0 0 0 0
          0 0 0 0 0 0
          0 0 0 0 0 0
          0 0 0 0 0 0
          0 0 0 0 0 0
          0 0 0 0 0 0
          0 0 0 0 0 0
          0 0 0 0 0 0
          0 0 0 0 0 0
          0 0 0 0 0 0
          0 0 0 0 0 0
          0 0 0 0 0 0
          0 0 0 0 0 0
          0 0 0 0 0 0
          0 0 0 0 0 0
          0 0 0 0 0 0
          0 0 0 0 0 0
          0 0 0 0 0 0
          0 0 0 0 0 0
          0 0 0 0 0 0
          0 0 0 0 0 0
          0 0 0 0 0 0
          0 0 0 0 0 0
          0 0 0 0 0 0
          0 0 0 0 0 0
          0 0 0 0 0 0
          0 0 0 0 0 0
          0 0 0 0 0 0
          0 0 0 0 0 0
          0 0 0 0 0 0
          0 0 0 0 0 0
          0 0 0 0 0 0
          0 0 0 0 0 0
          0 0 0 0 0 0
          0 0 0 0 0 0
          0 0 0 0 0 0
          0 0 0 0 0 0
          0 0 0 0 0 0
          0 0 0 0 0 0
          0 0 0 0 0 0
          0 0 0 0 0 0
          0 0 0 0 0 0
          0 0 0 0 0 0
          0 0 0 0 0 0
          0 0 0 0 0 0
          0 0 0 0 0 0
          0 0 0 0 0 0
          0 0 0 0 0 0
          0 0 0 0 0 0
          0 0 0 0 0 0
          0 0 0 0 0 0
          0 0 0 0 0 0
          0 0 0 0 0 0
          0 0 0 0 0 0
          0 0 0 0 0 0
          0 0 0 0 0 0
          0 0 0 0 0 0
          0 0 0 0 0 0
          0 0 0 0 0 0
          0 0 0 0 0 0
          0 0 0 0 0 0
          0 0 0 0 0 0
          0 0 0 0 0 0
          0 0 0 0 0 0
          0 0 0 0 0 0
          0 0 0 0 0 0
          0 0 0 0 0 0
          0 0 0 0 0 0
          0 0 0 0 0 0
          0 0 0 0 0 0
          0 0 0 0 0 0
        </DataArray>
        <DataArray type="Float64" Name="gradient_error" format="ascii" RangeMin="1.14910400741793e-12" RangeMax="6.171508075232014e-10">
          2.5035813255990753e-10 1.1934472888820061e-11 7.870831782069196e-12 1.849268049745348e-11 1.5522705578503346e-11 1.0373694253844624e-10
          2.1950856066251597e-12 1.5662488752468248e-12 6.697949070096191e-12 5.6583411983445186e-12 5.196204664050383e-11 1.4547133531876772e-11
          1.232744854715794e-10 8.918555925224048e-11 3.401681039024654e-11 2.190013422631849e-10 6.8980047507700375e-12 5.362752924476733e-12
          5.207245851512156e-11 3.745753956302171e-11 8.923737821626544e-12 1.9555195394566464e-11 1.399213013411799e-11 1.29415992204762e-11
          1.4038338915445449e-11 5.18629088011008e-12 1.2273773402456194e-10 1.0261420219197158e-10 4.1987912999269676e-11 2.244714370492117e-11
          1.9010159563051286e-11 6.614914339693755e-12 5.2428596683914165e-12 1.6631914300318046e-12 1.298952105483754e-12 9.876112236255916e-12
          9.186299260571525e-12 7.755051909781302e-12 7.405030656499404e-12 4.444750154065092e-12 3.779391875407107e-12 3.577684374549329e-12
          3.0081104965147404e-12 1.14910400741793e-12 3.4502618333449507e-12 3.0142785986825646e-12 2.0919736451099652e-12 5.580604261766129e-12
          3.070846723833208e-12 2.9097561917726086e-11 2.738966621964919e-11 4.578093028401698e-11 4.255884178933596e-11 1.740525283872901e-11
          3.0000737216623945e-11 2.7874680669445273e-11 2.2875176112923938e-11 3.420830571578767e-11 2.2364819433468417e-11 1.8139197968047692e-10
          1.674677293093174e-10 1.136849545589666e-10 1.3178504047566488e-10 1.682275943212504e-11 2.3816869984124253e-11 1.0542829754858332e-11
          1.5486672516056065e-11 1.4913342985867565e-11 1.7947096421332698e-11 1.542563647097392e-11 8.846328235451045e-11 5.960726044476783e-11
          5.078588815272263e-11 4.535982919599699e-10 4.2072174062097727e-10 3.217136357823147e-10 2.976366201571033e-10 3.3442721639322057e-10
          2.349477205514425e-10 3.377855780482357e-10 3.333009528298552e-10 2.4489350823091357e-10 3.0363814751216417e-10 2.2579270646625483e-10
          1.5711593670583286e-10 1.2847665666874633e-10 8.849739220924199e-11 2.353569548376683e-10 1.665536282862838e-10 1.48980516812626e-10
          1.1464162498193487e-11 1.0802477002493577e-11 1.9154197656445047e-11 1.7786348230128712e-11 6.5033749778729994e-12 1.1905346943198257e-11
          1.1027038261238177e-11 8.992136313786466e-12 1.424109329050536e-11 8.805186438988775e-12 8.130606083946792e-11 7.492100465881874e-11
          4.7961558109425955e-11 5.863214114458279e-11 3.916700999892374e-12 5.689380450528515e-12 7.188608387915154e-12 8.357095576668188e-12
          8.0537070483069e-12 6.600401074414741e-12 8.023724775012972e-12 6.468252432750488e-12 8.44086129966227e-12 8.344329199259226e-12
          3.2394960728047744e-11 2.980851763099987e-11 1.798321484695114e-11 2.3230683977257665e-11 9.213577371899373e-12 1.2168959239508717e-11
          8.328486595721942e-12 1.007223734212044e-11 1.3315412686683585e-11 1.2356698983199775e-11 1.0317038705567746e-11 3.902738851105623e-11
          2.484004421752393e-11 2.2155816380015875e-11 6.476728999159864e-12 7.554184009485211e-12 6.700214728705414e-12 5.966249227678605e-12
          7.300939845102045e-12 6.317926779427905e-12 3.730973789781511e-12 1.5360037412172594e-11 9.23185998294314e-12 8.651276812572592e-12
          2.2028451006985516e-10 2.033632789799983e-10 1.4571941676664016e-10 1.3429109676578527e-10 1.5960327767154482e-10 1.0489936192250429e-10
          1.786210152907219e-10 1.7338780320489624e-10 1.183528470603493e-10 1.5252044976282751e-10 9.320048511685195e-11 8.577179606356731e-11
          5.768134411061151e-11 5.302441511249514e-11 6.674827426916963e-11 4.1138765262688165e-11 8.129632574369997e-11 7.794120295282945e-11
          4.9574110035554896e-11 6.673520483976877e-11 1.0589234190398796e-10 6.91553735855297e-11 5.914799436222148e-11 3.8360450169737764e-11
          1.1405557412934549e-10 7.561259393745435e-11 7.005110169128988e-11 4.377562942295529e-11 2.6866771669817773e-11 2.41437761670816e-11
          1.4747962973865443e-11 4.85530886698631e-11 3.02069188505937e-11 1.1019910874335796e-11 1.0454490928953384e-11 2.737408946994561e-11
          2.585245111659151e-11 6.565063866163325e-12 1.7335366528908236e-11 1.6362831432862685e-11 8.974814805977713e-12 2.182730321567106e-11
          1.382448708039049e-11 7.157958093727004e-12 1.6412764621435976e-11 4.730347871775006e-12 1.0314626370763705e-11 5.4713945254469105e-12
          1.0778338401416317e-11 7.572201369903929e-12 4.318860801360561e-12 4.076473945887529e-12 1.0734221421918356e-11 1.0138343202342777e-11
          2.570022601575135e-12 6.4827655026493546e-12 6.098836852641261e-12 3.5042947336767176e-12 8.533342191549819e-12 5.090392251222221e-12
          1.852576611428753e-12 1.7993622257957653e-12 3.752300772156039e-12 3.459978856885691e-12 1.576277028204104e-12 2.677621144046788e-12
          2.4168097592184254e-12 1.6119614268203205e-12 2.857596511113191e-12 1.974871312285451e-12 3.1283106509216937e-12 6.282431216364842e-12
          2.0483532148909285e-12 3.761438034271141e-12 3.082118924904449e-12 5.040643032397246e-12 3.0569997687310092e-12 1.4202705298079779e-12
          2.227079638581058e-12 1.2257905666540862e-12 1.631895543284491e-12 1.3627660461380922e-12 1.906623196551075e-12 1.4700468363881428e-12
          1.792765894811132e-11 1.763233130955891e-11 2.7466166942668086e-11 2.6996147362558264e-11 1.42273354056165e-11 2.2275968700403266e-11
          2.1893285378324095e-11 1.6768610300213826e-11 2.563152705798691e-11 2.078337928344697e-11 5.600395168768761e-11 5.49948659018777e-11
          4.495278278871113e-11 5.207753030001799e-11 1.1602352467883113e-11 1.140883104789334e-11 1.7954869296948753e-11 1.7645051960542033e-11
          9.09976439337446e-12 1.438497170985018e-11 1.4136088580444574e-11 1.0847085702037407e-11 1.6747599283316298e-11 1.3414201709342654e-11
          3.7181095719097445e-11 3.650615648962909e-11 2.945436397555884e-11 3.455501434944399e-11 1.543019444100016e-11 2.3514288386056328e-11
          1.2449835368487322e-11 1.9062852224453438e-11 1.3727548665607834e-11 2.0840496866968063e-11 1.6886553084074317e-11 4.756036509150925e-11
          3.885282871569013e-11 4.189756222633758e-11 9.982876204343946e-12 1.535815051826225e-11 7.956437381166386e-12 1.2296438332128719e-11
          8.875626027170157e-12 1.3598733860636722e-11 1.088488226033935e-11 3.153468128196591e-11 2.542942312015913e-11 2.7750281391584092e-11
          1.1219259882360491e-10 1.1007261352699035e-10 9.255091466237354e-11 9.079240577956744e-11 1.0395231098800705e-10 8.571692128669932e-11
          2.175244068501586e-10 2.1326130276515474e-10 1.7780635030534571e-10 2.009628202281655e-10 7.581506520676277e-11 7.436764623959079e-11
          6.16760663325995e-11 6.049374953337608e-11 7.01907601046797e-11 5.708224858917983e-11 1.5010384174300076e-10 1.4711447431685805e-10
          1.2080371288900265e-10 1.3849879953584998e-10 9.450671961547663e-11 7.788800900429374e-11 8.272454997019245e-11 6.813073627875145e-11
          1.8201251250384065e-10 1.515534699734983e-10 1.584385521516932e-10 6.375034064930291e-11 5.182248163691725e-11 5.572993403017513e-11
          4.52773058384179e-11 1.252480315203372e-10 1.027437833984809e-10 1.0880944693798387e-10 1.1812959231294435e-11 1.7852895066341157e-11
          9.506783582904612e-12 1.4448294682163983e-11 9.886568110687303e-12 1.4812002993261594e-11 1.1997008898999054e-11 3.561494207176114e-11
          2.905840562787183e-11 2.9220679012849166e-11 7.614980148917425e-12 1.1622621411129108e-11 6.1046710379214686e-12 9.298366002357452e-12
          6.409469320828989e-12 9.649563989401757e-12 7.7084359452279e-12 2.355408814692189e-11 1.8961365017193283e-11 1.928212556480383e-11
          8.169291616897368e-12 1.1883184090863331e-11 6.770395582333035e-12 9.610488228028718e-12 6.677045726493554e-12 9.172953093202575e-12
          7.94251343668612e-12 2.3139675495971195e-11 1.8795263452157588e-11 1.759104483892833e-11 5.574900866123046e-12 7.744559365418898e-12
          4.556277086124655e-12 6.203411165231034e-12 5.296461966599299e-12 6.794102947046265e-12 5.468596620653568e-12 1.5137131488596608e-11
          1.2110132065502802e-11 1.3150790241459249e-11 6.973604653243409e-11 5.738570377886743e-11 5.663949828741126e-11 4.655438169380898e-11
          1.3256289788896252e-10 1.1012446069994971e-10 1.066349029227675e-10 4.69075345809988e-11 3.8093900562475724e-11 3.8018461090959215e-11
          3.086153956502451e-11 9.082646062179199e-11 7.437586917816038e-11 7.287085141326516e-11 4.4417802127412715e-11 3.6511962805645134e-11
          3.3610804609153846e-11 2.7639297526822387e-11 8.25029108520374e-11 6.833438753467178e-11 6.142712357695397e-11 2.9765958576822345e-11
          2.4105067732390335e-11 2.24641285272063e-11 1.8119429234886347e-11 5.6208888924478194e-11 4.59171532630298e-11 4.170650552088898e-11
          3.8273930924859863e-10 3.752048645467107e-10 3.229816849534275e-10 3.165414534447414e-10 3.534439365608126e-10 2.9795599757858426e-10
          5.314638845878572e-10 5.217833020490109e-10 4.4517498272321256e-10 4.936460558755758e-10 2.70272828264939e-10 2.648220111561869e-10
          2.2429643138589302e-10 2.1972698481650527e-10 2.49102905763534e-10 2.0655806174309005e-10 3.8370347329182794e-10 3.764512102343444e-10
          3.155347290214959e-10 3.554218253044188e-10 3.198426372957913e-10 2.693035310972402e-10 2.779360416247131e-10 2.3364839378822507e-10
          4.4967624792059226e-10 3.825983203961681e-10 3.939335675117904e-10 2.2490288683070052e-10 1.8630925039461928e-10 1.9484824075688752e-10
          1.6120578361731063e-10 3.227078489700544e-10 2.6985017822717124e-10 2.814986794082694e-10 4.849473639159202e-10 4.797894913388243e-10
          4.1908885051732557e-10 4.1433799958428283e-10 4.6377084308909117e-10 3.9970695055336203e-10 3.8677873266206523e-10 3.864149608085215e-10
          3.370347213336764e-10 3.8345581228406305e-10 3.5884555786400746e-10 3.5453885645457825e-10 3.0443762746059096e-10 3.005932713793771e-10
          3.413722257483591e-10 2.8891345079830746e-10 2.9219746728958053e-10 2.911946184922396e-10 2.4921481245391683e-10 2.870286177183153e-10
          4.3589639873404423e-10 3.7456917867834643e-10 3.960535034609919e-10 3.3910923348994616e-10 3.7359164258985247e-10 3.2318806846946733e-10
          3.528422714004809e-10 3.190034503384691e-10 2.692662850424559e-10 2.8782251467418444e-10 2.4217044089581566e-10 2.770656569244106e-10
          2.353857039394533e-10 2.590064051409226e-10 2.3183288885148504e-10 1.945288295742298e-10 1.8556988828153105e-10 1.5539124234756077e-10
          3.314228326177069e-10 2.806258580126185e-10 2.6742360712666566e-10 1.619531687776834e-10 1.3378792741760762e-10 1.291307366482125e-10
          1.064955373317763e-10 2.3564569942276605e-10 1.962461907820596e-10 1.891079531771185e-10 1.4253690133698304e-10 1.191002520471755e-10
          1.0509164537705609e-10 8.761954106370766e-11 2.067416362262536e-10 1.7404650517660903e-10 1.530537693889323e-10 9.877997814267504e-11
          8.132113828498459e-11 7.252432138616275e-11 5.959647378291701e-11 1.4537933267134697e-10 1.2049174718902258e-10 1.0703282692358022e-10
          3.459877525016188e-10 2.9507980353906435e-10 2.893665839564916e-10 2.457976771409074e-10 3.198048615156026e-10 2.7376103088486636e-10
          2.7633100080213893e-10 2.495265887612732e-10 2.0922191011208324e-10 2.0707013366628624e-10 1.7301454828775212e-10 2.3235235053029174e-10
          1.9553268719630012e-10 1.988064611585154e-10 2.3101749426585733e-10 1.9546289361973465e-10 1.7577511566342433e-10 1.4817010235398216e-10
          2.2677302687681094e-10 1.9224848549195813e-10 1.7648011614955088e-10 1.640631009412823e-10 1.3661457276794304e-10 1.2393968636463918e-10
          1.0287721013980761e-10 1.6168158701743053e-10 1.3489403777986297e-10 1.2479729426863577e-10 7.331702532100743e-12 7.211528091837054e-12
          1.1451217725812698e-11 1.125352762150172e-11 5.687563326592266e-12 9.060868098854635e-12 8.904998346806562e-12 6.8527635534484336e-12
          1.067570039745886e-11 8.445211277748989e-12 2.405051647316583e-11 2.3610979762259445e-11 1.8802460531958786e-11 2.2340251815060316e-11
          4.530729871278776e-12 4.46383225401587e-12 7.124942955813522e-12 7.001780428925493e-12 3.5110113522484707e-12 5.569415000570083e-12
          5.4731328081890046e-12 4.248643171664865e-12 6.6376300048800274e-12 5.185793442477391e-12 1.5153217217937854e-11 1.4872179499736237e-11
          1.1676789020292999e-11 1.4062562193443555e-11 6.287959046079835e-12 9.776527553349267e-12 4.947108155191672e-12 7.725051842687357e-12
          5.608065195121395e-12 8.658203723239847e-12 6.84824397601186e-12 2.0374368677878623e-11 1.6215809069545485e-11 1.7905358425529112e-11
          3.89197082486078e-12 6.068293934829285e-12 3.1154695371144664e-12 4.738139136623841e-12 3.4783739206390037e-12 5.3782995525044266e-12
          4.195293813318851e-12 1.281463687722567e-11 1.0039265459639915e-11 1.124716474188189e-11 4.9828786250904367e-11 4.8870410462163876e-11
          3.998137724126726e-11 3.921082491667351e-11 4.6105001448891906e-11 3.698667733382361e-11 1.00485874420042e-10 9.846104519203166e-11
          7.966063621889417e-11 9.262828151458493e-11 3.186078702003545e-11 3.124719903281628e-11 2.5216319908052894e-11 2.473589969611445e-11
          2.947447537411722e-11 2.3342844589526463e-11 6.530577888778802e-11 6.398020409334235e-11 5.1013775594397146e-11 6.016088523738026e-11
          4.184083181245404e-11 3.3555420015225814e-11 3.653283639206972e-11 2.9277411765805685e-11 8.366738951930927e-11 6.76403399336761e-11
          7.25735462281771e-11 2.673481523844717e-11 2.1175894433238805e-11 2.3312127978826256e-11 1.8454971799593857e-11 5.429212182988092e-11
          4.326768825528636e-11 4.7030942471149856e-11 2.757315236903259e-12 2.804834626261288e-12 4.328871893715028e-12 4.249078982065934e-12
          2.3159858567007972e-12 3.3511978135365765e-12 3.2853661857044417e-12 2.821590179167627e-12 4.007897197490031e-12 3.25423837336809e-12
          9.287298750492125e-12 9.089261203772224e-12 6.99604229243118e-12 8.548962719494042e-12 1.8520543750270923e-12 1.9773234598309764e-12
          2.5612913700397867e-12 2.5297979794654275e-12 1.8395197542590715e-12 2.2031151326214528e-12 2.1957133116534938e-12 2.1025925446348606e-12
          2.498304588891068e-12 2.1883114906855348e-12 5.4949456232903296e-12 5.332283733141429e-12 4.750705008699955e-12 5.758819113710304e-12
          2.654251611973057e-12 3.648464963346711e-12 2.5147141244585253e-12 3.152850801984103e-12 2.360857629197213e-12 3.2286057437156365e-12
          2.7885025548793704e-12 7.766902092054355e-12 6.984903014237805e-12 6.8092565768766055e-12 1.9819761605643434e-11 1.9461777852334685e-11
          1.5482061121829162e-11 1.521283185546116e-11 1.8407626899996e-11 1.4412308864424532e-11 4.1220767997946606e-11 4.0379019433686746e-11
          3.172823706275019e-11 3.795256919462577e-11 1.2055362078192837e-11 1.1823087241261271e-11 9.312345822844816e-12 9.111906785212014e-12
          1.1154792010433309e-11 8.552895332552646e-12 2.526546651635198e-11 2.474324243963463e-11 1.9149856512579706e-11 2.324004134850196e-11
          1.671937972829998e-11 1.3097775244311016e-11 1.456214849778514e-11 1.1395918660856673e-11 3.42236502791682e-11 2.6865361326468533e-11
          2.9610301455754566e-11 6.539590464725851e-12 1.0102507702912244e-11 4.9084432637485434e-12 7.715350154227891e-12 5.684024141807698e-12
          8.775074216426801e-12 6.693399726342211e-12 2.093677883934125e-11 1.6195874253627608e-11 1.8095153414884897e-11 4.942530093394164e-12
          7.392767696164471e-12 4.036730838434571e-12 5.834906244523852e-12 4.34128103891072e-12 6.0860565925465704e-12 5.1043126483764605e-12
          1.515194012595949e-11 1.1994677477360442e-11 1.2310835319785591e-11 3.2449504688879945e-12 4.580596419336453e-12 2.5832668223258e-12
          3.5782881605589587e-12 3.2167430396427742e-12 4.1445394956000306e-12 3.24753069858104e-12 9.422083921128124e-12 7.360069666924657e-12
          8.774748613631622e-12 3.8041198796645394e-12 4.880056195548904e-12 3.51800868818408e-12 4.2699871032950005e-12 3.5563521148893434e-12
          4.3146189808254734e-12 3.7913047847790335e-12 9.59137923111111e-12 8.752754449286937e-12 8.33389969628315e-12 3.075144103821876e-11
          2.465540751322107e-11 2.4948192846916113e-11 2.002804807648199e-11 6.046769325359638e-11 4.880718087311617e-11 4.8406792535074026e-11
          1.9606023082362634e-11 1.5485992407172925e-11 1.5890601774081466e-11 1.2506515126725547e-11 3.9116219291095997e-11 3.112754684309444e-11
          3.124657537203661e-11 1.9459433751503793e-11 1.5599312305884883e-11 1.4577345491878378e-11 1.165546691272243e-11 3.7241167127113795e-11
          2.998885243861613e-11 2.7549346208309225e-11 8.313565110339287e-12 1.2346840550226823e-11 6.4425207744435025e-12 9.694195120247172e-12
          6.224132267203804e-12 9.214835019181216e-12 7.230842191043079e-12 2.3982791648911946e-11 1.9044475807996024e-11 1.769739045373746e-11
          2.1393524143149295e-12 2.7636829255336295e-12 1.98174833048114e-12 2.400009877273684e-12 2.0746664514656102e-12 2.520575965766187e-12
          2.2050702443971767e-12 5.696479970493295e-12 5.11742913772424e-12 5.2994031928511716e-12 1.2189591262022445e-11 9.521166655869938e-12
          9.80817067464858e-12 7.642903234574346e-12 2.4587535513374585e-11 1.9277877531639248e-11 1.960386616217933e-11 4.76107620008922e-12
          7.331067460860978e-12 3.575025480905731e-12 5.596825543873225e-12 3.837217337498376e-12 5.890470675001785e-12 4.505857067589017e-12
          1.50078326300553e-11 1.1599561366768988e-11 1.1950536868324601e-11 5.0115578106569395e-12 7.58525660114428e-12 3.888896473942826e-12
          5.9032896457750815e-12 3.750797214323955e-12 5.653810394481657e-12 4.398171117033175e-12 1.501576615527408e-11 1.1756429923641475e-11