<?xml version="1.0"?>
<VTKFile type="UnstructuredGrid" version="0.1" byte_order="LittleEndian" header_type="UInt32" compressor="vtkZLibDataCompressor">
  <UnstructuredGrid>
    <Piece NumberOfPoints="288" NumberOfCells="159">
      <PointData>
        <DataArray type="Int32" Name="libmesh_node_id" format="ascii" RangeMin="222" RangeMax="1540">
          222 295 316 428 429 435
          439 440 442 443 447 448
          449 754 755 756 759 762
          785 799 800 802 805 815
          819 821 822 823 824 825
          826 827 828 829 830 831
          832 833 834 835 836 837
          838 840 841 842 843 844
          845 846 847 848 869 870
          871 872 873 874 875 876
          877 878 879 880 881 882
          883 884 885 886 887 888
          889 893 1323 1339 1340 1342
          1345 1349 1363 1364 1366 1369
          1375 1377 1379 1381 1382 1383
          1384 1385 1386 1387 1388 1389
          1390 1391 1392 1393 1394 1395
          1396 1397 1398 1399 1400 1401
          1402 1403 1404 1405 1406 1407
          1408 1409 1410 1411 1412 1413
          1414 1415 1416 1417 1418 1419
          1420 1421 1422 1423 1424 1425
          1426 1427 1428 1429 1430 1431
          1432 1433 1434 1435 1436 1437
          1438 1439 1440 1441 1442 1443
          1444 1445 1446 1447 1448 1449
          1450 1451 1452 1453 1454 1455
          1456 1457 1458 1459 1460 1461
          1462 1463 1464 1465 1466 1467
          1468 1469 1470 1471 1472 1473
          1474 1475 1476 1477 1478 1479
          1480 1481 1482 1483 1484 1485
          1486 1487 1488 1489 1490 1491
          1492 1493 1494 1495 1496 1497
          1498 1499 1500 1501 1502 1503
          1504 1505 1506 1507 1508 1509
          1510 1511 1512 1513 1514 1515
          1516 1517 1518 1519 1520 1521
          1522 1523 1524 1525 1526 1527
          1528 1529 1530 1531 1532 1533
          1534 1535 1536 1537 1538 1539
          1540 624 651 652 625 437
          438 427 308 839 441 849
          779 850 780 851 852 856
          857 854 783 858 432 859
          860 861 862 866 867 890
          891 817 445 892 894 895
          304 450 896 897 900 901
        </DataArray>
        <DataArray type="Float64" Name="bounds" format="ascii" RangeMin="0" RangeMax="0">
          0 0 0 0 0 0
          0 0 0 0 0 0
          0 0 0 0 0 0
          0 0 0 0 0 0
          0 0 0 0 0 0
          0 0 0 0 0 0
          0 0 0 0 0 0
          0 0 0 0 0 0
          0 0 0 0 0 0
          0 0 0 0 0 0
          0 0 0 0 0 0
          0 0 0 0 0 0
          0 0 0 0 0 0
          0 0 0 0 0 0
          0 0 0 0 0 0
          0 0 0 0 0 0
          0 0 0 0 0 0
          0 0 0 0 0 0
          0 0 0 0 0 0
          0 0 0 0 0 0
          0 0 0 0 0 0
          0 0 0 0 0 0
          0 0 0 0 0 0
          0 0 0 0 0 0
          0 0 0 0 0 0
          0 0 0 0 0 0
          0 0 0 0 0 0
          0 0 0 0 0 0
          0 0 0 0 0 0
          0 0 0 0 0 0
          0 0 0 0 0 0
          0 0 0 0 0 0
          0 0 0 0 0 0
          0 0 0 0 0 0
          0 0 0 0 0 0
          0 0 0 0 0 0
          0 0 0 0 0 0
          0 0 0 0 0 0
          0 0 0 0 0 0
          0 0 0 0 0 0
          0 0 0 0 0 0
          0 0 0 0 0 0
          0 0 0 0 0 0
          0 0 0 0 0 0
          0 0 0 0 0 0
          0 0 0 0 0 0
          0 0 0 0 0 0
          0 0 0 0 0 0
        </DataArray>
        <DataArray type="Float64" Name="gradient_error" format="ascii" RangeMin="6.411471690114153e-9" RangeMax="1.642820100403898e-7">
          6.411471690114153e-9 1.642820100403898e-7 1.3736525472435564e-8 6.943835117454042e-8 1.1364961420945218e-7 7.539907522414756e-8
          8.818647814813941e-8 9.743365620360612e-8 8.659501786306116e-8 1.1169216382582983e-7 1.1185864861993542e-8 1.0238022784684816e-7
          1.0973025542143745e-7 7.546732453288003e-8 1.0007470481642021e-7 9.546947966128525e-8 8.21734372609094e-8 9.621869005917577e-8
          8.966704630687278e-8 1.275216364927539e-8 4.555313728595624e-8 1.0137822781880414e-7 1.1070731643417146e-8 1.0880753450991174e-7
          1.1497077107991997e-7 8.029234280533137e-8 7.587012554140764e-8 1.088553702125127e-7 1.0274142513265374e-7 7.229838904586782e-8
          1.1311829919300586e-7 1.0567753212748421e-7 6.381936781415701e-8 8.57687422549698e-8 8.55778919480659e-8 7.990434740213446e-8
          9.159179925679806e-8 8.210671589642442e-8 1.0853304881152536e-7 6.909470640128504e-8 6.466676338640688e-8 1.1043884607749478e-7
          1.0199740236739752e-7 9.969928455851298e-8 9.109035077431671e-8 5.2854820741145055e-8 8.020440008621795e-8 7.003219197175808e-8
          9.1365660689388e-8 8.373241724124534e-8 1.0141851814036965e-7 9.644905291478385e-8 1.5761274728185714e-8 3.50239775903145e-8
          2.0328015641424543e-8 2.3209268690966676e-8 9.979413108309958e-8 9.402134998901344e-8 9.327563221411806e-9 1.3977189125937685e-8
          1.8744049633340036e-8 8.969448332230357e-8 2.5304732006099935e-8 2.803017986457304e-8 2.929531204574378e-8 5.378777657377011e-8
          9.918807838541862e-8 1.1889423941889063e-7 1.1960736636551975e-8 2.3355548134762564e-8 2.6546085322914723e-8 1.1043882387756681e-7
          1.2193760759252342e-7 1.3136345297232332e-7 1.7838309698220084e-8 1.709439407444233e-8 1.7268504246454594e-8 1.744261441846686e-8
          1.3710381865331773e-8 1.707252579830639e-8 7.918628647583393e-9 9.077992474317342e-9 1.2667509704627677e-8 7.433920012660243e-9
          1.649470607604245e-8 1.7891749043880838e-8 1.591688635377851e-8 2.021519599730369e-8 1.989046820557615e-8 2.2065823074371895e-8
          1.9565740413848606e-8 2.467185720604884e-8 2.4290581740408497e-8 2.6567388544324697e-8 2.3222556962816706e-8 2.04845161515164e-8
          2.134035923060064e-8 2.289111838471316e-8 2.0144910810336023e-8 2.9304071441000274e-8 2.86435738465094e-8 3.0234758142626294e-8
          2.6835502899128716e-8 3.188292819282007e-8 3.127737107435159e-8 3.156206248844997e-8 2.9097103307202037e-8 2.4067358998779404e-8
          2.486437345187642e-8 2.2446788451319894e-8 2.5298555778299778e-8 2.5417048190664083e-8 2.3074718898078586e-8 1.8528566622603168e-8
          1.8828233084483728e-8 2.0283085668201225e-8 2.061364289436743e-8 1.9127899546364298e-8 2.1439390506061938e-8 1.3911300172404607e-8
          1.487739770217807e-8 1.6604812462338993e-8 1.6466103534129623e-8 2.2387391696743226e-8 2.2665556351797767e-8 2.4650346302907535e-8
          2.4886742374327818e-8 2.3135017904805776e-8 2.5154053173429568e-8 1.7979732056794707e-8 1.8765560006406986e-8 2.115905239308736e-8
          2.0947749375419405e-8 2.1525510428140036e-8 2.0621249579161537e-8 1.87004052080272e-8 2.120995694320512e-8 1.9689490277568596e-8
          2.244526319437212e-8 2.4213629268624907e-8 2.1564211585984998e-8 2.324229063613879e-8 2.3039011521993552e-8 2.5156723801363643e-8
          2.3733912249167547e-8 9.497281691613708e-9 1.0550962228070003e-8 1.1337119262977842e-8 1.2486758823493553e-8 1.3773792959328287e-8
          1.542458435778448e-8 8.013900286320843e-9 9.113127015175177e-9 1.0925355436672094e-8 1.2193459956902131e-8 1.3117513451231083e-8
          1.4563863298241584e-8 1.4813443211815085e-8 1.6646325268964056e-8 1.7545805933379113e-8 2.000561862608125e-8 1.0378488976310364e-8
          1.2637137546856243e-8 1.4180641956084342e-8 1.624359196271426e-8 1.7936355183341023e-8 1.968738605414723e-8 1.9929767212551767e-8
          2.2162001776734765e-8 1.717230515865484e-8 1.884308904586862e-8 2.0170044147534934e-8 2.168636857089493e-8 2.3970706025254316e-8
          2.429133842028373e-8 2.6409382124459154e-8 2.0844881255946368e-8 2.3164104600317993e-8 2.409836470386634e-8 2.6943063317812968e-8
          2.7127223299380047e-8 2.9145615138188622e-8 2.923361861430099e-8 2.7154721151272776e-8 2.8943258952594123e-8 2.279477992633814e-8
          2.3666895860681433e-8 2.6156314926861038e-8 2.5667345723665227e-8 3.0968482272890925e-8 3.09292305779487e-8 3.206651837801548e-8
          3.188172984459118e-8 3.026933140644836e-8 3.1136833140646386e-8 2.7596360400380225e-8 2.836142336951489e-8 3.00556027325404e-8
          3.0007551911965135e-8 2.574831083604693e-8 2.6956898736256815e-8 2.449856265049543e-8 2.534890165773874e-8 2.7290009633091157e-8
          2.924338384189271e-8 2.7784339613876585e-8 2.7655570415381644e-8 2.7831722453697893e-8 2.5662456900873063e-8 2.564682810779037e-8
          3.0734719886340315e-8 3.194346699256995e-8 3.0580822287399924e-8 1.6397169996982206e-8 1.8637895907022273e-8 1.761365299872304e-8
          2.0367309039002422e-8 2.2517696121823702e-8 2.483309154641146e-8 1.178683533591379e-8 1.5552872844932378e-8 1.6654467310258452e-8
          2.1174640199733787e-8 1.87013168822496e-8 2.19257512867609e-8 2.014863248413899e-8 2.350024227222413e-8 2.6861052446661353e-8
          2.860718381807161e-8 1.2263949316700525e-8 1.7709745916037835e-8 1.9090676280099857e-8 2.5148560575087095e-8 2.6392644682738062e-8
          2.8735860732665905e-8 2.862851893889106e-8 3.092650345179068e-8 2.5634532772608262e-8 2.8034377802183594e-8 2.8238695499699918e-8
          3.081962972659016e-8 3.229476368287982e-8 3.306734025112982e-8 3.422701178992571e-8 3.018240473296319e-8 3.179752523527057e-8
          3.322323083112734e-8 1.5183653031676422e-7 1.1666359426118348e-7 1.0079913957904838e-7 1.3327087703266827e-7 1.3777977087566707e-7
          1.1509758658129637e-7 1.4088821787683996e-7 7.579775052180059e-8 4.2359388308494336e-8 6.145098245840135e-8 4.865939313506975e-8
          5.0717441416720704e-8 6.357934437679027e-8 6.370361804528138e-8 4.4495667378133414e-8 6.057210052996579e-8 9.550552891561714e-8
          9.73526772353522e-8 5.224868429643567e-8 5.3924616074894254e-8 6.698478685418768e-8 1.1009597125047753e-7 3.841239998799667e-8
          5.4462489807120174e-8 2.480136525186931e-8 4.626398130722943e-8 9.31974830432697e-8 8.326908181320344e-8 1.3108365762985535e-7
          7.517957722061973e-8 7.435736392335452e-8 1.2658066295962727e-7 8.279516050074252e-8 1.4411049447080442e-7 8.156667899673892e-8
          7.988975084088804e-8 1.386594309502932e-7 1.3140393880617003e-7 1.2137483196181407e-7 1.4692549115204433e-7 1.374326731246786e-7
        </DataArray>
        <DataArray type="Float64" Name="gradient_matprop_error" format="ascii" RangeMin="0" RangeMax="0">
          0 0 0 0 0 0
          0 0 0 0 0 0
          0 0 0 0 0 0
          0 0 0 0 0 0
          0 0 0 0 0 0
          0 0 0 0 0 0
          0 0 0 0 0 0
          0 0 0 0 0 0
          0 0 0 0 0 0
          0 0 0 0 0 0
          0 0 0 0 0 0
          0 0 0 0 0 0
          0 0 0 0 0 0
          0 0 0 0 0 0
          0 0 0 0 0 0
          0 0 0 0 0 0
          0 0 0 0 0 0
          0 0 0 0 0 0
          0 0 0 0 0 0
          0 0 0 0 0 0
          0 0 0 0 0 0
          0 0 0 0 0 0
          0 0 0 0 0 0
          0 0 0 0 0 0
          0 0 0 0 0 0
          0 0 0 0 0 0
          0 0 0 0 0 0
          0 0 0 0 0 0
          0 0 0 0 0 0
          0 0 0 0 0 0
          0 0 0 0 0 0
          0 0 0 0 0 0
          0 0 0 0 0 0
          0 0 0 0 0 0
          0 0 0 0 0 0
          0 0 0 0 0 0
          0 0 0 0 0 0
          0 0 0 0 0 0
          0 0 0 0 0 0
          0 0 0 0 0 0
          0 0 0 0 0 0
          0 0 0 0 0 0
          0 0 0 0 0 0
          0 0 0 0 0 0
          0 0 0 0 0 0
          0 0 0 0 0 0
          0 0 0 0 0 0
          0 0 0 0 0 0
        </DataArray>
        <DataArray type="Float64" Name="initial_marker" format="ascii" RangeMin="0" RangeMax="2">
          2 1 2 2 2 2
          2 2 2 2 2 2
          2 2 2 2 1.75 2
          2 2 2 2 2 2
          2 2 2 2 2 2
          2 2 2 2 2 2
          2 2 2 2 2 2
          2 2 2 2 2 2
          2 2 2 2 2 2
          2 2 2 2 2 2
          2 2 2 2 2 2
          2 2 2 2 2 2
          2 2 2 2 2 2
          2 2 2 2 2 2
          2 2 2 2 2 2
          2 2 2 2 2 2
          2 2 2 2 2 2
          2 2 2 2 2 2
          2 2 2 2 2 2
          2 2 2 2 2 2
          2 2 2 2 2 2
          2 2 2 2 2 2
          2 2 2 2 2 2
          2 2 2 2 2 2
          2 2 2 2 2 2
          2 2 2 2 2 2
          2 2 2 2 2 2
          2 2 2 2 2 2
          2 2 2 2 2 2
          2 2 2 2 2 2
          2 2 2 2 2 2
          2 2 2 2 2 2
          2 2 2 2 2 2
          2 2 2 2 2 2
          2 2 2 2 2 2
          2 2 2 2 2 2
          2 2 2 2 2 2
          2 2 2 2 2 2
          2 2 2 2 2 2
          2 2 2 2 2 2
          2 2 2 2 2 2
          2 0 0 0 0 1
          1 0.75 1 1.3333333333333333 1 1
          0.5 1.5 1.25 1 1.5 2
          2 1 1 1.3333333333333333 1 1
          1.5 0.6666666666666666 1.5 2 2 2
          1.5 1.25 1.25 1.6666666666666667 2 2
          1.5 2 2 2 2 2
        </DataArray>
        <DataArray type="Float64" Name="markers_norefine" format="ascii" RangeMin="0" RangeMax="2">
          2 0 2 0 0 0
          0 0 0 0 2 1
          1 0 0 0 0 0
          0 2 1.25 0 2 0
          0 0 0 0 0 0
          0 0 0 0 0 0
          0 0 0 0 0 0
          0 0 0 0 0 0
          0 0 0 0 2 1.75
          2 2 0 0.5 2 2
          2 1 2 2 2 1.75
          0.5 0 2 2 2 1
          0 0 0 1 0.75 0.5
          1.75 1 2 2 2 2
          1 0 1 0 0 0
          0 0 0 0 0 0
          0 0 0 0 0 0
          0 0 0 0 0 0
          0 0 0 0 0 1
          1 1 1 1 1 2
          2 2 2 1 1 1
          1 1 1 2 2 2
          2 0.5 0 1 1 0
          0.5 0.5 0 0 1.25 1.5
          0.5 2 2 2 2 2
          2 2 2 2 2 2
          2 2 2 2 2 2
          2 2 2 1.25 1.5 0.5
          1 1.5 2 1 1.75 2
          1.5 2 2 2 2 1
          1 1 1 1 1 2
          2 2 2 1 1 1
          1 1 1 2 2 2
          2 0.5 0.5 0 0 1.5
          1.5 1 0.5 0.5 0 0
          1.25 1 0.5 2 2 2
          2 2 2 2 2 2
          2 2 2 2 2 2
          2 2 2 2 2 2
          2 2 2 2 2 2
          1.75 1.5 1.5 1 2 2
          2 0 0 0 0 0
          0 0 0 0 0 0
          0 0 0 0 0 0
          0 0 0 0 0 0
          0 0 0 0 0 0
          0 0 0 0 0 0
          0 0 0 0 0 0
        </DataArray>
        <DataArray type="Float64" Name="markers_mustrefine" format="ascii" RangeMin="0" RangeMax="2">
          2 1 2 2 2 2
          2 2 2 2 2 2
          2 2 2 2 1.75 2
          2 2 2 2 2 2
          2 2 2 2 2 2
          2 2 2 2 2 2
          2 2 2 2 2 2
          2 2 2 2 2 2
          2 2 2 2 2 2
          2 2 2 2 2 2
          2 2 2 2 2 2
          2 2 2 2 2 2
          2 2 2 2 2 2
          2 2 2 2 2 2
          2 2 2 2 2 2
          2 2 2 2 2 2
          2 2 2 2 2 2
          2 2 2 2 2 2
          2 2 2 2 2 2
          2 2 2 2 2 2
          2 2 2 2 2 2
          2 2 2 2 2 2
          2 2 2 2 2 2
          2 2 2 2 2 2
          2 2 2 2 2 2
          2 2 2 2 2 2
          2 2 2 2 2 2
          2 2 2 2 2 2
          2 2 2 2 2 2
          2 2 2 2 2 2
          2 2 2 2 2 2
          2 2 2 2 2 2
          2 2 2 2 2 2
          2 2 2 2 2 2
          2 2 2 2 2 2
          2 2 2 2 2 2
          2 2 2 2 2 2
          2 2 2 2 2 2
          2 2 2 2 2 2
          2 2 2 2 2 2
          2 2 2 2 2 2
          2 0 0 0 0 1
          1 0.75 1 1.3333333333333333 1 1
          0.5 1.5 1.25 1 1.5 2
          2 1 1 1.3333333333333333 1 1
          1.5 0.6666666666666666 1.5 2 2 2
          1.5 1.25 1.25 1.6666666666666667 2 2
          1.5 2 2 2 2 2
        </DataArray>
        <DataArray type="Float64" Name="gradient_marker" format="ascii" RangeMin="0" RangeMax="1">
          0 1 0 0.5 1 0.5
          0.5 0.75 0.5 0.875 0 0.5
          0.5 1 1 1 0.75 0.75
          1 0 0.25 0.75 0 1
          1 1 1 1 1 1
          1 1 0.5 0.75 0.75 0.5
          0.625 0.5 0.875 1 0.75 1
          0.875 0.75 0.625 0.25 0.625 0.5
          0.5 0.5 0.625 0.75 0 0.125
          0 0 0.625 0.5 0 0
          0 0.5 0 0 0 0.125
          0.5 0.625 0 0 0 0.5
          1 1 0 0 0 0
          0 0 0 0 0 0
          0 0 0 0 0 0
          0 0 0 0 0 0
          0 0 0 0 0 0
          0 0 0 0 0 0
          0 0 0 0 0 0
          0 0 0 0 0 0
          0 0 0 0 0 0
          0 0 0 0 0 0
          0 0 0 0 0 0
          0 0 0 0 0 0
          0 0 0 0 0 0
          0 0 0 0 0 0
          0 0 0 0 0 0
          0 0 0 0 0 0
          0 0 0 0 0 0
          0 0 0 0 0 0
          0 0 0 0 0 0
          0 0 0 0 0 0
          0 0 0 0 0 0
          0 0 0 0 0 0
          0 0 0 0 0 0
          0 0 0 0 0 0
          0 0 0 0 0 0
          0 0 0 0 0 0
          0 0 0 0 0 0
          0 0 0 0 0 0
          0 0 0 0 0 0
          0 0.75 0.5 0.5 0.625 1
          0.75 0.75 0.5 0.16666666666666666 0.25 0
          0 0.5 0.5 0 0.375 1
          0.875 0.5 0.5 0.6666666666666666 0.75 0
          0.25 0 0.25 0.75 0.75 1
          0.625 0.75 0.75 0.6666666666666666 1 0.75
          1 0.75 1 1 1 1
        </DataArray>
        <DataArray type="Float64" Name="gradient_matprop_marker" format="ascii" RangeMin="0" RangeMax="0">
          0 0 0 0 0 0
          0 0 0 0 0 0
          0 0 0 0 0 0
          0 0 0 0 0 0
          0 0 0 0 0 0
          0 0 0 0 0 0
          0 0 0 0 0 0
          0 0 0 0 0 0
          0 0 0 0 0 0
          0 0 0 0 0 0
          0 0 0 0 0 0
          0 0 0 0 0 0
          0 0 0 0 0 0
          0 0 0 0 0 0
          0 0 0 0 0 0
          0 0 0 0 0 0
          0 0 0 0 0 0
          0 0 0 0 0 0
          0 0 0 0 0 0
          0 0 0 0 0 0
          0 0 0 0 0 0
          0 0 0 0 0 0
          0 0 0 0 0 0
          0 0 0 0 0 0
          0 0 0 0 0 0
          0 0 0 0 0 0
          0 0 0 0 0 0
          0 0 0 0 0 0
          0 0 0 0 0 0
          0 0 0 0 0 0
          0 0 0 0 0 0
          0 0 0 0 0 0
          0 0 0 0 0 0
          0 0 0 0 0 0
          0 0 0 0 0 0
          0 0 0 0 0 0
          0 0 0 0 0 0
          0 0 0 0 0 0
          0 0 0 0 0 0
          0 0 0 0 0 0
          0 0 0 0 0 0
          0 0 0 0 0 0
          0 0 0 0 0 0
          0 0 0 0 0 0
          0 0 0 0 0 0
          0 0 0 0 0 0
          0 0 0 0 0 0
          0 0 0 0 0 0
        </DataArray>
        <DataArray type="Float64" Name="combo" format="ascii" RangeMin="0" RangeMax="2">
          2 1 2 0.5 1 0.5
          0.5 0.75 0.5 0.875 2 1.5
          1.5 1 1 1 0.75 0.75
          1 2 1.5 0.75 2 1
          1 1 1 1 1 1
          1 1 0.5 0.75 0.75 0.5
          0.625 0.5 0.875 1 0.75 1
          0.875 0.75 0.625 0.25 0.625 0.5
          0.5 0.5 0.625 0.75 2 1.875
          2 2 0.625 1 2 2
          2 1.5 2 2 2 1.875
          1 0.625 2 2 2 1.5
          1 1 0 1 0.75 0.5
          1.75 1 2 2 2 2
          1 0 1 0 0 0
          0 0 0 0 0 0
          0 0 0 0 0 0
          0 0 0 0 0 0
          0 0 0 0 0 1
          1 1 1 1 1 2
          2 2 2 1 1 1
          1 1 1 2 2 2
          2 0.5 0 1 1 0
          0.5 0.5 0 0 1.25 1.5
          0.5 2 2 2 2 2
          2 2 2 2 2 2
          2 2 2 2 2 2
          2 2 2 1.25 1.5 0.5
          1 1.5 2 1 1.75 2
          1.5 2 2 2 2 1
          1 1 1 1 1 2
          2 2 2 1 1 1
          1 1 1 2 2 2
          2 0.5 0.5 0 0 1.5
          1.5 1 0.5 0.5 0 0
          1.25 1 0.5 2 2 2
          2 2 2 2 2 2
          2 2 2 2 2 2
          2 2 2 2 2 2
          2 2 2 2 2 2
          1.75 1.5 1.5 1 2 2
          2 0.75 0.5 0.5 0.625 1
          0.75 0.75 0.5 0.16666666666666666 0.25 0
          0 0.5 0.5 0 0.375 1
          0.875 0.5 0.5 0.6666666666666666 0.75 0
          0.25 0 0.25 0.75 0.75 1
          0.625 0.75 0.75 0.6666666666666666 1 0.75
          1 0.75 1 1 1 1
        </DataArray>
        <DataArray type="Float64" Name="dHdT" format="ascii" RangeMin="26.792918589117857" RangeMax="76.84538730878012">
          50.40240368479768 31.454120389965908 46.256974462073565 38.383138526015045 37.989708450315334 45.13750186013374
          42.191427153291556 35.83172894578236 39.98518875558028 34.628610212726585 46.20806380719773 50.487415579155225
          45.62927273833765 33.7514439227637 35.65656508478098 35.28608332941306 34.123457778275025 38.5086707952477
          34.98194723374762 73.72289987960981 60.45347133066073 40.380148759372005 76.84538730878012 36.97255618997956
          37.85056086800272 33.60047680559519 33.0098183924259 35.19272612429253 34.75770857005246 31.975673422557648
          34.48230418994196 34.01033691476436 31.48001186635854 33.505087881272914 32.714950906024995 42.59903633515936
          39.32351756000263 39.41968207346593 37.16250438707405 31.20269285910101 30.70834833245623 33.48673634747333
          33.03936224420322 32.368424144970774 31.931739537962553 29.578001719352795 31.744488304465502 30.61319132016578
          41.23376883654595 38.72060321121714 37.170611091853424 35.225696371731345 59.960185014620144 61.48542583522628
          54.71035839631866 58.09707259469579 43.24021106505566 43.43362452136334 45.929255073733614 58.90573190146007
          52.034595571463385 50.96534937301381 52.93434624411899 55.4664170002791 52.764754766587465 52.90428992329786
          42.334548835444664 40.145799306049454 46.260204015398685 50.33454518095097 52.26541867019981 48.44404321554721
          37.223467423808046 38.83711655615653 38.62393977282266 51.93837969848691 49.529278846801915 47.12017799511692
          70.84159177034078 52.56023642626848 66.86001980592985 73.15823034324896 73.96740855069041 65.0678950665975
          57.46412682481687 46.449877428821004 62.36801722336526 45.333050014153045 42.61732757481272 45.87258046952409
          39.901605135472394 47.98272567456239 46.88067854934848 47.28808248328743 41.771685575166 37.17132794205885
          37.47109951390796 38.16542194191 37.177459301618484 47.78473213557798 46.91828846317878 46.12994645287715
          42.79258826025887 45.690087694097514 44.85269201306622 43.09278334763428 40.82839688500892 38.48037873318552
          38.02353081506598 37.427425736632884 37.522576492568184 37.398876023312496 37.403655547153434 56.579926285794414
          53.73427915844148 57.6021069194828 55.453079983847196 50.888632031088534 50.696381147361336 67.48544488909808
          68.08356976111953 62.79130527000104 67.71072837814422 56.556550421198814 55.25153284191536 55.73213305830918
          54.676996822168334 49.93041320197364 50.27473363168865 55.880030726635226 58.41866322886698 56.032426434680055
          60.10447842004964 42.31775231289514 39.15446728012947 56.284833584688116 54.75784690325793 46.80087130122553
          42.65455692888517 43.26340938442798 39.39480271645499 39.59921209150616 53.254690113874176 53.133975283317426
          47.257719118747815 56.40771715412181 61.160972774990405 49.52925424566858 53.37841938009874 67.91763889276763
          62.82425970037075 45.671347087483255 51.00603676981196 46.2078077183657 65.20701468167127 46.368892409592746
          49.60993760216729 46.07813641296156 48.06173567441806 58.68726502232896 55.236818618719234 46.10809853375029
          46.004935881082886 46.12452964052524 55.25471403333991 60.830241759200234 62.01254530454956 51.73943412872417
          55.6041557228865 65.37564993371235 65.62040859607795 56.67799695622283 60.329848228076216 58.05345463770006
          56.13614920623637 55.67860697383621 61.988330572266456 58.20035553571122 59.3690063062686 54.762014319601576
          53.672463639177636 53.24902542803224 52.401046902280804 49.87222873190785 48.63817370709019 53.8873818270621
          54.68685216447053 53.874639830608515 56.69803953602316 51.799602592599655 50.93127293237128 50.646357176694906
          49.30829813508393 47.03384850828293 46.43962939762802 52.0713097443438 53.627757256498825 54.131999840982125
          54.62005531944567 43.34225050201807 42.576824474622 39.522956498974146 39.430369911593004 52.545355909947006
          51.196474045269376 47.18095524972666 41.5362142147002 41.06782326021178 39.06767468497745 38.75723651448537
          49.52810168277643 49.39028239882659 45.000297495315365 46.141526560519765 47.564749458447736 46.16380174240922
          47.64085454817226 53.52629969300008 53.03093101690644 46.247585970540506 46.1824334031309 46.20457678681193
          50.60838951751066 46.248402492297636 48.22465031511672 47.75971268681829 49.4577783765018 53.60666259930591
          54.19110232971521 46.26330298700946 46.20363996891214 46.175369993572914 51.21251469127742 56.500650304272774
          55.18952159049208 54.9366735789211 53.43508850110656 56.11471105950217 55.116213224623415 57.12992391970431
          54.3684018946808 53.67297871177606 51.724376728685584 50.11959683030702 55.23045236064096 55.62891907386778
          54.179852289541884 27.50672038349762 26.980893596654067 26.792918589117857 27.248151491263837 30.178572250755053
          29.005763033965664 30.187243716660227 28.523390984226538 28.651537573136505 27.795302561694257 29.728971394953273
          30.323295172656827 31.460750833422956 32.09631906409784 29.07266649981738 30.705169720487618 34.401174281676106
          33.62773568464165 30.234016920112467 30.861324145690777 32.11506917340549 31.698768529223777 28.397209557817774
          29.833727580188587 27.350085847654626 28.877367785613117 32.626846024806 31.40718159845465 36.852308992963685
          32.947779165517616 33.631764207353164 30.24974678347554 32.979342408699104 38.786819557801905 33.49843197281645
          34.17717577209597 32.339396789151 35.81428166316259 34.19874612607384 37.64511687927256 35.60577127857209
        </DataArray>
        <DataArray type="Float64" Name="dk/dtemperature" format="ascii" RangeMin="0.006355000000000004" RangeMax="0.07477032986113036">
          0.008943874999999997 0.01089382215774759 0.006475249999999998 0.008031612067628821 0.007527799658032573 0.009021641311101867
          0.008336699509603696 0.00793951338587337 0.008476466111154865 0.008608238600248114 0.007147500000000003 0.04637403978904843
          0.02241650725170721 0.009382961028402453 0.00810105404012018 0.00813797532718623 0.008713135110149439 0.007965188165913453
          0.008193032779938488 0.04633974920390531 0.03306863969455283 0.00844964838221516 0.05000896658937262 0.0076238600385978616
          0.007860293653407366 0.009477812527762076 0.009805020949952038 0.008419580071995884 0.008481975979546695 0.010377290005805801
          0.008948697261576705 0.009007516987812051 0.010643861466582177 0.00912708089332239 0.009689293906122588 0.008104150396831312
          0.008081741879853395 0.008316276418698382 0.0076863941750955865 0.01085155932353498 0.011128069031315298 0.009518472370554455
          0.009532181663907667 0.00980592622063681 0.010102676331240817 0.011819088305527612 0.010283827545882045 0.01114775065872783
          0.008521709790684381 0.00851489455876814 0.008457201502112323 0.008156675244087034 0.01581066960079542 0.04036884870716608
          0.05153424571651104 0.01920679052782546 0.008343924723931258 0.008643239801702805 0.008060749999999981 0.026949749999999977
          0.008174375000000001 0.01877108310116642 0.04889255821651092 0.020384669184607476 0.009795134878573013 0.025820093297000996
          0.008640226036656741 0.008182840601201991 0.006445500000000006 0.007785000000000006 0.01687906249999999 0.03871382037548408
          0.007812848581122172 0.008107640762804635 0.008947438161752645 0.027727896551010607 0.01872912446970023 0.00973035238838985
          0.0468122287754939 0.01874356410390139 0.02754480393302185 0.04453575874492545 0.05317567782374126 0.023957870716510905
          0.02683227034650497 0.008839898602356466 0.034920976589108546 0.008892975127191812 0.008919577082152836 0.00888864178847817
          0.008946179037113863 0.008816147832665874 0.008865631932287645 0.008860479374894746 0.00899983674306529 0.009209859321583386
          0.00921013401836836 0.009015638676723644 0.009335710582515557 0.008829985898114399 0.008876013114874806 0.008924752944929747
          0.009026824722879584 0.008934248256350452 0.009010914699803484 0.00911928051806815 0.008975234639953325 0.008691678980164848
          0.008452407298315888 0.00825174884620574 0.007858135868213822 0.007373946461831612 0.006853383599777508 0.03268385892486861
          0.028017960151262487 0.015927771189511882 0.025839196017596208 0.023352061377656375 0.026956010356665394 0.03274174207778363
          0.040546356968441534 0.029366656373357114 0.04652803500334562 0.03197368283649217 0.027451510385512558 0.05199683084117379
          0.031390143584833 0.017383740056980918 0.018576444961614667 0.03168135892015923 0.027234413169368733 0.03101934139738563
          0.02812008685560736 0.009259139730761319 0.009151490082887504 0.025864046527876106 0.02813004476512328 0.008845931763914268
          0.010493821833540267 0.017663038133583896 0.009149501487651647 0.008956642672430666 0.02126439499315609 0.01887651292132403
          0.009076083693675706 0.008761433216510931 0.02133168535825547 0.008336749999999993 0.01209984374999999 0.04528913778018336
          0.03586143659031819 0.008514125000000003 0.008687000000000004 0.008256124999999987 0.03966519491444775 0.007904749999999999
          0.008114218749999996 0.007521000000000009 0.0077632187500000045 0.01946860892015908 0.009214937500000023 0.007577999999999995
          0.0077969999999999914 0.0074075625 0.008464687499999988 0.03288556073021928 0.037212524765215686 0.009094783400071839
          0.01856511384979497 0.039907074932562445 0.03688419245271607 0.009343635036229408 0.034738734727298194 0.028963678199061395
          0.03886393911427822 0.047502918898122755 0.03872618911699638 0.04648476814591888 0.06853900323399277 0.05080923438207907
          0.03090878261426648 0.04960688779840837 0.029858129270006868 0.025573956834976274 0.019927862135046062 0.05019867893302187
          0.03040433855682908 0.02925750279754199 0.02660657572353652 0.031091573326112006 0.02446958915153139 0.010520405488917663
          0.017044439957611877 0.015543940168132825 0.018658195317338033 0.03032432419793675 0.02383044430162964 0.0164636746985778
          0.01902764247839474 0.024384873775046476 0.01906623199105916 0.008630164726594294 0.008386110453631562 0.026531682291757317
          0.02052042357368966 0.010460211317077882 0.010617203527563429 0.008274118292252915 0.007994131695811993 0.0077105994851039035