<?xml version="1.0"?>
<VTKFile type="UnstructuredGrid" version="0.1" byte_order="LittleEndian" header_type="UInt32" compressor="vtkZLibDataCompressor">
  <UnstructuredGrid>
    <Piece NumberOfPoints="319" NumberOfCells="158">
      <PointData>
        <DataArray type="Int32" Name="libmesh_node_id" format="ascii" RangeMin="261" RangeMax="2515">
          322 489 490 669 670 671
          672 1027 1028 1029 1032 1037
          1038 1039 1040 1041 1042 1043
          1044 1045 1053 1054 1059 1061
          1062 1065 1066 1105 1106 1109
          1273 1274 1277 1278 1279 1280
          1282 1283 1284 1285 1286 1287
          1288 1289 1290 1291 1292 2070
          2071 2072 2073 2074 2075 2076
          2077 2078 2079 2080 2081 2082
          2083 2094 2095 2096 2097 2098
          2099 2100 2101 2102 2103 2114
          2115 2116 2117 2118 2119 2131
          2132 2133 2134 2138 2139 2140
          2141 2142 2143 2144 2145 2146
          2147 2148 2149 2150 2151 2152
          2153 2154 2155 2156 2157 2162
          2163 2164 2165 2166 2169 2170
          2176 2177 2178 2179 2180 2181
          2182 2186 2187 2188 2190 2191
          2206 2207 2208 2209 2210 2211
          2212 2213 2214 2215 2226 2227
          2228 2229 2230 2231 2232 2233
          2234 2235 2236 2237 2238 2239
          2240 2241 2242 2243 2245 2403
          2405 2407 2455 2457 2459 580
          587 588 581 261 320 321
          310 663 664 665 673 674
          675 676 677 668 678 455
          496 312 493 323 681 682
          503 504 1046 1030 1051 1031
          1052 1055 1057 1056 1058 497
          1060 1063 1064 1067 1068 1070
          1069 498 1107 1108 1110 1111
          1112 1113 1114 1253 1254 1275
          1276 1255 1281 1258 1023 1024
          2060 2061 2062 2065 1025 2068
          1026 2086 2087 2090 2092 2106
          2107 2109 1033 2120 2121 2112
          491 2122 2123 1034 1035 2125
          2127 2135 2129 2136 2137 1036
          492 2158 2159 1047 2160 2161
          1048 2167 2168 2171 2172 2173
          494 2174 2175 1049 2183 2184
          2185 1050 2189 2192 2193 2194
          2195 495 2198 2199 2202 2204
          2244 2269 2275 2389 2383 2276
          2390 2391 2385 2392 2224 2404
          2397 2406 2408 2399 2409 2336
          2441 2337 2442 2443 2444 2343
          2448 2344 2449 2450 2451 2456
          2458 2460 2461 2496 2497 2498
          2499 2503 2504 2510 2511 2514
          2515
        </DataArray>
        <DataArray type="Float64" Name="bounds" format="ascii" RangeMin="0" RangeMax="0">
          0 0 0 0 0 0
          0 0 0 0 0 0
          0 0 0 0 0 0
          0 0 0 0 0 0
          0 0 0 0 0 0
          0 0 0 0 0 0
          0 0 0 0 0 0
          0 0 0 0 0 0
          0 0 0 0 0 0
          0 0 0 0 0 0
          0 0 0 0 0 0
          0 0 0 0 0 0
          0 0 0 0 0 0
          0 0 0 0 0 0
          0 0 0 0 0 0
          0 0 0 0 0 0
          0 0 0 0 0 0
          0 0 0 0 0 0
          0 0 0 0 0 0
          0 0 0 0 0 0
          0 0 0 0 0 0
          0 0 0 0 0 0
          0 0 0 0 0 0
          0 0 0 0 0 0
          0 0 0 0 0 0
          0 0 0 0 0 0
          0 0 0 0 0 0
          0 0 0 0 0 0
          0 0 0 0 0 0
          0 0 0 0 0 0
          0 0 0 0 0 0
          0 0 0 0 0 0
          0 0 0 0 0 0
          0 0 0 0 0 0
          0 0 0 0 0 0
          0 0 0 0 0 0
          0 0 0 0 0 0
          0 0 0 0 0 0
          0 0 0 0 0 0
          0 0 0 0 0 0
          0 0 0 0 0 0
          0 0 0 0 0 0
          0 0 0 0 0 0
          0 0 0 0 0 0
          0 0 0 0 0 0
          0 0 0 0 0 0
          0 0 0 0 0 0
          0 0 0 0 0 0
          0 0 0 0 0 0
          0 0 0 0 0 0
          0 0 0 0 0 0
          0 0 0 0 0 0
          0 0 0 0 0 0
          0
        </DataArray>
        <DataArray type="Float64" Name="gradient_error" format="ascii" RangeMin="1.0890147771293448e-11" RangeMax="5.144167464414867e-9">
          1.3366573669948829e-10 2.9127466987372534e-10 9.646977052667945e-10 8.981178529310035e-10 7.999825789177686e-10 5.598130410551993e-10
          1.0504584266474388e-9 3.328489391901887e-10 2.9252202310843115e-10 3.0526578857965007e-10 3.8360326592811496e-10 1.5081859565494382e-10
          2.073886362213103e-10 1.3047712542990713e-10 1.7790583831278141e-10 1.194059879163787e-10 8.328917185180386e-11 7.768963748245861e-11
          2.639697794606875e-10 1.917278544314897e-10 5.986608827929382e-10 5.669074397729547e-10 4.167193975597658e-10 2.2800230817588044e-10
          2.0723728067869568e-10 1.8932703959265949e-10 2.5781900515250694e-10 4.281360588481733e-11 4.0715565417975044e-11 2.2830424643512466e-11
          4.828954625252963e-10 4.863821400904206e-10 2.2982374603213505e-10 3.471211716556304e-10 3.370886042012651e-10 4.898688176555449e-10
          3.270560367468998e-10 9.521757133245258e-11 9.791022939082777e-11 1.334322834606181e-10 1.3127445738259635e-10 6.645976484048593e-11
          7.203262393056829e-11 8.310757552956018e-11 1.0060288744920295e-10 1.291166313045746e-10 9.418252712855206e-11 1.814706037778638e-10
          1.7757822733341243e-10 2.6363235073843227e-10 2.556928759155706e-10 1.0862938643012619e-10 1.565673316425754e-10 1.5035944749178504e-10
          1.6514557506764187e-10 2.3348218891134965e-10 1.509834551543968e-10 5.016731252932087e-10 4.845852438951155e-10 2.805055883338661e-10
          4.366912333755763e-10 1.5141862820277652e-10 2.01738625530241e-10 1.2407335870534896e-10 1.5770743020441961e-10 1.462319571592304e-10
          1.8426627433049157e-10 1.5076762162763826e-10 3.6410132040361513e-10 2.481777491073552e-10 3.1926757346353117e-10 9.505916195083322e-10
          9.124372852616445e-10 5.481012934674312e-10 5.262555553289448e-10 8.071101772144795e-10 4.659432798250309e-10 6.592012784266248e-10
          3.8111371316766843e-10 5.003994257082892e-10 2.902219553972071e-10 6.39329697816549e-11 6.54892056635046e-11 8.938748967184266e-11
          8.712607231566893e-11 5.142116935103886e-11 6.450710078578248e-11 6.597580502322447e-11 6.70454415453543e-11 8.486465495949521e-11
          6.744450926066645e-11 1.6525510957328002e-10 1.5781416123609362e-10 1.0068769230547054e-10 1.565321683591146e-10 3.038216960251414e-10
          2.911205922507737e-10 1.6069412734625507e-10 1.5419756753572383e-10 2.5688419227978163e-10 1.3671356264070268e-10 5.7775085632754355e-11
          5.581155655562822e-11 8.110808163057965e-11 7.804654325843628e-11 2.8563821178932584e-11 5.0470654447544866e-11 6.971555889015053e-11
          1.5231708077953446e-10 2.1046230443864757e-10 8.307692546634482e-11 1.129365015618458e-10 1.1961756020252192e-10 1.6179902740792674e-10
          8.789004965323765e-11 4.312237282171997e-11 5.839017209927081e-11 2.26869613517523e-11 3.509830843946063e-11 4.6171110333856934e-11
          2.6949463943448656e-10 3.560130773369302e-10 1.5944856758058128e-10 2.0859533606503512e-10 2.2582163158457923e-10 2.896924566965294e-10
          1.714974452113898e-10 5.721526830169099e-10 3.3118269566759876e-10 4.169518460749406e-10 9.127251933419545e-11 1.184445661464917e-10
          5.2390232954886085e-11 6.624460070188552e-11 7.909400054288655e-11 9.886679027126777e-11 5.6855987664774545e-11 1.854826871521121e-10
          1.0035685987571558e-10 1.3719575882928576e-10 2.7385049262673498e-11 3.441528745088183e-11 2.0880078331676423e-11 2.470273911989667e-11
          2.3724945873278032e-11 2.882258553858327e-11 2.1577582273066513e-11 5.1639117597191887e-11 4.17672377690853e-11 2.848966896130691e-10
          1.704616044169482e-10 2.2923398617353092e-10 9.197682111010835e-11 6.756271172661633e-11 7.196625816909772e-11 3.896869796997292e-9
          9.744766633589868e-10 8.540396641529835e-10 3.3295155890548948e-9 5.144167464414867e-9 8.804659566949116e-10 8.260214285046966e-10
          3.794848363627641e-9 3.013121233576559e-9 2.255947815970967e-9 2.3604979013434034e-9 2.5777760889294595e-10 1.892770348511556e-10
          2.8557924233697604e-10 6.400628004428658e-10 1.2434569351751866e-9 2.9815054925941082e-9 4.013026365547958e-10 1.8705298105517745e-9
          1.2226496194346e-9 3.0196568256931746e-9 2.1677345460233127e-10 4.658292291008655e-10 9.215962510245361e-11 9.62075718297779e-11
          6.902051807588608e-11 7.734982845301213e-11 7.297203645943227e-11 1.0234220276880996e-9 1.4857548445557218e-9 8.674254114693174e-10
          1.0517998759139399e-9 8.516328979066716e-10 6.339711262976149e-10 9.209003534106817e-10 7.59745258448478e-10 6.698704107958201e-10
          1.0643650445927383e-9 8.932547302151554e-11 8.561161301989028e-11 9.734523032361103e-11 1.6653915627417546e-10 2.509021303450176e-10
          8.996491781930771e-11 2.8514279377199636e-10 3.21563201580229e-11 3.0262007418251136e-11 2.7351788328803207e-11 2.6211238290264724e-11
          3.5945669349966776e-11 3.5202831562128206e-11 2.3946349116538683e-11 9.93521465649081e-10 1.8851286831984444e-9 8.417710710433184e-10
          7.827853398965456e-10 1.7411281330990073e-9 7.23799608749773e-10 1.6140633310504446e-9 7.486840243133396e-10 6.727249300582179e-10
          2.89432633934204e-10 4.3250236887995714e-10 4.1982888036956663e-10 3.8269901567052464e-10 8.278914816930497e-10 7.988450920019136e-10
          7.1745258282595e-10 2.3724845688627426e-10 3.2598313672687493e-10 2.9372363397187665e-10 5.973651189744245e-10 1.5748470229107298e-9
          1.5100891028942887e-9 1.3327769942497062e-9 2.8902110869069564e-9 1.7467624840409894e-9 1.6641819808724965e-9 2.7551933231914685e-9
          1.0001181808077764e-9 9.528818448683575e-10 1.4411034240203904e-9 2.3891211270021105e-9 8.255980580940018e-10 1.0886372836645567e-9
          8.293412107661868e-10 1.140677145087985e-9 1.8931407774187536e-9 6.546884920677003e-10 8.349531066434523e-10 1.3861003669735194e-9
          4.807727228191441e-10 5.445556841375464e-10 5.192086905557341e-10 2.832729415612576e-10 2.7038194563106967e-10 4.509524667442885e-10
          2.35707829444424e-10 4.03194209829548e-11 3.890230857916389e-11 3.50559427616068e-11 1.4144999349808164e-10 1.3524916427231063e-10
          6.817553594422337e-11 6.533336919647505e-11 1.18520749794314e-10 5.7614930010263e-11 3.5924055653947213e-10 1.8912848318266429e-10
          2.658016523250721e-10 1.413281887127599e-10 2.947802276442061e-11 2.6828869442909347e-11 9.621717764173964e-11 4.699367533356515e-11
          7.29760940833447e-11 4.363754308004171e-11 4.492119287387253e-10 5.947266715910257e-10 4.587330582100654e-10 9.548510017471074e-10
          2.988888644222539e-11 2.1589385220980113e-9 1.3004304224481275e-9 8.572646043321806e-10 1.4255474095244056e-9 7.450416224340763e-10
          4.934934495074296e-10 5.376318429794709e-10 8.941954519637219e-10 3.1242000432650666e-10 4.452072790688377e-10 3.3090901298609914e-10
          5.435495019958527e-10 1.9595333058778547e-10 2.545960179091511e-10 4.111298532989978e-10 1.5294175317485214e-10 4.075317195154408e-10
          2.7366197406624903e-10 2.136499299063152e-10 1.4503184090996412e-10 1.7501791460469168e-10 1.0879056904911891e-10 1.0791544005489866e-10
          7.351378732170309e-11 5.233997289690472e-11 3.6467868544861e-11 5.818381883091171e-11 2.967203978876184e-11 1.0813908965049528e-10
          7.806441559198075e-11 8.303649982902462e-11 6.088467898897789e-11 1.4907664507893593e-11 1.452719425578888e-11 1.9737256365969228e-11
          1.9120121446379907e-11 1.3422729470709666e-11 1.7391434189427945e-11 1.179444135451431e-11 1.477574871667134e-11 1.0890147771293448e-11
          1.3271615581277371e-11
        </DataArray>
        <DataArray type="Float64" Name="gradient_matprop_error" format="ascii" RangeMin="0" RangeMax="0">
          0 0 0 0 0 0
          0 0 0 0 0 0
          0 0 0 0 0 0
          0 0 0 0 0 0
          0 0 0 0 0 0
          0 0 0 0 0 0
          0 0 0 0 0 0
          0 0 0 0 0 0
          0 0 0 0 0 0
          0 0 0 0 0 0
          0 0 0 0 0 0
          0 0 0 0 0 0
          0 0 0 0 0 0
          0 0 0 0 0 0
          0 0 0 0 0 0
          0 0 0 0 0 0
          0 0 0 0 0 0
          0 0 0 0 0 0
          0 0 0 0 0 0
          0 0 0 0 0 0
          0 0 0 0 0 0
          0 0 0 0 0 0
          0 0 0 0 0 0
          0 0 0 0 0 0
          0 0 0 0 0 0
          0 0 0 0 0 0
          0 0 0 0 0 0
          0 0 0 0 0 0
          0 0 0 0 0 0
          0 0 0 0 0 0
          0 0 0 0 0 0
          0 0 0 0 0 0
          0 0 0 0 0 0
          0 0 0 0 0 0
          0 0 0 0 0 0
          0 0 0 0 0 0
          0 0 0 0 0 0
          0 0 0 0 0 0
          0 0 0 0 0 0
          0 0 0 0 0 0
          0 0 0 0 0 0
          0 0 0 0 0 0
          0 0 0 0 0 0
          0 0 0 0 0 0
          0 0 0 0 0 0
          0 0 0 0 0 0
          0 0 0 0 0 0
          0 0 0 0 0 0
          0 0 0 0 0 0
          0 0 0 0 0 0
          0 0 0 0 0 0
          0 0 0 0 0 0
          0 0 0 0 0 0
          0
        </DataArray>
        <DataArray type="Float64" Name="initial_marker" format="ascii" RangeMin="0" RangeMax="2">
          0 0 0 0 0 0
          0 0 2 1.5 0.75 0
          0 1 1 0 0.5 0
          0 0.25 0 0 1.5 0
          0 0 0 0 0 0
          0 0 0 0 0 0
          0 0 0 0 0 0
          0 0 0 0 0 0
          0 1 1 0 1 0.75
          0 1 0.6666666666666666 2 2 1.75
          2 0 0.5 0 0.5 0
          0 0 1.5 1.6666666666666667 1.3333333333333333 2
          2 2 2 2 2 2
          2 2 1.75 0 0 0.5
          0.25 0 0 0 0 0
          0 1.5 1.25 1.3333333333333333 1.3333333333333333 2
          2 2 2 2 2 2
          1.5 2 1.75 0.5 1 1.5
          2 2 1.5 1.75 1 1.5
          1.25 0.5 1.25 0 0 0.75
          1 1.5 0.5 1.25 0 1
          1 2 2 2 0 0.75
          0 0.5 0 0.5 0 1.75
          1.5 1.3333333333333333 0 0.25 0 0
          0 0 0 1 0.5 1
          1 0 0.5 0 0 0
          0 0 0 0 0 0
          0 0 0 0 0 0
          0 0 0 0 0 0
          0 0 0 0 0 0
          0 0 0 0 0 1.25
          0.25 0 0 0 1.75 0
          0 0 0 0 0.5 0
          0 0 0 0 0 0
          0 0 0 0 0 0
          0 0 0 0 0 0
          0 1 1 1 2 2
          2 0 0.75 0.5 1.75 2
          2 2 2 2 2 2
          2 2 2 2 2 2
          2 2 2 2 2 2
          2 2 2 2 2 2
          2 1.5 1.25 1 2 2
          2 2 2 2 2 2
          2 2 0.75 0.3333333333333333 2 1.75
          1.75 1 1.5 1.75 1.3333333333333333 2
          0.3333333333333333 2 2 2 2 2
          2 2 2 2 1 1.25
          1.5 1 0.5 1 0 2
          2 2 2 1.75 1.6666666666666667 2
          1.75 1.75 1 1.5 0.5 0.75
          0.5 0 0 0 0 0.5
          0.5 0 0.5 0 0.25 0
          0
        </DataArray>
        <DataArray type="Float64" Name="markers_norefine" format="ascii" RangeMin="0" RangeMax="0">
          0 0 0 0 0 0
          0 0 0 0 0 0
          0 0 0 0 0 0
          0 0 0 0 0 0
          0 0 0 0 0 0
          0 0 0 0 0 0
          0 0 0 0 0 0
          0 0 0 0 0 0
          0 0 0 0 0 0
          0 0 0 0 0 0
          0 0 0 0 0 0
          0 0 0 0 0 0
          0 0 0 0 0 0
          0 0 0 0 0 0
          0 0 0 0 0 0
          0 0 0 0 0 0
          0 0 0 0 0 0
          0 0 0 0 0 0
          0 0 0 0 0 0
          0 0 0 0 0 0
          0 0 0 0 0 0
          0 0 0 0 0 0
          0 0 0 0 0 0
          0 0 0 0 0 0
          0 0 0 0 0 0
          0 0 0 0 0 0
          0 0 0 0 0 0
          0 0 0 0 0 0
          0 0 0 0 0 0
          0 0 0 0 0 0
          0 0 0 0 0 0
          0 0 0 0 0 0
          0 0 0 0 0 0
          0 0 0 0 0 0
          0 0 0 0 0 0
          0 0 0 0 0 0
          0 0 0 0 0 0
          0 0 0 0 0 0
          0 0 0 0 0 0
          0 0 0 0 0 0
          0 0 0 0 0 0
          0 0 0 0 0 0
          0 0 0 0 0 0
          0 0 0 0 0 0
          0 0 0 0 0 0
          0 0 0 0 0 0
          0 0 0 0 0 0
          0 0 0 0 0 0
          0 0 0 0 0 0
          0 0 0 0 0 0
          0 0 0 0 0 0
          0 0 0 0 0 0
          0 0 0 0 0 0
          0
        </DataArray>
        <DataArray type="Float64" Name="markers_mustrefine" format="ascii" RangeMin="0" RangeMax="2">
          0 0 0 0 0 0
          0 0 2 1.5 0.75 0
          0 1 1 0 0.5 0
          0 0.25 0 0 1.5 0
          0 0 0 0 0 0
          0 0 0 0 0 0
          0 0 0 0 0 0
          0 0 0 0 0 0
          0 1 1 0 1 0.75
          0 1 0.6666666666666666 2 2 1.75
          2 0 0.5 0 0.5 0
          0 0 1.5 1.6666666666666667 1.3333333333333333 2
          2 2 2 2 2 2
          2 2 1.75 0 0 0.5
          0.25 0 0 0 0 0
          0 1.5 1.25 1.3333333333333333 1.3333333333333333 2
          2 2 2 2 2 2
          1.5 2 1.75 0.5 1 1.5
          2 2 1.5 1.75 1 1.5
          1.25 0.5 1.25 0 0 0.75
          1 1.5 0.5 1.25 0 1
          1 2 2 2 0 0.75
          0 0.5 0 0.5 0 1.75
          1.5 1.3333333333333333 0 0.25 0 0
          0 0 0 1 0.5 1
          1 0 0.5 0 0 0
          0 0 0 0 0 0
          0 0 0 0 0 0
          0 0 0 0 0 0
          0 0 0 0 0 0
          0 0 0 0 0 1.25
          0.25 0 0 0 1.75 0
          0 0 0 0 0.5 0
          0 0 0 0 0 0
          0 0 0 0 0 0
          0 0 0 0 0 0
          0 1 1 1 2 2
          2 0 0.75 0.5 1.75 2
          2 2 2 2 2 2
          2 2 2 2 2 2
          2 2 2 2 2 2
          2 2 2 2 2 2
          2 1.5 1.25 1 2 2
          2 2 2 2 2 2
          2 2 0.75 0.3333333333333333 2 1.75
          1.75 1 1.5 1.75 1.3333333333333333 2
          0.3333333333333333 2 2 2 2 2
          2 2 2 2 1 1.25
          1.5 1 0.5 1 0 2
          2 2 2 1.75 1.6666666666666667 2
          1.75 1.75 1 1.5 0.5 0.75
          0.5 0 0 0 0 0.5
          0.5 0 0.5 0 0.25 0
          0
        </DataArray>
        <DataArray type="Float64" Name="gradient_marker" format="ascii" RangeMin="1" RangeMax="1">
          1 1 1 1 1 1
          1 1 1 1 1 1
          1 1 1 1 1 1
          1 1 1 1 1 1
          1 1 1 1 1 1
          1 1 1 1 1 1
          1 1 1 1 1 1
          1 1 1 1 1 1
          1 1 1 1 1 1
          1 1 1 1 1 1
          1 1 1 1 1 1
          1 1 1 1 1 1
          1 1 1 1 1 1
          1 1 1 1 1 1
          1 1 1 1 1 1
          1 1 1 1 1 1
          1 1 1 1 1 1
          1 1 1 1 1 1
          1 1 1 1 1 1
          1 1 1 1 1 1
          1 1 1 1 1 1
          1 1 1 1 1 1
          1 1 1 1 1 1
          1 1 1 1 1 1
          1 1 1 1 1 1
          1 1 1 1 1 1
          1 1 1 1 1 1
          1 1 1 1 1 1
          1 1 1 1 1 1
          1 1 1 1 1 1
          1 1 1 1 1 1
          1 1 1 1 1 1
          1 1 1 1 1 1
          1 1 1 1 1 1
          1 1 1 1 1 1
          1 1 1 1 1 1
          1 1 1 1 1 1
          1 1 1 1 1 1
          1 1 1 1 1 1
          1 1 1 1 1 1
          1 1 1 1 1 1
          1 1 1 1 1 1
          1 1 1 1 1 1
          1 1 1 1 1 1
          1 1 1 1 1 1
          1 1 1 1 1 1
          1 1 1 1 1 1
          1 1 1 1 1 1
          1 1 1 1 1 1
          1 1 1 1 1 1
          1 1 1 1 1 1
          1 1 1 1 1 1
          1 1 1 1 1 1
          1
        </DataArray>
        <DataArray type="Float64" Name="gradient_matprop_marker" format="ascii" RangeMin="0" RangeMax="0">
          0 0 0 0 0 0
          0 0 0 0 0 0
          0 0 0 0 0 0
          0 0 0 0 0 0
          0 0 0 0 0 0
          0 0 0 0 0 0
          0 0 0 0 0 0
          0 0 0 0 0 0
          0 0 0 0 0 0
          0 0 0 0 0 0
          0 0 0 0 0 0
          0 0 0 0 0 0
          0 0 0 0 0 0
          0 0 0 0 0 0
          0 0 0 0 0 0
          0 0 0 0 0 0
          0 0 0 0 0 0
          0 0 0 0 0 0
          0 0 0 0 0 0
          0 0 0 0 0 0
          0 0 0 0 0 0
          0 0 0 0 0 0
          0 0 0 0 0 0
          0 0 0 0 0 0
          0 0 0 0 0 0
          0 0 0 0 0 0
          0 0 0 0 0 0
          0 0 0 0 0 0
          0 0 0 0 0 0
          0 0 0 0 0 0
          0 0 0 0 0 0
          0 0 0 0 0 0
          0 0 0 0 0 0
          0 0 0 0 0 0
          0 0 0 0 0 0
          0 0 0 0 0 0
          0 0 0 0 0 0
          0 0 0 0 0 0
          0 0 0 0 0 0
          0 0 0 0 0 0
          0 0 0 0 0 0
          0 0 0 0 0 0
          0 0 0 0 0 0
          0 0 0 0 0 0
          0 0 0 0 0 0
          0 0 0 0 0 0
          0 0 0 0 0 0
          0 0 0 0 0 0
          0 0 0 0 0 0
          0 0 0 0 0 0
          0 0 0 0 0 0
          0 0 0 0 0 0
          0 0 0 0 0 0
          0
        </DataArray>
        <DataArray type="Float64" Name="combo" format="ascii" RangeMin="1" RangeMax="1">
          1 1 1 1 1 1
          1 1 1 1 1 1
          1 1 1 1 1 1
          1 1 1 1 1 1
          1 1 1 1 1 1
          1 1 1 1 1 1
          1 1 1 1 1 1
          1 1 1 1 1 1
          1 1 1 1 1 1
          1 1 1 1 1 1
          1 1 1 1 1 1
          1 1 1 1 1 1
          1 1 1 1 1 1
          1 1 1 1 1 1
          1 1 1 1 1 1
          1 1 1 1 1 1
          1 1 1 1 1 1
          1 1 1 1 1 1
          1 1 1 1 1 1
          1 1 1 1 1 1
          1 1 1 1 1 1
          1 1 1 1 1 1
          1 1 1 1 1 1
          1 1 1 1 1 1
          1 1 1 1 1 1
          1 1 1 1 1 1
          1 1 1 1 1 1
          1 1 1 1 1 1
          1 1 1 1 1 1
          1 1 1 1 1 1
          1 1 1 1 1 1
          1 1 1 1 1 1
          1 1 1 1 1 1
          1 1 1 1 1 1
          1 1 1 1 1 1
          1 1 1 1 1 1
          1 1 1 1 1 1
          1 1 1 1 1 1
          1 1 1 1 1 1
          1 1 1 1 1 1
          1 1 1 1 1 1
          1 1 1 1 1 1
          1 1 1 1 1 1
          1 1 1 1 1 1
          1 1 1 1 1 1
          1 1 1 1 1 1
          1 1 1 1 1 1
          1 1 1 1 1 1
          1 1 1 1 1 1
          1 1 1 1 1 1
          1 1 1 1 1 1
          1 1 1 1 1 1
          1 1 1 1 1 1
          1
        </DataArray>
        <DataArray type="Float64" Name="dHdT" format="ascii" RangeMin="25.815120461123193" RangeMax="26.694946406292082">
          25.819786652575008 25.84841208284264 25.84566689017616 25.825684241269535 25.82489705840186 25.827762347686406
          25.829159104019027 25.847054422800497 25.906025306169674 25.893368919771007 25.871860786884746 25.826767497493066
          25.828146877681267 25.841213309562743 25.83962655799948 25.821053209014078 25.822906306365972 25.822403324136744
          25.829760796872336 25.835041759076013 25.849290126963755 25.856811942462624 25.887517471556265 25.829012878053867
          25.83102966005614 25.827609701501515 25.83048006024346 25.816727281199576 25.81665643631078 25.81547016974372
          25.84730683826751 25.84677744632787 25.83003834895152 25.835675634854027 25.83559369787781 25.84624805438823
          25.835511760901593 25.82134519615299 25.821608788966916 25.82315106649868 25.82338109736144 25.819035956102233
          25.819467263242473 25.819814941260542 25.821872381780842 25.82361112822421 25.820162619278612 25.882211672222702
          25.880763999699717 25.904977052919 25.90264383828174 25.854791177750315 25.8681130153429 25.86706500761295
          25.877191770223757 25.896509555841423 25.868419067951805 25.972624574269805 25.967345014744456 25.903157472445695
          25.953109769073038 25.873469466200902 25.889168126640456 25.859441408167505 25.870730199200203 25.871871719131022
          25.885627765242546 25.868237194311 25.934213345945317 25.8947151553956 25.923327420077683 26.10244265608833
          26.090727848410204 25.97862570294326 25.97200574242195 26.05925839270195 25.954340154815334 26.016790582843605
          25.930848703754723 25.97279031691134 25.90684325891868 25.838472558752578 25.838532814565106 25.845329791146067
          25.84518979299356 25.83241216867429 25.836785064509492 25.836905472302067 25.838593070377634 25.845049794841046
          25.837025880094643 25.865637097377245 25.864470983779334 25.846067184929012 25.86491277378809 25.904245428631693
          25.90090483992342 25.86204717929334 25.86043711516055 25.891869671870655 25.856040977895333 25.833206147650912
          25.83273749947383 25.839157531848585 25.838371693085477 25.82414224006166 25.83145456151953 25.836235183518237
          25.86399694757498 25.879604804367847 25.842208960176727 25.849948307451093 25.855967669822213 25.86691843538598
          25.84352663791504 25.829616257695058 25.833262369396046 25.822645221688834 25.827618984218716 25.830143818410566
          25.90989531754078 25.93429073174679 25.87274650968886 25.886162144874838 25.898353592775827 25.917078250686288
          25.87704065169174 25.994209540334353 25.91909103526559 25.9521197331208 25.848964323239336 25.856006367710123
          25.83442188639419 25.837912898606458 25.84585862098275 25.85121038085783 25.835414231522105 25.873287959843857
          25.846562952794333 25.861138749811087 25.825861119629668 25.827495445335295 25.82287297355376 25.82384211204291
          25.825076514469707 25.826343479927452 25.82327088142305 25.8316574873004 25.829491274492735 25.91420123861531
          25.8747531736801 25.895977951737056 25.850407859845404 25.841573547274617 25.84537191977911 25.821269681281652
          25.815744784853766 25.815605856279497 25.820402089294745 25.838697083662918 25.817392436690014 25.817037143896606
          25.8318551077694 25.846602087146316 25.86652955053195 25.85916586556594 25.81773137296512 25.81762299130989
          25.818239077422234 25.82326957927332 25.828113813920353 25.850980087027637 25.819129662309592 25.95678063923738
          25.835923543857515 25.901023823778125 25.820007168459572 25.81990363907415 25.815235650915817 25.81531100998605
          25.815120461123193 25.81523641123602 25.821199871217747 25.895970489201158 25.893550318039676 25.972140522590603
          25.910556729031615 25.867433673348238 25.851320431544888 25.877453593714606 26.0131157352684 25.855556866784845
          25.9119588097883 25.82035214937356 25.82070028633509 25.820836167327734 25.838293232072196 25.83271072599886
          25.822474951536165 25.821729653767058 25.81672074977412 25.81661478259929 25.81561150550638 25.815568644240756
          25.816611524383163 25.816697004801604 25.815574649595572 25.879559434613917 25.922967669085732 25.863843164459137
          25.861972473923306 25.916176749270655 25.860101783387474 25.91097172561092 25.902311197259113 25.89620182013671
          25.921739533967614 25.96306188560896 25.95911234270099 25.948523200867093 26.078362236428514 26.06964499973165
          26.045741934107838 25.9077227829685 25.935058935146536 25.928234268351893 26.012825904428027 26.297687362971935
          26.27814105105542 26.225221458303153 26.694946406292082 26.33740340815735 26.311820977077424 26.651624852124353
          26.11006274786506 26.095726222471626 26.24425793460383 26.537084493094184 26.05794581142881 26.152983946302374
          26.077327686548088 26.155836713852956 26.387419546420638 26.008580979663165 26.06792392411502 26.23871373532915
          25.959642048921832 25.97355353207125 25.96600677631683 25.896478621629125 25.892801940117845 25.94616180233373
          25.88303640821396 25.82694275863957 25.826579584687803 25.82559269091672 25.8552633915064 25.853542653002286
          25.834045838555127 25.833277312971866 25.848952068300246 25.83122529926151 25.920309880935008 25.87018994169113
          25.894672936345955 25.857369837161734 25.82422245538554 25.823788407336707 25.842837992673964 25.828471693933718
          25.836708731676836 25.825502669603082 25.967587291825428 26.009659720581123 25.972297097563295 26.11269241955049
          25.82480294322656 26.46543920490323 26.202089905057527 26.07467480470259 26.2498254576986 26.0343544771809
          25.963449020258963 25.98528181104041 26.097558888614827 25.9140185236092 25.97021067840667 25.927958233986736
          25.99921186004054 25.8822628856006 25.906093949489772 25.961769857325912 25.870085063022447 25.93382050851616
          25.896526867357714 25.87690625202419 25.85825034419115 25.870446538861877 25.84927109411296 25.846041447096276
          25.837373973945706 25.829959018113342 25.826227175193925 25.833719398390457 25.82471188693617 25.85404716537382
          25.843615723105597 25.847909115332136 25.839906996320046 25.819412343196312 25.819310352839796 25.820472726992616
          25.82031468052075 25.819041783514123 25.819895061000366 25.818717360295963 25.819379322987615 25.818559516046957
          25.819125158023375
        </DataArray>
        <DataArray type="Float64" Name="dk/dtemperature" format="ascii" RangeMin="0.014729359269945157" RangeMax="0.015804580349343192">
          0.015804580349343192 0.015804580349343192 0.015804580349343192 0.015804580349343192 0.015804580349343192 0.015804580349343192
          0.015804580349343192 0.015804580349343192 0.015804580349343192 0.015804580349343192 0.015804580349343192 0.015804580349343192
          0.015804580349343192 0.015804580349343192 0.015804580349343192 0.015804580349343192 0.015804580349343192 0.015804580349343192
          0.015804580349343192 0.015804580349343192 0.015804580349343192 0.015804580349343192 0.015804580349343192 0.015804580349343192
          0.015804580349343192 0.015804580349343192 0.015804580349343192 0.015804580349343192 0.015804580349343192 0.015804580349343192
          0.015804580349343192 0.015804580349343192 0.015804580349343192 0.015804580349343192 0.015804580349343192 0.015804580349343192
          0.015804580349343192 0.015804580349343192 0.015804580349343192 0.015804580349343192 0.015804580349343192 0.015804580349343192
          0.015804580349343192 0.015804580349343192 0.015804580349343192 0.015804580349343192 0.015804580349343192 0.015804580349343192
          0.015804580349343192 0.015804580349343192 0.015804580349343192 0.015804580349343192 0.015804580349343192 0.015804580349343192
          0.015804580349343192 0.015804580349343192 0.015804580349343192 0.015804580349343192 0.015804580349343192 0.015804580349343192
          0.015804580349343192 0.015804580349343192 0.015804580349343192 0.015804580349343192 0.015804580349343192 0.015804580349343192
          0.015804580349343192 0.015804580349343192 0.015804580349343192 0.015804580349343192 0.015804580349343192 0.01563751715920113
          0.01565840005796889 0.015762814551807676 0.015783697450575434 0.015700165855504405 0.015804580349343192 0.0157523731024238
          0.015804580349343192 0.015794138899959315 0.015804580349343192 0.015804580349343192 0.015804580349343192 0.015804580349343192