<?xml version="1.0"?>
<VTKFile type="UnstructuredGrid" version="0.1" byte_order="LittleEndian" header_type="UInt32" compressor="vtkZLibDataCompressor">
  <UnstructuredGrid>
    <Piece NumberOfPoints="940" NumberOfCells="585">
      <PointData>
        <DataArray type="Int32" Name="libmesh_node_id" format="ascii" RangeMin="939" RangeMax="8530">
          939 1046 1199 1217 1220 1222
          1230 1232 1233 1235 1236 1237
          1371 1375 1377 1379 1740 1741
          1744 1780 1781 1784 1786 1806
          1807 1811 1819 1820 1821 1825
          1826 1827 1828 1829 1830 1831
          1832 1833 1834 1835 1836 1837
          1838 1839 1840 1841 1842 1843
          1844 1845 2067 2070 2079 2080
          2082 2084 2086 2087 2089 2091
          2093 2149 2150 2151 2152 2153
          2154 2155 2156 2157 2158 2159
          2160 2162 2166 2167 2896 2897
          2900 2902 2916 2917 2920 2922
          2948 2988 2989 2992 2994 3049
          3058 3060 3082 3084 3086 3088
          3090 3091 3092 3094 3127 3128
          3129 3132 3137 3138 3139 3142
          3165 3166 3169 3172 3173 3176
          3177 3178 3179 3180 3181 3182
          3183 3184 3185 3186 3187 3188
          3189 3190 3191 3192 3193 3194
          3195 3196 3197 3198 3199 3200
          3201 3202 3203 3204 3205 3206
          3207 3208 3209 3210 3211 3212
          3213 3214 3215 3216 3217 3218
          3219 3220 3221 3222 3223 3224
          3225 3226 3227 3228 3229 3230
          3231 3232 3233 3234 3235 3236
          3237 3238 3239 3240 3241 3242
          3243 3244 3245 3246 3247 3248
          3249 3250 3251 3252 3253 3254
          3255 3256 3257 3258 3259 3260
          3261 3262 3263 3264 3265 3266
          3267 3268 3269 3270 3271 3272
          3273 3274 3275 3276 3277 3278
          3279 3280 3281 3282 3283 3284
          3285 3286 3287 3288 3435 3447
          3449 3496 3497 3500 3518 3519
          3520 3521 3522 3523 3524 3525
          3526 3527 3528 3529 3530 3531
          3532 3533 3534 3561 3562 3565
          3607 3608 3609 3610 3611 3612
          3613 3614 3615 3616 3617 3618
          3619 3620 3621 3622 3623 3624
          3625 3626 3627 3628 3629 3630
          3631 3632 3633 3634 3635 3636
          3637 3638 3639 3640 3641 3642
          3643 3644 3645 3646 3647 6354
          6370 6371 6374 6376 6388 6400
          6402 6404 6479 6480 6483 6485
          6499 6500 6503 6505 6697 6699
          7121 7169 7180 7181 7182 7183
          7186 7187 7190 7337 7349 7351
          7353 7365 7377 7379 7381 7385
          7386 7389 7397 7398 7399 7400
          7401 7402 7403 7406 7407 7410
          7413 7414 7417 7425 7426 7427
          7428 7429 7430 7431 7434 7435
          7438 7632 7633 7636 7641 7642
          7643 7646 7671 7672 7673 7676
          7686 7839 7840 7843 7846 7847
          7850 7867 7868 7871 7874 7875
          7878 7895 7896 7899 7902 7903
          7906 7923 7924 7927 7930 7931
          7934 7939 7940 7941 7944 7949
          7950 7951 7954 7955 7956 7957
          7958 7959 7960 7961 7962 7963
          7964 7965 7966 7967 7968 7969
          7970 7971 7972 7973 7974 7977
          7978 7981 7984 7985 7987 7988
          7989 7990 7991 7992 7993 7994
          7995 7996 7997 7998 7999 8000
          8001 8002 8011 8012 8020 8021
          8022 8024 8025 8026 8027 8028
          8029 8030 8031 8032 8033 8034
          8035 8036 8037 8038 8039 8040
          8041 8042 8043 8044 8045 8046
          8047 8048 8049 8050 8051 8052
          8053 8054 8055 8056 8057 8058
          8059 8060 8061 8062 8063 8064
          8065 8066 8067 8068 8069 8070
          8071 8072 8073 8074 8075 8076
          8077 8078 8079 8080 8081 8082
          8083 8084 8085 8086 8087 8088
          8089 8090 8091 8092 8093 8094
          8095 8096 8097 8098 8099 8100
          8101 8102 8103 8104 8105 8106
          8109 8110 8113 8115 8116 8117
          8119 8120 8121 8122 8123 8124
          8125 8126 8127 8128 8129 8130
          8131 8132 8133 8134 8137 8138
          8141 8143 8144 8145 8147 8148
          8149 8150 8151 8152 8153 8154
          8155 8156 8157 8158 8159 8160
          8161 8162 8163 8164 8165 8166
          8167 8168 8169 8170 8171 8172
          8173 8174 8175 8176 8177 8178
          8179 8180 8181 8182 8183 8184
          8185 8186 8187 8188 8189 8190
          8191 8192 8193 8194 8195 8196
          8197 8198 8199 8200 8201 8202
          8203 8204 8205 8206 8207 8208
          8209 8210 8211 8212 8213 8214
          8215 8216 8217 8218 8219 8220
          8221 8222 8223 8224 8225 8226
          8227 8228 8229 8230 8231 8232
          8233 8234 8235 8236 8237 8238
          8239 8240 8241 8242 8243 8244
          8245 8246 8247 8248 8249 8250
          8251 8252 8253 8254 8255 8256
          8257 8258 8259 8260 8261 8262
          8263 8264 8265 8266 8267 8268
          8269 8270 8271 8272 8273 8274
          8275 8276 8277 8278 8279 8280
          8281 8282 8283 8284 8285 8286
          8287 8288 8289 8290 8291 8292
          8293 8294 8295 8296 8297 8298
          8299 8300 8301 8302 8303 8304
          8305 8306 8307 8308 8309 8310
          8311 8312 8313 8314 8315 8316
          8317 8318 8319 8320 8321 8322
          8323 8324 8325 8326 8327 8328
          8329 8330 8331 8332 8333 8334
          8335 8336 8337 8338 8339 8340
          8341 8342 8343 8344 8345 8346
          8347 8348 8349 8350 8351 8352
          8353 8354 8355 8356 8357 8358
          8359 8360 8361 8362 8363 8364
          8365 8366 8367 8368 8369 8370
          8371 8372 8373 8374 8375 8376
          8377 8378 8379 8380 8381 8382
          8383 8384 8385 8386 8387 8388
          8389 8390 8391 8392 8393 8394
          8395 8396 8397 8398 8399 8400
          8401 8402 8403 8404 8405 8406
          8407 8408 8409 8410 8411 8412
          8413 8414 8415 8416 8417 8418
          8419 8420 8421 8422 8423 8424
          8425 8426 8427 8428 8429 8430
          8431 8432 8433 8434 8435 8436
          8437 8438 8439 8440 8441 8442
          8443 8444 8445 8446 8447 8448
          8449 8450 8451 8452 8453 8454
          8455 8456 8457 8458 8459 8460
          8461 8462 8463 8464 8465 8466
          8467 8468 8469 8470 8471 8472
          8473 8474 8475 8476 8477 8478
          8479 8480 8481 8482 8483 8484
          8485 8486 8487 8488 8489 8490
          8491 8492 8493 8494 8495 8496
          8497 8498 8499 8500 8501 8502
          8503 8504 8505 8506 8507 8508
          8509 8510 8511 8512 8513 8514
          8515 8516 8517 8518 8519 8520
          8521 8522 8523 8524 8525 8526
          8527 8528 8529 8530
        </DataArray>
        <DataArray type="Float64" Name="bounds" format="ascii" RangeMin="0" RangeMax="0">
          0 0 0 0 0 0
          0 0 0 0 0 0
          0 0 0 0 0 0
          0 0 0 0 0 0
          0 0 0 0 0 0
          0 0 0 0 0 0
          0 0 0 0 0 0
          0 0 0 0 0 0
          0 0 0 0 0 0
          0 0 0 0 0 0
          0 0 0 0 0 0
          0 0 0 0 0 0
          0 0 0 0 0 0
          0 0 0 0 0 0
          0 0 0 0 0 0
          0 0 0 0 0 0
          0 0 0 0 0 0
          0 0 0 0 0 0
          0 0 0 0 0 0
          0 0 0 0 0 0
          0 0 0 0 0 0
          0 0 0 0 0 0
          0 0 0 0 0 0
          0 0 0 0 0 0
          0 0 0 0 0 0
          0 0 0 0 0 0
          0 0 0 0 0 0
          0 0 0 0 0 0
          0 0 0 0 0 0
          0 0 0 0 0 0
          0 0 0 0 0 0
          0 0 0 0 0 0
          0 0 0 0 0 0
          0 0 0 0 0 0
          0 0 0 0 0 0
          0 0 0 0 0 0
          0 0 0 0 0 0
          0 0 0 0 0 0
          0 0 0 0 0 0
          0 0 0 0 0 0
          0 0 0 0 0 0
          0 0 0 0 0 0
          0 0 0 0 0 0
          0 0 0 0 0 0
          0 0 0 0 0 0
          0 0 0 0 0 0
          0 0 0 0 0 0
          0 0 0 0 0 0
          0 0 0 0 0 0
          0 0 0 0 0 0
          0 0 0 0 0 0
          0 0 0 0 0 0
          0 0 0 0 0 0
          0 0 0 0 0 0
          0 0 0 0 0 0
          0 0 0 0 0 0
          0 0 0 0 0 0
          0 0 0 0 0 0
          0 0 0 0 0 0
          0 0 0 0 0 0
          0 0 0 0 0 0
          0 0 0 0 0 0
          0 0 0 0 0 0
          0 0 0 0 0 0
          0 0 0 0 0 0
          0 0 0 0 0 0
          0 0 0 0 0 0
          0 0 0 0 0 0
          0 0 0 0 0 0
          0 0 0 0 0 0
          0 0 0 0 0 0
          0 0 0 0 0 0
          0 0 0 0 0 0
          0 0 0 0 0 0
          0 0 0 0 0 0
          0 0 0 0 0 0
          0 0 0 0 0 0
          0 0 0 0 0 0
          0 0 0 0 0 0
          0 0 0 0 0 0
          0 0 0 0 0 0
          0 0 0 0 0 0
          0 0 0 0 0 0
          0 0 0 0 0 0
          0 0 0 0 0 0
          0 0 0 0 0 0
          0 0 0 0 0 0
          0 0 0 0 0 0
          0 0 0 0 0 0
          0 0 0 0 0 0
          0 0 0 0 0 0
          0 0 0 0 0 0
          0 0 0 0 0 0
          0 0 0 0 0 0
          0 0 0 0 0 0
          0 0 0 0 0 0
          0 0 0 0 0 0
          0 0 0 0 0 0
          0 0 0 0 0 0
          0 0 0 0 0 0
          0 0 0 0 0 0
          0 0 0 0 0 0
          0 0 0 0 0 0
          0 0 0 0 0 0
          0 0 0 0 0 0
          0 0 0 0 0 0
          0 0 0 0 0 0
          0 0 0 0 0 0
          0 0 0 0 0 0
          0 0 0 0 0 0
          0 0 0 0 0 0
          0 0 0 0 0 0
          0 0 0 0 0 0
          0 0 0 0 0 0
          0 0 0 0 0 0
          0 0 0 0 0 0
          0 0 0 0 0 0
          0 0 0 0 0 0
          0 0 0 0 0 0
          0 0 0 0 0 0
          0 0 0 0 0 0
          0 0 0 0 0 0
          0 0 0 0 0 0
          0 0 0 0 0 0
          0 0 0 0 0 0
          0 0 0 0 0 0
          0 0 0 0 0 0
          0 0 0 0 0 0
          0 0 0 0 0 0
          0 0 0 0 0 0
          0 0 0 0 0 0
          0 0 0 0 0 0
          0 0 0 0 0 0
          0 0 0 0 0 0
          0 0 0 0 0 0
          0 0 0 0 0 0
          0 0 0 0 0 0
          0 0 0 0 0 0
          0 0 0 0 0 0
          0 0 0 0 0 0
          0 0 0 0 0 0
          0 0 0 0 0 0
          0 0 0 0 0 0
          0 0 0 0 0 0
          0 0 0 0 0 0
          0 0 0 0 0 0
          0 0 0 0 0 0
          0 0 0 0 0 0
          0 0 0 0 0 0
          0 0 0 0 0 0
          0 0 0 0 0 0
          0 0 0 0 0 0
          0 0 0 0 0 0
          0 0 0 0 0 0
          0 0 0 0 0 0
          0 0 0 0 0 0
          0 0 0 0
        </DataArray>
        <DataArray type="Float64" Name="gradient_error" format="ascii" RangeMin="2.2066580106501007e-13" RangeMax="4.807854998175788e-10">
          3.268417202450427e-10 1.5816939330308473e-12 2.665583517955041e-11 9.103520708553916e-11 1.5522135353508704e-10 1.3425598951706167e-10
          7.24344031475859e-13 6.392055504691538e-12 1.9482624946689614e-12 5.5236982502954774e-11 1.0339116570858924e-12 5.264987692349718e-12
          1.753486419698932e-11 3.060140904482358e-11 2.26865758690537e-11 3.967177706360619e-11 3.5091265262248144e-11 5.2876482470358814e-11
          2.418276133758493e-11 2.3955276047804762e-11 3.064902021715622e-11 4.767439222467936e-11 4.0276127294804594e-11 6.83822372797967e-11
          1.3843727135418801e-11 2.589374404161522e-10 2.558107825574721e-12 2.1450967839121966e-12 5.159580499151339e-13 8.751477834385548e-12
          1.5958125899881987e-11 1.3316851201400071e-11 5.351251312323729e-12 3.098068242324297e-12 1.464089676504159e-11 1.1441106358890096e-11
          6.768850677333706e-12 4.052262751756538e-11 8.266293569498819e-12 1.195146696249191e-11 2.13329136586413e-12 1.3083428681421078e-12
          8.567715359058789e-13 1.0927573826197755e-12 2.0284854041619622e-12 2.684573443162441e-12 1.4149548497390458e-12 1.8862611195757845e-12
          9.552618517201136e-13 3.4428162573016177e-12 2.3715407613805313e-11 2.2829307813156354e-11 1.8274530086323458e-12 7.662795232037379e-13
          1.2489556348776895e-11 4.236124442129555e-12 1.2401130391821042e-11 4.593512195223329e-12 1.838363642404068e-12 5.62766166112908e-13
          1.3377748531878954e-12 9.490349695435848e-12 1.1597017691617855e-11 6.2937488412026095e-12 6.2668725165339815e-12 8.901046260836267e-12
          1.5158241381444376e-11 4.82359400474541e-12 1.2547353809036598e-11 5.366502999804367e-12 1.8577513782269747e-11 1.8507931465650318e-12
          2.5517939303645185e-12 1.2442142398292296e-12 3.2527947141640045e-12 1.5471727770622337e-12 3.0068872313966064e-11 3.788771936077231e-11
          3.048112580875695e-11 1.2399448540244562e-10 3.5378167563492216e-11 2.7176936271192003e-11 1.8290910229348666e-11 2.0592460149566974e-11
          2.85988469372188e-11 2.637526393185684e-11 2.9232371382141905e-11 1.893957475843481e-11 2.4880263171272346e-11 1.2654914281936487e-10
          5.918841347018042e-11 3.180105248005929e-11 3.666087350186574e-10 1.8845867871491112e-10 4.807854998175788e-10 1.762458316315746e-10
          8.937882231734272e-11 3.940591544711202e-11 2.3577088500776916e-10 1.2420305714654303e-10 2.9413961043311227e-12 2.777040936534715e-12
          1.5799769378938427e-12 5.637846227772465e-12 9.508081713161663e-13 7.508916362043344e-13 5.093288462076509e-13 8.796920769464856e-13
          1.616540796471062e-11 6.1724312119713206e-12 2.2809924620344913e-11 2.18986102250149e-12 7.201883958846872e-13 3.1212533886026578e-12
          1.5113953104559947e-11 1.9294337498493758e-11 9.456670248378856e-12 1.105698210337673e-11 1.744938577383946e-11 1.5460976948245615e-11
          9.334620574084961e-12 6.503301142771681e-11 3.200834226253804e-11 2.7352730166848608e-11 6.451674598414466e-12 7.001923528583388e-12
          4.356611587187532e-12 3.7376309096519875e-12 8.017741698269737e-12 6.402407798635076e-12 3.4121880154734836e-12 1.4793043719043925e-11
          6.410042747668442e-12 6.101756314356065e-12 2.2766722106688774e-11 1.6505390412250016e-11 1.0814276164486302e-11 1.0500931529201155e-11
          1.0453997389278695e-11 1.2039827193018237e-11 1.0280342698491873e-11 1.276998923596498e-11 8.581391441371911e-12 1.5093086916375373e-11
          5.112047934216609e-12 4.873294861851375e-12 2.3735366384783516e-12 2.77187453018068e-12 3.4823400655660083e-12 5.699493565325833e-12
          2.5194834563494687e-12 5.020104294236064e-12 3.8968902593350455e-12 6.482681408646057e-12 1.6077995164814137e-10 8.081488700094096e-11
          6.069931587932935e-11 3.009466189289996e-11 2.2003191370467015e-10 1.1162412658945316e-10 8.120214754899005e-11 3.79101838572392e-11
          1.6602006837302658e-11 1.3985265265391492e-11 6.0726641705706745e-12 5.2729845398756104e-11 2.3210628691540473e-11 1.8935532595208835e-11
          2.0807831708985336e-11 1.016552917212193e-11 2.0175809191870074e-11 9.920710062859536e-12 2.676403330678363e-11 1.3138702560055505e-11
          2.3865419486369116e-11 5.660553128811604e-12 4.259116150677304e-12 5.612399537167135e-12 5.242943162220015e-12 6.080655005208582e-12
          3.979109652713594e-12 5.368124677582204e-12 3.5769541574609244e-12 2.2630882573096056e-12 1.4791082857977707e-12 1.106822814110099e-12
          1.9226552771185912e-12 1.990225492064474e-12 1.149530925676795e-12 2.6040049820791254e-12 1.1417812149394343e-12 1.7838221660212523e-12
          5.695151356811271e-13 7.609508260131098e-13 2.2766484862774183e-13 4.4069261510094065e-13 4.163208262981777e-13 7.784071988890049e-13
          3.120513836035934e-13 9.067687762570365e-13 6.657152811713536e-13 1.1306354901730872e-12 6.7883822947822415e-12 2.5855999412577702e-12
          2.4648809134386565e-12 1.4150687266538206e-12 9.524661732492788e-12 3.6366951252951125e-12 3.3625503727092875e-12 1.0731451103286333e-12
          6.409070336089285e-13 1.2401640471749096e-12 9.000803229435662e-13 1.2890522735872673e-12 6.114222888197064e-13 1.3501103448710242e-12
          2.2282069842792783e-12 2.5151891885632173e-12 1.2633515566426325e-12 1.5151639504325967e-12 2.3624878832389337e-12 4.021467988439154e-12
          1.5548057872540546e-12 3.072208847986636e-12 1.8636315692636708e-12 4.810333226161285e-12 1.8394542827164297e-11 5.896527476602798e-12
          3.4486900701863104e-12 9.495201092063478e-12 1.4320034078173417e-11 8.539159085604382e-12 9.979182049864584e-13 1.7657546921586833e-12
          6.37058479623449e-13 1.0541904206835016e-12 7.131574876782207e-13 1.1027652517195326e-12 7.052498046833907e-13 8.844487099169593e-13
          1.151813881518278e-12 5.380867945553489e-13 6.7897456650743e-13 5.419383938290653e-13 6.181034663662568e-13 4.433309488879138e-13
          1.4191790531195966e-12 8.198623384595109e-13 6.942685389034484e-13 1.3288320993428483e-11 3.0039711670364696e-11 2.122928061170192e-11
          7.25587917241597e-12 1.5396715215056222e-11 3.956541451482396e-12 7.692426691674303e-12 6.6346856041345954e-12 1.1921277645975248e-11
          5.767621787437114e-12 2.01276969911953e-12 3.559133219344714e-12 1.362774536433269e-12 2.2731404538059105e-12 1.80140428481761e-12
          2.663784453209526e-12 1.8158783120129614e-12 4.86686126163321e-12 7.390199840234513e-12 3.4980487397371723e-12 4.948899253644922e-12
          3.4909095102342334e-12 4.801962980261e-12 3.6260943275564247e-12 1.398656968914856e-11 8.152193205228993e-12 7.812459992532104e-12
          2.1161748483368858e-11 1.0844860428492481e-11 1.04295059006108e-11 5.930215664622629e-12 2.4263896007276413e-11 1.2661305932917808e-11
          1.1347108266445161e-11 4.138595798780591e-12 4.982883546344811e-12 2.5809746332219955e-12 3.018509939569322e-12 2.7925930426901727e-12
          3.0183512728987434e-12 1.9782824221116567e-12 5.82717129390903e-12 3.456045245916649e-12 3.244109503107314e-12 1.9751106209925432e-11
          1.0273208761548601e-11 1.4272788266384071e-11 1.1869610212768688e-11 2.6438648272218602e-11 7.014430869374951e-11 4.7898075799458344e-11
          3.1763940271821425e-11 8.199160696698107e-11 1.5322482462339336e-11 2.0614581171996222e-11 1.3138963082274621e-11 3.3349434396985944e-11
          6.324552429930735e-12 8.135716124017174e-12 6.230485418897343e-12 1.242616649272062e-11 1.7723975358666853e-11 1.3043905660085996e-11
          9.484737146218159e-11 8.729240388766229e-11 1.6296470843733843e-11 6.532082933892009e-11 4.423731876160323e-11 4.7017524864123677e-11
          1.0830024774800207e-11 7.077420771835465e-12 2.115588779978571e-11 2.3547035588438237e-10 1.7328116926211233e-10 1.2211293320993558e-10
          2.6935716806982315e-10 4.5604450833961746e-10 3.4069361687993727e-10 2.4064849840934836e-10 3.636185248778789e-10 1.6361030741128076e-10
          1.1158465792639228e-10 2.567329292333448e-10 1.2009200720452426e-10 8.174012443973716e-11 8.442200564165945e-11 5.7350984160406606e-11
          1.8788674454018998e-10 1.2857464035891273e-10 1.309864988026087e-10 3.8288496684571885e-11 2.5121873507743508e-11 5.98860930909078e-11
          3.2167383060841066e-10 2.2223008543214971e-10 3.4025178585817267e-10 2.3896341427654616e-10 1.6432187568410017e-10 1.679774027899915e-10
          1.1504746565818005e-10 2.556529765439033e-10 1.7617833795306855e-10 1.8105972275251963e-10 7.733336072451083e-11 5.102802014674491e-11
          8.360571145900956e-11 4.536911050215183e-12 2.8601444104301103e-12 8.909915702031964e-12 1.1523636026263564e-12 1.7669233884841416e-12
          1.0758528231260418e-12 3.5075495622440107e-12 4.2774733563371766e-13 6.45663481198727e-13 4.2724495669210793e-13 1.2900194631338949e-12
          4.948246107622883e-13 1.6199238929368094e-11 1.026616420239571e-11 2.5466878296322666e-11 6.3937826677171684e-12 3.913956433607531e-12
          1.0078835357058165e-11 3.305668899003998e-11 2.1025803342290386e-11 3.582445932875038e-11 1.3131301450133923e-11 8.052707465461676e-12
          1.4258881571439764e-11 2.3571730692938754e-12 1.3907777423370232e-12 3.710796985421146e-12 8.018501822570548e-13 4.540381580020934e-13
          1.2682532458884073e-12 4.8488796760497835e-12 2.866707779917424e-12 5.274052220340973e-12 1.6634797273750427e-12 9.475409407631511e-13
          1.8131360285119231e-12 9.477574958858426e-12 1.408963457723149e-11 9.92528879292803e-12 2.723094044783502e-11 4.73869043652086e-12
          6.868836500272272e-12 5.159785743820206e-12 1.3469236623823771e-11 7.195811705192141e-12 1.0106054773564397e-11 4.972480238113334e-12
          7.050930093206666e-12 6.283836364938752e-12 8.346797918561854e-12 5.77887623399757e-12 1.893637412954259e-11 1.3392727423132165e-11
          1.457760972205568e-11 3.5532058886991607e-12 4.876618522407953e-12 3.058955545428197e-12 4.002211997308244e-12 3.060541626540504e-12
          4.033867305521166e-12 3.393645604509027e-12 9.30034774753993e-12 7.32643927476701e-12 7.175783748377662e-12 5.080370367011391e-11
          3.6268108165461256e-11 9.051206224353932e-11 2.5558348757940732e-11 1.7719484601607294e-11 4.75553761209057e-11 4.598676773394925e-11
          3.458074519673634e-11 2.463314044062202e-11 2.2870075340892823e-11 1.6259387126512692e-11 5.963369534390061e-11 4.271301986196953e-11
          3.8321346045977094e-11 1.7306586382110045e-11 1.1947293613944205e-11 1.137123144410164e-11 7.82728630633454e-12 3.012403306380861e-11
          2.0921476346873782e-11 1.9230473979625527e-11 5.853662229055968e-12 7.124278002274741e-12 3.850922388574804e-12 2.9098234727364463e-12
          3.1185240275029026e-12 1.1666919596926881e-11 1.2046150599289958e-11 8.070771065538205e-12 3.264253011746191e-11 2.204786573622062e-11
          2.1933472163921946e-11 7.737766819163226e-12 5.043842258402169e-12 5.336486336608576e-12 3.4752066668629813e-12 1.4650988591964956e-11
          9.57873800832273e-12 9.817791545744246e-12 5.709702714131838e-12 8.097724825325551e-12 3.796547650655647e-12 5.416844826743019e-12
          3.812325491694705e-12 5.303994224315645e-12 3.54373498137734e-12 1.4307652031428589e-11 9.633788737745377e-12 9.085653700244753e-12
          2.5006129998476973e-12 3.5779397602707336e-12 1.6303475991985489e-12 2.3197647126975577e-12 1.6731809205854846e-12 2.3215574988919825e-12
          1.6856230653805765e-12 6.398352432751695e-12 4.1710362614000374e-12 4.030599363718865e-12 1.1007654742332431e-11 1.4842302870705585e-11
          7.805732100823581e-12 1.0507167398367266e-11 7.1762681911286736e-12 9.37546484886751e-12 7.404061501801823e-12 2.414621151831662e-11
          1.719619813499972e-11 1.4792804270663976e-11 5.373575055448002e-12 7.256726505901165e-12 3.662011930963312e-12 4.959167399141231e-12
          4.293508154687931e-12 5.618328127316033e-12 3.808559923127333e-12 1.199157900930482e-11 8.24726062607076e-12 8.209102737003077e-12
          4.5701702830342105e-12 5.803637495807591e-12 3.873370657310331e-12 4.822372333292417e-12 3.721295638651299e-12 4.5635391806141694e-12
          3.934016087302267e-12 8.866770181290649e-12 6.9535023403285e-12 6.697593569032244e-12 2.4740003091965843e-12 3.3651563973272887e-12
          1.6699922560247877e-12 2.2633990003740957e-12 1.9770301400843943e-12 2.5941788539950997e-12 1.7645731563494677e-12 5.6252951596982725e-12
          3.781036357354538e-12 3.804528887261925e-12 1.1061738916206513e-12 1.4737732558196225e-12 8.969039557149393e-13 1.156147863941666e-12
          9.030721328703082e-13 1.161725346918865e-12 9.341136996933091e-13 2.4650176262046417e-12 1.7865082943695527e-12 1.8732964503792293e-12
          1.499691427374097e-10 1.0849008817987922e-10 2.2091113605544522e-10 8.267907729265559e-11 7.718149748850094e-11 5.400331179166066e-11
          1.259718947830189e-10 1.1498276602813904e-10 9.587545656853659e-11 6.908802784212395e-11 5.968851385453986e-11 4.285010795537301e-11
          1.3842337458430862e-10 1.0026927083511416e-10 8.416500715877128e-11 4.899083875040581e-11 3.4186262420984404e-11 3.028573457321847e-11
          2.107813653418173e-11 7.142687026664943e-11 5.004018402980902e-11 4.3081178916023794e-11 2.7885314192515043e-10 2.037849497641302e-10
          3.006453933673136e-10 1.6129575233601475e-10 1.4626624232015691e-10 1.0312737728356919e-10 1.7433638532741604e-10 1.5813361892539676e-10
          1.7354243462242921e-10 1.2614399091185517e-10 1.0433154617608723e-10 7.546610425453357e-11 1.8702668250183733e-10 1.3610966209707056e-10
          1.1214602948655201e-10 9.013249258943829e-11 6.331296478149661e-11 5.370299575470442e-11 3.759865906549645e-11 9.735736444402903e-11
          6.845279619192846e-11 5.783653862243485e-11 5.702664671942149e-11 3.866963058045661e-11 3.716520720279538e-11 2.515844473097321e-11
          8.72748017388082e-11 5.939989349491394e-11 5.582877510757981e-11 2.57801074825169e-11 1.6897183513834826e-11 1.67499251395744e-11
          1.096664941863239e-11 3.9719873003574187e-11 2.6096269431534824e-11 2.5304166190035217e-11 2.3475429742853443e-11 1.58645346041052e-11
          1.4442196314721125e-11 9.738286270776904e-12 3.447774838765547e-11 2.336095908741356e-11 2.068571525962015e-11 1.0556509344878668e-11
          6.9091533206895855e-12 6.466565027119263e-12 4.2118004536136675e-12 1.5562869177768123e-11 1.0193596966989186e-11 9.295027849700889e-12
          1.1212489487183334e-10 7.653464859719284e-11 7.143700107162332e-11 4.862226380154509e-11 1.2134987507617094e-10 8.292831193453497e-11
          7.740196743909787e-11 5.1305056930123476e-11 3.377922278793791e-11 3.2518308177197507e-11 2.1370481131439322e-11 5.564873301973066e-11
          3.667291869000588e-11 3.529363455104898e-11 4.3723626698179926e-11 2.968456341832811e-11 2.5895838729216143e-11 1.7543409305530864e-11
          4.731305898041789e-11 3.2145842397379134e-11 2.7928995125081308e-11 1.9811106692002646e-11 1.2996657998847135e-11 1.1684866707865354e-11
          7.647685658984538e-12 2.146805537341676e-11 1.4091538008491557e-11 1.2621543120328204e-11 3.6393018376552416e-11 2.6053102289068e-11
          2.1743641496576612e-11 1.5464593235502805e-11 4.997193650512193e-11 3.587642225045966e-11 2.912801575686648e-11 1.8334071068631932e-11
          1.2708749281009918e-11 1.0813063506200507e-11 7.46095493537907e-12 2.53695102027045e-11 1.7673013172982488e-11 1.4653907218326832e-11
          1.2712918806714166e-11 8.99985632067912e-12 9.32703027548849e-12 6.662050818378609e-12 1.6700687679057096e-11 1.182038005516426e-11
          1.2080492161604704e-11 5.2910982532714906e-12 6.307267305036357e-12 3.674458042906417e-12 4.364649296138475e-12 4.206881148609221e-12
          4.724962380588744e-12 3.2909156009228647e-12 8.27507749963229e-12 5.724740910348796e-12 5.887954835173001e-12 6.107941625728404e-11
          4.3970924146875955e-11 3.5076061852041956e-11 2.51027219249452e-11 6.538552421987455e-11 4.711141479688009e-11 3.7372428148782575e-11
          3.1164929195163825e-11 2.1749524449355443e-11 1.7706157478893367e-11 1.231054576871341e-11 3.341570005992722e-11 2.3332322729943378e-11
          1.8888547478001536e-11 1.9899362575227832e-11 1.4043574658530873e-11 1.4365433417579008e-11 9.97475597705356e-12 2.112675175176947e-11
          1.4901535342235967e-11 1.523453864743814e-11 9.833249135035976e-12 6.818582990752179e-12 6.939408703055723e-12 4.813459402660849e-12
          1.0439779627608596e-11 7.2425247101773e-12 7.345951348333714e-12 8.715075747892362e-12 5.872801415941621e-12 5.057706096564013e-12
          3.866558391510814e-12 1.2155181903589562e-11 8.213635448313715e-12 6.9378552175735314e-12 3.855914956855834e-12 2.4816860336068593e-12
          2.8590235872216853e-12 1.8313391570644646e-12 5.4263436889678916e-12 3.5242685796691097e-12 3.416382335111709e-12 2.424508903486418e-12
          2.9098964098338708e-12 1.91526441548867e-12 2.3020322662410198e-12 1.94579475835324e-12 2.232108061981382e-12 1.819379691365113e-12
          3.8802381251391535e-12 2.84742258716247e-12 2.8311350002583703e-12 1.4953594084013246e-11 1.0116780423138963e-11 8.432510233106074e-12
          5.6613831926747325e-12 1.6032698022693537e-11 1.0846625811548067e-11 9.003592677253125e-12 6.741062572689632e-12 4.4048716651703964e-12
          3.731680091308647e-12 2.7980680010015607e-12 7.252605048764461e-12 4.752511682746158e-12 4.0347030972758975e-12 4.653707397002529e-12
          3.1309120955885695e-12 3.2998043946179908e-12 2.2814134003391675e-12 4.942222459908076e-12 3.3350903689301195e-12 3.455760154328764e-12
          1.9563153341117967e-12 2.080571725486633e-12 1.5878488804505335e-12 1.6617707278484583e-12 1.6028475358168054e-12 1.6041738553043973e-12
          1.3462424547649524e-12 2.2048281168614694e-12 1.7356925752463832e-12 1.6055001747919892e-12 2.163372374592643e-12 3.223743574633657e-12
          1.3564754525612265e-12 2.030173108039526e-12 1.5142646791581678e-12 2.2193134835414886e-12 1.3961903196585072e-12 6.1609587302873705e-12
          3.897102695954144e-12 4.1185341413566636e-12 8.354576281073263e-13 1.2562946938831728e-12 5.147733622141846e-13 7.630995140528234e-13
          5.913769037017954e-13 8.634607997770966e-13 5.908559672967507e-13 2.426562216648363e-12 1.479629808217371e-12 1.6213032461823264e-12
          1.0363447640678493e-12 1.4715298710807846e-12 6.555106887453876e-13 9.276550861827996e-13 8.462897363222949e-13 1.1565053075198093e-12
          7.317834662376787e-13 2.6618240136099253e-12 1.6788625870572567e-12 1.8843913445548023e-12 4.0925256904226503e-13 5.754999242286921e-13
          3.227235024465078e-13 4.4300438690587575e-13 3.3642756613885124e-13 4.58727593770542e-13 3.633860691780282e-13 1.0503256097541488e-12
          7.429292956635842e-13 7.470942771517482e-13 3.196162631993339e-13 4.562442377364648e-13 2.5187266540925246e-13 3.43947755027433e-13
          2.733810144959463e-13 3.7349039970898973e-13 2.8821980570956e-13 8.841149951148538e-13 6.044547653352183e-13 6.670789442428663e-13
          1.088835073279625e-11 6.898699461844358e-12 7.06150451975205e-12 4.473563533218075e-12 1.684647117865764e-11 1.0685366446767139e-11
          1.0707042029585886e-11 4.299098760433248e-12 2.632912292664799e-12 2.7905976613415256e-12 1.7053852078126972e-12 6.658480694472643e-12
          4.0767366918812065e-12 4.228055904841924e-12 4.439273903808013e-12 2.8085880470737593e-12 2.6896945788852135e-12 1.6967037540781793e-12
          6.5663141843942035e-12 4.161210033043696e-12 3.9023624746449175e-12 1.7590066435691957e-12 1.0742359332813853e-12 1.0581708084511779e-12