<?xml version="1.0"?>
<VTKFile type="UnstructuredGrid" version="0.1" byte_order="LittleEndian" header_type="UInt32" compressor="vtkZLibDataCompressor">
  <UnstructuredGrid>
    <Piece NumberOfPoints="378" NumberOfCells="182">
      <PointData>
        <DataArray type="Int32" Name="libmesh_node_id" format="ascii" RangeMin="140" RangeMax="3260">
          140 141 142 143 144 145
          158 159 160 173 174 175
          176 177 178 191 192 193
          206 207 208 209 210 211
          224 225 226 239 240 241
          242 243 244 257 258 259
          264 265 266 267 268 269
          270 271 272 273 274 275
          276 277 278 279 280 281
          282 283 284 290 291 296
          325 326 327 328 329 330
          331 332 333 334 335 336
          337 338 339 340 341 342
          343 344 345 347 351 352
          355 357 400 401 402 403
          406 407 408 410 411 413
          432 448 449 450 451 452
          453 454 455 456 457 458
          459 460 461 462 463 464
          465 466 467 468 469 470
          474 475 476 477 478 480
          601 602 603 604 605 610
          611 623 624 625 626 627
          628 629 630 631 632 633
          634 635 636 647 648 649
          650 651 652 653 654 655
          656 687 688 689 690 691
          692 693 697 698 699 711
          712 713 714 715 716 717
          718 719 720 721 722 723
          724 2857 2858 2859 2860 2861
          2862 2863 2864 2865 2866 2918
          2919 2920 2922 2923 2926 2927
          2928 2929 2930 2931 2932 2933
          2934 2935 2936 2961 2962 2963
          2964 2965 2966 2967 2968 2969
          2970 2971 2972 2973 2974 2975
          2976 2977 2978 2979 2980 2981
          2982 2983 2984 2985 2986 2987
          2988 2989 2990 2991 2992 2993
          2994 2995 2996 2997 2998 2999
          3000 3001 3002 3003 3004 3005
          3006 3007 3008 3009 3010 3011
          3012 3020 3021 3022 3026 3027
          3028 3029 3030 3031 3032 3044
          3045 3046 3048 3049 3050 3051
          3052 3053 3054 3055 3056 3057
          3058 3154 3155 3156 3157 3158
          3160 3161 3162 3163 3164 3165
          3176 3177 3178 3179 3180 3181
          3182 3183 3184 3185 3188 3189
          3192 3194 3196 3197 3198 3199
          3200 3201 3202 3203 3204 3205
          3206 3207 3208 3209 3210 3211
          3212 3213 3214 3215 3216 3217
          3218 3219 3220 3221 3222 3223
          3224 3225 3226 3227 3228 3229
          3230 3231 3232 3233 3234 3235
          3236 3237 3238 3239 3240 3241
          3242 3243 3244 3245 3246 3247
          3248 3249 3250 3251 3252 3253
          3254 3255 3256 3257 3258 3259
          3260 286 425 353 427 435
        </DataArray>
        <DataArray type="Float64" Name="bounds" format="ascii" RangeMin="0" RangeMax="0">
          0 0 0 0 0 0
          0 0 0 0 0 0
          0 0 0 0 0 0
          0 0 0 0 0 0
          0 0 0 0 0 0
          0 0 0 0 0 0
          0 0 0 0 0 0
          0 0 0 0 0 0
          0 0 0 0 0 0
          0 0 0 0 0 0
          0 0 0 0 0 0
          0 0 0 0 0 0
          0 0 0 0 0 0
          0 0 0 0 0 0
          0 0 0 0 0 0
          0 0 0 0 0 0
          0 0 0 0 0 0
          0 0 0 0 0 0
          0 0 0 0 0 0
          0 0 0 0 0 0
          0 0 0 0 0 0
          0 0 0 0 0 0
          0 0 0 0 0 0
          0 0 0 0 0 0
          0 0 0 0 0 0
          0 0 0 0 0 0
          0 0 0 0 0 0
          0 0 0 0 0 0
          0 0 0 0 0 0
          0 0 0 0 0 0
          0 0 0 0 0 0
          0 0 0 0 0 0
          0 0 0 0 0 0
          0 0 0 0 0 0
          0 0 0 0 0 0
          0 0 0 0 0 0
          0 0 0 0 0 0
          0 0 0 0 0 0
          0 0 0 0 0 0
          0 0 0 0 0 0
          0 0 0 0 0 0
          0 0 0 0 0 0
          0 0 0 0 0 0
          0 0 0 0 0 0
          0 0 0 0 0 0
          0 0 0 0 0 0
          0 0 0 0 0 0
          0 0 0 0 0 0
          0 0 0 0 0 0
          0 0 0 0 0 0
          0 0 0 0 0 0
          0 0 0 0 0 0
          0 0 0 0 0 0
          0 0 0 0 0 0
          0 0 0 0 0 0
          0 0 0 0 0 0
          0 0 0 0 0 0
          0 0 0 0 0 0
          0 0 0 0 0 0
          0 0 0 0 0 0
          0 0 0 0 0 0
          0 0 0 0 0 0
          0 0 0 0 0 0
        </DataArray>
        <DataArray type="Float64" Name="gradient_error" format="ascii" RangeMin="7.913518180668353e-10" RangeMax="0.0000013906487581811519">
          6.932763712665751e-9 5.506267042950726e-9 3.4725936816273353e-9 2.862285471522616e-9 1.987392448413346e-9 1.5520164340731687e-9
          4.0797703732357e-9 2.2519772614178965e-9 1.1166404197329913e-9 1.1242071238443044e-8 1.2405358403965826e-8 6.691979992146021e-9
          6.724036311347783e-9 5.889210500724322e-9 3.780936176164319e-9 1.7454236300780124e-8 9.094975918662097e-9 4.810218274598318e-9
          6.496390728890997e-8 1.7026593557121004e-7 6.23885254958633e-8 1.0537423100738615e-7 1.690974359190585e-7 4.1399663576872466e-8
          1.6834063949190495e-8 8.929684144104832e-9 4.586674067141434e-9 3.8012045211714195e-7 1.8932502720433466e-7 7.550145908349598e-7
          1.3170293420027517e-7 1.8909035741618062e-7 4.239822579048114e-7 2.8859644341605212e-8 1.9655057984366493e-8 1.8050261493378603e-8
          1.9382876961556724e-7 1.615943784488099e-7 1.2684294879967345e-7 5.370660724533302e-7 7.069589498523895e-7 5.18673935702264e-7
          3.5519638431263776e-7 1.2206935745100055e-7 4.772978470767755e-7 4.606084605751589e-7 9.272948180640384e-8 2.7559653862340433e-7
          1.40869560469787e-7 2.393331898214604e-7 0.0000011577889156127621 0.0000010365069919968165 6.482202847102474e-7 8.119528991566087e-7
          4.523151106827136e-7 1.099398410905498e-8 2.135887227257931e-8 2.1231373626816974e-8 2.6576735347697805e-8 2.7135060548501218e-8
          0.000001146463292305328 9.373623729219414e-7 6.39748235263358e-7 0.000001113563963922853 9.526521439959517e-7 0.0000010031755738602915
          0.0000010444797582279272 4.5664216968742396e-7 4.94235809556758e-7 6.125412382556188e-7 7.282614535385547e-7 0.0000010594551058598533
          7.367211887575816e-7 5.490290494879639e-7 7.426324297377646e-7 0.000001074034139729229 0.000001193846358550839 5.786716821050729e-7
          0.0000013906487581811519 7.442146548021475e-8 1.828973031470843e-7 3.360824545492383e-7 2.2537268891134302e-7 2.451458335285059e-7
          3.664672492900344e-7 1.8304633130202116e-7 1.1726395242171274e-9 1.9893454153901434e-9 1.2268567246851993e-8 3.171536938949405e-8
          7.913518180668353e-10 4.500165525750376e-9 9.693726572249374e-9 2.3364494969486858e-8 6.144139336359796e-8 8.208979233433915e-9
          1.3726474976190384e-8 2.5273615196411396e-7 2.41327850468568e-7 2.1036070239045439e-7 2.0566434071208712e-7 2.1660719650816672e-7
          2.277891396735628e-7 2.0730178434663613e-7 2.546500416390255e-7 2.4721613554829414e-7 2.688383832298786e-7 2.299195489730221e-7
          2.389710828389588e-7 2.0893922798118514e-7 2.6897835230990873e-7 1.8047824105221949e-7 2.1425042887855752e-7 2.0424286630281788e-7
          2.4395448748595565e-7 2.4802261670489556e-7 2.8358251160786997e-7 2.64929281480378e-7 2.9357515799645286e-7 3.150450373711812e-7
          2.3456175460289438e-7 2.9085524059345377e-7 3.3552640696717957e-7 2.3606843404738996e-7 2.9130287599263656e-7 3.12897642858484e-7
          5.541688352967254e-9 3.082917170957563e-8 9.529633513539157e-9 6.949292743745228e-9 2.044692860884089e-8 4.3689519739513005e-9
          1.0064685508106145e-8 2.066303641197592e-8 1.8536963276041493e-8 2.8080660254343436e-8 5.134984111637708e-8 4.2843597048435545e-8
          3.183692644634502e-8 3.998691811572327e-8 6.4972857129720435e-9 2.5220868264695853e-8 1.7474166167216078e-8 1.6410890140107067e-8
          2.0830255844254504e-8 2.8623995115069453e-8 9.727464069736301e-9 6.434281704389302e-8 8.358738609490814e-8 1.0181056715186513e-7
          1.2664967688049345e-7 3.586989571677595e-8 5.343443007422527e-8 8.501267777761222e-8 1.3927831725983728e-7 1.697119676660788e-7
          7.09989644316746e-8 1.1335499003036697e-7 1.0729027020925208e-7 1.227244215664422e-7 1.653930697078352e-7 1.6471906565029557e-7
          1.4918081721014116e-7 1.4961499426795775e-7 1.012255503881372e-7 1.3364256876998672e-7 1.3383691882808027e-7 1.7307824157632967e-7
          1.6871724513944905e-7 2.0111082597684316e-7 1.9662310921612374e-7 1.7727736992493935e-7 2.0770407639226324e-7 1.350233220497485e-7
          1.5702608751268841e-7 1.6723242332544745e-7 1.403461056782195e-7 2.2914341037735668e-7 2.2452897329279842e-7 2.3813078285958715e-7
          1.7902885297562833e-7 1.1414403811539363e-8 7.354781152995418e-9 5.5334144859011924e-9 3.089676234403847e-8 4.339451509296988e-8
          2.9438697916934456e-8 2.4288316080202595e-8 3.2951584944514742e-9 1.5482880740899026e-8 1.767986981636672e-8 1.8127961843048844e-7
          4.1333911249601797e-7 3.88202877339151e-7 2.880832038532227e-7 2.3934383905961574e-7 4.648968715294211e-7 2.2705108531609316e-7
          5.388223010965844e-8 1.5272927751987366e-7 4.732991580064692e-7 3.7934222771975607e-7 1.7875584046463486e-7 1.852418523252792e-7
          5.223039773099091e-7 5.496151372300129e-7 1.4667916956000825e-7 3.730250015075536e-9 8.67464806799075e-9 3.442607618394058e-8
          2.8725432016081684e-8 2.1545820511641447e-9 1.0770103232252356e-8 1.1524222143552532e-8 6.512190235280563e-8 4.877621596417261e-8
          1.938562441334057e-8 8.005434552719073e-8 6.933295536394881e-8 6.561568007573171e-8 1.5239578794479334e-7 1.3137849766370612e-7
          1.1186200715173786e-7 1.312957777231053e-7 7.309082738061976e-8 1.195493548718404e-7 1.0105460868033137e-7 5.86115652007069e-8
          9.234551663976959e-8 1.1019576750141729e-7 8.255986248882233e-8 5.680970551140363e-7 4.869763568448006e-7 4.692225828941092e-7
          3.452032794661942e-7 7.976054919648486e-7 9.388748824503104e-7 9.040209679323218e-7 7.841404373643837e-7 5.777866655512384e-7
          5.490750709915314e-7 9.242583044727701e-7 9.884802811145693e-7 8.268115843110282e-7 7.008081459426016e-7 1.6698889143754455e-7
          1.839163305654649e-7 2.2163230001766184e-7 2.3779328680522496e-7 1.5727241047150622e-7 2.1178617296862527e-7 1.1007926162763634e-7
          1.5685832234718e-7 1.4811181439130615e-7 1.6419988473050877e-7 2.762757085977791e-7 2.9167024304498497e-7 2.6629993546574437e-7
          2.036373830667237e-7 7.197661195941382e-9 2.5983074997857433e-8 1.9554845446907684e-8 1.3126615895957931e-8 7.820933352108376e-9
          5.275112634246789e-9 2.043274588172937e-8 1.8452098078903644e-8 2.729291916385202e-9 1.6471450276077922e-8 9.410857703079616e-8
          3.120969473982994e-8 6.993192785241431e-8 1.5598545515885106e-8 1.723645090381073e-8 1.421368694780462e-7 1.0865416096499868e-7
          2.4870844266473655e-8 1.8033653878308927e-8 4.3419643621345065e-8 4.602232987196995e-9 1.573444564752992e-8 6.880563336438122e-8
          2.6866658307862848e-8 1.939466899909998e-7 1.737954188232787e-7 8.853887616198901e-8 1.9177213564399787e-7 1.7069534243000584e-7
          1.536441476555576e-7 1.4961854921601383e-7 3.8579671847718166e-7 3.5858890119375325e-7 3.8067201294221364e-7 3.136227767644675e-7
          4.0537173187127356e-7 4.3446668459088943e-7 4.5614966116526005e-7 4.824462561475994e-7 3.96263971390582e-7 4.2453485282162326e-7
          3.3005351787444767e-7 4.0337098078300366e-7 4.5640029510879423e-7 4.282574460800624e-7 2.0977070322527388e-7 2.438653572038242e-7
          1.7193147116985466e-7 2.779600111823744e-7 2.1131642395846583e-7 2.4888762522373863e-7 2.1119953609654063e-7 2.524285134929385e-7
          1.4452668544417897e-7 1.6880894497681837e-7 1.645301724725693e-7 2.8645882648901146e-7 2.936574908893364e-7 1.930912045094578e-7
          8.140694395004532e-8 8.102417596290345e-8 1.8724745435087142e-7 1.6549498276405294e-7 7.389500342581348e-8 1.797252648035507e-7
          1.5764149729866567e-7 8.06414079757616e-8 1.4374251117723438e-7 1.3555772979378062e-7 4.425441659890936e-7 4.0337499062943494e-7
          4.262678315344167e-7 3.38186808012116e-7 7.030774256996124e-8 6.809360339400938e-8 1.6835550834487626e-7 1.4645048610597047e-7
          6.587946421805753e-8 1.2454546386706466e-7 5.051012575913034e-7 4.4860783703757447e-7 3.533388341823144e-7 5.17419830821293e-7
          5.389194203008466e-7 5.920858327618563e-7 6.060036669620615e-7 4.5459484668819426e-7 4.85991248201609e-7 4.428392944160966e-7
          5.210546489080257e-7 6.008596620268076e-7 5.053312885475681e-7 6.839244587140822e-7 6.86512761484023e-7 5.179459544667427e-7
          6.240496763653486e-7 7.006172177108287e-7 5.974893894180497e-7 2.0903838375113165e-7 2.539569930214214e-7 2.0423797544383324e-7
          2.527261523257758e-7 1.3192797400546773e-7 1.5914330244685424e-7 1.5339130941060013e-7 2.988756022917111e-7 3.0121432920771833e-7
          1.8635863088824077e-7 1.9611119774759565e-7 2.4771326118796377e-7 1.1643472591593927e-7 1.486356776964063e-7 2.9931532462833194e-7
          1.8083662947687333e-7 9.32325946638663e-8 3.275130782766154e-8 1.3883326964357643e-7 5.703498415830698e-8 8.131866048895242e-8
        </DataArray>
        <DataArray type="Float64" Name="gradient_matprop_error" format="ascii" RangeMin="0" RangeMax="0">
          0 0 0 0 0 0
          0 0 0 0 0 0
          0 0 0 0 0 0
          0 0 0 0 0 0
          0 0 0 0 0 0
          0 0 0 0 0 0
          0 0 0 0 0 0
          0 0 0 0 0 0
          0 0 0 0 0 0
          0 0 0 0 0 0
          0 0 0 0 0 0
          0 0 0 0 0 0
          0 0 0 0 0 0
          0 0 0 0 0 0
          0 0 0 0 0 0
          0 0 0 0 0 0
          0 0 0 0 0 0
          0 0 0 0 0 0
          0 0 0 0 0 0
          0 0 0 0 0 0
          0 0 0 0 0 0
          0 0 0 0 0 0
          0 0 0 0 0 0
          0 0 0 0 0 0
          0 0 0 0 0 0
          0 0 0 0 0 0
          0 0 0 0 0 0
          0 0 0 0 0 0
          0 0 0 0 0 0
          0 0 0 0 0 0
          0 0 0 0 0 0
          0 0 0 0 0 0
          0 0 0 0 0 0
          0 0 0 0 0 0
          0 0 0 0 0 0
          0 0 0 0 0 0
          0 0 0 0 0 0
          0 0 0 0 0 0
          0 0 0 0 0 0
          0 0 0 0 0 0
          0 0 0 0 0 0
          0 0 0 0 0 0
          0 0 0 0 0 0
          0 0 0 0 0 0
          0 0 0 0 0 0
          0 0 0 0 0 0
          0 0 0 0 0 0
          0 0 0 0 0 0
          0 0 0 0 0 0
          0 0 0 0 0 0
          0 0 0 0 0 0
          0 0 0 0 0 0
          0 0 0 0 0 0
          0 0 0 0 0 0
          0 0 0 0 0 0
          0 0 0 0 0 0
          0 0 0 0 0 0
          0 0 0 0 0 0
          0 0 0 0 0 0
          0 0 0 0 0 0
          0 0 0 0 0 0
          0 0 0 0 0 0
          0 0 0 0 0 0
        </DataArray>
        <DataArray type="Float64" Name="initial_marker" format="ascii" RangeMin="0" RangeMax="2">
          0 0 0 0 0 0
          0 0 0 0 0 0
          0 0 0 0 0 0
          0 0 0 0 0 0
          0 0 0 0 0 0
          0 2 0 0 0 0
          0 0 0 0 0 0
          0 0 0 0 0 0
          0 0 0 0 0 0
          0 0 0 0 0 0
          0 0 0 0 0 0
          0 0 0 0 0 0
          0 0 0 0 0 0.5
          0 0 0 0.25 0 0
          1 0 0 0 0 0
          0 0 0 0 0 0
          0 0 0 0 0 0.5
          0.25 0 0 1 0.75 0
          0 0 0.3333333333333333 1 0.5 0
          1.5 0 0.5 0.25 1.5 1.25
          0 0.5 0.75 2 2 1
          0 0 0 0 0 0
          0 0 0 0 0 0
          0 0 0 0 0 0
          0 0 0 0 0 0
          0 0 0 0 0 0
          0 0 0 0 0 0
          0 0 0 0 0 0
          0 0 0 0 0 0
          0 0 0 0 0 0
          0 0 0 0 0 0
          0 0 0 0 0 0
          0 0 0 0 0 0
          0 0 0 0 0 0
          0 0 0 0 0 0
          0 0 0 0 0 0
          0 0 0 0 0 0
          0 0 0 0 0 0
          0 0 0 0 0 0
          0 0 0 0 0 0
          0 0 0 0 0 0
          0 0 0 0 0 0
          0 0 0 0 0 0
          0 0 0 0 0 0
          0 0 0 0 0 0
          0 0 0 0 0 0
          0 0 0 0 0 0
          0 0 0 0 0 0
          0 0 0 0 0 0
          0 0 0 0 0 0
          0 0 0 0 0 0
          0 0 0 0 0 0
          0 0 0 0 0 0
          0 0 0 0 0 0
          0 0 0 0 0 0
          0 0 0 0 0 0
          0 0 0 0 0 0
          0 0 0 0 0 0
          0 0 0 0 0 0
          0 0 0 0 0 0
          0 0 0 0 0 0
          0 0 0 0 0 0
          0 0 0 0 0 0
        </DataArray>
        <DataArray type="Float64" Name="markers_norefine" format="ascii" RangeMin="0" RangeMax="0">
          0 0 0 0 0 0
          0 0 0 0 0 0
          0 0 0 0 0 0
          0 0 0 0 0 0
          0 0 0 0 0 0
          0 0 0 0 0 0
          0 0 0 0 0 0
          0 0 0 0 0 0
          0 0 0 0 0 0
          0 0 0 0 0 0
          0 0 0 0 0 0
          0 0 0 0 0 0
          0 0 0 0 0 0
          0 0 0 0 0 0
          0 0 0 0 0 0
          0 0 0 0 0 0
          0 0 0 0 0 0
          0 0 0 0 0 0
          0 0 0 0 0 0
          0 0 0 0 0 0
          0 0 0 0 0 0
          0 0 0 0 0 0
          0 0 0 0 0 0
          0 0 0 0 0 0
          0 0 0 0 0 0
          0 0 0 0 0 0
          0 0 0 0 0 0
          0 0 0 0 0 0
          0 0 0 0 0 0
          0 0 0 0 0 0
          0 0 0 0 0 0
          0 0 0 0 0 0
          0 0 0 0 0 0
          0 0 0 0 0 0
          0 0 0 0 0 0
          0 0 0 0 0 0
          0 0 0 0 0 0
          0 0 0 0 0 0
          0 0 0 0 0 0
          0 0 0 0 0 0
          0 0 0 0 0 0
          0 0 0 0 0 0
          0 0 0 0 0 0
          0 0 0 0 0 0
          0 0 0 0 0 0
          0 0 0 0 0 0
          0 0 0 0 0 0
          0 0 0 0 0 0
          0 0 0 0 0 0
          0 0 0 0 0 0
          0 0 0 0 0 0
          0 0 0 0 0 0
          0 0 0 0 0 0
          0 0 0 0 0 0
          0 0 0 0 0 0
          0 0 0 0 0 0
          0 0 0 0 0 0
          0 0 0 0 0 0
          0 0 0 0 0 0
          0 0 0 0 0 0
          0 0 0 0 0 0
          0 0 0 0 0 0
          0 0 0 0 0 0
        </DataArray>
        <DataArray type="Float64" Name="markers_mustrefine" format="ascii" RangeMin="0" RangeMax="2">
          0 0 0 0 0 0
          0 0 0 0 0 0
          0 0 0 0 0 0
          0 0 0 0 0 0
          0 0 0 0 0 0
          0 2 0 0 0 0
          0 0 0 0 0 0
          0 0 0 0 0 0
          0 0 0 0 0 0
          0 0 0 0 0 0
          0 0 0 0 0 0
          0 0 0 0 0 0
          0 0 0 0 0 0.5
          0 0 0 0.25 0 0
          1 0 0 0 0 0
          0 0 0 0 0 0
          0 0 0 0 0 0.5
          0.25 0 0 1 0.75 0
          0 0 0.3333333333333333 1 0.5 0
          1.5 0 0.5 0.25 1.5 1.25
          0 0.5 0.75 2 2 1
          0 0 0 0 0 0
          0 0 0 0 0 0
          0 0 0 0 0 0
          0 0 0 0 0 0
          0 0 0 0 0 0
          0 0 0 0 0 0
          0 0 0 0 0 0
          0 0 0 0 0 0
          0 0 0 0 0 0
          0 0 0 0 0 0
          0 0 0 0 0 0
          0 0 0 0 0 0
          0 0 0 0 0 0
          0 0 0 0 0 0
          0 0 0 0 0 0
          0 0 0 0 0 0
          0 0 0 0 0 0
          0 0 0 0 0 0
          0 0 0 0 0 0
          0 0 0 0 0 0
          0 0 0 0 0 0
          0 0 0 0 0 0
          0 0 0 0 0 0
          0 0 0 0 0 0
          0 0 0 0 0 0
          0 0 0 0 0 0
          0 0 0 0 0 0
          0 0 0 0 0 0
          0 0 0 0 0 0
          0 0 0 0 0 0
          0 0 0 0 0 0
          0 0 0 0 0 0
          0 0 0 0 0 0
          0 0 0 0 0 0
          0 0 0 0 0 0
          0 0 0 0 0 0
          0 0 0 0 0 0
          0 0 0 0 0 0
          0 0 0 0 0 0
          0 0 0 0 0 0
          0 0 0 0 0 0
          0 0 0 0 0 0
        </DataArray>
        <DataArray type="Float64" Name="gradient_marker" format="ascii" RangeMin="0.875" RangeMax="1">
          1 1 1 1 1 1
          1 1 1 1 1 1
          1 1 1 1 1 1
          1 1 1 1 1 1
          1 1 1 1 1 1
          1 1 1 1 1 1
          1 1 1 1 1 1
          1 1 1 1 1 1
          1 1 1 1 1 1
          1 1 1 1 1 1
          1 1 1 1 1 1
          1 1 1 1 1 1
          1 1 1 1 1 1
          1 1 1 1 1 1
          1 1 1 1 1 1
          1 1 1 1 1 1
          1 1 1 1 1 1
          1 1 1 1 1 1
          1 1 1 1 1 1
          1 1 1 1 1 1
          1 1 1 1 1 1
          1 1 1 1 1 1
          1 1 1 1 1 1
          1 1 1 1 1 1
          1 1 1 1 1 1
          1 1 1 1 1 1
          1 1 1 1 1 1
          1 1 1 1 1 1
          1 1 1 1 1 1
          1 1 1 1 1 1
          1 1 1 1 1 1
          1 1 1 1 1 1
          1 1 1 1 1 1
          1 1 1 1 1 1
          1 1 1 1 1 1
          1 1 1 1 1 1
          1 1 1 1 1 1
          1 1 1 1 1 1
          1 1 1 1 1 1
          1 1 1 1 1 1
          1 1 1 1 1 1
          1 1 1 1 1 1
          1 1 1 1 1 1
          1 1 1 1 1 1
          1 1 1 1 1 1
          1 1 1 1 1 1
          1 1 1 1 1 1
          1 1 1 1 1 1
          1 1 1 1 1 1
          1 1 1 1 1 1
          1 1 1 1 1 1
          1 1 1 1 1 1
          1 1 1 1 1 1
          1 1 1 1 1 1
          1 1 1 1 1 1
          1 1 1 1 1 1
          1 1 1 1 1 1
          1 1 1 1 1 1
          1 1 1 1 1 1
          1 1 1 1 1 1
          1 1 1 1 1 1
          1 1 1 1 1 1
          1 0.875 1 0.875 1 1
        </DataArray>
        <DataArray type="Float64" Name="gradient_matprop_marker" format="ascii" RangeMin="0" RangeMax="0">
          0 0 0 0 0 0
          0 0 0 0 0 0
          0 0 0 0 0 0
          0 0 0 0 0 0
          0 0 0 0 0 0
          0 0 0 0 0 0
          0 0 0 0 0 0
          0 0 0 0 0 0
          0 0 0 0 0 0
          0 0 0 0 0 0
          0 0 0 0 0 0
          0 0 0 0 0 0
          0 0 0 0 0 0
          0 0 0 0 0 0
          0 0 0 0 0 0
          0 0 0 0 0 0
          0 0 0 0 0 0
          0 0 0 0 0 0
          0 0 0 0 0 0
          0 0 0 0 0 0
          0 0 0 0 0 0
          0 0 0 0 0 0
          0 0 0 0 0 0
          0 0 0 0 0 0
          0 0 0 0 0 0
          0 0 0 0 0 0
          0 0 0 0 0 0
          0 0 0 0 0 0
          0 0 0 0 0 0
          0 0 0 0 0 0
          0 0 0 0 0 0
          0 0 0 0 0 0
          0 0 0 0 0 0
          0 0 0 0 0 0
          0 0 0 0 0 0
          0 0 0 0 0 0
          0 0 0 0 0 0
          0 0 0 0 0 0
          0 0 0 0 0 0
          0 0 0 0 0 0
          0 0 0 0 0 0
          0 0 0 0 0 0
          0 0 0 0 0 0
          0 0 0 0 0 0
          0 0 0 0 0 0
          0 0 0 0 0 0
          0 0 0 0 0 0
          0 0 0 0 0 0
          0 0 0 0 0 0
          0 0 0 0 0 0
          0 0 0 0 0 0
          0 0 0 0 0 0
          0 0 0 0 0 0
          0 0 0 0 0 0
          0 0 0 0 0 0
          0 0 0 0 0 0
          0 0 0 0 0 0
          0 0 0 0 0 0
          0 0 0 0 0 0
          0 0 0 0 0 0
          0 0 0 0 0 0
          0 0 0 0 0 0
          0 0 0 0 0 0
        </DataArray>
        <DataArray type="Float64" Name="combo" format="ascii" RangeMin="0.875" RangeMax="1">
          1 1 1 1 1 1
          1 1 1 1 1 1
          1 1 1 1 1 1
          1 1 1 1 1 1
          1 1 1 1 1 1
          1 1 1 1 1 1
          1 1 1 1 1 1
          1 1 1 1 1 1
          1 1 1 1 1 1
          1 1 1 1 1 1
          1 1 1 1 1 1
          1 1 1 1 1 1
          1 1 1 1 1 1
          1 1 1 1 1 1
          1 1 1 1 1 1
          1 1 1 1 1 1
          1 1 1 1 1 1
          1 1 1 1 1 1
          1 1 1 1 1 1
          1 1 1 1 1 1
          1 1 1 1 1 1
          1 1 1 1 1 1
          1 1 1 1 1 1
          1 1 1 1 1 1
          1 1 1 1 1 1
          1 1 1 1 1 1
          1 1 1 1 1 1
          1 1 1 1 1 1
          1 1 1 1 1 1
          1 1 1 1 1 1
          1 1 1 1 1 1
          1 1 1 1 1 1
          1 1 1 1 1 1
          1 1 1 1 1 1
          1 1 1 1 1 1
          1 1 1 1 1 1
          1 1 1 1 1 1
          1 1 1 1 1 1
          1 1 1 1 1 1
          1 1 1 1 1 1
          1 1 1 1 1 1
          1 1 1 1 1 1
          1 1 1 1 1 1
          1 1 1 1 1 1
          1 1 1 1 1 1
          1 1 1 1 1 1
          1 1 1 1 1 1
          1 1 1 1 1 1
          1 1 1 1 1 1
          1 1 1 1 1 1
          1 1 1 1 1 1
          1 1 1 1 1 1
          1 1 1 1 1 1
          1 1 1 1 1 1
          1 1 1 1 1 1
          1 1 1 1 1 1
          1 1 1 1 1 1
          1 1 1 1 1 1
          1 1 1 1 1 1
          1 1 1 1 1 1
          1 1 1 1 1 1
          1 1 1 1 1 1
          1 0.875 1 0.875 1 1
        </DataArray>
        <DataArray type="Float64" Name="dHdT" format="ascii" RangeMin="25.79965148261428" RangeMax="38.51031632019114">
          25.81141682847825 25.811475926544844 25.811597644777763 25.811594153312114 25.811582876559655 25.81160245913209
          25.81153502461144 25.811590661846466 25.811622041704528 25.80975289549161 25.811828627938294 25.812477227921608
          25.812001895915028 25.812848552662803 25.81185299245559 25.812185432028475 25.811932445087713 25.811820346030935
          25.910630997470996 25.863408780646573 25.84949217278937 25.837253796906094 25.853897318344483 25.819853417850133
          25.811827798160593 25.811791931588687 25.811835847984124 29.990729046279377 26.07673908840316 31.83838742182195
          25.96197906523503 38.51031632019114 25.92404950034762 25.804772253680937 25.810327804840306 25.81456149903365
          25.86618462446588 25.851040484439515 25.85138191916966 27.54343126280798 27.43249709085575 26.375657799855162
          26.527831381776576 25.840577696670444 26.95153819032864 26.228604422492914 25.832303315831144 25.890608325355178
          25.88367762111298 25.87165434881629 33.42713411791632 28.01697919505476 28.10429991108491 27.611950415362134
          25.966051593412043 25.809654712329774 25.81546652812129 25.815940465003177 25.816892196066604 25.81422040142425
          28.689590007847965 27.923119965375854 27.405745570922523 31.06178689398652 31.355847811655885 29.58910871688932
          29.718425428557257 26.908634166045868 32.118757463058344 29.494473817521943 27.156649922903746 28.391805903507965
          27.790274173947363 27.26056791683276 35.928547474026836 32.09198431874991 31.45396456198378 33.331294224036185
          29.626961884112184 26.354970173233397 26.291156511904553 29.361173701861055 26.194516210259536 26.53758966363885
          33.808547078595055 27.011729585512832 25.81182806793693 25.811792209140016 25.80995013071024 25.80631108201401
          25.811685896223025 25.812034281086213 25.81310214479661 25.808072193483557 25.800829954888005 25.812382665949396
          25.825521485548812 34.54950820292599 33.381600101955684 33.11811548318549 36.163429904518935 36.47836086118748
          35.19592292262169 34.90822326281413 32.32220999238067 36.74447464070702 35.517431488613205 32.21369200098538
          33.913484984055906 33.65301662110933 33.06879431301205 38.407213519448966 37.0102457432877 36.698331042442774
          37.24612143846062 35.61327796712642 32.45438857051944 31.642233490114855 36.575735626812005 35.52049640155396
          30.388685619644832 32.53602190656988 32.46517368695748 37.98041845807427 37.021992281592354 33.88561966964207
          25.81321940072563 25.80491214055175 25.809534321549506 25.81033372739578 25.807548134389705 25.811133133242063
          25.810184128227657 25.82323987246985 25.825135170424943 25.834356138833073 25.917021842993233 25.887436594910895
          25.87291488951728 25.897720037218484 25.815588731224054 25.84357613151726 25.836616072644215 25.82703046838003
          25.858393184123656 25.87841823144374 25.82965601377117 25.92620501759548 25.964058335439226 25.998498029113666
          26.058042500117338 25.84783826229293 25.85745119264872 25.885838613457885 26.07079104063186 26.152026664795454
          25.86706412300451 27.009552288503414 26.916481932419906 27.04557396277515 28.51128861170921 28.373638316996274
          28.09097419556702 28.217360431192795 26.8234115763364 27.808310074137772 27.923432250676374 28.445659636697336
          28.524750491802592 29.15395536068929 29.22373646226082 28.24821269154203 28.97825493613721 27.38541923388071
          27.70112408453474 27.821866658524293 27.46549458907566 29.862251084681247 29.922722432719052 29.708297180732387
          28.016828935188776 25.81551173427254 25.81404721931588 25.81297082104768 25.802160626043115 25.801169183144935
          25.805165722635678 25.805402702799974 25.812582704359222 25.80916226212642 25.808644779556836 25.90094756535335
          27.539101812327754 26.690251504512602 25.99402009378823 25.957343272585796 27.952828906546557 26.12987792003388
          25.87574142350952 25.874544478181974 27.55767278407885 26.62494990018617 25.861940029694278 25.919860882798787
          30.70844903822156 28.037362487570427 26.018670347746653 25.81213223971406 25.813458875153973 25.80589186116417
          25.81125379428711 25.811523631051273 25.81286708975395 25.81079238823909 25.79965148261428 25.80904871342026
          25.81421054845663 25.901600009992123 25.891576979397442 25.900797702562 26.202149711666557 26.1509309868808
          26.0944105943768 26.141952442605653 25.88968661046293 26.12507491549357 26.070575366484512 25.88155394880276
          26.0378902018728 26.081755173544742 26.016075817475453 27.522169002660636 27.151978908881283 27.202440703656574
          26.652109440022247 30.214495159912122 30.640393230445852 29.490713625239206 29.265050527421064 27.50385199775678
          27.533416928355404 32.636710419339906 30.974713642072004 30.508326830178284 28.126653062951593 26.180534508477624
          26.233549762769236 26.347476779932887 26.403405404410886 26.1537039685768 26.319235079074534 25.968318327092355
          26.028283584384774 26.055582847040963 26.017775562562974 26.514419051388145 26.57326104605253 26.48476618957227
          26.088248841677192 25.81006939400605 25.809915390023708 25.81011753363721 25.81031967725071 25.81043183401584
          25.81134365289036 25.80566161053353 25.807282751795398 25.81225547176488 25.808903893057266 25.838086078236756
          25.82008310249201 25.828077564025158 25.807492748291857 25.807733039108903 25.850799542799756 25.836072025558302
          25.804255861685398 25.816066297689126 25.819183636681167 25.81093443276022 25.80879959153752 25.822300975673198
          25.806664750314823 26.415791909722195 26.345967314847584 25.995445328602408 26.379860435252528 26.311224867562757
          26.276142719972967 26.242589299872986 27.523417605680063 27.28678845808249 27.285260587600657 26.944559343776117
          28.985219030988496 28.527042330261583 29.15949674048697 28.642281212854087 27.526113581287447 27.54006106746057