<?xml version="1.0"?>
<VTKFile type="UnstructuredGrid" version="0.1" byte_order="LittleEndian" header_type="UInt32" compressor="vtkZLibDataCompressor">
  <UnstructuredGrid>
    <Piece NumberOfPoints="1519" NumberOfCells="1097">
      <PointData>
        <DataArray type="Int32" Name="libmesh_node_id" format="ascii" RangeMin="2447" RangeMax="11130">
          2457 2675 2684 2685 2686 2687
          2884 2886 3377 3384 3418 3419
          3424 3440 3441 3442 3443 3444
          3445 3446 3447 3448 3449 3450
          3451 3452 3453 3488 3489 3492
          3494 3495 3497 4449 4450 4451
          4454 4457 4607 4608 4610 4613
          4641 4642 4644 4647 4741 4742
          4743 4744 4745 4746 4747 4748
          4749 4750 4751 4752 4753 4754
          4755 4756 4757 4758 4759 4760
          4761 4762 4763 4764 4765 4766
          4767 4768 4769 4770 4771 4772
          4773 4774 4775 4776 4777 4778
          4779 4780 4781 4782 4783 4784
          4785 4786 4787 4788 4837 4838
          4839 4840 4844 4845 4917 4918
          4919 4920 4921 4922 4923 4924
          4925 4926 4927 4928 4931 4932
          4933 4934 4936 4937 4938 4939
          4940 4941 4942 4943 4944 4945
          4946 4947 4948 4950 4951 4952
          4953 4954 4955 4956 4957 4958
          4959 4960 4961 4962 4965 4967
          4968 4970 4971 4972 4973 4974
          4975 4976 4977 4978 4980 4982
          4984 5053 5054 5057 5058 5081
          5082 5085 5086 6114 6115 6116
          6117 6118 6119 6120 6121 6122
          6123 6212 6213 6214 6215 6216
          6217 6218 6219 6220 6221 6222
          6223 6224 6225 6226 6227 6228
          6229 6230 6231 6232 6233 6234
          6235 6236 6237 6238 6239 6240
          6241 6242 6243 6244 6245 7582
          7583 7584 7585 7586 7587 7588
          7589 7590 7591 7592 7593 7594
          7595 7606 7607 7608 7609 7612
          7613 7614 7626 7627 7628 7629
          7630 7631 7632 7633 7634 7635
          7643 7644 7646 7647 7648 7710
          7711 7716 7746 7750 8214 8215
          8216 8217 8218 8219 8220 8221
          8222 8223 8231 8232 8234 8235
          8236 8248 8249 8250 8251 8252
          8253 8254 8255 8256 8257 8265
          8266 8268 8269 8270 8320 8324
          8348 8352 8446 8447 8448 8449
          8450 8451 8452 8453 8454 8455
          8463 8464 8466 8467 8468 8480
          8481 8482 8483 8484 8485 8486
          8487 8488 8489 8497 8498 8500
          8501 8502 8558 8562 8586 8590
          8996 8997 8998 8999 9000 9001
          9002 9003 9004 9005 9006 9007
          9008 9009 9010 9011 9012 9013
          9014 9015 9016 9017 9018 9019
          9020 9021 9022 9023 9024 9025
          9026 9027 9028 9029 9030 9031
          9032 9033 9034 9035 9036 9037
          9038 9039 9040 9041 9042 9043
          9044 9045 9046 9047 9048 9049
          9050 9051 9052 9053 9054 9055
          9056 9057 9058 9059 9060 9061
          9062 9063 9064 9065 9066 9067
          9068 9069 9070 9071 9072 9073
          9074 9075 9076 9077 9078 9079
          9080 9081 9082 9083 9084 9085
          9086 9087 9088 9089 9090 9091
          9092 9093 9094 9095 9096 9097
          9098 9099 9100 9101 9102 9103
          9104 9105 9106 9107 9108 9109
          9110 9111 9112 9113 9114 9115
          9116 9117 9118 9119 9120 9121
          9122 9123 9124 9125 9126 9127
          9128 9129 9130 9131 9132 9133
          9134 9135 9136 9137 9138 9139
          9140 9141 9142 9143 9144 9145
          9146 9147 9148 9149 9150 9151
          9152 9153 9154 9155 9156 9157
          9158 9159 9160 9161 9162 9163
          9164 9165 9166 9167 9168 9169
          9170 9171 9172 9173 9174 9175
          9176 9177 9178 9179 9180 9181
          9182 9183 9184 9185 9186 9187
          9188 9189 9190 9191 9192 9193
          9194 9195 9196 9197 9198 9199
          9200 9201 9202 9203 9204 9205
          9206 9207 9208 9209 9210 9211
          9212 9213 9214 9215 9216 9217
          9218 9219 9220 9221 9222 9223
          9224 9225 9226 9227 9228 9229
          9230 9231 9232 9233 9234 9235
          9236 9237 9238 9239 9240 9241
          9242 9243 9244 9245 9246 9247
          9248 9249 9250 9251 9252 9253
          9254 9255 9256 9257 9258 9259
          9260 9261 9262 9263 9264 9265
          9266 9267 9268 9269 9270 9271
          9272 9273 9274 9275 9276 9277
          9278 9279 9280 9281 9282 9283
          9284 9285 9286 9287 9288 9289
          9290 9291 9292 9293 9294 9295
          9568 9569 9570 9571 9572 9573
          9574 9575 9576 9577 9578 9579
          9580 9581 9582 9583 9584 9585
          9586 9587 9588 9589 9590 9591
          9595 9596 9598 9599 9600 9601
          9605 9606 9608 9609 9610 9611
          9612 9613 9615 9616 9618 9619
          9620 9621 9625 9626 9628 9629
          9798 9799 9800 9801 9802 9803
          9804 9805 9806 9807 9808 9809
          9810 9811 9812 9813 9814 9815
          9816 9817 9818 9819 9820 9821
          9822 9823 9824 9825 9826 9827
          9828 9829 9830 9831 9832 9833
          9834 9835 9836 9837 9838 9839
          9840 9841 9842 9843 9844 9845
          9846 9847 9848 9849 9850 9851
          9852 9853 9854 9855 9856 9857
          9858 9859 9860 9861 9862 9863
          9864 9865 9866 9867 9868 9869
          9870 9871 9872 9873 9874 9875
          9876 9877 9878 9879 9880 9881
          9882 9883 9885 9886 9887 9888
          9889 9890 9891 9892 9893 9894
          9895 9896 9897 9899 9900 9901
          9902 9903 9904 9905 9906 9907
          9908 9909 9910 9911 9914 9920
          9921 9922 9923 9924 9925 9926
          9927 9929 9930 9934 9935 9936
          9937 9938 9939 9940 9941 9942
          9943 9944 9945 9946 9947 9948
          9949 9950 9951 9952 9953 9954
          9955 9956 9957 9958 9959 9960
          9961 9962 9963 9964 9965 9966
          9967 9968 9969 9970 9971 9972
          9973 9974 9975 9976 9977 9978
          9979 9980 9981 9982 9983 9984
          9985 9986 9987 9988 9989 9990
          9991 9992 9993 9994 9995 9996
          9997 9998 9999 10000 10001 10002
          10003 10004 10005 10006 10007 10008
          10009 10010 10011 10012 10013 10014
          10015 10016 10017 10018 10019 10020
          10021 10022 10023 10024 10025 10026
          10027 10028 10032 10033 10034 10035
          10036 10037 10038 10039 10040 10041
          10042 10046 10047 10048 10049 10050
          10051 10052 10053 10054 10055 10056
          10057 10058 10059 10060 10061 10062
          10063 10064 10065 10066 10067 10068
          10069 10070 10071 10072 10073 10074
          10075 10076 10077 10078 10079 10080
          10081 10082 10083 10084 10085 10086
          10087 10088 10089 10090 10091 10092
          10093 10094 10095 10096 10097 10098
          10099 10100 10101 10102 10103 10104
          10105 10106 10107 10108 10109 10110
          10111 10112 10113 10114 10115 10116
          10117 10118 10119 10120 10121 10122
          10123 10134 10135 10136 10137 10138
          10139 10140 10148 10149 10150 10151
          10152 10153 10154 10155 10156 10157
          10168 10169 10170 10171 10172 10173
          10174 10182 10183 10184 10185 10186
          10187 10188 10189 10190 10191 10192
          10193 10194 10195 10196 10197 10198
          10199 10200 10201 10202 10203 10204
          10205 10206 10207 10208 10209 10210
          10211 10212 10213 10214 10215 10216
          10217 10218 10219 10220 10221 10222
          10223 10224 10225 10226 10227 10228
          10229 10230 10231 10232 10233 10234
          10235 10236 10237 10238 10239 10240
          10241 10242 10243 10244 10252 10253
          10254 10255 10256 10257 10258 10266
          10267 10268 10269 10270 10271 10272
          10280 10281 10282 10283 10284 10285
          10286 10790 10791 10792 10793 10794
          10795 10796 10797 10798 10799 10800
          10801 10802 10803 10804 10805 10808
          10809 10811 10812 10815 10816 10818
          10819 10820 10821 10822 10823 10824
          10825 10826 10827 10828 10829 10830
          10831 10832 10833 10836 10837 10839
          10840 10843 10844 10846 10847 10850
          10851 10853 10854 10857 10858 10874
          10878 11026 11027 11028 11029 11030
          11031 11032 11033 11034 11035 11036
          11037 11038 11039 11040 11041 11044
          11045 11047 11048 11051 11052 11054
          11055 11056 11057 11058 11059 11060
          11061 11062 11063 11064 11065 11066
          11067 11068 11069 11072 11073 11075
          11076 11079 11080 11082 11086 11110
          11114 2447 2885 2878 2879 2887
          2880 2892 2883 2674 2691 2450
          3468 3398 3381 3469 3399 3470
          3471 4499 4475 4500 4841 4842
          4503 4843 4847 4848 4849 4850
          4851 4852 6098 6099 6100 6103
          2449 3376 6173 6176 6177 6174
          4445 4446 6180 6179 3378 4452
          6175 6190 6191 6194 4471 7572
          7573 7574 7577 4447 7580 4448
          7598 7599 7610 7611 7602 7604
          7615 4453 7618 7619 7621 4455
          7624 4456 7637 7645 7639 7641
          7649 4458 7708 7709 7712 7714
          7713 7715 4472 7717 7745 7748
          7747 7749 4477 7751 8206 8207
          8209 4605 8212 4606 8225 8233
          8227 8229 8237 4609 8240 8241
          8243 4611 8246 4612 8259 8267
          8261 8263 8271 4614 8319 8322
          8321 8323 4623 8325 8347 8350
          8349 8351 4627 8353 8438 8439
          8441 4639 8444 4640 8457 8465
          8459 8461 8469 4643 8472 8473
          8475 4645 8478 4646 8491 8499
          8493 8495 8503 4648 8557 8560
          8559 8561 4657 8563 8585 8588
          8587 8589 4661 8591 7730 7731
          7734 7736 7760 7762 7764 2676
          7822 7832 7834 7836 4505 7850
          7851 9592 9593 7854 9594 7856
          9597 3404 4846 9602 9603 9604
          9607 3475 9614 9617 4854 9622
          9623 9624 9627 4855 9630 9631
          9632 9633 9634 9635 9636 9637
          4856 8334 8336 8338 4625 8362
          8364 8366 3421 8572 8574 8576
          4659 8600 8602 8604 2682 8654
          8656 8658 4693 8668 10806 8670
          10807 8672 10810 4695 5055 10813
          10814 10817 5056 8682 8684 8686
          4697 8696 10834 8698 10835 8700
          10838 3434 5059 10841 10842 10845
          3508 10848 10849 10852 5060 10855
          10856 10859 5061 10860 10862 10864
          10866 10875 10876 10877 10879 10880
          5064 10881 10882 10883 10884 10888
          10890 10892 10894 8852 8854 8856
          4721 8866 11042 8868 11043 8870
          11046 4723 5083 11049 11050 11053
          5084 8880 8882 8884 4725 8894
          11070 8896 11071 8898 11074 3438
          5087 11077 11078 11081 3512 11083
          11084 11085 11087 11088 5088 11096
          11098 11100 11102 11111 11112 11113
          11115 11116 5092 11124 11126 11128
          11130
        </DataArray>
        <DataArray type="Float64" Name="bounds" format="ascii" RangeMin="0" RangeMax="0">
          0 0 0 0 0 0
          0 0 0 0 0 0
          0 0 0 0 0 0
          0 0 0 0 0 0
          0 0 0 0 0 0
          0 0 0 0 0 0
          0 0 0 0 0 0
          0 0 0 0 0 0
          0 0 0 0 0 0
          0 0 0 0 0 0
          0 0 0 0 0 0
          0 0 0 0 0 0
          0 0 0 0 0 0
          0 0 0 0 0 0
          0 0 0 0 0 0
          0 0 0 0 0 0
          0 0 0 0 0 0
          0 0 0 0 0 0
          0 0 0 0 0 0
          0 0 0 0 0 0
          0 0 0 0 0 0
          0 0 0 0 0 0
          0 0 0 0 0 0
          0 0 0 0 0 0
          0 0 0 0 0 0
          0 0 0 0 0 0
          0 0 0 0 0 0
          0 0 0 0 0 0
          0 0 0 0 0 0
          0 0 0 0 0 0
          0 0 0 0 0 0
          0 0 0 0 0 0
          0 0 0 0 0 0
          0 0 0 0 0 0
          0 0 0 0 0 0
          0 0 0 0 0 0
          0 0 0 0 0 0
          0 0 0 0 0 0
          0 0 0 0 0 0
          0 0 0 0 0 0
          0 0 0 0 0 0
          0 0 0 0 0 0
          0 0 0 0 0 0
          0 0 0 0 0 0
          0 0 0 0 0 0
          0 0 0 0 0 0
          0 0 0 0 0 0
          0 0 0 0 0 0
          0 0 0 0 0 0
          0 0 0 0 0 0
          0 0 0 0 0 0
          0 0 0 0 0 0
          0 0 0 0 0 0
          0 0 0 0 0 0
          0 0 0 0 0 0
          0 0 0 0 0 0
          0 0 0 0 0 0
          0 0 0 0 0 0
          0 0 0 0 0 0
          0 0 0 0 0 0
          0 0 0 0 0 0
          0 0 0 0 0 0
          0 0 0 0 0 0
          0 0 0 0 0 0
          0 0 0 0 0 0
          0 0 0 0 0 0
          0 0 0 0 0 0
          0 0 0 0 0 0
          0 0 0 0 0 0
          0 0 0 0 0 0
          0 0 0 0 0 0
          0 0 0 0 0 0
          0 0 0 0 0 0
          0 0 0 0 0 0
          0 0 0 0 0 0
          0 0 0 0 0 0
          0 0 0 0 0 0
          0 0 0 0 0 0
          0 0 0 0 0 0
          0 0 0 0 0 0
          0 0 0 0 0 0
          0 0 0 0 0 0
          0 0 0 0 0 0
          0 0 0 0 0 0
          0 0 0 0 0 0
          0 0 0 0 0 0
          0 0 0 0 0 0
          0 0 0 0 0 0
          0 0 0 0 0 0
          0 0 0 0 0 0
          0 0 0 0 0 0
          0 0 0 0 0 0
          0 0 0 0 0 0
          0 0 0 0 0 0
          0 0 0 0 0 0
          0 0 0 0 0 0
          0 0 0 0 0 0
          0 0 0 0 0 0
          0 0 0 0 0 0
          0 0 0 0 0 0
          0 0 0 0 0 0
          0 0 0 0 0 0
          0 0 0 0 0 0
          0 0 0 0 0 0
          0 0 0 0 0 0
          0 0 0 0 0 0
          0 0 0 0 0 0
          0 0 0 0 0 0
          0 0 0 0 0 0
          0 0 0 0 0 0
          0 0 0 0 0 0
          0 0 0 0 0 0
          0 0 0 0 0 0
          0 0 0 0 0 0
          0 0 0 0 0 0
          0 0 0 0 0 0
          0 0 0 0 0 0
          0 0 0 0 0 0
          0 0 0 0 0 0
          0 0 0 0 0 0
          0 0 0 0 0 0
          0 0 0 0 0 0
          0 0 0 0 0 0
          0 0 0 0 0 0
          0 0 0 0 0 0
          0 0 0 0 0 0
          0 0 0 0 0 0
          0 0 0 0 0 0
          0 0 0 0 0 0
          0 0 0 0 0 0
          0 0 0 0 0 0
          0 0 0 0 0 0
          0 0 0 0 0 0
          0 0 0 0 0 0
          0 0 0 0 0 0
          0 0 0 0 0 0
          0 0 0 0 0 0
          0 0 0 0 0 0
          0 0 0 0 0 0
          0 0 0 0 0 0
          0 0 0 0 0 0
          0 0 0 0 0 0
          0 0 0 0 0 0
          0 0 0 0 0 0
          0 0 0 0 0 0
          0 0 0 0 0 0
          0 0 0 0 0 0
          0 0 0 0 0 0
          0 0 0 0 0 0
          0 0 0 0 0 0
          0 0 0 0 0 0
          0 0 0 0 0 0
          0 0 0 0 0 0
          0 0 0 0 0 0
          0 0 0 0 0 0
          0 0 0 0 0 0
          0 0 0 0 0 0
          0 0 0 0 0 0
          0 0 0 0 0 0
          0 0 0 0 0 0
          0 0 0 0 0 0
          0 0 0 0 0 0
          0 0 0 0 0 0
          0 0 0 0 0 0
          0 0 0 0 0 0
          0 0 0 0 0 0
          0 0 0 0 0 0
          0 0 0 0 0 0
          0 0 0 0 0 0
          0 0 0 0 0 0
          0 0 0 0 0 0
          0 0 0 0 0 0
          0 0 0 0 0 0
          0 0 0 0 0 0
          0 0 0 0 0 0
          0 0 0 0 0 0
          0 0 0 0 0 0
          0 0 0 0 0 0
          0 0 0 0 0 0
          0 0 0 0 0 0
          0 0 0 0 0 0
          0 0 0 0 0 0
          0 0 0 0 0 0
          0 0 0 0 0 0
          0 0 0 0 0 0
          0 0 0 0 0 0
          0 0 0 0 0 0
          0 0 0 0 0 0
          0 0 0 0 0 0
          0 0 0 0 0 0
          0 0 0 0 0 0
          0 0 0 0 0 0
          0 0 0 0 0 0
          0 0 0 0 0 0
          0 0 0 0 0 0
          0 0 0 0 0 0
          0 0 0 0 0 0
          0 0 0 0 0 0
          0 0 0 0 0 0
          0 0 0 0 0 0
          0 0 0 0 0 0
          0 0 0 0 0 0
          0 0 0 0 0 0
          0 0 0 0 0 0
          0 0 0 0 0 0
          0 0 0 0 0 0
          0 0 0 0 0 0
          0 0 0 0 0 0
          0 0 0 0 0 0
          0 0 0 0 0 0
          0 0 0 0 0 0
          0 0 0 0 0 0
          0 0 0 0 0 0
          0 0 0 0 0 0
          0 0 0 0 0 0
          0 0 0 0 0 0
          0 0 0 0 0 0
          0 0 0 0 0 0
          0 0 0 0 0 0
          0 0 0 0 0 0
          0 0 0 0 0 0
          0 0 0 0 0 0
          0 0 0 0 0 0
          0 0 0 0 0 0
          0 0 0 0 0 0
          0 0 0 0 0 0
          0 0 0 0 0 0
          0 0 0 0 0 0
          0 0 0 0 0 0
          0 0 0 0 0 0
          0 0 0 0 0 0
          0 0 0 0 0 0
          0 0 0 0 0 0
          0 0 0 0 0 0
          0 0 0 0 0 0
          0 0 0 0 0 0
          0 0 0 0 0 0
          0 0 0 0 0 0
          0 0 0 0 0 0
          0 0 0 0 0 0
          0 0 0 0 0 0
          0 0 0 0 0 0
          0 0 0 0 0 0
          0 0 0 0 0 0
          0 0 0 0 0 0
          0 0 0 0 0 0
          0 0 0 0 0 0
          0 0 0 0 0 0
          0 0 0 0 0 0
          0 0 0 0 0 0
          0 0 0 0 0 0
          0 0 0 0 0 0
          0 0 0 0 0 0
          0
        </DataArray>
        <DataArray type="Float64" Name="gradient_error" format="ascii" RangeMin="8.2450527906867e-12" RangeMax="3.315808127655776e-9">
          1.2263964689769943e-9 4.153851267494497e-10 2.6918166226828453e-11 6.329776314364142e-11 1.3221712597676614e-10 5.145930039240404e-11
          1.867146056842651e-11 1.2865144708144726e-11 1.482969310612996e-10 3.358706037881822e-10 2.279741624942921e-9 1.7967067376601327e-9
          2.0897547023115446e-9 5.98494517359003e-11 5.106838050347372e-11 7.467823239154992e-11 6.231737188447299e-11 2.3056672465077078e-11
          3.4872049505551386e-11 2.8997654396410844e-11 1.0683625338555773e-10 1.1219109321421759e-10 5.4105816058799044e-11 2.4761551249510556e-10
          1.9741009798170934e-10 1.0426708187741579e-10 1.000957877511927e-10 1.6301998858101508e-9 1.2807888513881186e-9 6.163746539930643e-10
          1.5886271305882393e-9 1.7644055051745194e-9 1.132162393421249e-9 1.4183045477275283e-10 1.4987079826296447e-10 1.4240976588519647e-10
          1.221701128603712e-10 3.9394828511192186e-10 1.0255516972145946e-9 9.719793585146498e-10 8.267457366294933e-10 2.147707961932535e-9
          3.2030478812761615e-9 3.152784558654e-9 2.8655053509699496e-9 1.517925202641807e-9 1.0599781558813488e-10 1.0129212105460891e-10
          1.1205428757444803e-10 1.0634912386014964e-10 7.13222663474261e-11 8.189397935728385e-11 7.764784674240964e-11 8.865954319970268e-11
          9.091243048627686e-11 6.618561635909881e-11 3.2504227915884166e-10 3.0767891260767067e-10 2.3398898358753173e-10 2.6086005316756675e-10
          5.15711724256309e-11 4.92326204465018e-11 5.843219072329723e-11 5.535496331403109e-11 3.3290651607897026e-11 4.069320937174045e-11
          3.8520595109976713e-11 4.295352291400204e-11 4.7067726328536576e-11 3.267752025073323e-11 1.8348784103895684e-10 1.731261787560923e-10
          1.2458472449220838e-10 1.4543059235072837e-10 6.853292708028192e-11 7.003711571732797e-11 4.798813243762206e-11 5.0709891782261933e-11
          1.0170517120369962e-10 8.795728522050023e-11 6.294725977665451e-11 1.9798532745852054e-10 1.486870103846758e-10 1.345861428187552e-10
          3.306581664594384e-11 3.590650072442619e-11 2.2295475367650988e-11 2.4801880577388702e-11 4.965453409483753e-11 4.394171665489485e-11
          3.0044762928385226e-11 1.0882287176499475e-10 7.761679144603949e-11 7.26594690422078e-11 1.5547826880272788e-10 9.687244361708496e-11
          1.1062646497251414e-10 6.899068471099115e-11 8.204441935735375e-11 6.039043949195329e-11 8.469885271900536e-10 8.00934352222127e-10
          6.803408399052309e-10 6.41943484164402e-10 6.766106931232485e-10 5.386712227591745e-10 1.9539194344517015e-9 1.836979746962486e-9
          1.5336885462861736e-9 1.5334503992802797e-9 5.310355477931414e-10 4.999114066458999e-10 4.165893396128598e-10 3.1247226928718904e-10
          1.334758275614306e-9 1.2560272587978382e-9 1.0454183031287215e-9 5.090937812105767e-10 4.0075131159444913e-10 3.397925243764978e-10
          2.63524783482734e-10 1.1441272989434317e-9 9.483945637889053e-10 7.565374393739494e-10 3.064924333367561e-10 2.2748216914946764e-10
          1.9875798533542739e-10 1.457029837217486e-10 7.650957559099336e-10 4.877096887138643e-10 3.0931641929322018e-9 2.9741413436963165e-9
          2.737341675791266e-9 2.5878717104708317e-9 2.5529880690319437e-9 2.1621068721751645e-9 1.4780584199050973e-9 1.7395773991448912e-9
          1.6863161507385164e-9 2.0060257866753283e-9 2.272501393088623e-9 2.137672559913872e-9 1.785944112713283e-9 1.413090415082421e-9
          1.473495696005767e-9 1.4546754611859527e-9 1.896802965559101e-9 1.6069463699758743e-9 1.2707165544691068e-9 1.0760989055188912e-9
          1.8044214525445266e-9 1.510018700534077e-9 1.3248446771598312e-9 1.3448918671059039e-9 8.870181614997528e-10 1.2616367866817707e-9
          9.454202763227587e-10 2.0092666282478843e-10 1.5327974303908353e-10 4.377261861395187e-10 3.4836359358007563e-10 7.493789721723011e-10
          6.186174795419762e-10 8.466460839264145e-10 7.06453585541323e-10 1.7089204840105218e-11 1.8045406149810337e-11 4.971777446022405e-11
          4.4133729764988555e-11 8.2450527906867e-12 2.192693269168865e-11 1.9952899721310095e-11 1.900160745951546e-11 3.854968506975305e-11
          1.797886675093154e-11 5.427465001156518e-11 5.193152940308204e-11 1.1013996586501966e-10 1.0536980738984727e-10 3.581360205319756e-11
          7.697758506311368e-11 7.365086343742296e-11 4.6408793011440405e-11 9.300618304482282e-11 6.487713101956876e-11 2.5411799153786464e-11
          2.4342437516103347e-11 5.287725744565094e-11 5.0566197931776116e-11 1.628373140027755e-11 3.562628792192125e-11 3.405424201980799e-11
          2.1651043547313958e-11 4.4472860364260065e-11 2.988883318189313e-11 4.2648156409353136e-11 7.506048751087838e-11 2.953675254892319e-11
          5.230881960491865e-11 4.206713559042437e-11 6.470825784678602e-11 4.518751898243205e-11 2.029810715706648e-11 3.598599248110106e-11
          1.3664500276413363e-11 2.4160103570635268e-11 2.0567203097925274e-11 3.128140265158327e-11 2.102473689517901e-11 7.392933957588583e-11
          7.304795768531885e-11 1.0091589089636092e-10 9.968757126969799e-11 6.257911554848673e-11 8.698611483942035e-11 8.591352445124916e-11
          7.04597455259267e-11 9.608875543870073e-11 8.277783143863536e-11 1.7208773334709323e-10 1.6993469415262815e-10 1.4796978318332467e-10
          1.6363554637450772e-10 6.636424112363524e-11 9.038307998256922e-11 5.6821639958964055e-11 7.781769624203811e-11 7.130840725577451e-11
          1.5364814701652524e-10 1.3359852361909944e-10 2.866969832784394e-10 2.8303917049453925e-10 2.5264100058276697e-10 2.4936289578502953e-10
          2.723387659991598e-10 2.3977808407773965e-10 4.6523611593446015e-10 4.592394827699242e-10 4.09922776212276e-10 4.4169146755679724e-10
          2.5538366249725705e-10 2.2460603916989763e-10 2.0495521679864186e-10 4.1386984281647347e-10 3.6865265849495234e-10 4.644748930144626e-11
          6.36651164825345e-11 1.0894717237675849e-10 1.82192641407916e-10 2.978782714700554e-10 7.323839228342837e-10 7.229104570070055e-10
          6.630996536846363e-10 6.543313321952836e-10 6.951813395151376e-10 6.286797458900906e-10 1.1173362199465405e-9 1.1027857272296291e-9
          1.0119000706705414e-9 1.0602107216547077e-9 6.511882785175305e-10 5.880317452778282e-10 5.352968019110459e-10 9.927102002084647e-10
          9.08751588979403e-10 1.6634975686879201e-9 1.6406941030478147e-9 1.5427309548681076e-9 1.5214166845278103e-9 1.574412787951098e-9
          1.4593746488468785e-9 2.4320734401583495e-9 2.3980124695167492e-9 2.2460585428482443e-9 2.297255397591311e-9 1.4705329376425288e-9
          1.3619254603169563e-9 1.2367345675472678e-9 2.136111700848172e-9 1.9931670325649285e-9 4.740933353148453e-10 7.315628761699553e-10
          1.0925076215870349e-9 1.5760229051225808e-9 3.196646590518742e-9 3.161723731343442e-9 3.0691870852147915e-9 3.0326279637528214e-9
          3.056157112729825e-9 2.9213084110747804e-9 3.2292424412301764e-9 3.2240930791795426e-9 3.192934213120187e-9 3.197012607571626e-9
          2.8767270965884203e-9 2.7331097584128315e-9 2.4724525259156497e-9 3.122090876892925e-9 3.0557652911469037e-9 2.0854911358978328e-9
          2.1211985939074252e-9 2.1038234506021686e-9 2.1480566182848273e-9 2.2296661796690895e-9 2.266044103671973e-9 1.2253829434180327e-9
          1.2773283907575831e-9 1.3032681503764098e-9 1.4576186555821959e-9 2.384539640008235e-9 2.4142368265244533e-9 2.4971908091082607e-9
          1.7542836137843275e-9 1.8227632223184718e-9 2.158557746988975e-9 2.5695416514093006e-9 2.4278357951250467e-9 2.1833512714139565e-9
          5.4096632323656064e-11 5.3438068167942035e-11 7.470318491568598e-11 7.377385422734955e-11 4.5428731362970914e-11 6.38504996464536e-11
          6.305036158575712e-11 5.1509302559443014e-11 7.105481406368841e-11 6.070617984861089e-11 1.2993680622343684e-10 1.2826837279632874e-10
          1.1059970188839339e-10 1.2339079106090807e-10 3.891079312294061e-11 3.843188113781274e-11 5.4290837274903433e-11 5.360487949177799e-11
          3.234732230368062e-11 4.5910137346542944e-11 4.532545215156875e-11 3.7024940720956625e-11 5.159663323121227e-11 4.3615569335781357e-11
          9.607933094873325e-11 9.48198879451455e-11 8.081089164717971e-11 9.114071553763062e-11 4.847413977473835e-11 6.675341401157413e-11
          4.116826603199347e-11 5.699569373090551e-11 4.4432029682102074e-11 6.111422864371461e-11 5.2142670441550695e-11 1.1566657157006736e-10
          9.962276689723076e-11 1.0565627133092932e-10 3.4809397374890824e-11 4.842093268249116e-11 2.92864033940395e-11 4.09149118123634e-11
          3.1868526075815314e-11 4.426589087996984e-11 3.737902647648971e-11 8.532211432210487e-11 7.264840686640563e-11 7.779395370240562e-11
          2.214413352781462e-10 2.1852429615509007e-10 1.92938503599794e-10 1.9036192197509053e-10 2.0999947667447344e-10 1.828356858284279e-10
          3.6864561420300514e-10 3.6370802618155923e-10 3.206138606096229e-10 3.4927670162086516e-10 1.670551569087398e-10 1.6479620304823637e-10
          1.437220302475532e-10 1.417560289911826e-10 1.5820079274880259e-10 1.3601851030497696e-10 2.8467259246719684e-10 2.807322822712784e-10
          2.4413712272394307e-10 2.692300509326449e-10 1.965185887563655e-10 1.7094514056092772e-10 1.79082687568154e-10 1.5558622639707992e-10
          3.26452291514615e-10 2.872459445059087e-10 2.9692662990136823e-10 1.4779001871301897e-10 1.2696991025424507e-10 1.3435886870051805e-10
          1.1531049071357785e-10 2.5108149722806394e-10 2.179950368064101e-10 2.2768481033889128e-10 2.7398628419745538e-11 2.705714289689224e-11
          3.85937494915923e-11 3.8099123237789127e-11 2.251400886393681e-11 3.226139218633022e-11 3.1845273981056e-11 2.605498259636231e-11
          3.665214618443588e-11 3.062810710270088e-11 6.938547677714393e-11 6.846017219219262e-11 5.7646854186571126e-11 6.575887698747444e-11
          1.8866747069256606e-11 1.862720714134246e-11 2.6814276991057767e-11 2.6465433869192134e-11 1.5334300603853687e-11 2.216265082280194e-11
          2.187258852455877e-11 1.7929594265666678e-11 2.5447744073485704e-11 2.102595271193735e-11 4.89107896141187e-11 4.824874966500291e-11
          4.0138760454487284e-11 4.6316783906582616e-11 2.4479423551987105e-11 3.436677997126659e-11 2.03558710255818e-11 2.870621196166386e-11
          2.2388342561495805e-11 3.137986176565963e-11 2.6198841687800147e-11 6.149204117301855e-11 5.173721605455644e-11 5.5980557840785726e-11
          1.683923345132453e-11 2.384449035428353e-11 1.3853052985906467e-11 1.969278766544614e-11 1.5393234031285933e-11 2.1751016253165687e-11
          1.7957805410495224e-11 4.326842542318834e-11 3.5968141724103865e-11 3.933730627847509e-11 1.22850641053337e-10 1.2115223520937877e-10
          1.0433122845477927e-10 1.0287477957617133e-10 1.1619780348654799e-10 9.862777949379827e-11 2.1389704530635877e-10 2.1085054122897377e-10
          1.8084067555571945e-10 2.0196746754593987e-10 8.803044547307693e-11 8.679057294646356e-11 7.379732255764859e-11 7.274948001812918e-11
          8.317632886093147e-11 6.969610315724583e-11 1.5630437272332044e-10 1.5402249894889498e-10 1.302658260980907e-10 1.4737582238917368e-10
          1.0839086861052952e-10 9.194096768443287e-11 9.834347040127684e-11 8.33458102309666e-11 1.8798291656716144e-10 1.6099448721685454e-10
          1.7001328937586906e-10 7.748999397137507e-11 6.489421821022062e-11 7.019069801608182e-11 5.87394234433973e-11 1.3693402220111397e-10
          1.1566860103699979e-10 1.2355979696641056e-10 3.956574635779352e-11 5.4502806071312394e-11 3.359939715740044e-11 4.647145763793047e-11
          3.4967892907668434e-11 4.77612045128636e-11 4.0617043812223316e-11 9.408222587683766e-11 8.084495441269772e-11 8.16626985557821e-11
          2.835510467557367e-11 3.940669612823717e-11 2.3807836928226348e-11 3.323950809362853e-11 2.4926174604245404e-11 3.437736399477613e-11
          2.8950523443462356e-11 6.909766401366728e-11 5.872487777745036e-11 5.97567488262795e-11 3.213696678847501e-11 4.0998440662354676e-11
          2.703499990265525e-11 3.4681298955495405e-11 3.131475955581472e-11 3.7493350588962276e-11 3.161533596895362e-11 6.864050390675718e-11
          5.859056574927637e-11 6.293834159957548e-11 2.2777417381550428e-11 2.9315939018487975e-11 1.907647733117753e-11 2.464573150809892e-11
          2.2197525214680047e-11 2.67262811551687e-11 2.2450831273309417e-11 4.986570117642776e-11 4.2245417712770425e-11 4.541146559570879e-11
          1.5891869190135328e-10 1.3785059856090051e-10 1.3732225144133755e-10 1.1888076566658986e-10 2.627883894355256e-10 2.3041982028642454e-10
          2.263225629399602e-10 1.1887186511603194e-10 1.0188557364948492e-10 1.0233018281901105e-10 8.756892620634734e-11 2.0075053975633462e-10
          1.7376218804873303e-10 1.721220151527437e-10 1.1595715389547838e-10 1.0005038653921785e-10 9.54409209761198e-11 8.20051376602723e-11
          1.8967452324956193e-10 1.6549293982660292e-10 1.5469040037502873e-10 8.590941487421988e-11 7.338334831406908e-11 7.021756013613586e-11
          5.98615662463314e-11 1.4352395011275832e-10 1.2370622856336764e-10 1.1641104201285076e-10 1.9898620887386034e-11 2.789116533821086e-11