<?xml version="1.0"?>
<VTKFile type="UnstructuredGrid" version="0.1" byte_order="LittleEndian" header_type="UInt32" compressor="vtkZLibDataCompressor">
  <UnstructuredGrid>
    <Piece NumberOfPoints="1792" NumberOfCells="1108">
      <PointData>
        <DataArray type="Int32" Name="libmesh_node_id" format="ascii" RangeMin="1954" RangeMax="16590">
          2076 2077 2078 2079 2118 2119
          2148 2149 2196 2197 2198 2199
          2200 2238 2239 2268 2269 2316
          2317 2318 2319 2358 2359 2388
          2389 2400 2401 2404 2405 2407
          2408 2409 2410 2411 2413 2414
          2415 2417 2418 2419 2420 2421
          2422 2423 2424 2425 2426 2427
          2428 2429 2430 2431 2432 2433
          2434 2435 2436 2440 2441 2443
          2444 2446 2503 2504 2505 2506
          2507 2508 2509 2510 2511 2512
          2513 2514 2515 2516 2517 2518
          2521 2522 2524 2526 2547 2548
          2551 2552 2554 2555 2556 2557
          2558 2560 2561 2562 2564 2565
          2566 2567 2568 2569 2570 2571
          2572 2573 2574 2575 2576 2577
          2578 2579 2580 2581 2582 2583
          2584 2585 2586 2587 2588 2589
          2590 2591 2592 2593 2594 2595
          2596 2597 2598 2599 2600 2601
          2602 2603 2604 2605 2606 2607
          2608 2609 2610 2611 2612 2613
          2614 2615 2616 2617 2618 2619
          2620 2621 2622 2623 2624 2625
          2626 2627 2628 2629 2630 2631
          2632 2633 2634 2635 2636 2637
          2643 2644 2649 2650 2651 2652
          2653 2654 2655 2656 2657 2658
          2659 2660 2661 2663 2664 2665
          2667 2668 2669 2756 2757 2758
          2759 2760 2761 2762 2763 2764
          2765 2766 2767 2768 2769 2770
          2771 2772 2773 2777 2778 2800
          2802 2804 2805 2807 2809 2810
          2811 2812 2813 2814 2815 2816
          2817 2818 2819 2820 2821 2822
          2823 2824 2825 2826 2827 2828
          2829 2830 2831 2832 2833 2834
          2835 2836 2837 2838 2839 2840
          2841 2842 2843 2844 2845 2846
          2847 2848 2849 2850 2851 2852
          2853 2854 2855 2856 2857 2858
          2859 2860 2861 2862 2863 2864
          2865 2866 2867 2868 2869 2870
          2871 2872 2928 2929 2930 2931
          2932 2933 2934 2935 2936 2937
          2938 2939 2940 2941 2942 2943
          2944 2945 2946 2947 2948 2949
          2950 2951 2952 2953 2954 2955
          2956 2957 2958 2959 2960 2961
          2962 2963 2964 2965 2966 2967
          2968 2969 2970 2971 2972 2973
          2974 2975 2976 2977 2978 2979
          2980 2981 2982 2983 2984 2985
          2986 2987 2988 2989 2990 2991
          2992 2993 2994 2995 2996 2997
          2998 2999 3000 3001 3002 3003
          3004 3005 3006 3007 3008 3009
          3010 3011 3012 3013 3014 3015
          3016 3017 3018 3019 3020 3021
          3022 3023 3024 3025 3026 3027
          3028 3029 3030 3031 3032 3033
          3034 3035 3036 3037 3038 3039
          3040 3041 3042 3043 3044 3045
          3046 3047 3048 3049 3050 3051
          3052 3053 3054 3055 3056 3057
          3058 3059 3060 3061 3062 3063
          3064 3065 3066 3067 3068 3069
          3070 3071 3072 3073 3074 3075
          3076 3077 3078 3079 3080 3081
          3082 3083 3084 3085 3086 3087
          3088 3089 3090 3091 3092 3093
          3094 3095 3096 3097 3098 3099
          3100 3101 3102 3103 3104 3105
          3106 3107 3108 3109 3110 3111
          3112 3113 3114 3115 3116 3117
          3118 3119 3120 3121 3122 3123
          3124 3125 3126 3127 3128 3129
          3130 3131 3132 3133 3134 3135
          3136 3137 3138 3139 3140 3141
          3142 3143 3144 3145 3146 3147
          3148 3149 3150 3151 3152 3153
          3154 3155 3156 3157 3158 3159
          3160 3161 3162 3163 3164 3165
          3166 3167 3168 3169 3170 3171
          3172 3173 3174 3175 3176 3177
          3178 3179 3180 3181 3182 3183
          3184 3185 3186 3187 3188 3189
          3190 3191 3192 3193 3194 3195
          3196 3197 3198 3199 3200 3201
          3202 3203 3204 3205 3206 3207
          3208 3209 3210 3211 3212 3213
          3214 3215 3216 3217 3218 3219
          3220 3221 3222 3223 3224 3225
          3226 3227 3228 3229 3230 3231
          3232 3233 3234 3235 3236 3237
          3238 3239 3240 3241 3242 3243
          3244 3245 3246 3247 3248 3249
          3250 3251 3252 3253 3254 3255
          3259 3260 3262 3263 3265 3280
          3281 3282 3283 3284 3285 3286
          3287 3288 3289 3300 3301 3304
          3306 3307 3309 3320 3322 3324
          3326 3334 3335 3336 3337 3338
          3339 3340 3341 3342 3343 3344
          3345 3346 3347 3348 3349 3350
          3351 3352 3353 3712 3713 3716
          3717 3719 3720 3722 3723 3724
          3725 3726 3727 3728 3729 3730
          3731 3732 3733 3734 3735 3736
          3737 3738 3739 3740 3741 3742
          3743 3744 3745 3746 3747 3748
          3749 3750 3753 3754 3787 3788
          3789 3790 3793 3794 3795 3797
          3798 3800 3821 3822 3823 3824
          3825 3826 3827 3828 3829 3830
          3831 3832 3833 3834 3835 3836
          3837 3838 3839 3840 3841 3842
          3843 3844 3845 3846 3847 3848
          3849 3850 3851 3852 3853 3854
          3855 3856 3857 3858 3859 3860
          3861 3862 3863 3864 3865 3866
          3867 3868 3869 3870 3871 3961
          3962 3963 3964 3965 3966 3967
          3968 3969 3970 3971 3972 3973
          3974 3975 3976 3977 3978 3979
          3980 3981 3982 3983 3984 3985
          3986 3987 3988 3989 3990 4015
          4016 4017 4018 4019 4020 4021
          4022 4023 4024 4025 4026 4027
          4028 4029 4030 4031 4032 4033
          4034 4035 4036 4037 4038 4039
          4040 4041 4042 4043 4044 4045
          4046 4047 4048 4049 4050 4051
          4052 4053 4054 4055 4056 4057
          4058 4059 4060 4061 4062 4063
          4064 4065 4066 4067 4068 4069
          4070 4071 4072 4073 4074 4075
          4076 4077 4078 4079 4080 4081
          4082 4083 4084 4085 4086 4087
          4088 4089 4090 4091 4092 4093
          4094 4095 4096 4097 4098 4099
          4100 4101 4102 4103 4104 4105
          4106 4107 4108 4109 4110 4111
          4112 4113 4114 4115 4116 4117
          4118 4119 4120 4121 4122 4123
          4124 4125 4126 4127 4128 4129
          4130 4131 4132 4133 4134 4135
          4136 4137 4138 4139 4140 4141
          4142 4143 4144 4145 4146 4147
          4148 4149 4150 4151 4152 4153
          4154 4155 4156 4157 4158 4159
          4160 4161 4162 4163 4164 4165
          4166 4167 4168 4169 4170 4171
          4172 4173 4174 4175 4176 4177
          4178 4179 4180 4181 4182 4183
          4184 4185 4186 4187 4188 4189
          4190 4191 4192 4193 4194 4195
          4196 4197 4198 4199 4200 4201
          4202 4203 4204 4205 4206 4207
          4208 4209 4214 4215 4216 4234
          4235 4236 4237 4238 4239 4240
          4241 4242 4243 4244 4245 4248
          4250 4251 4253 4254 4255 4256
          4257 4258 4259 4260 4261 4265
          4267 4268 4269 4270 4271 4272
          4273 4274 4275 4276 4277 4278
          4279 4282 4284 4285 4287 4288
          4289 4290 4291 4292 4293 4294
          4295 4297 4299 4301 4370 4371
          4372 4376 4377 4378 4379 4380
          4381 4382 4383 4387 5989 5991
          5993 5994 5996 5998 6009 6010
          6011 6012 6013 6014 6015 6016
          6017 6018 6019 6020 6021 6022
          6023 6024 6025 6026 6027 6028
          6039 6040 6041 6042 6043 6044
          6045 6046 6047 6048 6049 6050
          6051 6052 6053 6054 6055 6554
          6555 6556 6557 6558 6559 6560
          6561 6562 6563 6564 6565 6566
          6567 6568 6569 6570 6571 6572
          6573 6574 6575 6576 6577 6578
          6579 6580 6581 6582 6583 6584
          6585 6586 6587 6588 6589 6590
          6591 6592 6593 6594 6595 6596
          6597 6598 6599 6600 6601 6602
          6603 6604 6605 6606 6607 6608
          6609 6610 6611 6612 6613 6614
          6615 6616 6617 6618 6619 6620
          6621 6622 6623 6624 6625 6626
          6627 6628 6629 6630 6631 6632
          6633 6634 6635 6636 6637 6638
          6639 6640 6641 6642 6643 6644
          6645 6646 6647 6648 6649 6650
          6651 6652 6653 6654 6655 6656
          6657 6658 6659 6660 6661 6662
          6663 6664 6665 6666 6667 6668
          6669 6670 6671 6672 6673 6674
          6675 6676 6677 6678 6679 6680
          6681 6682 6683 6684 6685 6686
          6687 6688 6689 6690 6691 6692
          6693 6694 6695 6696 6697 6698
          6699 6700 6701 6702 6703 6704
          6705 6706 6707 6708 6709 6710
          6711 6712 6713 6714 6715 6716
          6717 6718 6719 6720 6721 6722
          6723 6724 6725 6726 6727 6728
          6729 6730 6731 6732 6733 6734
          6735 6736 6737 6738 6739 6740
          6741 6742 6743 6744 6745 6746
          6747 6748 6749 6750 6751 6752
          6753 6754 6755 6756 6757 6758
          6759 6760 6761 6762 6763 6764
          6765 6766 6767 6768 6769 6770
          6771 6772 6773 6774 6775 6776
          6777 6778 6779 6780 6781 6782
          6783 6784 6785 6786 6787 6788
          6789 6790 6791 6792 6793 6794
          6795 6796 6797 6798 6799 6800
          6801 6802 6803 6804 6805 6806
          6807 6808 6809 6810 6811 6812
          6813 6814 6815 6816 6817 6818
          6819 6820 6821 6822 6823 6824
          6825 6826 6827 6828 6829 6830
          6831 6832 6833 6834 6835 6836
          6837 6838 6839 6840 6841 6842
          6843 6844 6845 6846 6847 6848
          6849 6850 6851 6852 6853 6854
          6855 6856 6857 6858 6859 6860
          6861 6862 6863 6864 6865 6866
          6867 6868 6869 6870 6871 6872
          6873 6874 6875 6876 6877 6878
          6879 6880 6881 6882 6883 6884
          6885 6886 6887 6888 6889 6890
          6891 6892 6893 6894 6895 6896
          6897 6898 6899 6900 6901 6902
          6903 6904 6905 6906 6907 6908
          6909 6910 6911 6912 6913 6914
          6915 6916 6917 6918 6919 6920
          6921 6922 6923 6924 6925 6926
          6927 6928 6929 6930 6931 6932
          6933 6934 6935 6936 6937 6938
          6939 6940 6941 6942 6943 6944
          6945 6946 6947 6948 6949 6950
          6951 6952 6953 6954 6955 6956
          6957 6958 6959 6960 6961 6962
          6963 6964 6965 6966 6967 6968
          6969 6970 6971 6972 6973 6974
          6975 6976 6977 6978 6979 6980
          6981 6982 6983 6984 6985 6986
          6987 6988 6989 6990 6995 6996
          6997 7001 7002 7003 7004 7005
          7006 7007 7008 7009 7013 7014
          7015 7016 7017 7018 7019 7020
          7021 7022 7023 7024 7025 7026
          7027 7028 7029 7030 7031 7032
          7033 7034 7035 7036 7037 7038
          7039 7040 7041 7042 7043 7044
          7045 7046 7047 7048 7049 7050
          7051 7052 7053 7054 7055 7056
          7057 7058 7059 7060 7061 7062
          7063 7064 7065 7066 7067 7068
          7069 7070 7071 7072 7073 7074
          7075 7076 7077 7078 7079 7080
          7081 7082 7083 7084 7085 7086
          7087 7088 7089 7090 7101 7102
          7103 7104 7105 7106 7107 7115
          7116 7117 7118 7119 7120 7121
          7122 7123 7124 7135 7136 7137
          7138 7139 7140 7141 7149 7150
          7151 7152 7153 7154 7155 7156
          7157 7158 7159 7160 7161 7162
          7163 7164 7165 7166 7167 7168
          7169 7170 7171 7172 7173 7174
          7175 7176 7177 7178 7179 7180
          7181 7182 7183 7184 7185 7186
          7187 7188 7189 7190 7191 7192
          7193 7194 7195 7196 7197 7205
          7206 7207 7211 7212 7213 7214
          7215 7216 7217 7225 7226 7227
          7228 7229 7230 7231 16581 16582
          16585 16586 16588 16589 1954 1956
          1957 1955 2074 2075 1958 1959
          1960 1961 2080 2081 1998 1997
          2117 1999 2000 2120 2028 2027
          2147 2029 2030 2150 2195 2237
          2201 2240 2267 2270 2357 2387
          2360 2390 2402 2406 2412 2519
          2442 2520 2523 2525 2403 2549
          2550 2553 2559 2314 2563 2416
          2662 2666 2321 2774 2775 2776
          2779 2437 2801 2803 2806 2315
          2808 2873 3714 3715 3718 3721
          2194 3751 3752 3755 3791 3792
          3796 3799 5990 5992 5995 5997
          16583 16584 16587 16590
        </DataArray>
        <DataArray type="Float64" Name="bounds" format="ascii" RangeMin="0" RangeMax="0">
          0 0 0 0 0 0
          0 0 0 0 0 0
          0 0 0 0 0 0
          0 0 0 0 0 0
          0 0 0 0 0 0
          0 0 0 0 0 0
          0 0 0 0 0 0
          0 0 0 0 0 0
          0 0 0 0 0 0
          0 0 0 0 0 0
          0 0 0 0 0 0
          0 0 0 0 0 0
          0 0 0 0 0 0
          0 0 0 0 0 0
          0 0 0 0 0 0
          0 0 0 0 0 0
          0 0 0 0 0 0
          0 0 0 0 0 0
          0 0 0 0 0 0
          0 0 0 0 0 0
          0 0 0 0 0 0
          0 0 0 0 0 0
          0 0 0 0 0 0
          0 0 0 0 0 0
          0 0 0 0 0 0
          0 0 0 0 0 0
          0 0 0 0 0 0
          0 0 0 0 0 0
          0 0 0 0 0 0
          0 0 0 0 0 0
          0 0 0 0 0 0
          0 0 0 0 0 0
          0 0 0 0 0 0
          0 0 0 0 0 0
          0 0 0 0 0 0
          0 0 0 0 0 0
          0 0 0 0 0 0
          0 0 0 0 0 0
          0 0 0 0 0 0
          0 0 0 0 0 0
          0 0 0 0 0 0
          0 0 0 0 0 0
          0 0 0 0 0 0
          0 0 0 0 0 0
          0 0 0 0 0 0
          0 0 0 0 0 0
          0 0 0 0 0 0
          0 0 0 0 0 0
          0 0 0 0 0 0
          0 0 0 0 0 0
          0 0 0 0 0 0
          0 0 0 0 0 0
          0 0 0 0 0 0
          0 0 0 0 0 0
          0 0 0 0 0 0
          0 0 0 0 0 0
          0 0 0 0 0 0
          0 0 0 0 0 0
          0 0 0 0 0 0
          0 0 0 0 0 0
          0 0 0 0 0 0
          0 0 0 0 0 0
          0 0 0 0 0 0
          0 0 0 0 0 0
          0 0 0 0 0 0
          0 0 0 0 0 0
          0 0 0 0 0 0
          0 0 0 0 0 0
          0 0 0 0 0 0
          0 0 0 0 0 0
          0 0 0 0 0 0
          0 0 0 0 0 0
          0 0 0 0 0 0
          0 0 0 0 0 0
          0 0 0 0 0 0
          0 0 0 0 0 0
          0 0 0 0 0 0
          0 0 0 0 0 0
          0 0 0 0 0 0
          0 0 0 0 0 0
          0 0 0 0 0 0
          0 0 0 0 0 0
          0 0 0 0 0 0
          0 0 0 0 0 0
          0 0 0 0 0 0
          0 0 0 0 0 0
          0 0 0 0 0 0
          0 0 0 0 0 0
          0 0 0 0 0 0
          0 0 0 0 0 0
          0 0 0 0 0 0
          0 0 0 0 0 0
          0 0 0 0 0 0
          0 0 0 0 0 0
          0 0 0 0 0 0
          0 0 0 0 0 0
          0 0 0 0 0 0
          0 0 0 0 0 0
          0 0 0 0 0 0
          0 0 0 0 0 0
          0 0 0 0 0 0
          0 0 0 0 0 0
          0 0 0 0 0 0
          0 0 0 0 0 0
          0 0 0 0 0 0
          0 0 0 0 0 0
          0 0 0 0 0 0
          0 0 0 0 0 0
          0 0 0 0 0 0
          0 0 0 0 0 0
          0 0 0 0 0 0
          0 0 0 0 0 0
          0 0 0 0 0 0
          0 0 0 0 0 0
          0 0 0 0 0 0
          0 0 0 0 0 0
          0 0 0 0 0 0
          0 0 0 0 0 0
          0 0 0 0 0 0
          0 0 0 0 0 0
          0 0 0 0 0 0
          0 0 0 0 0 0
          0 0 0 0 0 0
          0 0 0 0 0 0
          0 0 0 0 0 0
          0 0 0 0 0 0
          0 0 0 0 0 0
          0 0 0 0 0 0
          0 0 0 0 0 0
          0 0 0 0 0 0
          0 0 0 0 0 0
          0 0 0 0 0 0
          0 0 0 0 0 0
          0 0 0 0 0 0
          0 0 0 0 0 0
          0 0 0 0 0 0
          0 0 0 0 0 0
          0 0 0 0 0 0
          0 0 0 0 0 0
          0 0 0 0 0 0
          0 0 0 0 0 0
          0 0 0 0 0 0
          0 0 0 0 0 0
          0 0 0 0 0 0
          0 0 0 0 0 0
          0 0 0 0 0 0
          0 0 0 0 0 0
          0 0 0 0 0 0
          0 0 0 0 0 0
          0 0 0 0 0 0
          0 0 0 0 0 0
          0 0 0 0 0 0
          0 0 0 0 0 0
          0 0 0 0 0 0
          0 0 0 0 0 0
          0 0 0 0 0 0
          0 0 0 0 0 0
          0 0 0 0 0 0
          0 0 0 0 0 0
          0 0 0 0 0 0
          0 0 0 0 0 0
          0 0 0 0 0 0
          0 0 0 0 0 0
          0 0 0 0 0 0
          0 0 0 0 0 0
          0 0 0 0 0 0
          0 0 0 0 0 0
          0 0 0 0 0 0
          0 0 0 0 0 0
          0 0 0 0 0 0
          0 0 0 0 0 0
          0 0 0 0 0 0
          0 0 0 0 0 0
          0 0 0 0 0 0
          0 0 0 0 0 0
          0 0 0 0 0 0
          0 0 0 0 0 0
          0 0 0 0 0 0
          0 0 0 0 0 0
          0 0 0 0 0 0
          0 0 0 0 0 0
          0 0 0 0 0 0
          0 0 0 0 0 0
          0 0 0 0 0 0
          0 0 0 0 0 0
          0 0 0 0 0 0
          0 0 0 0 0 0
          0 0 0 0 0 0
          0 0 0 0 0 0
          0 0 0 0 0 0
          0 0 0 0 0 0
          0 0 0 0 0 0
          0 0 0 0 0 0
          0 0 0 0 0 0
          0 0 0 0 0 0
          0 0 0 0 0 0
          0 0 0 0 0 0
          0 0 0 0 0 0
          0 0 0 0 0 0
          0 0 0 0 0 0
          0 0 0 0 0 0
          0 0 0 0 0 0
          0 0 0 0 0 0
          0 0 0 0 0 0
          0 0 0 0 0 0
          0 0 0 0 0 0
          0 0 0 0 0 0
          0 0 0 0 0 0
          0 0 0 0 0 0
          0 0 0 0 0 0
          0 0 0 0 0 0
          0 0 0 0 0 0
          0 0 0 0 0 0
          0 0 0 0 0 0
          0 0 0 0 0 0
          0 0 0 0 0 0
          0 0 0 0 0 0
          0 0 0 0 0 0
          0 0 0 0 0 0
          0 0 0 0 0 0
          0 0 0 0 0 0
          0 0 0 0 0 0
          0 0 0 0 0 0
          0 0 0 0 0 0
          0 0 0 0 0 0
          0 0 0 0 0 0
          0 0 0 0 0 0
          0 0 0 0 0 0
          0 0 0 0 0 0
          0 0 0 0 0 0
          0 0 0 0 0 0
          0 0 0 0 0 0
          0 0 0 0 0 0
          0 0 0 0 0 0
          0 0 0 0 0 0
          0 0 0 0 0 0
          0 0 0 0 0 0
          0 0 0 0 0 0
          0 0 0 0 0 0
          0 0 0 0 0 0
          0 0 0 0 0 0
          0 0 0 0 0 0
          0 0 0 0 0 0
          0 0 0 0 0 0
          0 0 0 0 0 0
          0 0 0 0 0 0
          0 0 0 0 0 0
          0 0 0 0 0 0
          0 0 0 0 0 0
          0 0 0 0 0 0
          0 0 0 0 0 0
          0 0 0 0 0 0
          0 0 0 0 0 0
          0 0 0 0 0 0
          0 0 0 0 0 0
          0 0 0 0 0 0
          0 0 0 0 0 0
          0 0 0 0 0 0
          0 0 0 0 0 0
          0 0 0 0 0 0
          0 0 0 0 0 0
          0 0 0 0 0 0
          0 0 0 0 0 0
          0 0 0 0 0 0
          0 0 0 0 0 0
          0 0 0 0 0 0
          0 0 0 0 0 0
          0 0 0 0 0 0
          0 0 0 0 0 0
          0 0 0 0 0 0
          0 0 0 0 0 0
          0 0 0 0 0 0
          0 0 0 0 0 0
          0 0 0 0 0 0
          0 0 0 0 0 0
          0 0 0 0 0 0
          0 0 0 0 0 0
          0 0 0 0 0 0
          0 0 0 0 0 0
          0 0 0 0 0 0
          0 0 0 0 0 0
          0 0 0 0 0 0
          0 0 0 0 0 0
          0 0 0 0 0 0
          0 0 0 0 0 0
          0 0 0 0 0 0
          0 0 0 0 0 0
          0 0 0 0 0 0
          0 0 0 0 0 0
          0 0 0 0 0 0
          0 0 0 0 0 0
          0 0 0 0 0 0
          0 0 0 0 0 0
          0 0 0 0 0 0
          0 0 0 0 0 0
          0 0 0 0 0 0
          0 0 0 0 0 0
          0 0 0 0 0 0
          0 0 0 0
        </DataArray>
        <DataArray type="Float64" Name="gradient_error" format="ascii" RangeMin="1.0405829055708027e-11" RangeMax="1.5527117151048426e-7">
          1.1325980842490849e-9 1.3226978081560378e-9 3.243754128781561e-10 5.015783764280643e-10 1.013318728795227e-9 4.1925781446621316e-10
          4.0555283010331507e-10 1.754535092288169e-10 1.0205156974328296e-8 2.7190737788843154e-8 1.5071764279326523e-9 1.05907621915597e-9
          1.0510036560288581e-10 1.1843119754568428e-9 4.6548759871274895e-10 8.212185913394599e-10 3.1446855206530083e-10 1.563404425909809e-8
          2.2572352097024075e-8 2.691508214974282e-10 6.974448410566396e-9 1.4195529266234472e-9 3.062913741706741e-10 1.0168977170644103e-9
          3.6201851315369514e-10 1.561880154082405e-8 4.248346525733348e-8 1.0604312337615086e-7 9.349154316804367e-8 3.178150922171456e-8
          6.184461183408409e-8 6.325995058125745e-8 4.687208072266104e-8 4.624661851131495e-8 3.3282057028266934e-8 1.145762742755559e-8
          7.610517318412598e-8 2.581689670300187e-8 3.083993905103573e-8 5.209253836205298e-9 1.5356597616232825e-8 5.520179323174989e-8
          4.469470249604118e-8 1.7120218098090952e-9 4.185087267071709e-8 2.6462623555393097e-8 1.5981122516160687e-8 1.5614595036682722e-8
          2.3055387057455563e-9 2.466845674825033e-8 2.949442762993412e-8 3.2139282826273286e-8 1.3934849229892779e-8 3.1658346937771317e-10
          2.797991614216321e-10 2.3808958604675243e-8 1.428960062223776e-8 1.586741466230931e-10 7.992242799143196e-10 5.209438363461002e-10
          4.4838903079851e-8 1.8977017800314017e-9 9.497014088053446e-10 1.0338195431102269e-9 1.8045141730422367e-9 4.253407582848028e-9
          4.683637076247802e-10 3.111037973012195e-10 4.368704120161712e-10 6.53192608046481e-10 1.1741705518784226e-9 2.2741309296000382e-10
          2.7242565500069777e-9 7.47299562258583e-9 2.1003052062898854e-10 8.695148040767907e-10 1.4353485802273785e-10 8.626341106458046e-11
          4.9996879675713797e-11 4.304197960498012e-11 5.4744896257563976e-11 3.608707953424644e-11 1.45314263709811e-7 1.3066261184131746e-7
          1.3230729061573532e-7 1.3200433210720476e-7 9.29386905837439e-8 6.833603364157853e-8 6.507466857232753e-8 1.0543899586428746e-7
          1.1737727809025509e-7 8.231203052609717e-8 7.239699658064362e-8 8.698669040255189e-8 2.2932990394662145e-8 1.1123379183288055e-7
          6.293957187492843e-8 5.216364581068407e-8 2.9124351112832113e-8 2.922262729727962e-8 5.0633978872498736e-8 3.354147097289097e-8
          3.275542967858663e-8 5.449332553672197e-8 5.071602947505954e-8 3.703676269952696e-8 1.313762806346703e-8 2.598125430110244e-8
          2.9935410882823293e-8 5.09777030767104e-8 5.932108492251683e-8 4.792998577696731e-8 3.91551882796758e-8 3.690400671911144e-8
          4.405676098246619e-8 4.637339795382118e-8 4.18226937103578e-8 4.843922185230242e-8 3.675413341821982e-8 3.6031575408789914e-8
          1.921460661520719e-8 3.505867610045124e-8 4.192140234280329e-8 2.7714547607768882e-8 4.932360073160463e-8 3.892325710675434e-8
          5.554573804086946e-8 4.7492910160935656e-8 3.247507741850114e-8 4.8977463086719817e-8 5.3456241185839465e-8 3.1983132799632214e-8
          3.4568832753133736e-8 3.206486576270404e-8 1.7548229949884773e-8 5.1443040483006045e-8 4.871726429470684e-8 3.105780559670443e-8
          2.188893718893765e-8 3.0566829791016984e-8 2.4983559066155333e-8 2.9261846625418342e-8 1.7606550559554828e-8 2.0297622074953796e-8
          4.77057229934184e-9 7.149315465291531e-9 1.2320696266870545e-8 5.008944917845403e-9 1.4520631034883154e-8 1.7500677958399303e-8
          1.1447842996868128e-8 9.482105208955687e-9 3.309617380309102e-8 2.5100731430971976e-8 3.7073929290860836e-8 5.8907788730125585e-8
          1.7613329076023264e-8 3.8278713354207056e-8 4.046561276081817e-8 2.0212916243879483e-8 2.8327239112354586e-8 3.1008876219574376e-8
          2.2085856758153305e-10 4.350414107526048e-8 3.224888641888455e-8 3.2014717091495035e-8 1.512627713160924e-8 1.091641437029838e-8
          9.21138563614603e-9 3.123939555238935e-8 5.2842751826863546e-8 1.339779267210282e-8 1.5454548769465e-8 9.60862581338086e-9
          1.8991015010137435e-8 1.7066307178357618e-9 3.038510214445682e-9 1.4399385095030968e-9 8.511764481574939e-9 2.161672025557706e-8
          4.268895410231966e-9 6.382612584371026e-9 2.1306166696185732e-8 9.507514635445295e-9 5.358446140847846e-10 7.278649998291734e-10
          3.088952358474787e-8 1.4396153979575789e-8 9.548885172145833e-10 9.763876545190145e-10 9.631122400709482e-10 1.333233217258872e-9
          5.032651891865435e-9 3.222079860381631e-9 3.1606616873809543e-9 4.666286749422728e-9 3.6543484714169295e-10 1.137624940015277e-9
          1.1511155018724578e-9 9.498368256228816e-10 3.0992435143802777e-9 4.299921606980022e-9 1.1646060637296383e-9 3.708024445173984e-11
          4.2539938297767965e-11 1.233800194470534e-10 1.2015421826177988e-10 4.7999632143796105e-11 1.1692841707650641e-10 1.3980852907989835e-9
          7.201809648828109e-9 5.055184513371431e-10 1.6975492111079786e-9 1.3005534006857234e-8 2.8895799708788144e-9 5.374848855749781e-8
          5.6340188602508783e-8 5.3430593702714696e-8 6.940599324165507e-8 5.007054392595426e-8 3.629448044974088e-8 2.507594238712689e-8
          3.0102608430775145e-8 3.361489274792622e-8 2.660299488873216e-8 5.355948858441801e-8 8.247179788080138e-8 2.272971021080116e-8
          3.51292744744234e-8 8.116608528849247e-9 9.489684532334075e-9 1.2818008304133352e-8 5.332799744912331e-8 4.8136418080482406e-8
          4.035239601547953e-8 4.507984813404517e-8 6.2971077368788935e-9 4.1848832169241e-8 3.478739167332914e-8 1.0862760535818903e-8
          3.2568373950476655e-8 3.683169881896703e-8 2.1555706650862238e-8 2.569520084862494e-9 3.312997844113176e-9 3.4657101624962865e-8
          2.8466163616274197e-8 1.3214123877686888e-9 2.7043071261266716e-8 2.188596061770262e-8 4.070242760341185e-9 1.503995586387482e-8
          1.0982389866308023e-8 4.585326619371439e-8 3.302353238582355e-8 1.718895080396991e-8 2.2583568863095164e-8 2.0337717659672064e-8
          2.7978186922220416e-8 5.136745907989416e-10 5.800014275642087e-10 1.9633995686265357e-8 1.568356130948778e-8 3.9683433528186204e-10
          1.2984469597979965e-8 1.0262581735455581e-8 6.260753461288544e-10 7.486424939932993e-9 4.6755405309428025e-9 2.889154692573854e-10
          2.770991329565481e-10 7.58720845451303e-9 5.966017385655804e-9 1.459873609740311e-10 3.84177818808196e-9 3.012102779149665e-9
          2.5706116201943944e-10 2.6043680014626025e-9 2.143636273675075e-8 2.1832265145461307e-8 1.9840470712281932e-8 1.7501268340635086e-8
          1.735386212492674e-8 1.8937149203971523e-8 1.8273941113541266e-8 2.5670731206487785e-8 1.7681723491559537e-8 2.0265626521856824e-8
          2.3301879786495817e-8 2.2564475713552e-8 2.151850490363742e-8 2.444836806140791e-8 1.3271361513102724e-8 1.604203326248174e-8
          1.67074115148006e-8 1.5773367589852677e-8 2.1827071640608183e-8 2.7360829879103445e-8 2.7552348238717803e-8 1.8661118087648027e-8
          2.1558283794202607e-8 2.947429966164118e-8 1.9915537399253436e-8 2.301972517335349e-8 2.7427266062944054e-8 2.606649153753462e-8
          2.7742960046814935e-8 1.2114785227908016e-8 1.67909288644818e-8 1.8092071207904492e-8 2.4367363398313193e-8 3.1206908936905386e-8
          3.148845049959916e-8 2.1560710924880043e-8 2.4824026120231952e-8 3.3710237498179227e-8 2.350093195651074e-8 2.691784881168647e-8
          3.093652385188536e-8 2.9643395843653295e-8 3.176706859408754e-8 1.4278435529203875e-8 1.9561742023085616e-8 2.127739118730217e-8
          2.783714199015445e-8 2.526964812032876e-8 2.4684545280640054e-8 2.6963946983719903e-8 2.5563747573758432e-8 2.6349374153125968e-8
          2.829549656282484e-8 2.342863071310156e-8 2.625036039312776e-8 2.508028857685517e-8 2.4120916533835667e-8 2.7192902116641872e-8
          2.580100685152978e-8 2.854013518857005e-8 2.711814993771295e-8 2.7454442990595652e-8 2.9604290847455062e-8 2.8639391170506146e-8
          3.1133712245276866e-8 2.2229946315491537e-8 2.3377769002398895e-8 2.444660177964988e-8 2.984530863457164e-8 3.141537675000893e-8
          2.463800845098746e-8 3.115914725056316e-8 2.9448145229094397e-8 2.891059265462564e-8 3.553620709910913e-8 3.723655978093561e-8
          3.558071644727874e-8 3.4092468493313665e-8 2.9818733334382854e-8 3.892995253401703e-8 3.704463434362927e-8 2.482317184285902e-8
          3.0791991089632314e-8 2.9868776905730884e-8 3.1640811719390946e-8 4.2536424586004174e-8 4.2112110373078264e-8 3.8980818929220883e-8
          4.5625602524776715e-8 3.926347504619514e-8 3.617463486608206e-8 3.619394856059495e-8 2.5776411810991838e-8 2.9347316302270318e-8
          2.8469255594629312e-8 3.218512225987235e-8 3.4737454376649937e-8 3.416103816101041e-8 3.688699989126098e-8 1.7253934198109504e-8
          2.3293881833148104e-8 2.5682950993304615e-8 3.2317003448023395e-8 3.169349009985062e-8 3.553180291044451e-8 3.56060026595214e-8
          3.95215010881903e-8 3.9997887167237734e-8 4.356050633994498e-8 2.1628103339000946e-8 2.8552672740195566e-8 3.206233247970287e-8
          3.82296345784908e-8 2.98577344169764e-8 3.2890473376455496e-8 3.108660080637843e-8 3.478649642369162e-8 2.366601686721163e-8
          2.5281212729052396e-8 2.604560474216706e-8 3.330007804811247e-8 3.5384186819571895e-8 2.6790120602791555e-8 3.234085416504954e-8
          3.683596189627279e-8 3.360616026651716e-8 3.9046671505982804e-8 2.460661876070272e-8 2.677749670518481e-8 2.7467660853873267e-8
          3.766988623154967e-8 4.017050168205925e-8 2.8620227211822165e-8 3.1924039899596746e-8 2.9984297836289576e-8 4.055661970710729e-8
          3.843211284764599e-8 2.9868219833672684e-8 4.204031003595718e-8 3.966146858094666e-8 2.4652025835141143e-8 3.237629636683365e-8
          3.2939136864072343e-8 5.0712456284354953e-8 4.954833803097505e-8 5.387123724394888e-8 4.457513280693291e-8 3.1532503805428805e-8
          2.9397841026944696e-8 4.331448263290626e-8 4.0656267431520153e-8 2.8493818682540027e-8 4.432602980719538e-8 4.136401600601986e-8
          2.3524842061827926e-8 3.326365288822093e-8 3.3288616396633254e-8 6.073360434749061e-8 5.848296422815426e-8 5.4539068273740334e-8
          5.050825182296036e-8 1.7990038346505896e-8 1.8637291310660335e-8 2.388605279117891e-8 2.3963385256894142e-8 1.717699261356225e-8
          2.3650933620366235e-8 1.4720580795711918e-8 1.9327118836875212e-8 1.980446322824792e-8 1.8706220638523922e-8 3.486025192730122e-8
          3.606170650059968e-8 2.523341236954652e-8 1.628695645319149e-8 2.3276367282963298e-8 1.525172740335857e-8 2.2687918567256322e-8
          1.2787407031187716e-8 1.802348101961879e-8 1.720060654609047e-8 3.71623561317154e-8 3.81156403839677e-8 2.532346798033418e-8
          4.042015576421975e-8 4.433454896123908e-8 3.8488281243670144e-8 4.626122820043052e-8 4.7652657903409855e-8 5.238888595090305e-8