<?xml version="1.0"?>
<VTKFile type="UnstructuredGrid" version="0.1" byte_order="LittleEndian" header_type="UInt32" compressor="vtkZLibDataCompressor">
  <UnstructuredGrid>
    <Piece NumberOfPoints="1120" NumberOfCells="672">
      <PointData>
        <DataArray type="Int32" Name="libmesh_node_id" format="ascii" RangeMin="1170" RangeMax="4477">
          1172 1258 1260 1261 1320 1324
          1325 1327 1328 1329 1331 1333
          1334 1335 1337 1338 1346 1347
          1350 1352 1429 1430 1433 1434
          1436 1437 1438 1439 1440 1442
          1443 1444 1445 1446 1447 1448
          1449 1450 1451 1452 1453 1454
          1455 1456 1457 1458 1459 1460
          1461 1462 1463 1464 1465 1466
          1467 1468 1469 1470 1471 1472
          1473 1474 1475 1476 1477 1478
          1479 1483 1484 1485 1486 1487
          1489 1504 1505 1506 1507 1508
          1509 1510 1511 1512 1513 1596
          1597 1598 1599 1600 1601 1602
          1603 1604 1605 1606 1607 1608
          1609 1610 1612 1614 1615 1617
          1619 1620 1621 1622 1623 1627
          1628 1688 1689 1690 1691 1692
          1693 1694 1695 1696 1697 1698
          1699 1700 1701 1702 1703 1704
          1705 1706 1707 1708 1709 1710
          1711 1712 1713 1714 1715 1716
          1717 1718 1719 1720 1721 1722
          1723 1724 1725 1726 1727 1728
          1729 1730 1731 1732 1733 1734
          1735 1736 1737 1738 1739 1740
          1741 1742 1743 1744 1745 1746
          1747 1748 1749 1750 1751 1752
          1753 1754 1755 1756 1757 1758
          1759 1760 1761 1762 1763 1764
          1765 1766 1767 1768 1769 1770
          1771 1772 1773 1774 1775 1776
          1777 1778 1779 1780 1781 1782
          1783 1784 1785 1786 1787 1788
          1789 1790 1791 1792 1793 1794
          1795 1796 1797 1798 1799 1800
          1801 1802 1803 1804 1805 1806
          1807 1808 1809 1810 1811 1812
          1813 1814 1815 1816 1817 1818
          1819 1820 1821 1822 1823 1824
          1825 1826 1827 1828 1832 1833
          1835 1836 1838 1839 1840 1841
          1842 1843 1844 1845 1846 1847
          1848 1849 1850 1851 1852 1853
          1856 1857 1858 1859 1861 1862
          1863 1864 1865 1866 1867 1868
          1869 1870 1871 1872 1873 1876
          1878 1879 1881 1882 1883 1884
          1885 1886 1887 1888 1889 1890
          1891 1892 1893 1895 1978 1979
          1980 1981 1982 1983 1984 1985
          1986 1987 1988 1989 1990 1991
          1992 1993 1994 1995 1996 1997
          2161 2162 2165 2166 2168 2169
          2171 2172 2173 2174 2175 2176
          2177 2178 2179 2180 2205 2206
          2207 2208 2209 2210 2211 2212
          2213 2214 2215 2216 2217 2218
          2219 2220 2221 2222 2223 2224
          2225 2226 2227 2228 2229 2230
          2231 2232 2233 2234 2235 2236
          2237 2238 2239 2240 2241 2242
          2243 2244 2245 2246 2247 2248
          2331 2332 2333 2334 2335 2336
          2337 2338 2339 2340 2341 2342
          2343 2344 2345 2346 2347 2348
          2349 2350 2351 2352 2353 2354
          2355 2356 2357 2358 2359 2360
          2361 2362 2363 2364 2365 2366
          2367 2368 2369 2370 2371 2372
          2373 2374 2375 2376 2377 2378
          2379 2380 2381 2382 2383 2384
          2385 2386 2387 2388 2389 2390
          2391 2392 2393 2394 2395 2396
          2397 2402 2403 2404 2408 2409
          2410 2411 2412 2413 2414 2415
          2416 2417 2418 2419 2420 2421
          2422 2423 2424 2425 2426 2427
          2428 2429 2430 2431 2432 2433
          2434 2435 2436 2437 2438 2439
          2440 2441 2442 2443 2444 2445
          2446 2447 2448 2449 2450 2451
          2452 2453 2454 2455 2456 2457
          2458 2459 2460 2461 2462 2463
          2464 2465 2466 2467 2468 2469
          2470 2471 2472 2473 2474 2475
          2476 2477 2478 2479 2480 2481
          2482 2483 2484 2485 2488 2490
          2491 2493 2494 2495 2496 2497
          2498 2499 2500 2501 2503 2505
          2507 2508 2509 2510 2511 2512
          2513 2514 2515 2516 2517 2518
          2519 2522 2524 2525 2527 2528
          2529 2530 2531 2532 2533 2534
          2535 2537 2539 2541 2542 2543
          2544 2545 2546 2547 2548 2549
          2550 2551 2552 2553 2554 2555
          2556 2557 2558 2562 2563 2564
          2565 2566 2567 2568 3649 3650
          3651 3652 3653 3654 3655 3666
          3667 3668 3669 3672 3673 3674
          3676 3677 3679 3690 3691 3692
          3693 3694 3695 3696 3697 3698
          3699 3700 3701 3702 3703 3704
          3705 3706 3745 3746 3747 3748
          3749 3750 3751 3752 3753 3754
          4029 4030 4031 4032 4033 4034
          4035 4036 4037 4038 4039 4040
          4041 4042 4043 4044 4045 4046
          4047 4048 4049 4050 4051 4052
          4053 4054 4055 4056 4057 4058
          4059 4060 4061 4062 4063 4064
          4065 4066 4067 4068 4069 4070
          4071 4072 4073 4074 4075 4076
          4077 4078 4079 4080 4081 4082
          4083 4084 4085 4086 4087 4088
          4089 4090 4091 4092 4093 4094
          4095 4096 4097 4098 4099 4100
          4101 4102 4103 4104 4105 4106
          4107 4108 4109 4110 4111 4112
          4113 4114 4115 4116 4117 4118
          4119 4120 4121 4122 4123 4124
          4125 4126 4127 4128 4129 4130
          4131 4132 4133 4134 4135 4136
          4137 4138 4139 4140 4141 4142
          4143 4144 4145 4146 4147 4148
          4149 4150 4151 4152 4153 4154
          4155 4156 4157 4158 4159 4160
          4161 4162 4163 4164 4165 4166
          4167 4168 4169 4170 4171 4172
          4173 4174 4175 4176 4177 4178
          4179 4180 4181 4182 4183 4184
          4185 4186 4187 4188 4189 4190
          4191 4192 4193 4194 4195 4196
          4197 4198 4199 4200 4201 4202
          4203 4204 4205 4206 4207 4208
          4209 4210 4211 4212 4213 4214
          4215 4216 4217 4218 4219 4220
          4221 4222 4223 4224 4225 4226
          4227 4228 4229 4230 4231 4232
          4233 4234 4235 4236 4237 4238
          4239 4240 4241 4242 4243 4244
          4245 4246 4247 4248 4249 4250
          4251 4252 4253 4254 4255 4256
          4257 4258 4259 4260 4261 4262
          4263 4264 4265 4266 4267 4268
          4269 4270 4271 4272 4273 4274
          4275 4276 4277 4278 4279 4280
          4281 4286 4287 4288 4292 4293
          4294 4295 4296 4297 4298 4299
          4300 4301 4302 4303 4304 4305
          4306 4307 4308 4309 4310 4311
          4312 4313 4314 4315 4316 4317
          4318 4319 4320 4321 4322 4323
          4324 4325 4326 4327 4328 4329
          4330 4331 4332 4333 4334 4335
          4336 4337 4338 4339 4340 4341
          4342 4343 4344 4345 4346 4347
          4348 4349 4350 4351 4352 4353
          4354 4355 4356 4357 4358 4359
          4360 4361 4362 4363 4364 4365
          4366 4367 4368 4369 4370 4371
          4372 4373 4374 4375 4376 4387
          4388 4389 4390 4391 4392 4393
          4401 4402 4403 4404 4405 4406
          4407 4408 4409 4410 4421 4422
          4423 4424 4425 4426 4427 4435
          4436 4437 4438 4439 4440 4441
          4442 4443 4444 4445 4446 4447
          4448 4449 4450 4451 4452 4453
          4454 4455 4456 4457 4458 4459
          4460 4461 4462 4463 4464 4465
          4466 4467 4471 4472 4473 4474
          4475 4476 4477 1322 1321 1330
          1171 1326 1332 1395 1396 1397
          1398 1173 1399 1400 1259 1405
          1406 1407 1409 1410 1323 1431
          1432 1435 1441 1342 1565 1566
          1567 1568 1170 1570 1571 1575
          1573 1578 1579 1339 1340 1584
          1611 1613 1616 1336 1618 1624
          1625 1626 1629 1341 1480 1664
          1665 1670 1671 1668 1673 1829
          1830 1831 1834 1854 1855 1482
          1860 2163 2164 2167 2170 3670
          3671 3675 3678 1416
        </DataArray>
        <DataArray type="Float64" Name="bounds" format="ascii" RangeMin="0" RangeMax="0">
          0 0 0 0 0 0
          0 0 0 0 0 0
          0 0 0 0 0 0
          0 0 0 0 0 0
          0 0 0 0 0 0
          0 0 0 0 0 0
          0 0 0 0 0 0
          0 0 0 0 0 0
          0 0 0 0 0 0
          0 0 0 0 0 0
          0 0 0 0 0 0
          0 0 0 0 0 0
          0 0 0 0 0 0
          0 0 0 0 0 0
          0 0 0 0 0 0
          0 0 0 0 0 0
          0 0 0 0 0 0
          0 0 0 0 0 0
          0 0 0 0 0 0
          0 0 0 0 0 0
          0 0 0 0 0 0
          0 0 0 0 0 0
          0 0 0 0 0 0
          0 0 0 0 0 0
          0 0 0 0 0 0
          0 0 0 0 0 0
          0 0 0 0 0 0
          0 0 0 0 0 0
          0 0 0 0 0 0
          0 0 0 0 0 0
          0 0 0 0 0 0
          0 0 0 0 0 0
          0 0 0 0 0 0
          0 0 0 0 0 0
          0 0 0 0 0 0
          0 0 0 0 0 0
          0 0 0 0 0 0
          0 0 0 0 0 0
          0 0 0 0 0 0
          0 0 0 0 0 0
          0 0 0 0 0 0
          0 0 0 0 0 0
          0 0 0 0 0 0
          0 0 0 0 0 0
          0 0 0 0 0 0
          0 0 0 0 0 0
          0 0 0 0 0 0
          0 0 0 0 0 0
          0 0 0 0 0 0
          0 0 0 0 0 0
          0 0 0 0 0 0
          0 0 0 0 0 0
          0 0 0 0 0 0
          0 0 0 0 0 0
          0 0 0 0 0 0
          0 0 0 0 0 0
          0 0 0 0 0 0
          0 0 0 0 0 0
          0 0 0 0 0 0
          0 0 0 0 0 0
          0 0 0 0 0 0
          0 0 0 0 0 0
          0 0 0 0 0 0
          0 0 0 0 0 0
          0 0 0 0 0 0
          0 0 0 0 0 0
          0 0 0 0 0 0
          0 0 0 0 0 0
          0 0 0 0 0 0
          0 0 0 0 0 0
          0 0 0 0 0 0
          0 0 0 0 0 0
          0 0 0 0 0 0
          0 0 0 0 0 0
          0 0 0 0 0 0
          0 0 0 0 0 0
          0 0 0 0 0 0
          0 0 0 0 0 0
          0 0 0 0 0 0
          0 0 0 0 0 0
          0 0 0 0 0 0
          0 0 0 0 0 0
          0 0 0 0 0 0
          0 0 0 0 0 0
          0 0 0 0 0 0
          0 0 0 0 0 0
          0 0 0 0 0 0
          0 0 0 0 0 0
          0 0 0 0 0 0
          0 0 0 0 0 0
          0 0 0 0 0 0
          0 0 0 0 0 0
          0 0 0 0 0 0
          0 0 0 0 0 0
          0 0 0 0 0 0
          0 0 0 0 0 0
          0 0 0 0 0 0
          0 0 0 0 0 0
          0 0 0 0 0 0
          0 0 0 0 0 0
          0 0 0 0 0 0
          0 0 0 0 0 0
          0 0 0 0 0 0
          0 0 0 0 0 0
          0 0 0 0 0 0
          0 0 0 0 0 0
          0 0 0 0 0 0
          0 0 0 0 0 0
          0 0 0 0 0 0
          0 0 0 0 0 0
          0 0 0 0 0 0
          0 0 0 0 0 0
          0 0 0 0 0 0
          0 0 0 0 0 0
          0 0 0 0 0 0
          0 0 0 0 0 0
          0 0 0 0 0 0
          0 0 0 0 0 0
          0 0 0 0 0 0
          0 0 0 0 0 0
          0 0 0 0 0 0
          0 0 0 0 0 0
          0 0 0 0 0 0
          0 0 0 0 0 0
          0 0 0 0 0 0
          0 0 0 0 0 0
          0 0 0 0 0 0
          0 0 0 0 0 0
          0 0 0 0 0 0
          0 0 0 0 0 0
          0 0 0 0 0 0
          0 0 0 0 0 0
          0 0 0 0 0 0
          0 0 0 0 0 0
          0 0 0 0 0 0
          0 0 0 0 0 0
          0 0 0 0 0 0
          0 0 0 0 0 0
          0 0 0 0 0 0
          0 0 0 0 0 0
          0 0 0 0 0 0
          0 0 0 0 0 0
          0 0 0 0 0 0
          0 0 0 0 0 0
          0 0 0 0 0 0
          0 0 0 0 0 0
          0 0 0 0 0 0
          0 0 0 0 0 0
          0 0 0 0 0 0
          0 0 0 0 0 0
          0 0 0 0 0 0
          0 0 0 0 0 0
          0 0 0 0 0 0
          0 0 0 0 0 0
          0 0 0 0 0 0
          0 0 0 0 0 0
          0 0 0 0 0 0
          0 0 0 0 0 0
          0 0 0 0 0 0
          0 0 0 0 0 0
          0 0 0 0 0 0
          0 0 0 0 0 0
          0 0 0 0 0 0
          0 0 0 0 0 0
          0 0 0 0 0 0
          0 0 0 0 0 0
          0 0 0 0 0 0
          0 0 0 0 0 0
          0 0 0 0 0 0
          0 0 0 0 0 0
          0 0 0 0 0 0
          0 0 0 0 0 0
          0 0 0 0 0 0
          0 0 0 0 0 0
          0 0 0 0 0 0
          0 0 0 0 0 0
          0 0 0 0 0 0
          0 0 0 0 0 0
          0 0 0 0 0 0
          0 0 0 0 0 0
          0 0 0 0 0 0
          0 0 0 0 0 0
          0 0 0 0 0 0
          0 0 0 0 0 0
          0 0 0 0 0 0
          0 0 0 0 0 0
          0 0 0 0
        </DataArray>
        <DataArray type="Float64" Name="gradient_error" format="ascii" RangeMin="2.6853056452745243e-10" RangeMax="2.2827558785635508e-7">
          3.5758537550713655e-9 1.1687610861270568e-7 5.706687160134336e-10 3.205518211551439e-8 1.138916339935899e-8 6.996553930999725e-8
          8.207085893709052e-8 3.449677845251616e-9 4.704138557740056e-8 4.1754440692176014e-8 5.598793088668805e-8 1.4436113207120128e-8
          3.464268231407827e-8 4.621225812704086e-8 5.632548958957516e-8 6.767773624609633e-8 1.2416454614869473e-9 3.0379114235839594e-9
          4.467754832857859e-8 5.791971445176534e-9 1.4208047719477295e-7 1.257553499542835e-7 1.113205769141995e-7 1.0437527882060869e-7
          5.867474102209318e-8 5.947871081501004e-8 5.539920761776686e-8 1.1909865862617288e-7 1.1266715237219256e-7 6.156120046158484e-8
          2.4377271293154335e-8 4.226483797900999e-8 1.370109861460921e-7 5.596458848261468e-8 8.629620877623147e-8 6.062422509961173e-8
          5.043425700903421e-8 7.838720897257113e-8 6.805345949838939e-8 3.857094859968621e-8 7.165486204466786e-8 8.087695348568855e-8
          5.4016609641008545e-8 5.95386246617561e-8 5.364210286939863e-8 2.7994653477031495e-8 7.935278847963907e-8 6.382548639428384e-8
          5.22746014369296e-8 4.53674282672738e-8 6.465956002403317e-8 5.610416047634901e-8 6.700036178873449e-8 3.406150555579085e-8
          4.282728101479553e-8 2.1342871569794567e-8 4.41824436165287e-8 5.732313416919035e-8 2.146437422985087e-8 4.002440703658836e-8
          4.829358762079658e-8 2.992869414151323e-8 5.713889513420592e-8 3.152774197509019e-8 2.5303594163548545e-8 4.771565268610689e-8
          5.510830218816074e-8 2.7669534952517463e-8 4.2736556066460235e-8 2.60715074138528e-8 1.0818552487538286e-9 2.3250826993528687e-8
          5.5204959388897635e-8 2.25205378562295e-8 2.8712555628075533e-8 9.666990562773276e-9 1.2451668803558953e-8 5.882409112538038e-9
          1.0673651240875907e-8 4.646148746941359e-9 1.9628785552493463e-8 9.04981461202209e-9 1.4360835630459612e-8 5.958834944008544e-9
          7.360265707625713e-9 1.3656155336352517e-8 5.573075609368031e-8 4.4181697666846465e-8 3.843136512280402e-8 4.91244258779321e-8
          3.234290923689263e-9 3.117232132947126e-8 2.6667514236406646e-8 8.800028177393994e-9 2.442436325705163e-8 3.496615724941689e-8
          1.595076061979839e-8 9.648904779675651e-8 9.93481813525717e-8 5.3493113558086935e-8 6.803595236750457e-8 1.031761018936551e-7
          8.257879117692218e-8 1.4084703226567914e-9 1.472998453493601e-9 1.9236483905291694e-8 1.6234790196109596e-8 1.4525435553212137e-9
          9.245114358479513e-9 3.9507376329743546e-8 3.961202935370443e-8 3.481610449147941e-8 3.122002340482829e-8 3.229376169217814e-8
          3.450385575816533e-8 3.2202532844050164e-8 4.6946159242011875e-8 3.56557455528948e-8 3.935876580156501e-8 4.0455898193477806e-8
          3.91958289696068e-8 3.633562633562936e-8 4.4841812293150094e-8 2.5080147054612735e-8 2.9395682162626205e-8 2.9588961196620903e-8
          3.123401775695844e-8 3.793575974573579e-8 5.2135594906106905e-8 5.168798290973818e-8 4.076130034126378e-8 4.49717029521649e-8
          5.8855294771692e-8 4.781312081719868e-8 5.241068658591711e-8 4.951149978140831e-8 5.083375130259716e-8 5.813547043074855e-8
          2.8585310724022327e-8 3.627170782880496e-8 4.326994882721045e-8 4.8277414272283865e-8 4.380880310864911e-8 4.216801695301265e-8
          4.978271239808724e-8 4.527262120875738e-8 4.730144881530567e-8 5.5073575783083575e-8 3.659902415805949e-8 4.0202616390338924e-8
          3.983755888646667e-8 4.3207869898605653e-8 5.07942442756784e-8 4.607023603172529e-8 5.658804365363046e-8 4.2757528827581835e-8
          3.7416163114812885e-8 3.5314414650047925e-8 3.68383903849276e-8 5.3998537609401805e-8 5.559476576650775e-8 5.264238498052978e-8
          5.1440537811702454e-8 3.2670477098886276e-8 5.60251402062491e-8 5.264497899272105e-8 2.9628655671856557e-8 4.4452831473780934e-8
          4.424360475060083e-8 4.3521809754616716e-8 8.986041794569091e-8 8.632397891148939e-8 7.615666200716253e-8 8.128770933343127e-8
          7.4805412914422e-8 6.813119098061752e-8 6.685324285051809e-8 5.781582337311079e-8 6.263976803506707e-8 5.810034326628783e-8
          6.978944510247041e-8 6.145412468589899e-8 6.739686419190099e-8 7.916927372765115e-8 4.309224390538827e-8 5.286642138557361e-8
          5.3299928779253805e-8 6.595585071800193e-8 5.9446438652830324e-8 6.716435050576759e-8 4.217686956346801e-8 5.3791398537686353e-8
          8.130946187367086e-8 8.259924059988371e-8 4.584762155090806e-9 3.1244784310217846e-8 9.233614811460486e-9 7.254631868403078e-8
          5.0671078066567395e-8 6.122304180382958e-8 5.3823721003530804e-8 6.799174730391367e-8 4.004395645599389e-8 4.574212180725226e-8
          4.794276938781709e-8 6.366304050336835e-8 7.181396110166002e-8 4.933893170963448e-8 5.6539296334901894e-8 7.534015287958054e-8
          5.831935483375632e-8 8.280286232511038e-8 4.1213765318734265e-8 4.958512182475579e-8 5.027638999817175e-8 8.120058740088313e-8
          9.150423102678591e-8 5.475513380914107e-8 2.5110552496556464e-8 2.634954666527703e-8 2.821717531607984e-8 2.9247395312060124e-8
          2.3281927058765653e-8 2.6513054211906743e-8 1.909042247340548e-8 2.018277835848753e-8 2.1837365834470856e-8 1.805241831024659e-8
          3.132379813560322e-8 3.214524395884322e-8 2.974418136504784e-8 2.1275134243569578e-8 3.087860929847195e-8 2.8907835977684894e-8
          5.4847587025432244e-8 5.1105863468967534e-8 2.423097109095217e-8 5.13540337505554e-8 4.754204478301926e-8 2.3648926291521786e-8
          4.1246091948897245e-8 3.747787892658162e-8 4.8078329927415756e-8 5.812494343085726e-8 4.3867083093301356e-8 7.005389071792719e-8
          2.0553001903447617e-8 1.908375413527017e-8 4.5376958010796444e-8 4.175744880066637e-8 1.529095136348651e-8 3.2188168799704635e-8
          4.4586619154502305e-8 4.0641902341881783e-8 5.106508327115637e-8 1.72147462793847e-8 2.00630450052577e-8 2.8630454100376016e-8
          3.130013052466775e-8 1.4037324555918896e-8 2.5038279393388e-8 1.4068702632623669e-8 2.213286421546037e-8 2.4821459319295093e-8
          1.8850856749095873e-8 5.829245711463509e-8 5.578377826514974e-8 3.855435664549372e-8 1.0766034581219843e-8 2.0722211223499175e-8
          8.564672802559392e-9 1.5206024438125352e-8 9.341865580648987e-9 5.090554641655744e-8 3.0625689453157335e-8 1.182569229038386e-8
          2.8582814765332284e-8 1.4130082946624172e-8 1.8727128883100974e-8 6.294671491289742e-8 3.92343212913334e-8 7.692758269681491e-10
          1.8908449935903387e-9 1.9853003905097426e-9 4.52029542859624e-8 1.615944501296147e-8 1.457617190564505e-8 3.9677970055608563e-8
          1.3370442255814303e-9 2.520143418948213e-9 2.6460270719836898e-8 7.382494277959111e-8 6.055160791596187e-8 4.9699139731118535e-8
          4.7425111042035236e-8 7.163027676510617e-8 4.631695547313835e-8 5.6665257393145e-8 5.759447483071829e-8 5.158719848827395e-8
          4.310143349586707e-8 3.6985281348044895e-8 4.5023229859432354e-8 5.118802084884377e-8 2.0867869147705542e-8 2.4092313877466496e-8
          1.7930082085025914e-8 2.09870567191187e-8 1.4571636125492758e-8 1.552913417836506e-8 1.2746586247549424e-8 2.7316758607227442e-8
          2.4044031353211482e-8 1.6486632231237363e-8 1.4648606384667813e-8 1.7394866401524644e-8 9.222615803800949e-9 1.366053052687847e-8
          9.19765728462215e-9 9.87873027139374e-9 5.322120571700041e-9 2.0141126418381484e-8 1.5963570530963607e-8 1.0559803258165329e-8
          1.685572159849121e-8 2.0216236657556044e-8 6.443059027445805e-8 5.72952458227493e-8 2.3576751716620876e-8 5.015990137104055e-8
          1.0381949901972892e-9 2.340944939623876e-9 3.7243468872938334e-9 6.845465477953358e-9 5.181599691581538e-10 1.8448795595770514e-9
          7.088294540825617e-10 2.1915615445561332e-9 3.952116859651961e-9 1.1449687270436815e-9 3.9765463785066225e-8 3.7875433823957516e-8
          3.844806463770366e-8 4.4050218102056145e-8 4.554968181938741e-8 4.378985078395452e-8 4.215975733569804e-8 3.736841106890933e-8
          4.8564335589722524e-8 4.676378813383479e-8 3.359086381286165e-8 3.96118875213839e-8 3.847029885384617e-8 4.162442424066299e-8
          3.9292681202746456e-8 3.739394901376666e-8 5.1507830161574095e-8 4.934366001512114e-8 3.232332448928613e-8 4.319684809764203e-8
          2.5784017399336092e-8 2.6895319376071206e-8 3.4171565214090026e-8 3.396955454707293e-8 2.4290653974051997e-8 3.388428123747313e-8
          2.2416602644886788e-8 2.912892410156418e-8 2.965350129076692e-8 2.816389098774769e-8 2.2423705400095197e-8 3.3011289855810524e-8
          1.880276564176025e-8 2.6806920958611017e-8 2.70729147444687e-8 2.7373712512664436e-8 2.9692052464916498e-8 2.9713470533932046e-8
          2.2032363084466637e-8 2.3015929236209034e-8 2.389566432995838e-8 3.23111901853643e-8 3.205322855519965e-8 2.3999495387951437e-8
          1.602266614790566e-8 8.858239676928159e-9 8.48267894687522e-9 8.55751676725568e-9 8.63235458763614e-9 8.256793857583198e-9
          1.0290672967519065e-8 1.012956864323554e-8 1.2775101485275758e-8 9.968464318952014e-9 1.692553365041344e-8 1.6532142686006492e-8
          1.6138751721599544e-8 1.5679437295592566e-8 1.544019074607833e-8 1.7423932676672614e-8 1.5093894310656184e-8 1.3361695987395154e-8
          1.4562856192875804e-8 1.6735183937245142e-8 1.4138867961003332e-8 9.05519144929992e-9 9.416100679601591e-9 8.767062518683717e-9
          1.043627215842459e-8 9.777009909903265e-9 1.2716405522871969e-8 7.819709931080777e-9 8.702632715967645e-9 8.11519449742221e-9
          9.585555500854515e-9 8.670421531018788e-9 9.962387621745728e-9 9.638705684069267e-9 9.696556368675413e-9 1.3053595559645986e-8
          1.3344542483762947e-8 1.0100470066494834e-9 4.3518519837901e-9 1.1263399968904668e-9 1.1032419211463132e-8 1.3684402209049809e-8
          1.3493560283269755e-8 1.4007108430704464e-8 1.4713382857253467e-8 1.672299705701089e-8 1.4562816383849213e-8 1.652625039460963e-8
          1.486390952163113e-8 1.6710810176776635e-8 1.4986764806695092e-8 1.6632434082363312e-8 1.6431628388352657e-8 1.7192071547843704e-8
          1.6230822694342e-8 1.812194672428493e-8 1.778504899823184e-8 1.821304965118138e-8 1.6772368186395074e-8 1.5123830236980574e-8
          1.5057969157162736e-8 1.5039588960816877e-8 1.4019353213714075e-8 1.9011814116906123e-8 1.8453444061369773e-8 1.838561356446527e-8
          1.6997901282119384e-8 1.5043935991800448e-8 1.483035348825258e-8 1.3987143425195557e-8 1.7644275009582683e-8 1.7274609293402166e-8
          1.9097081523481067e-8 1.8731734868802038e-8 1.6904943577221653e-8 1.816368226711844e-8 1.4581340058945634e-8 1.4308475225864115e-8
          1.1520947334623695e-8 1.585097479671849e-8 2.049764462520725e-8 2.0091693778412595e-8 2.1746827873351608e-8 2.1275672470988663e-8
          1.89349820746021e-8 1.9886469162746595e-8 1.2993957381364493e-8 1.2751300043477873e-8 1.389658698434866e-8 1.7178115493823077e-8
          1.6578126842019192e-8 1.5397983310929094e-8 1.8723930358216927e-8 1.9818218080056044e-8 1.795902024951673e-8 1.6948090076703065e-8
          1.759367285127532e-8 1.5711958935819862e-8 1.621892444568317e-8 2.077817352058713e-8 2.2506890458492015e-8 1.8920715019621994e-8
          5.871986694866469e-9 6.083586806418712e-9 1.7861798596291087e-9 2.0325056778012743e-9 1.0543636992740567e-8 7.272473807033292e-9
          5.430870518472463e-10 8.544768287684869e-10 9.543591517418705e-10 5.9232304583861284e-9 1.989959239171616e-9 2.1680766419003798e-9
          2.284603715434993e-9 2.4355855837125123e-9 7.883708172415425e-9 8.570492082909552e-9 9.354524075680024e-10 1.1992478903432004e-9
          1.4304177968127677e-9 1.8582166120160224e-9 1.66149527319373e-8 1.632000899227608e-8 1.850778620409023e-8 1.960817807221141e-8
          1.4534675406754254e-8 1.1940708210078194e-8 1.905655215866373e-8 1.783719187667688e-8 1.946279114495759e-8 2.0565886267945986e-8
          2.2329024843294794e-8 1.2937363884680417e-8 1.4008271754255998e-8 2.145298233542181e-8 2.2779342683560212e-8 2.2230387941768535e-8
          2.3514519634085325e-8 2.2887460551404267e-8 2.0624006571331173e-8 2.105223177514322e-8 1.5213121333791098e-8 1.4923105609201446e-8
          1.580061338699414e-8 1.687005450634177e-8 2.3858769856558585e-8 2.3142425844074e-8 2.1075023092240008e-8 1.6889264174894256e-8
          1.6435340165474812e-8 1.862672071076248e-8 1.801262588805891e-8 1.81252237366872e-8 1.6458671833432328e-8 1.640638539181116e-8
          2.072032030763217e-8 1.8388068419852342e-8 2.1443313013891538e-8 1.789149271001156e-8 1.6059021067132518e-8 2.2379126776659083e-8
          2.2447461092782643e-8 2.6435729875185724e-9 2.7715859455450785e-9 3.0474810975138882e-9 3.151350532450859e-9 6.154207299687776e-9
          3.5406024632997605e-9 1.215501944306098e-9 1.6514250622195717e-9 1.8634599781311872e-9 2.2262832472610173e-9 3.4533612079039537e-9
          3.549919361980492e-9 7.498212328456006e-9 1.4563455743642303e-9 2.0634471923745994e-9 2.7936389328538023e-9 1.7910619719318483e-8
          1.5977551086770173e-8 2.3829942720282047e-8 2.5059666306013628e-8 1.5168277398896326e-8 1.625275376454456e-8 2.4960016040561332e-8
          2.0402326340829452e-8 2.5916996490912485e-8 1.718558749472521e-8 2.7580995888385075e-8 1.5550015670156402e-8 1.6152949394803926e-8
          1.7060752181442276e-8 1.485375667975525e-8 1.6679855358717478e-8 1.5644985950914647e-8 1.7809695047278557e-8 1.720966338949179e-8
          1.8127277568106824e-8 1.571827945354873e-8 1.5989155462286957e-8 1.826637738417965e-8 1.9193802954771365e-8 1.6582802227342214e-8
          1.7558638634788486e-8 1.781774023644697e-8 1.5455097526322927e-8 1.880243731317689e-8 1.923763631780945e-8 1.6310048129520007e-8
          1.6425882434442626e-8 2.0046235991565288e-8 2.0657532399171935e-8 1.716499873271709e-8 6.626834273920111e-9 9.938727289197277e-9
          1.205261189392904e-8 1.5321165515242623e-8 4.4153086642951154e-9 7.937529852516386e-9 1.0780050606602345e-8 1.516859277646645e-9
          1.9998931629773913e-9 1.90287220102129e-9 2.580903964209484e-9 1.0435612767972642e-9 1.2881969488481994e-9 1.99322363309332e-9
          2.288885124395935e-9 3.1619147654415766e-9 1.5328326208991342e-9 2.8202799370445237e-8 2.905242925888772e-8 3.3524612533623695e-8
          3.3303233673173375e-8 2.520927497801598e-8 2.9855469773001214e-8 2.9935166207994356e-8 3.9709577700960094e-8 3.701057735987942e-8
          4.0945547468956925e-8 3.8741130453084294e-8 3.822404139262991e-8 4.0213386822852765e-8 3.7996050518181896e-8 4.218151723695376e-8
          4.047168354628917e-8 4.220273225307562e-8 2.702096132946248e-8 2.6610850310082236e-8 2.9339809907984448e-8 2.903129901963855e-8
          2.3914805320448644e-8 2.535441478933723e-8 2.6396729142776652e-8 3.165865848650642e-8 3.1451747729194867e-8 2.679402425822582e-8
          1.3728801373640355e-9 1.4319359250239854e-9 1.3886552783152408e-9 1.345374631606496e-9 1.404430419266446e-9 1.5437859873394675e-9
          1.494951379779766e-9 1.655285119900332e-9 1.446116772220065e-9 1.6390886878996306e-9 1.6655203273133954e-9 1.5847459005843984e-9
          1.7938328153088771e-9 1.8225870244944283e-9 1.8970489817493685e-9 1.98623496303893e-9 1.898384299608143e-9 1.4296783457162256e-9
          1.4381866372260021e-9 1.3357263865472467e-9 1.4349975469125467e-9 1.4466949287357787e-9 1.6299720282419575e-9 1.315570704092984e-9
          1.3814218946722384e-9 1.2147099739247612e-9 1.4472730852514928e-9 1.1796501751908825e-9 1.2959827627268983e-9 1.056594621695873e-9
          1.148002162490039e-9 1.591274421779237e-9 1.4521816656430185e-9 7.202116624821347e-10 9.264451981404015e-10 7.112584243956795e-10
          1.3887160282495967e-9 1.8238726797765535e-9 1.826366689382927e-9 1.8251583350586786e-9 1.836823551295715e-9 1.8309034394916694e-9
          1.90341360929587e-9 1.9968532509815073e-9 1.776598120842061e-9 1.6755719159444088e-9 1.9084429189835967e-9 2.497993958360905e-9
          2.6206757980078844e-9 2.5967822392052695e-9 2.7781653735390505e-9 2.5939107846105545e-9 2.4941048428935534e-9 2.5902699085837793e-9
          2.760800103824424e-9 2.5656069283491042e-9 2.957666817418867e-9 2.9447865701811666e-9 3.1091889162823143e-9 2.9366705953457973e-9
          3.2850433455596518e-9 3.279021684723679e-9 3.468343342285474e-9 3.274549257508134e-9 2.901526427359011e-9 3.0455768558298213e-9
          2.8616179869698925e-9 3.2127621567935598e-9 3.393262824975305e-9 3.1494258224585586e-9 2.4515085577076465e-9 2.4458626978800036e-9
          2.485940696475577e-9 1.4230343364386612e-9 1.4905445027594994e-9 1.7295051818168484e-9 1.741529356513129e-9 2.4760579259924277e-9
          2.48609573878756e-9 2.532083778480273e-9 2.5623160205000153e-9 2.5413862926415966e-9 2.6470447660188404e-9 1.7882523441736924e-9
          1.8483480020111523e-9 1.8475078091593667e-9 2.0359100188955968e-9 2.5140178663175017e-9 2.49637117773621e-9 2.0214676568268607e-9
          2.1998057977055676e-9 2.1179312697078005e-9 2.5909713452258264e-9 2.732630148040267e-9 2.5953036567511502e-9 2.76371902656261e-9
          2.287344231730759e-9 2.319745824933287e-9 2.4342885596524994e-9 9.648247260165938e-10 1.0494974764298983e-9 9.271278890799899e-10
          1.0021205339536906e-9 1.3495039828725498e-9 1.2679836618222166e-9 5.066151155945264e-10 6.084504501002971e-10 6.068490138816592e-10
          9.574786092319703e-10 9.505179638905023e-10 1.0120461569807745e-9 1.0373923127551962e-9 1.0858871888488067e-9 1.2214862861573762e-9
          1.2478887273968773e-9 6.559712934105916e-10 7.028055483090938e-10 8.232254268398603e-10 8.600143351961986e-10 1.799937124651151e-9
          1.7437945103506111e-9 2.0350365104004055e-9 2.153505071358497e-9 1.5784065924754418e-9 1.454845769013596e-9 1.9521417510930112e-9