<?xml version="1.0"?>
<VTKFile type="UnstructuredGrid" version="0.1" byte_order="LittleEndian" header_type="UInt32" compressor="vtkZLibDataCompressor">
  <UnstructuredGrid>
    <Piece NumberOfPoints="563" NumberOfCells="362">
      <PointData>
        <DataArray type="Int32" Name="libmesh_node_id" format="ascii" RangeMin="295" RangeMax="4290">
          295 365 372 772 773 774
          806 807 808 809 811 812
          813 814 840 841 878 879
          884 885 1153 1158 1159 1160
          1161 1167 1168 1245 1246 1248
          1251 1253 1254 1255 1256 1257
          1258 1259 1260 1261 1262 1270
          1271 1274 1275 1276 1279 1280
          1282 1285 1287 1288 1289 1290
          1291 1292 1293 1294 1295 1296
          1304 1305 1306 1307 1308 1309
          1310 1378 1379 1380 1381 1396
          1397 1542 1543 1544 1545 1546
          1547 1548 1549 1550 1551 1558
          1559 1561 1562 1563 1566 1567
          1573 1576 1577 1578 1579 1580
          1581 1582 1583 1584 1585 1586
          1587 1590 1592 1593 1595 1596
          1597 1600 1601 1603 1607 2489
          2495 2509 2510 2512 2515 2525
          2527 2529 2531 2532 2533 2534
          2535 2536 2537 2538 2539 2540
          2541 2542 2543 2544 2545 2546
          2547 2548 2549 2550 2551 2552
          2553 2554 2555 2556 2557 2558
          2559 2560 2561 2562 2563 2564
          2565 2566 2567 2568 2569 2570
          2571 2572 2573 2574 2575 2576
          2577 2578 2586 2588 2589 2590
          2603 2604 2606 2609 2619 2621
          2623 2637 2638 2640 2643 2653
          2655 2657 2659 2660 2661 2662
          2663 2664 2665 2666 2667 2668
          2669 2670 2671 2672 2673 2674
          2675 2676 2677 2678 2679 2680
          2681 2682 2683 2684 2685 2686
          2687 2688 2689 2690 2691 2692
          2693 2694 2695 2696 2697 2698
          2699 2700 2701 2702 2703 2704
          2705 2706 2707 2708 2709 2710
          2711 2712 2713 2714 2715 2716
          2717 2718 2719 2720 2721 2722
          2723 2724 2725 2726 2756 2758
          2760 2762 2763 2764 2765 2766
          2767 2768 2770 2772 2774 2776
          2777 2778 2779 2780 2781 2782
          3058 3065 3066 3067 3068 3071
          3076 3077 3078 3119 3120 3122
          3137 3139 3169 3174 3175 3176
          3219 3221 3843 3844 3845 3846
          3847 3848 3849 3850 3851 3852
          3853 3854 3855 3856 3857 3858
          3859 3860 3861 3862 3863 3864
          3865 3866 3867 3868 3869 3870
          3871 3872 3873 3874 3875 3876
          3877 3878 3879 3880 3881 3882
          3883 3884 3885 3886 3887 3888
          3889 3890 3891 3892 3893 3894
          3895 3896 3897 3898 3899 3900
          3901 3902 3903 3904 3905 3906
          3907 3910 3912 3913 3915 3926
          3928 3930 3932 3940 3941 3942
          3943 3944 3945 3946 3947 3948
          3949 3960 3961 3962 3963 3964
          3965 3966 3974 3975 3976 3977
          3978 3979 3980 3981 3982 3983
          3994 3995 3996 3997 3998 3999
          4000 4001 4002 4003 4004 4005
          4016 4018 4020 4022 4044 4045
          4046 4047 4048 4049 4050 4072
          4073 4074 4075 4076 4077 4078
          4079 4080 4081 4082 4083 4084
          4085 4086 4087 4088 4089 4090
          4091 4092 4093 4094 4095 4096
          4097 4098 4099 4100 4101 4102
          4103 4104 4105 4106 4107 4108
          4109 4110 4111 4112 4113 4114
          4115 4116 4117 4118 4119 4120
          4121 4122 4123 4124 4125 4126
          4127 4128 4129 4130 4131 4132
          4133 4134 4135 4136 4137 4138
          4139 4140 4141 4142 4143 4144
          4145 4146 4147 4148 4149 4160
          4161 4162 4163 4164 4165 4166
          4174 4175 4176 4177 4178 4179
          4180 4181 4182 4183 4194 4195
          4196 4197 4198 4199 4200 4208
          4209 4210 4211 4212 4213 4214
          4215 4216 4217 4218 4219 4220
          4221 4232 4233 4234 4235 4236
          4237 4238 4239 4240 4241 4242
          4243 4244 4245 4256 4257 4258
          4259 4260 4261 4262 4284 4285
          4286 4287 4288 4289 4290
        </DataArray>
        <DataArray type="Float64" Name="bounds" format="ascii" RangeMin="0" RangeMax="0">
          0 0 0 0 0 0
          0 0 0 0 0 0
          0 0 0 0 0 0
          0 0 0 0 0 0
          0 0 0 0 0 0
          0 0 0 0 0 0
          0 0 0 0 0 0
          0 0 0 0 0 0
          0 0 0 0 0 0
          0 0 0 0 0 0
          0 0 0 0 0 0
          0 0 0 0 0 0
          0 0 0 0 0 0
          0 0 0 0 0 0
          0 0 0 0 0 0
          0 0 0 0 0 0
          0 0 0 0 0 0
          0 0 0 0 0 0
          0 0 0 0 0 0
          0 0 0 0 0 0
          0 0 0 0 0 0
          0 0 0 0 0 0
          0 0 0 0 0 0
          0 0 0 0 0 0
          0 0 0 0 0 0
          0 0 0 0 0 0
          0 0 0 0 0 0
          0 0 0 0 0 0
          0 0 0 0 0 0
          0 0 0 0 0 0
          0 0 0 0 0 0
          0 0 0 0 0 0
          0 0 0 0 0 0
          0 0 0 0 0 0
          0 0 0 0 0 0
          0 0 0 0 0 0
          0 0 0 0 0 0
          0 0 0 0 0 0
          0 0 0 0 0 0
          0 0 0 0 0 0
          0 0 0 0 0 0
          0 0 0 0 0 0
          0 0 0 0 0 0
          0 0 0 0 0 0
          0 0 0 0 0 0
          0 0 0 0 0 0
          0 0 0 0 0 0
          0 0 0 0 0 0
          0 0 0 0 0 0
          0 0 0 0 0 0
          0 0 0 0 0 0
          0 0 0 0 0 0
          0 0 0 0 0 0
          0 0 0 0 0 0
          0 0 0 0 0 0
          0 0 0 0 0 0
          0 0 0 0 0 0
          0 0 0 0 0 0
          0 0 0 0 0 0
          0 0 0 0 0 0
          0 0 0 0 0 0
          0 0 0 0 0 0
          0 0 0 0 0 0
          0 0 0 0 0 0
          0 0 0 0 0 0
          0 0 0 0 0 0
          0 0 0 0 0 0
          0 0 0 0 0 0
          0 0 0 0 0 0
          0 0 0 0 0 0
          0 0 0 0 0 0
          0 0 0 0 0 0
          0 0 0 0 0 0
          0 0 0 0 0 0
          0 0 0 0 0 0
          0 0 0 0 0 0
          0 0 0 0 0 0
          0 0 0 0 0 0
          0 0 0 0 0 0
          0 0 0 0 0 0
          0 0 0 0 0 0
          0 0 0 0 0 0
          0 0 0 0 0 0
          0 0 0 0 0 0
          0 0 0 0 0 0
          0 0 0 0 0 0
          0 0 0 0 0 0
          0 0 0 0 0 0
          0 0 0 0 0 0
          0 0 0 0 0 0
          0 0 0 0 0 0
          0 0 0 0 0 0
          0 0 0 0 0 0
          0 0 0 0 0
        </DataArray>
        <DataArray type="Float64" Name="gradient_error" format="ascii" RangeMin="4.7928094165890476e-9" RangeMax="4.761172160181355e-7">
          1.283040582462475e-8 3.273625218809411e-7 3.027074977514098e-7 4.761172160181355e-7 3.9953860279595056e-7 2.5829967996632677e-7
          2.0459271328848027e-8 7.322666233156542e-8 2.9468020228195185e-8 8.395063492747959e-8 2.4160963799960434e-7 1.4504985809991265e-8
          2.6112531176607117e-8 4.13582408108812e-8 1.721869756601484e-8 1.095341634237284e-8 3.18354451556773e-8 3.275413797978833e-8
          2.9200504687062105e-8 4.5188470887064054e-8 1.981559430804798e-7 2.2512071057392978e-7 2.1359856367365148e-7 1.779306914458163e-7
          1.7318375705105067e-7 1.2139470487824804e-7 9.447818854101808e-8 1.1534363635678982e-7 1.1256065155428109e-7 1.4310424058511642e-7
          2.3049254454467804e-8 1.2659576362909284e-7 1.224089044118485e-7 1.3022515964039895e-7 1.2514426375442527e-7 1.5021232828495445e-7
          1.4774776999161506e-7 2.5381016998356124e-8 2.9252716329020372e-8 3.484737639242299e-8 8.088183405212339e-8 1.5145735546855715e-7
          1.4185769466030464e-7 1.4673569589639446e-7 1.3804873671279973e-7 1.6606567005869048e-7 1.7380005008918197e-8 2.322089961271585e-8
          2.6513004471677012e-8 2.2938106440295353e-8 2.0466191707676675e-8 3.075521164150503e-8 2.2931744773876943e-8 3.805580047147908e-8
          3.357033004598147e-8 4.0331945579287605e-8 1.5083565514943276e-8 3.0700188953882564e-8 3.838215589468498e-8 3.3744933711697236e-8
          1.1992967956812148e-7 1.1243746679265538e-7 2.0414446104717212e-7 1.5364290641107965e-7 1.2749338884138892e-7 1.2074116154484697e-7
          2.1699062604315604e-7 9.497148843810286e-8 8.83563623463689e-8 1.5708124265842605e-8 6.888162170344355e-8 4.595767123918114e-8
          6.19365082666225e-9 8.049621705695916e-8 7.803049071340869e-8 2.984897799535634e-8 2.9273045726032125e-8 8.387706235638164e-8
          2.0447467374633846e-8 3.174101199104203e-8 3.875185258439132e-8 3.936126475056453e-8 6.020662008427251e-8 3.0961987965557654e-8
          3.333930865792185e-8 2.2956288163421974e-8 7.480790438383792e-8 1.113730368840433e-8 7.592448470246689e-8 1.7017038465225807e-8
          1.1126661123964101e-8 2.7025419102734128e-8 4.2708521853289746e-8 3.163914065757166e-8 4.266649380751995e-8 4.467067133463386e-8
          4.228052019451848e-8 1.894110271961307e-8 4.4257378962231326e-8 4.44681089990078e-8 4.6207022440475574e-8 2.9527203922041618e-8
          3.913642369012458e-8 3.105779348681705e-8 2.9331550102744332e-8 4.017645115788867e-8 3.432482519488809e-8 6.593587287841785e-8
          2.232996148305432e-8 7.146461915109791e-8 2.4544400757002027e-8 1.4719441940145995e-8 1.6170975183886077e-8 2.474563544862946e-8
          2.8549458155822358e-8 2.2393867264292424e-8 2.2979660975487746e-8 2.5039130600195782e-8 2.123042987123557e-8 2.7647811289417175e-8
          2.8782816065125847e-8 2.5776695166124633e-8 2.602228669057287e-8 2.67489609274262e-8 2.886593705552202e-8 2.9053483131373507e-8
          3.010741319860892e-8 3.09580567462584e-8 3.270461976973179e-8 3.32771088223674e-8 3.0598463563587545e-8 3.252613192973991e-8
          3.05655960287076e-8 3.413076717293055e-8 3.507444137755057e-8 3.351601699503418e-8 2.4636767603756955e-8 2.5311628473121085e-8
          2.6889228213168255e-8 2.768101265130922e-8 2.748393925605223e-8 3.0008975780265624e-8 2.29637441277007e-8 2.3979494362991745e-8
          2.6699776944596755e-8 2.612731238575444e-8 2.901046642303716e-8 2.993033237901837e-8 3.071980250557718e-8 3.1801681454567825e-8
          3.241530696423019e-8 3.4492177944927856e-8 2.758679630476698e-8 2.9246849710920297e-8 3.143979694053494e-8 3.222045099819415e-8
          2.999905331562554e-8 3.239027568081212e-8 3.101671746163184e-8 3.3235396890543183e-8 2.8771517744934378e-8 3.1913820991539394e-8
          3.095218329411339e-8 3.4601595535460806e-8 3.6307557318978186e-8 3.522277547746082e-8 3.651431915165911e-8 3.498389944541085e-8
          3.775922416407363e-8 3.653739727388924e-8 3.3621675570930164e-8 3.49417076025834e-8 3.53141708581773e-8 3.313882340651311e-8
          1.9356229620199114e-8 2.073684019966894e-8 2.315071731817875e-8 1.9481556932826896e-8 2.480408859920419e-8 2.736409517523043e-8
          2.51772180714928e-8 1.5373819264554344e-8 1.816078706908124e-8 2.3032039382998e-8 1.7584967431721458e-8 2.572638846198477e-8
          2.617885839916255e-8 2.5899292070155037e-8 2.1625482946707812e-8 2.3501938636709162e-8 2.3748622903346717e-8 2.623392914639076e-8
          2.664179698187304e-8 3.0209598800181505e-8 1.907447116723911e-8 2.1988868211765672e-8 2.4395889674100375e-8 2.6915106979523856e-8
          2.5700996084776366e-8 2.8844455407317775e-8 2.7529127607956057e-8 3.124431054723906e-8 3.364961713764915e-8 3.668466915471085e-8
          2.1650445620976842e-8 2.6687972177666807e-8 2.8949610391898037e-8 3.455178223329873e-8 2.833154022088652e-8 3.1952686675371365e-8
          3.038142246720157e-8 3.352259314689449e-8 2.907346180629913e-8 3.3066022853319255e-8 2.995226326313115e-8 3.544814877698976e-8
          3.86380471831873e-8 3.657927315608062e-8 3.925886099524321e-8 3.690470627305156e-8 4.031125669744066e-8 3.712179379077131e-8
          1.637238642988081e-8 2.030240861380803e-8 1.678654868911743e-8 2.220066336894489e-8 2.68176667664349e-8 3.074907044204234e-8
          1.5170556680238672e-8 1.9546265370335523e-8 2.117394004037347e-8 2.6748484146790225e-8 1.6556218551122513e-8 2.3776814550623917e-8
          1.6444378924323645e-8 2.5382668747949094e-8 3.465669999709362e-8 3.838650166133253e-8 1.3953465067775517e-8 2.2275504150487504e-8
          2.3373887064914205e-8 3.4621672912592767e-8 2.990227855544125e-8 3.4181569377582366e-8 2.982212534055223e-8 3.3701305095446696e-8
          3.017732151785205e-8 3.456324384807449e-8 2.980821359535324e-8 3.8259752010278077e-8 4.1876460060144684e-8 3.759546375765714e-8
          4.106240443178036e-8 3.8711014035601946e-8 4.2428726024041205e-8 3.776455731504279e-8 3.42664994916141e-8 3.3693223829253737e-8
          3.495417405844063e-8 3.5998140750599934e-8 3.690584743939952e-8 3.442271319757903e-8 3.4160222431787606e-8 3.729631063610263e-8
          3.902424253484025e-8 3.678038050452508e-8 3.5122411029498806e-8 3.732198778795662e-8 3.524779735441438e-8 3.776631585908864e-8
          3.9829592225540736e-8 3.854521877935724e-8 3.883525095671961e-8 3.7994584344588504e-8 4.010822340202271e-8 3.923627953830929e-8
          2.0476775030945326e-8 1.9799308927507463e-8 1.9300942240436595e-8 1.6901061360228908e-8 1.8067721753282623e-8 1.7252960930079508e-8
          1.5962640053350873e-8 1.3573596634480412e-8 1.3073220477389142e-8 1.4742060952258844e-8 1.4430462790928465e-8 1.332515823982697e-8
          1.1356064198051176e-8 8.951355778367996e-9 1.1381823167304894e-8 1.0324272410171861e-8 8.372310898825303e-9 7.895665591553256e-9
          6.667662791218088e-9 4.7928094165890476e-9 2.816026919365321e-8 2.7348640714604683e-8 2.6050065940511043e-8 3.266942506609468e-8
          3.37980851322741e-8 3.2750015828072386e-8 3.578221849523922e-8 2.662815942548713e-8 2.6130419268697348e-8 2.3663387219048036e-8
          2.341659250307131e-8 2.4779410103060555e-8 2.2006351920756466e-8 3.1399719170883474e-8 3.1746684145769505e-8 3.010731670083419e-8
          3.152991887793687e-8 2.3557703637337973e-8 1.911035764606272e-8 3.4893232350572446e-8 3.1374539290238106e-8 3.314877290911996e-8
          2.1974169844241226e-8 1.900878154710583e-8 1.779843011557891e-8 1.5233930354390952e-8 2.8621507465842367e-8 2.570045689970116e-8
          2.325467347308947e-8 3.170098226248972e-8 3.308011986268664e-8 3.207556251692185e-8 3.384752404450219e-8 3.60450400375249e-8
          3.697296125591238e-8 3.08823183537328e-8 3.311569533859651e-8 3.419193973456055e-8 3.705686152543587e-8 3.2374845209197184e-8
          3.4307168313056116e-8 3.234910872767695e-8 3.397485730357846e-8 3.7058303682568134e-8 3.5627643988458e-8 3.1995899276113466e-8
          3.466034113577129e-8 3.465295173631135e-8 3.967757838001922e-8 3.7096508367168977e-8 3.687266153084392e-8 3.656219412217172e-8
          3.261111216869726e-8 3.998490281932013e-8 4.124902259210365e-8 3.99418924576127e-8 3.5644576612127546e-8 3.29203350124286e-8
          2.960606866250484e-8 2.6479351389357145e-8 4.11889355627288e-8 3.922210171553051e-8 3.602389294862732e-8 2.052288211032391e-8
          2.021965927765593e-8 1.8870215647801377e-8 2.690928090519647e-8 2.686304150535486e-8 2.5597028130826895e-8 1.615897369249625e-8
          1.2720792923811754e-8 2.205214434086493e-8 1.7256871101476346e-8 3.124818827170943e-8 3.2183492274553675e-8 2.829340002683676e-8
          2.855663412295002e-8 3.2378974834070173e-8 2.7630277825139245e-8 3.166469247677291e-8 3.4115779162585405e-8 3.239134299828958e-8
          3.732342192890404e-8 2.875360177585506e-8 2.3809338273063517e-8 2.249451767461305e-8 1.834689596372582e-8 3.522544637371678e-8
          2.974241861548907e-8 2.8088282476639876e-8 1.5164079646575753e-8 1.1722528581264188e-8 1.942134458836117e-8 1.3908304997061865e-8
          1.1560453924035977e-8 1.0570130776526034e-8 8.479480830813243e-9 1.80204191949722e-8 1.5308966613941945e-8 1.355724428116758e-8
          2.4480587721319477e-8 1.8371016034366474e-8 3.438549926673215e-8 3.077774079187634e-8 3.135563098308371e-8 2.2818096730537654e-8
          1.9562226658960332e-8 1.685093389864622e-8 1.403003170685521e-8 2.7715693265134722e-8 2.4131019403173494e-8 2.0052097399256088e-8
          9.417824830860758e-9 6.704282065645885e-9 1.2686391052055443e-8 8.967022921440574e-9 1.6346881376378497e-8 1.3148423846166911e-8
          1.1466119643515127e-8 9.014826462612354e-9 2.0223477426311158e-8 1.6308345407040495e-8 1.4026268474495316e-8 2.931289255106602e-8
          3.3330386505279616e-8 3.0972631012192715e-8 3.489128246350894e-8 3.904512325576814e-8 4.0555714191189885e-8 2.467528402488257e-8
          3.1275151991170796e-8 3.360397040742438e-8 4.091724342220652e-8 3.20579469741548e-8 3.553777369292903e-8 3.1887851884530066e-8
          3.5107503027955114e-8 4.1241159422875865e-8 4.115442536593277e-8 2.9736725917047114e-8 3.546533984826299e-8 3.587908009801201e-8
          4.3213499736392565e-8 4.1391647282669394e-8 4.3442980671713625e-8 4.119052377747648e-8 4.208560859980952e-8 4.3094865196512117e-8
          4.518151370476937e-8 4.29843868119138e-8 4.438175586561758e-8 4.351835421808085e-8 4.1359148259068886e-8 3.829482578201724e-8
          4.6319505230891326e-8 4.602486513315286e-8 4.469111680967409e-8 1.8015673308677023e-8 2.773821889523538e-8 2.1715573709504522e-8
          3.0936013568850586e-8 4.167466483289023e-8 4.393618188669488e-8 1.4274466421140115e-8 2.5717670734594548e-8 2.9477811929173117e-8
          4.1799227861842556e-8 2.617211919626126e-8 3.408098806906985e-8 3.00762851538475e-8 3.58647942064213e-8 4.4676264533600416e-8
          4.3966299286998424e-8 2.4495962855963177e-8 3.329124035811321e-8 3.567339728739697e-8 4.514647286974739e-8 4.469662613237735e-8
          4.6657080701146767e-8 4.3844085847759764e-8 4.5806650560616315e-8 4.5316795182194516e-8 4.723209719840303e-8 4.4175414607837596e-8
          4.7701371426809235e-8 4.7420831033179155e-8 4.632343605078905e-8 4.4505131928633096e-8 4.8220566016481494e-8 4.7882438664256544e-8
          4.683617711325597e-8 3.0867722244312055e-8 3.419653918356152e-8 3.057051882268083e-8 3.340848890664577e-8 3.998846489502875e-8
          3.716088951264838e-8 3.0979467463887085e-8 3.458798269138182e-8 3.3229195978819474e-8 4.139927260281035e-8 4.032053742720939e-8
          3.4950277051570725e-8 3.3296475475893787e-8 2.7388005107456418e-8 4.358638173887758e-8 3.868089900741559e-8 3.7397703410080946e-8
          3.1078170425395725e-8 3.5126267480169586e-8 2.9243709920388138e-8 3.3144142161357395e-8 4.2264970871681446e-8 3.996186160196981e-8
          3.1011521790194286e-8 3.531944779892572e-8 3.319104587957904e-8 4.257974577439885e-8 4.525882637937487e-8 4.081624804954351e-8
          3.995981044754058e-8 3.347926710796791e-8 4.575353034182437e-8 4.1505948056990684e-8 4.081735251684614e-8 3.653057525548167e-8
          3.497774905826245e-8 3.2721031469306094e-8 2.684756158175509e-8 3.9667610841354534e-8 3.8761491570300785e-8 3.559671156495172e-8
          3.2345098149282775e-8 2.8519120451885643e-8 2.3033066475777003e-8 1.989184514314437e-8 3.620147376824549e-8 3.213918369796071e-8
          2.5629095620862353e-8 4.1030765843106076e-8 4.079678522295456e-8 3.787804707146061e-8 3.149667076227864e-8 4.140196124773428e-8
          4.1399121358533854e-8 3.864910296854626e-8 3.8598399479962905e-8 3.452339956204304e-8 2.740153011508935e-8 2.396925344125877e-8
          3.938066230897467e-8 3.53595647089039e-8 2.804108059111044e-8 2.397818628380431e-8 1.9332176157273362e-8 1.6435918309810178e-8
          1.3098899363742907e-8 2.7125032642695265e-8 2.188540172440619e-8 1.8451350871081324e-8 2.92337831368335e-8 2.3593854483253716e-8
          1.9805786122666084e-8 1.579337344931294e-8 2.998433623101211e-8 2.4192363617618887e-8 2.028435355824807e-8
        </DataArray>
        <DataArray type="Float64" Name="gradient_matprop_error" format="ascii" RangeMin="0" RangeMax="0">
          0 0 0 0 0 0
          0 0 0 0 0 0
          0 0 0 0 0 0
          0 0 0 0 0 0
          0 0 0 0 0 0
          0 0 0 0 0 0
          0 0 0 0 0 0
          0 0 0 0 0 0
          0 0 0 0 0 0
          0 0 0 0 0 0
          0 0 0 0 0 0
          0 0 0 0 0 0
          0 0 0 0 0 0
          0 0 0 0 0 0
          0 0 0 0 0 0
          0 0 0 0 0 0
          0 0 0 0 0 0
          0 0 0 0 0 0
          0 0 0 0 0 0
          0 0 0 0 0 0
          0 0 0 0 0 0
          0 0 0 0 0 0
          0 0 0 0 0 0
          0 0 0 0 0 0
          0 0 0 0 0 0
          0 0 0 0 0 0
          0 0 0 0 0 0
          0 0 0 0 0 0
          0 0 0 0 0 0
          0 0 0 0 0 0
          0 0 0 0 0 0
          0 0 0 0 0 0
          0 0 0 0 0 0
          0 0 0 0 0 0
          0 0 0 0 0 0
          0 0 0 0 0 0
          0 0 0 0 0 0
          0 0 0 0 0 0
          0 0 0 0 0 0
          0 0 0 0 0 0
          0 0 0 0 0 0
          0 0 0 0 0 0
          0 0 0 0 0 0
          0 0 0 0 0 0
          0 0 0 0 0 0
          0 0 0 0 0 0
          0 0 0 0 0 0
          0 0 0 0 0 0
          0 0 0 0 0 0
          0 0 0 0 0 0
          0 0 0 0 0 0
          0 0 0 0 0 0
          0 0 0 0 0 0
          0 0 0 0 0 0
          0 0 0 0 0 0
          0 0 0 0 0 0
          0 0 0 0 0 0
          0 0 0 0 0 0
          0 0 0 0 0 0
          0 0 0 0 0 0
          0 0 0 0 0 0
          0 0 0 0 0 0
          0 0 0 0 0 0
          0 0 0 0 0 0
          0 0 0 0 0 0
          0 0 0 0 0 0
          0 0 0 0 0 0
          0 0 0 0 0 0
          0 0 0 0 0 0
          0 0 0 0 0 0
          0 0 0 0 0 0
          0 0 0 0 0 0
          0 0 0 0 0 0
          0 0 0 0 0 0
          0 0 0 0 0 0
          0 0 0 0 0 0
          0 0 0 0 0 0
          0 0 0 0 0 0
          0 0 0 0 0 0
          0 0 0 0 0 0
          0 0 0 0 0 0
          0 0 0 0 0 0
          0 0 0 0 0 0
          0 0 0 0 0 0
          0 0 0 0 0 0
          0 0 0 0 0 0
          0 0 0 0 0 0
          0 0 0 0 0 0
          0 0 0 0 0 0
          0 0 0 0 0 0
          0 0 0 0 0 0
          0 0 0 0 0 0
          0 0 0 0 0 0
          0 0 0 0 0
        </DataArray>
        <DataArray type="Float64" Name="initial_marker" format="ascii" RangeMin="2" RangeMax="2">
          2 2 2 2 2 2
          2 2 2 2 2 2
          2 2 2 2 2 2
          2 2 2 2 2 2
          2 2 2 2 2 2
          2 2 2 2 2 2
          2 2 2 2 2 2
          2 2 2 2 2 2
          2 2 2 2 2 2
          2 2 2 2 2 2
          2 2 2 2 2 2
          2 2 2 2 2 2
          2 2 2 2 2 2
          2 2 2 2 2 2
          2 2 2 2 2 2
          2 2 2 2 2 2
          2 2 2 2 2 2
          2 2 2 2 2 2
          2 2 2 2 2 2
          2 2 2 2 2 2
          2 2 2 2 2 2
          2 2 2 2 2 2
          2 2 2 2 2 2
          2 2 2 2 2 2
          2 2 2 2 2 2
          2 2 2 2 2 2
          2 2 2 2 2 2
          2 2 2 2 2 2
          2 2 2 2 2 2
          2 2 2 2 2 2
          2 2 2 2 2 2
          2 2 2 2 2 2
          2 2 2 2 2 2
          2 2 2 2 2 2
          2 2 2 2 2 2
          2 2 2 2 2 2
          2 2 2 2 2 2
          2 2 2 2 2 2
          2 2 2 2 2 2
          2 2 2 2 2 2
          2 2 2 2 2 2
          2 2 2 2 2 2
          2 2 2 2 2 2
          2 2 2 2 2 2
          2 2 2 2 2 2
          2 2 2 2 2 2
          2 2 2 2 2 2
          2 2 2 2 2 2
          2 2 2 2 2 2
          2 2 2 2 2 2
          2 2 2 2 2 2
          2 2 2 2 2 2
          2 2 2 2 2 2
          2 2 2 2 2 2
          2 2 2 2 2 2
          2 2 2 2 2 2
          2 2 2 2 2 2
          2 2 2 2 2 2
          2 2 2 2 2 2
          2 2 2 2 2 2
          2 2 2 2 2 2
          2 2 2 2 2 2
          2 2 2 2 2 2
          2 2 2 2 2 2
          2 2 2 2 2 2
          2 2 2 2 2 2
          2 2 2 2 2 2
          2 2 2 2 2 2
          2 2 2 2 2 2
          2 2 2 2 2 2
          2 2 2 2 2 2
          2 2 2 2 2 2
          2 2 2 2 2 2
          2 2 2 2 2 2
          2 2 2 2 2 2
          2 2 2 2 2 2
          2 2 2 2 2 2
          2 2 2 2 2 2
          2 2 2 2 2 2
          2 2 2 2 2 2
          2 2 2 2 2 2
          2 2 2 2 2 2
          2 2 2 2 2 2
          2 2 2 2 2 2
          2 2 2 2 2 2
          2 2 2 2 2 2
          2 2 2 2 2 2
          2 2 2 2 2 2
          2 2 2 2 2 2
          2 2 2 2 2 2
          2 2 2 2 2 2
          2 2 2 2 2 2
          2 2 2 2 2 2
          2 2 2 2 2
        </DataArray>
        <DataArray type="Float64" Name="markers_norefine" format="ascii" RangeMin="0" RangeMax="2">
          2 0 0 0 0 0
          2 1.5 2 0.75 0 2
          2 2 0 0 2 0
          2 0.5 0 0 0 0
          0 0 0 1 1 0
          2 1 1 1 0.75 0
          0 2 2 2 1.5 0
          0 0 0 0 2 2
          2 2 2 2 2 2
          2 2 2 2 2 2
          0 0 0 0 0.5 0
          0 0 0 0 0 0
          0 1 0.25 0 0 0
          0 2 2 1 0.5 0.5
          0 0 0 0 0 0
          0 2 2 2 2 1.25
          0.5 2 2 2 1.5 2
          1 0 2 1.5 0 0
          0 0 0 0 0 2
          1 2 2 2 2 1.5
          1 2 2 2 2 2
          2 2 2 2 1 1
          0 1 0.5 0 2 2
          2 2 2 2 2 2
          2 2 2 2 2 2
          2 1.75 2 2 2 2
          1.5 1.5 1 1 2 2
          2 1.5 1 1 0.5 2
          1.75 1.6666666666666667 1 0.5 0 0
          2 2 2 2 2 2
          2 2 2 2 2 2
          2 2 2 2 2 2
          2 2 2 2 2 2
          2 2 2 2 2 2
          2 2 2 2 2 2
          2 2 2 2 2 2
          2 1.75 1.5 2 2 2
          2 2 2 2 2 2
          2 2 2 2 2 2
          2 2 2 2 2 2
          2 2 2 2 2 2
          2 2 2 2 2 2
          2 2 2 2 1 0
          1 0.75 0.5 0 0 1
          1 0 1.25 0.5 1.5 1
          1 0 0 1 1 0
          0 0 0 0 0 0
          0 0 0 0 0 0
          0 0 0 0 0 0
          0 0 0 0 0 2
          2 1 1 0 0 0
          0 0 0 0.5 0.25 0
          0 0 0 0 0 0
          0 0 0 0 0 0
          0 2 2 2 1.75 1.5
          1.25 2 2 2 2 1.5
          1.25 1 0.75 0.75 0.25 2
          2 1.75 1.75 0.5 0.5 0
          0 1.5 1.5 0.6666666666666666 0.25 0
          0 0 1 0.25 0.25 0
          0 0 0 0 0 0
          0 0 0 0.5 0.25 0
          0 0 0 1.5 1 0.25
          0.25 0 0 0 0 0
          0 0 0 0 0 0
          0 0 0 0 0 0
          0 0 0 0 0 0
          0 0 0 0 0 0
          0 0 0 0 0 0
          0 0 0 0 0 2
          2 2 2 2 2 2
          2 2 2 2 2 2
          2 2 1.75 2 2 2
          2 2 2 1.25 1 2
          2 1.75 1.75 1 0.75 0.25
          2 1.5 1 2 2 2
          2 2 2 2 2 2
          2 2 2 2 2 2
          2 2 2 2 2 2
          2 2 1.5 2 2 2
          2 1.5 1 0.5 2 1.5
          1 2 1.75 1.5 1 1
          0.25 2 2 1.75 1.75 0.25
          0 0 0 0.75 0.25 0
          2 2 2 2 2 1.5
          2 2 2 2 1 0.5
          0 0 1 0.5 0 0.25
          0 0 0 0.75 0.25 0
          0 0 0 0 0 0
          0 1 0.5 0 0 1
          0.5 0 0 0 0 0
          0 0 0 0 0 0
          0 0 0 0 0 0
          0 0 0 0 0
        </DataArray>
        <DataArray type="Float64" Name="markers_mustrefine" format="ascii" RangeMin="2" RangeMax="2">
          2 2 2 2 2 2
          2 2 2 2 2 2
          2 2 2 2 2 2
          2 2 2 2 2 2
          2 2 2 2 2 2
          2 2 2 2 2 2
          2 2 2 2 2 2
          2 2 2 2 2 2
          2 2 2 2 2 2
          2 2 2 2 2 2
          2 2 2 2 2 2
          2 2 2 2 2 2
          2 2 2 2 2 2
          2 2 2 2 2 2
          2 2 2 2 2 2
          2 2 2 2 2 2
          2 2 2 2 2 2
          2 2 2 2 2 2
          2 2 2 2 2 2
          2 2 2 2 2 2
          2 2 2 2 2 2
          2 2 2 2 2 2
          2 2 2 2 2 2
          2 2 2 2 2 2
          2 2 2 2 2 2
          2 2 2 2 2 2
          2 2 2 2 2 2
          2 2 2 2 2 2
          2 2 2 2 2 2
          2 2 2 2 2 2
          2 2 2 2 2 2
          2 2 2 2 2 2
          2 2 2 2 2 2
          2 2 2 2 2 2
          2 2 2 2 2 2
          2 2 2 2 2 2
          2 2 2 2 2 2
          2 2 2 2 2 2
          2 2 2 2 2 2
          2 2 2 2 2 2
          2 2 2 2 2 2
          2 2 2 2 2 2
          2 2 2 2 2 2
          2 2 2 2 2 2
          2 2 2 2 2 2
          2 2 2 2 2 2
          2 2 2 2 2 2
          2 2 2 2 2 2
          2 2 2 2 2 2
          2 2 2 2 2 2
          2 2 2 2 2 2
          2 2 2 2 2 2
          2 2 2 2 2 2
          2 2 2 2 2 2
          2 2 2 2 2 2
          2 2 2 2 2 2
          2 2 2 2 2 2
          2 2 2 2 2 2
          2 2 2 2 2 2
          2 2 2 2 2 2
          2 2 2 2 2 2
          2 2 2 2 2 2
          2 2 2 2 2 2
          2 2 2 2 2 2
          2 2 2 2 2 2
          2 2 2 2 2 2
          2 2 2 2 2 2
          2 2 2 2 2 2
          2 2 2 2 2 2
          2 2 2 2 2 2
          2 2 2 2 2 2
          2 2 2 2 2 2
          2 2 2 2 2 2
          2 2 2 2 2 2
          2 2 2 2 2 2
          2 2 2 2 2 2
          2 2 2 2 2 2
          2 2 2 2 2 2
          2 2 2 2 2 2
          2 2 2 2 2 2
          2 2 2 2 2 2
          2 2 2 2 2 2
          2 2 2 2 2 2
          2 2 2 2 2 2
          2 2 2 2 2 2
          2 2 2 2 2 2
          2 2 2 2 2 2
          2 2 2 2 2 2
          2 2 2 2 2 2
          2 2 2 2 2 2
          2 2 2 2 2 2
          2 2 2 2 2 2
          2 2 2 2 2 2
          2 2 2 2 2
        </DataArray>
        <DataArray type="Float64" Name="gradient_marker" format="ascii" RangeMin="0" RangeMax="1">
          0 0.75 0.75 1 1 0.625
          0 0.25 0 0.25 0.625 0
          0 0 1 1 1 1
          1 1 1 1 1 0.6666666666666666
          1 0.5 0.16666666666666666 0.5 0.5 0.75
          0 0.5 0.5 0.5 0.5 0.75
          0.625 0 0 0 0.25 0.75
          0.5 0.75 0.625 1 0 0
          0 0 0 0 0 0
          0 0 0 0 0 0
          0.5 0.5 1 0.6666666666666666 0.5 0.5
          1 0.25 0.25 1 0.125 0
          1 0.25 0.25 1 1 0.25
          1 0 0 1 0.125 1
          1 1 0.125 1 0.25 1
          1 0 0 1 1 0
          1 0 0 1 0 1
          1 1 1 1 1 0.25
          1 0.25 1 1 1 0
          0 0 0 0 0 0
          0 0 0 0 0 0
          0 0 0 0 0 0
          0 0 0 0 0 0
          0 0 0 0 0 0
          0 0 0 0 0 0
          0 0 0 0 0 0
          0 0 0 0 0 0
          0 0 0 0 0 0
          0 0 0 0 0 0
          0 0 0 0 0 0
          0 0 0 0 0 0
          0 0 0 0 0 0
          0 0 0 0 0 0
          0 0 0 0 0 0
          0 0 0 0 0 0
          0 0 0 0 0 0
          0 0 0 0 0 0
          0 0 0 0 0 0
          0 0 0 0 0 0
          0 0 0 0 0 0
          0 0 0 0 0 0
          0 0 0 0 0 0
          0 0 0 0 0 0
          0 0 0 0 0 0
          0 0 0 0 0 0
          0 0 0 0 0 0
          0 0.5 0.5 1 0.5 0
          0.5 1 0.5 1 1 1
          1 1 0 0.5 1 0.5
          1 1 0 0 0 0
          0 0 0 0.5 0.5 1
          1 0.5 1 0.5 0.5 1
          0.5 0 0 0 0 0
          0.5 1 0.5 1 0.5 1
          0.5 0 0 0 0 0
          0 0 0 0 0 0.5
          0.5 1 1 0.5 1 0.5
          0.5 1 0.5 0 0 0