<?xml version="1.0"?>
<VTKFile type="UnstructuredGrid" version="0.1" byte_order="LittleEndian" header_type="UInt32" compressor="vtkZLibDataCompressor">
  <UnstructuredGrid>
    <Piece NumberOfPoints="571" NumberOfCells="349">
      <PointData>
        <DataArray type="Int32" Name="libmesh_node_id" format="ascii" RangeMin="296" RangeMax="5074">
          296 366 369 385 770 771
          775 787 789 791 792 793
          794 795 810 815 823 824
          825 826 827 828 829 843
          859 863 865 867 882 887
          898 900 902 904 1045 1046
          1048 1049 1050 1056 1166 1169
          1173 1174 1175 1176 1272 1273
          1311 1312 1313 1314 1315 1316
          1317 1318 1319 1320 1321 1322
          1323 1394 1395 1398 1401 1405
          1495 1496 1497 1505 1507 1508
          1509 1510 1511 1512 1513 1514
          1515 1517 1519 1521 1564 1565
          1568 1569 1571 1575 1598 1599
          1602 1605 1606 1609 1678 1679
          1680 1681 1682 1683 1684 1685
          1687 1689 1691 1692 1693 1694
          1695 1696 1697 1698 1699 1700
          1701 1702 1703 1706 1707 1709
          1711 1712 1713 1714 1715 1716
          1717 1718 1719 1720 1721 1723
          1724 1725 1726 1727 1728 1729
          1730 1731 1732 1733 1735 1737
          1739 1990 1993 2016 2017 2018
          2019 2020 2021 2022 2023 2024
          2025 2026 2027 2030 2031 3166
          3178 3179 3182 3183 3184 3185
          3186 3207 3231 3232 3233 3234
          3235 3709 3714 3715 3716 3717
          3718 3719 3720 3721 3722 3723
          3724 3725 3726 3727 3728 3729
          3730 3731 3732 3733 3734 3735
          3736 3737 3738 3739 3740 3745
          3746 3747 3755 3756 3757 3758
          3759 3760 3761 3769 3770 3771
          3772 3773 3774 3775 3776 3777
          3778 3984 3985 3986 3987 3988
          3989 3990 3991 3992 3993 4006
          4007 4008 4009 4010 4011 4012
          4013 4014 4015 4019 4030 4031
          4032 4033 4034 4035 4036 4058
          4059 4060 4061 4062 4063 4064
          4071 4222 4223 4224 4225 4226
          4227 4228 4229 4230 4231 4246
          4247 4248 4249 4250 4251 4252
          4253 4254 4255 4270 4271 4272
          4273 4274 4275 4276 4279 4280
          4283 4298 4299 4300 4301 4302
          4303 4304 4307 4308 4311 4808
          4809 4810 4811 4812 4813 4814
          4815 4816 4817 4818 4819 4820
          4821 4822 4823 4824 4825 4826
          4827 4828 4829 4830 4831 4832
          4833 4834 4835 4836 4837 4838
          4839 4840 4841 4842 4843 4844
          4845 4846 4847 4848 4849 4850
          4851 4852 4853 4854 4862 4863
          4864 4865 4866 4867 4868 4876
          4877 4878 4879 4880 4881 4882
          4887 4889 4890 4891 4892 4893
          4894 4895 4896 4901 4904 4905
          4906 4907 4908 4909 4910 4911
          4912 4913 4914 4915 4916 4917
          4918 4919 4920 4921 4922 4923
          4924 4925 4926 4927 4938 4939
          4940 4941 4942 4943 4944 4945
          4946 4947 4948 4949 4950 4951
          4952 4953 4954 4955 4956 4957
          4958 4959 4960 4961 4962 4963
          4964 4965 4966 4967 4968 4969
          4970 4971 4972 4973 4974 4975
          4976 4977 4978 4979 4980 4981
          4982 4983 4984 4985 4986 4987
          4988 4989 4990 4991 4992 4993
          4994 4995 4996 4997 4998 4999
          5003 5005 5006 5007 5008 5009
          5010 5011 5012 5013 5014 5015
          5016 5017 5018 5019 5020 5021
          5022 5023 5024 5025 5026 5027
          5029 5031 5033 5034 5035 5036
          5037 5038 5039 5040 5041 5042
          5043 5044 5045 5046 5047 5048
          5049 5050 5051 5052 5053 5054
          5055 5056 5057 5058 5059 5060
          5068 5069 5070 5071 5072 5073
          5074 811 372 1167 1168 1270
          1271 1274 1275 1276 1396 1562
          1566 1305 1596 1307 1309 1600
          3176 3975 3979 1397 3980 3983
          1563 3995 4001 4002 4005 1567
          3221 4018 4022 4046 4047 4050
          1573 4211 4217 4218 4221 1597
          4235 4241 4242 4245 1601 4258
          4259 4262 1603 4286 4287 4290
          1607
        </DataArray>
        <DataArray type="Float64" Name="bounds" format="ascii" RangeMin="0" RangeMax="0">
          0 0 0 0 0 0
          0 0 0 0 0 0
          0 0 0 0 0 0
          0 0 0 0 0 0
          0 0 0 0 0 0
          0 0 0 0 0 0
          0 0 0 0 0 0
          0 0 0 0 0 0
          0 0 0 0 0 0
          0 0 0 0 0 0
          0 0 0 0 0 0
          0 0 0 0 0 0
          0 0 0 0 0 0
          0 0 0 0 0 0
          0 0 0 0 0 0
          0 0 0 0 0 0
          0 0 0 0 0 0
          0 0 0 0 0 0
          0 0 0 0 0 0
          0 0 0 0 0 0
          0 0 0 0 0 0
          0 0 0 0 0 0
          0 0 0 0 0 0
          0 0 0 0 0 0
          0 0 0 0 0 0
          0 0 0 0 0 0
          0 0 0 0 0 0
          0 0 0 0 0 0
          0 0 0 0 0 0
          0 0 0 0 0 0
          0 0 0 0 0 0
          0 0 0 0 0 0
          0 0 0 0 0 0
          0 0 0 0 0 0
          0 0 0 0 0 0
          0 0 0 0 0 0
          0 0 0 0 0 0
          0 0 0 0 0 0
          0 0 0 0 0 0
          0 0 0 0 0 0
          0 0 0 0 0 0
          0 0 0 0 0 0
          0 0 0 0 0 0
          0 0 0 0 0 0
          0 0 0 0 0 0
          0 0 0 0 0 0
          0 0 0 0 0 0
          0 0 0 0 0 0
          0 0 0 0 0 0
          0 0 0 0 0 0
          0 0 0 0 0 0
          0 0 0 0 0 0
          0 0 0 0 0 0
          0 0 0 0 0 0
          0 0 0 0 0 0
          0 0 0 0 0 0
          0 0 0 0 0 0
          0 0 0 0 0 0
          0 0 0 0 0 0
          0 0 0 0 0 0
          0 0 0 0 0 0
          0 0 0 0 0 0
          0 0 0 0 0 0
          0 0 0 0 0 0
          0 0 0 0 0 0
          0 0 0 0 0 0
          0 0 0 0 0 0
          0 0 0 0 0 0
          0 0 0 0 0 0
          0 0 0 0 0 0
          0 0 0 0 0 0
          0 0 0 0 0 0
          0 0 0 0 0 0
          0 0 0 0 0 0
          0 0 0 0 0 0
          0 0 0 0 0 0
          0 0 0 0 0 0
          0 0 0 0 0 0
          0 0 0 0 0 0
          0 0 0 0 0 0
          0 0 0 0 0 0
          0 0 0 0 0 0
          0 0 0 0 0 0
          0 0 0 0 0 0
          0 0 0 0 0 0
          0 0 0 0 0 0
          0 0 0 0 0 0
          0 0 0 0 0 0
          0 0 0 0 0 0
          0 0 0 0 0 0
          0 0 0 0 0 0
          0 0 0 0 0 0
          0 0 0 0 0 0
          0 0 0 0 0 0
          0 0 0 0 0 0
          0
        </DataArray>
        <DataArray type="Float64" Name="gradient_error" format="ascii" RangeMin="2.9176358781818654e-10" RangeMax="5.081030652071388e-7">
          1.3389294085572251e-7 1.8151186227558208e-7 8.493102407866337e-8 3.536657241069718e-9 2.3838323011737575e-7 1.1448841750385893e-7
          3.4622309787684543e-7 1.0589525165340934e-7 4.757981072648856e-8 5.7924776999467146e-8 2.039536226896362e-8 2.555624743155803e-7
          1.1887436411289223e-7 1.30156579733617e-7 4.101859280009989e-7 4.93331017558783e-7 4.2977434106238735e-7 2.0849457231772775e-7
          2.093106010099794e-7 6.801971335038769e-8 5.081030652071388e-7 2.503883871004004e-7 2.430215721192707e-7 3.190579808078417e-9
          3.769644321640383e-9 5.022279761340602e-9 2.8038406424184102e-9 6.046692640620794e-9 8.22742976427746e-9 1.1367595363416316e-8
          1.6707853273956595e-9 9.368647478338584e-9 2.2142246267825792e-9 1.1060690762290993e-8 1.1958253427418485e-8 1.7843008520566374e-8
          2.0964846986525248e-8 7.832404206969708e-9 1.168645415990079e-8 1.3662003069794725e-8 3.086613883734655e-8 9.849831242776788e-8
          1.0089055923256919e-8 1.7936931363713736e-8 1.0650723228362313e-8 2.959462219187558e-8 1.196656782469803e-7 8.888438666314936e-8
          4.5858025290246306e-8 2.627972487207217e-8 6.081243922484623e-8 8.652056881026972e-9 1.2461906488393605e-8 9.799058932100168e-9
          1.582591855582973e-8 7.278862233956926e-8 4.1222935971539307e-8 7.833608835749412e-8 1.8156066113149654e-8 1.45386881538466e-8
          1.9121611692912486e-8 1.684670827428113e-8 1.6073893610627772e-9 2.759794434140969e-8 7.868566395807266e-10 1.6797501302561527e-9
          6.2669087416757e-9 1.641702064043191e-9 5.3184772352858755e-9 7.048695557802237e-10 1.1067429450715398e-9 1.0270183502711805e-8
          1.6313216532160358e-9 7.119164044317594e-9 2.510405805262317e-9 1.6182739398227206e-8 1.555306678023658e-9 1.0750514377639528e-8
          7.137273404625095e-10 1.092504697782106e-9 7.460782367103023e-10 1.2036995933847452e-9 4.226841386082406e-8 5.528398281899026e-9
          5.849258518620107e-8 6.963443333843823e-9 3.089710558803532e-9 4.80770554870388e-9 7.243412657179817e-8 1.0478877426315576e-8
          7.812835793720987e-8 6.2776084640695e-9 3.2176649182260213e-9 6.862539603109248e-9 2.511522538677065e-8 2.594879028022621e-9
          1.506712817341601e-8 2.4248976383086952e-9 3.346592405954456e-8 3.778389602382676e-9 1.8889905631997644e-8 1.3059216287718295e-9
          1.0505911930175442e-9 1.9675857012820916e-9 7.809829338009239e-10 6.741387366150534e-9 8.518254507948935e-9 3.4697973866792056e-9
          3.1879752111897177e-9 4.849056765455408e-9 7.037126061992177e-9 3.0861895613359903e-9 9.7609370634593e-9 2.4185849854404624e-9
          9.106008319218954e-9 1.543132866918293e-9 1.4055467863598893e-9 1.0639827014572663e-9 1.42432997068055e-9 1.0837720336914906e-9
          1.7925707328349298e-9 4.016087402211086e-8 4.747438165563984e-9 2.2498288246284977e-8 2.062591708685043e-9 4.3204978825856616e-8
          5.124147889249964e-9 2.412009240425766e-8 2.522334284771104e-9 1.2114890646952427e-9 9.791380236060923e-10 2.741648036722892e-9
          1.3213793746476161e-9 1.056524536201285e-9 1.1255435818117248e-8 2.851218497656837e-9 1.0540587009610053e-8 4.684943242565496e-9
          1.1857411068749505e-8 3.0083738071472355e-9 1.1072589498402257e-8 1.2795298066401317e-9 2.1006209549620865e-9 1.357249429572397e-9
          2.222980881327384e-9 7.004490358554015e-9 4.535374964118201e-9 4.1504374247806085e-9 5.496027394159991e-9 4.244634900904196e-9
          3.1905713693784066e-9 4.233010019774532e-9 1.6014319675246525e-9 2.151753696591068e-9 2.4173758324504986e-9 3.1223346784985105e-9
          1.4775295202436147e-9 7.443390939610124e-10 9.911575182698982e-10 5.835192715662203e-10 7.34852585096362e-10 2.360210595527706e-9
          3.848468217855183e-9 6.725164551314883e-9 3.263655869265794e-9 2.299407729202329e-9 5.9138329624660425e-9 4.4825340353984845e-9
          4.389491534856457e-9 1.1248419077351005e-9 1.6464094927314086e-9 1.1692916341473498e-9 3.369405056695852e-9 2.4787057478743103e-9
          2.3320383338504314e-9 2.0987781813663678e-9 1.7414038339136966e-9 1.1584559209743697e-9 1.3821517318699171e-9 2.8671848793296796e-9
          2.085724046446569e-9 3.765648780526573e-9 2.400537482065839e-9 1.638625546124103e-9 1.7276993696355294e-9 1.1460309503620318e-9
          3.1948767630166996e-9 2.243610642247725e-9 2.3045587533359158e-9 1.2340452677911892e-9 1.4480323362222243e-9 1.2396828332889113e-9
          1.9270824567225046e-9 1.0354396040870578e-9 1.2093536799641637e-9 6.770090514835385e-10 7.965203097532109e-10 8.902387349299653e-10
          1.0221712141760042e-9 6.536429310340778e-10 1.605828642470045e-9 1.0670772495966386e-9 1.3441609954819851e-9 7.899389923707182e-10
          5.439610432610568e-10 6.02998721184011e-10 1.1421688524723345e-9 7.963708744778581e-10 7.795470267983727e-10 5.346069134686326e-10
          1.5935677012155202e-9 1.125393778649062e-9 1.0774645247475709e-9 4.440328966463222e-10 5.283784711141957e-10 3.0237461678260084e-10
          3.5910080371265354e-10 3.734909967827536e-10 4.302246980426169e-10 2.9176358781818654e-10 7.171798094855325e-10 4.889396978290377e-10
          5.689711561663917e-10 8.824543294125649e-9 6.610846644283784e-9 1.1051807740689691e-8 7.837359319534442e-9 6.076672229654792e-9
          5.749887695415771e-9 4.277340889822513e-9 9.953858338715742e-9 7.921228671681856e-9 7.261608498967403e-9 1.3421049247793451e-8
          1.004376706611519e-8 1.573371324228809e-8 1.2209588589357371e-8 9.911203184807715e-9 8.891847440466382e-9 6.87447434503093e-9
          1.443010638028504e-8 1.1906293351244135e-8 1.0495476130100719e-8 5.128501935639712e-9 4.659573122074195e-9 3.478890980861863e-9
          3.1852258011046448e-9 2.3242116432728076e-9 6.179421943898755e-9 4.676728655703544e-9 4.1845024926570095e-9 7.849754631975502e-9
          6.0115108464483585e-9 5.27841758213952e-9 3.938365544042141e-9 9.549485971923774e-9 7.383009910916435e-9 6.386823312166538e-9
          3.4855347154694495e-9 1.8067324702297287e-8 1.3451360496825176e-8 2.0010686917875983e-8 1.657033375659701e-8 1.3741502247002432e-8
          1.2010160780513223e-8 9.470402836551789e-9 1.835265678687275e-8 1.525510416041311e-8 1.3239536845841009e-8 2.1299533155502903e-8
          1.5677216659814533e-8 2.1849845341962577e-8 1.9544438935754484e-8 1.6264723742774658e-8 1.4029892204427105e-8 1.11390265568378e-8
          2.0009752592643372e-8 1.6616792964129686e-8 1.4329342126474583e-8 1.112619305630597e-8 8.662043201819138e-9 7.410564399219079e-9
          5.6166976298257675e-9 1.2413152770822813e-8 9.708809640982339e-9 8.243895934436536e-9 4.093414796767836e-9 2.8597030158571695e-9
          4.5924759246781355e-9 1.3258426090408454e-8 1.0396409012148981e-8 8.789883965232973e-9 6.711328171274407e-9 1.3553718225717786e-8
          1.0636162695655746e-8 8.980117258820849e-9 4.920933337150276e-9 3.4540173732388887e-9 5.035578574729165e-9 4.812750879683127e-9
          3.5439642243140703e-9 5.95562525554728e-9 4.132463032740817e-9 2.9755952346415854e-9 2.9700774410023005e-9 2.0413666500357955e-9
          5.174900363698835e-9 3.813822953706341e-9 3.6998394546707644e-9 2.4636419562751913e-9 2.1069249906799364e-9 3.0429782829790417e-9
          2.0657164177770716e-9 1.39276174789548e-9 1.7328340714512646e-9 1.1213858621239822e-9 2.5660521987453764e-9 1.7588761270622602e-9
          1.9580235740649907e-9 7.223952734078376e-9 5.264726785394735e-9 8.43758760043064e-9 6.311348499448599e-9 4.7143417339842305e-9
          4.482193969383832e-9 3.1875725681469372e-9 7.421005191942968e-9 5.61801106742326e-9 5.2432832225557035e-9 3.6724443519537703e-9
          2.655255414443063e-9 4.251097005929171e-9 3.1018161900869025e-9 2.1448951754274795e-9 2.1810250094448834e-9 1.4212546652915078e-9
          3.6113860290513754e-9 2.527465526993302e-9 2.554148524997371e-9 2.1495328756700144e-9 1.5355917659888365e-9 1.435814535580184e-9
          1.0045550511179718e-9 2.795397798219068e-9 2.0177728426202894e-9 1.8493759261863768e-9 9.461646227221954e-10 6.49645936997419e-10
          7.479127847470884e-10 5.075592778530157e-10 1.2112736804878e-9 8.374583842596004e-10 8.552285690799772e-10 3.4992358877142168e-9
          2.54862818680917e-9 2.297032627869749e-9 1.6350362315886958e-9 4.210481837215471e-9 3.0896328367346227e-9 2.7468195150566067e-9
          2.197877460208804e-9 1.3767240338935056e-9 1.4946032183102876e-9 1.0412067958218933e-9 9.58362966554111e-10 6.541445562393119e-10
          1.7753744831103188e-9 1.2443276470607426e-9 1.1402044021211262e-9 8.61000267844365e-10 1.624443778486704e-9 1.8119024731973913e-9
          1.5547781938454629e-9 2.124836190438564e-9 1.3592254067551405e-9 1.4873189081249545e-9 8.714536684478372e-10 9.437437359582872e-10
          1.1654902371960727e-9 1.2442371502525167e-9 7.534395563337906e-10 1.7235809453108805e-9 1.0893672578290307e-9 1.4132445332238408e-9
          5.597335838638516e-10 6.160248670027435e-10 3.816632217282888e-10 4.174454527425798e-10 4.666986432694562e-10 4.921491343470803e-10
          3.3388185447299815e-10 7.213498826014616e-10 4.879353636167201e-10 5.544575793888129e-10 9.554225954704966e-9 6.906590752728299e-9
          1.0430786627607918e-8 8.439441620883092e-9 6.446398512057819e-9 5.938951056016355e-9 4.315717775852083e-9 9.248966381057011e-9
          7.115837944533986e-9 6.494057867873122e-9 4.76143743144153e-9 3.4825945486003404e-9 5.172933981306139e-9 4.065550146307522e-9
          2.874333527547492e-9 2.8632253201465335e-9 1.889319270044986e-9 4.429510389353726e-9 3.1508121602489486e-9 3.1092029350240634e-9
          1.0956249982713751e-8 7.921730062300094e-9 1.1160155206762716e-8 9.753769526289137e-9 7.552406685776023e-9 6.844971270555024e-9
          5.0276405235612306e-9 9.939034465731269e-9 7.703360253499228e-9 6.9745911481503555e-9 5.438594275983211e-9 3.966755580027629e-9
          5.546071982086949e-9 4.665148271400522e-9 3.330382968868498e-9 3.271383187186916e-9 2.175260322659032e-9 4.754175287744264e-9
          3.3923162796984837e-9 3.333253675096611e-9 4.865824256136937e-9 3.5912802360955295e-9 3.159278955628104e-9 2.2737448936748397e-9
          5.397609168016737e-9 4.000229909944244e-9 3.492804690594442e-9 2.5656707359776972e-9 1.7676044557072246e-9 1.5963365178531235e-9
          1.0874561890095475e-9 2.866720161332297e-9 1.97928263536702e-9 1.7751959599632962e-9 2.031531709647688e-9 1.4293769898626708e-9
          1.2959451914863858e-9 8.91090629536781e-10 2.236767977443082e-9 1.5782894917985958e-9 1.4204908611135816e-9 9.887186186385516e-10
          1.0926965431173336e-9 6.677608642695966e-10 5.745022778062871e-9 4.26826969322895e-9 3.710233601058581e-9 2.6850087262839696e-9
          5.865901988849771e-9 4.3616518199116786e-9 3.78583756772191e-9 3.064561528411071e-9 2.1186933960342464e-9 1.8925648391008307e-9
          1.2929509173493853e-9 3.1335821602085967e-9 2.1673791176901273e-9 1.933504418087827e-9 2.370225671549941e-9 1.6756272858085764e-9
          1.501222881949411e-9 1.0365508250987407e-9 2.416582588988825e-9 1.709510565727872e-9 1.529249528122371e-9 1.1618340317034605e-9
          7.080088579053465e-10 1.185841245839385e-9 7.219167699300832e-10 2.362296403641508e-9 2.0042882281546813e-9 2.549386116802053e-9
          1.923714485918286e-9 1.223529224721257e-9 1.5779658321200713e-9 9.405581868846593e-10 2.0801432936307503e-9 1.329316796495651e-9
          1.7054458482465662e-9 2.676611493124173e-9 2.2776016870814987e-9 2.7287323469582053e-9 2.1847374219625742e-9 1.3978436696609623e-9
          1.7906323429404324e-9 1.0672544637030519e-9 2.224867747373227e-9 1.4214114835838118e-9 1.8227996504891537e-9 8.126041257498886e-10
          5.518226154928819e-10 6.218153863867766e-10 4.2175722106914503e-10 8.858207828228102e-10 6.027354263477867e-10 6.749913399987766e-10
          9.331866515111886e-10 6.36141891339814e-10 7.094901701669622e-10 4.828954691582315e-10 9.49556373815246e-10 6.478151174932489e-10
          7.213128997570026e-10 2.4160963799960434e-7 3.027074977514098e-7 1.2139470487824804e-7 9.447818854101808e-8 1.5145735546855715e-7
          1.4185769466030464e-7 1.4673569589639446e-7 1.3804873671279973e-7 1.6606567005869048e-7 4.595767123918114e-8 7.480790438383792e-8
          7.592448470246689e-8 1.1243746679265538e-7 6.593587287841785e-8 1.5364290641107965e-7 1.2074116154484697e-7 7.146461915109791e-8
          7.895665591553256e-9 1.1722528581264188e-8 1.0570130776526034e-8 6.19365082666225e-9 8.479480830813243e-9 1.355724428116758e-8
          1.113730368840433e-8 1.8371016034366474e-8 1.685093389864622e-8 1.403003170685521e-8 2.0052097399256088e-8 1.7017038465225807e-8
          4.7928094165890476e-9 6.704282065645885e-9 8.967022921440574e-9 1.1466119643515127e-8 9.014826462612354e-9 1.4026268474495316e-8
          1.1126661123964101e-8 2.684756158175509e-8 2.3033066475777003e-8 1.989184514314437e-8 2.5629095620862353e-8 2.232996148305432e-8
          3.149667076227864e-8 2.740153011508935e-8 2.396925344125877e-8 2.804108059111044e-8 2.4544400757002027e-8 1.6435918309810178e-8
          1.3098899363742907e-8 1.8451350871081324e-8 1.4719441940145995e-8 1.9805786122666084e-8 1.579337344931294e-8 2.028435355824807e-8
          1.6170975183886077e-8
        </DataArray>
        <DataArray type="Float64" Name="gradient_matprop_error" format="ascii" RangeMin="0" RangeMax="0">
          0 0 0 0 0 0
          0 0 0 0 0 0
          0 0 0 0 0 0
          0 0 0 0 0 0
          0 0 0 0 0 0
          0 0 0 0 0 0
          0 0 0 0 0 0
          0 0 0 0 0 0
          0 0 0 0 0 0
          0 0 0 0 0 0
          0 0 0 0 0 0
          0 0 0 0 0 0
          0 0 0 0 0 0
          0 0 0 0 0 0
          0 0 0 0 0 0
          0 0 0 0 0 0
          0 0 0 0 0 0
          0 0 0 0 0 0
          0 0 0 0 0 0
          0 0 0 0 0 0
          0 0 0 0 0 0
          0 0 0 0 0 0
          0 0 0 0 0 0
          0 0 0 0 0 0
          0 0 0 0 0 0
          0 0 0 0 0 0
          0 0 0 0 0 0
          0 0 0 0 0 0
          0 0 0 0 0 0
          0 0 0 0 0 0
          0 0 0 0 0 0
          0 0 0 0 0 0
          0 0 0 0 0 0
          0 0 0 0 0 0
          0 0 0 0 0 0
          0 0 0 0 0 0
          0 0 0 0 0 0
          0 0 0 0 0 0
          0 0 0 0 0 0
          0 0 0 0 0 0
          0 0 0 0 0 0
          0 0 0 0 0 0
          0 0 0 0 0 0
          0 0 0 0 0 0
          0 0 0 0 0 0
          0 0 0 0 0 0
          0 0 0 0 0 0
          0 0 0 0 0 0
          0 0 0 0 0 0
          0 0 0 0 0 0
          0 0 0 0 0 0
          0 0 0 0 0 0
          0 0 0 0 0 0
          0 0 0 0 0 0
          0 0 0 0 0 0
          0 0 0 0 0 0
          0 0 0 0 0 0
          0 0 0 0 0 0
          0 0 0 0 0 0
          0 0 0 0 0 0
          0 0 0 0 0 0
          0 0 0 0 0 0
          0 0 0 0 0 0
          0 0 0 0 0 0
          0 0 0 0 0 0
          0 0 0 0 0 0
          0 0 0 0 0 0
          0 0 0 0 0 0
          0 0 0 0 0 0
          0 0 0 0 0 0
          0 0 0 0 0 0
          0 0 0 0 0 0
          0 0 0 0 0 0
          0 0 0 0 0 0
          0 0 0 0 0 0
          0 0 0 0 0 0
          0 0 0 0 0 0
          0 0 0 0 0 0
          0 0 0 0 0 0
          0 0 0 0 0 0
          0 0 0 0 0 0
          0 0 0 0 0 0
          0 0 0 0 0 0
          0 0 0 0 0 0
          0 0 0 0 0 0
          0 0 0 0 0 0
          0 0 0 0 0 0
          0 0 0 0 0 0
          0 0 0 0 0 0
          0 0 0 0 0 0
          0 0 0 0 0 0
          0 0 0 0 0 0
          0 0 0 0 0 0
          0 0 0 0 0 0
          0 0 0 0 0 0
          0
        </DataArray>
        <DataArray type="Float64" Name="initial_marker" format="ascii" RangeMin="0" RangeMax="2">
          0.5 2 0.25 2 2 2
          2 1 0.5 0 0 1.5
          1.25 1 2 2 2 2
          2 0.6666666666666666 2 2 2 2
          0 0 1 0 2 2
          2 0 2 0 0 0
          0 0 0 0 2 2
          1 1.5 0.5 2 2 2
          2 1.5 2 0 0.5 0
          1 2 2 2 1 0
          1 2 2 2 2 2
          0.75 0.5 0 0.5 0 1.5
          1.5 0.25 0 2 2 1
          1.5 0 2 0.5 2 2
          2 2 2 2 2 2
          2 2 2 2 2 2
          1.5 1.5 2 2 2 2
          1.25 2 2 0 0.25 0
          0 0 0 0 0.5 0
          0 0 0 0 0 0
          0 2 2 2 2 2
          2 2 2 2 2 2
          2 2 0.5 0 0 0
          0.5 0 0 0 0 0
          0 0 0 0 0 0
          0 0 0 0 0 0
          0 0 0 0 0 2
          2 2 2 2 2 2
          2 2 2 2 2 2
          2 2 2 2 2 2
          2 2 2 2 2 2
          2 2 2 1 1.5 1
          2 1 1.5 1 1.5 0
          1 1 2 2 2 2
          2 2 2 2 2 2
          2 2 2 1 1.25 1
          1 0 0.5 0 1.75 1.5
          1.5 2 2 2 2 2
          2 2 2 2 2 2
          2 2 2 2 2 2
          2 2 2 2 2 2
          2 2 2 2 2 2
          2 2 2 2 2 2
          2 2 2 2 2 2
          2 2 2 2 2 2
          2 2 2 2 2 2
          2 2 2 2 2 2
          2 2 2 2 2 2
          2 2 2 2 2 2
          2 2 2 2 2 2
          2 2 2 2 2 2
          2 2 2 2 2 2
          2 2 2 2 2 2
          2 2 2 2 2 2
          2 2 2 2 2 2
          2 2 2 2 2 2
          2 2 2 2 2 2
          2 2 2 2 2 2
          2 2 2 2 2 2
          2 2 2 2 2 2
          2 2 2 2 2 1.75
          2 2 2 2 1 1
          0 1 1 1 1 1
          0 0 0 1 1 0
          1 1 0.5 0.75 0 0
          0 1 1 0 2 2
          2 2 2 2 2 2
          2 2 2 2 2 2
          2 2 2 2 2 2
          2 2 2 2 2 2
          2 2 2 2 2 2
          2 2 2 2 2 2
          2 2 2 2 2 2
          2 2 2 2 2 2
          2 2 2 2 2 2
          2 2 2 2 2 2
          2 2 2 2 2 2
          2 2 2 2 2 2
          2 2 2 2 2 2
          2 2 2 2 2 2
          2 2 2 1 0 1
          1 1 0 0 1 1
          0 1 0 1 1 1
          0 0 1 1 0 1
          1 0 0 1 1 0
          1 1 0 0 1 1
          0 2 2 2 2 2
          2 2 2 2 2 2
          2 2 2 2 2 2
          2 2 2 2 2 2
          2 2 2 2 2 2
          2 2 2 2 2 2
          2 2 2 2 2 2
          2 2 2 2 2 2
          2 2 2 2 2 2
          2
        </DataArray>
        <DataArray type="Float64" Name="markers_norefine" format="ascii" RangeMin="0" RangeMax="0">
          0 0 0 0 0 0
          0 0 0 0 0 0
          0 0 0 0 0 0
          0 0 0 0 0 0
          0 0 0 0 0 0
          0 0 0 0 0 0
          0 0 0 0 0 0
          0 0 0 0 0 0
          0 0 0 0 0 0
          0 0 0 0 0 0
          0 0 0 0 0 0
          0 0 0 0 0 0
          0 0 0 0 0 0
          0 0 0 0 0 0
          0 0 0 0 0 0
          0 0 0 0 0 0
          0 0 0 0 0 0
          0 0 0 0 0 0
          0 0 0 0 0 0
          0 0 0 0 0 0
          0 0 0 0 0 0
          0 0 0 0 0 0
          0 0 0 0 0 0
          0 0 0 0 0 0
          0 0 0 0 0 0
          0 0 0 0 0 0
          0 0 0 0 0 0
          0 0 0 0 0 0
          0 0 0 0 0 0
          0 0 0 0 0 0
          0 0 0 0 0 0
          0 0 0 0 0 0
          0 0 0 0 0 0
          0 0 0 0 0 0
          0 0 0 0 0 0
          0 0 0 0 0 0
          0 0 0 0 0 0
          0 0 0 0 0 0
          0 0 0 0 0 0
          0 0 0 0 0 0
          0 0 0 0 0 0
          0 0 0 0 0 0
          0 0 0 0 0 0
          0 0 0 0 0 0
          0 0 0 0 0 0
          0 0 0 0 0 0
          0 0 0 0 0 0
          0 0 0 0 0 0
          0 0 0 0 0 0
          0 0 0 0 0 0
          0 0 0 0 0 0
          0 0 0 0 0 0
          0 0 0 0 0 0
          0 0 0 0 0 0
          0 0 0 0 0 0
          0 0 0 0 0 0
          0 0 0 0 0 0
          0 0 0 0 0 0
          0 0 0 0 0 0
          0 0 0 0 0 0
          0 0 0 0 0 0
          0 0 0 0 0 0
          0 0 0 0 0 0
          0 0 0 0 0 0
          0 0 0 0 0 0
          0 0 0 0 0 0
          0 0 0 0 0 0
          0 0 0 0 0 0
          0 0 0 0 0 0
          0 0 0 0 0 0
          0 0 0 0 0 0
          0 0 0 0 0 0
          0 0 0 0 0 0
          0 0 0 0 0 0
          0 0 0 0 0 0
          0 0 0 0 0 0
          0 0 0 0 0 0
          0 0 0 0 0 0
          0 0 0 0 0 0
          0 0 0 0 0 0
          0 0 0 0 0 0
          0 0 0 0 0 0
          0 0 0 0 0 0
          0 0 0 0 0 0
          0 0 0 0 0 0
          0 0 0 0 0 0
          0 0 0 0 0 0
          0 0 0 0 0 0
          0 0 0 0 0 0
          0 0 0 0 0 0
          0 0 0 0 0 0
          0 0 0 0 0 0
          0 0 0 0 0 0
          0 0 0 0 0 0
          0 0 0 0 0 0
          0
        </DataArray>
        <DataArray type="Float64" Name="markers_mustrefine" format="ascii" RangeMin="0" RangeMax="2">
          0.5 2 0.25 2 2 2
          2 1 0.5 0 0 1.5
          1.25 1 2 2 2 2
          2 0.6666666666666666 2 2 2 2
          0 0 1 0 2 2
          2 0 2 0 0 0
          0 0 0 0 2 2
          1 1.5 0.5 2 2 2
          2 1.5 2 0 0.5 0
          1 2 2 2 1 0
          1 2 2 2 2 2
          0.75 0.5 0 0.5 0 1.5
          1.5 0.25 0 2 2 1
          1.5 0 2 0.5 2 2
          2 2 2 2 2 2
          2 2 2 2 2 2
          1.5 1.5 2 2 2 2
          1.25 2 2 0 0.25 0
          0 0 0 0 0.5 0
          0 0 0 0 0 0
          0 2 2 2 2 2
          2 2 2 2 2 2
          2 2 0.5 0 0 0
          0.5 0 0 0 0 0
          0 0 0 0 0 0
          0 0 0 0 0 0
          0 0 0 0 0 2
          2 2 2 2 2 2
          2 2 2 2 2 2
          2 2 2 2 2 2
          2 2 2 2 2 2
          2 2 2 1 1.5 1
          2 1 1.5 1 1.5 0
          1 1 2 2 2 2
          2 2 2 2 2 2
          2 2 2 1 1.25 1
          1 0 0.5 0 1.75 1.5
          1.5 2 2 2 2 2
          2 2 2 2 2 2
          2 2 2 2 2 2
          2 2 2 2 2 2
          2 2 2 2 2 2
          2 2 2 2 2 2
          2 2 2 2 2 2
          2 2 2 2 2 2
          2 2 2 2 2 2
          2 2 2 2 2 2
          2 2 2 2 2 2
          2 2 2 2 2 2
          2 2 2 2 2 2
          2 2 2 2 2 2
          2 2 2 2 2 2
          2 2 2 2 2 2
          2 2 2 2 2 2
          2 2 2 2 2 2
          2 2 2 2 2 2
          2 2 2 2 2 2
          2 2 2 2 2 2
          2 2 2 2 2 2
          2 2 2 2 2 2
          2 2 2 2 2 1.75
          2 2 2 2 1 1
          0 1 1 1 1 1
          0 0 0 1 1 0
          1 1 0.5 0.75 0 0
          0 1 1 0 2 2
          2 2 2 2 2 2
          2 2 2 2 2 2
          2 2 2 2 2 2
          2 2 2 2 2 2
          2 2 2 2 2 2
          2 2 2 2 2 2
          2 2 2 2 2 2
          2 2 2 2 2 2
          2 2 2 2 2 2
          2 2 2 2 2 2
          2 2 2 2 2 2
          2 2 2 2 2 2
          2 2 2 2 2 2
          2 2 2 2 2 2
          2 2 2 1 0 1
          1 1 0 0 1 1
          0 1 0 1 1 1
          0 0 1 1 0 1
          1 0 0 1 1 0
          1 1 0 0 1 1
          0 2 2 2 2 2
          2 2 2 2 2 2
          2 2 2 2 2 2
          2 2 2 2 2 2
          2 2 2 2 2 2
          2 2 2 2 2 2
          2 2 2 2 2 2
          2 2 2 2 2 2
          2 2 2 2 2 2
          2
        </DataArray>
        <DataArray type="Float64" Name="gradient_marker" format="ascii" RangeMin="0" RangeMax="1">
          0.5 0.375 0.375 1 0.625 0.25
          0.75 0.25 0.125 0 0 0.75
          0.375 0.5 1 1 1 0.5
          1 0.3333333333333333 1 0.5 1 1
          0.5 0.5 0.75 0.5 1 1
          1 0.5 1 0.5 0 0
          0 0.5 0.5 0.5 0 0
          0 0 0 0 0.5 0.16666666666666666
          0 0 0 0 0 0
          0 0 0 0 0 0
          0 0 1 0 1 1
          0 0.75 0 1 1 0
          0.875 0 0.625 0 1 0
          1 1 1 1 0 1
          0.125 1 1 1 0.25 1
          0.25 1 1 1 0 1
          0 0.875 0 1 0 1
          1 1 1 0 0 0.5
          0.625 0 0 0.5 0 0.75
          0 1 1 1 1 1
          1 0 1 0 1 0
          1 0 1 1 1 1
          1 1 0 0.75 0 0.5
          0 0.75 0 1 1 1
          1 0 0.5 0 0 0
          0 0 0.5 0.5 0 0
          0.5 1 1 1 1 0.5
          0 0 0.5 1 0.5 1
          0.5 1 1 1 1 1
          1 0 0.5 1 0.5 0
          0 0 0.5 1 0.5 1
          0.5 1 0.5 0 0 0
          0 0.5 0.5 1 1 0.5
          0.5 1 0.5 1 0.5 1
          1 1 1 1 1 1
          1 1 1 1 1 1
          1 1 1 1 1 1
          1 0 0 0 0.5 1
          0.5 1 0.5 1 0.5 0