<?xml version="1.0"?>
<VTKFile type="UnstructuredGrid" version="0.1" byte_order="LittleEndian" header_type="UInt32" compressor="vtkZLibDataCompressor">
  <UnstructuredGrid>
    <Piece NumberOfPoints="586" NumberOfCells="359">
      <PointData>
        <DataArray type="Int32" Name="libmesh_node_id" format="ascii" RangeMin="228" RangeMax="5559">
          228 301 309 389 390 391
          392 393 394 398 399 400
          890 891 896 921 922 923
          924 925 926 927 928 929
          930 931 932 933 934 935
          1486 1622 1623 1625 1628 1638
          1642 1656 1657 1659 1662 1672
          1676 1780 1781 1783 1784 1786
          1787 1788 1789 1790 1791 1792
          1793 1794 1795 1799 1800 1802
          1803 1804 1805 1806 1807 1808
          1809 1810 1811 1812 1813 1815
          1816 1817 1819 1820 1821 1822
          1823 1824 1825 1826 1827 1828
          1829 1830 1832 1833 1834 1909
          1910 1917 1918 1948 1949 1950
          1951 1952 1953 1954 1955 1956
          1957 1958 1959 1960 1961 2081
          2082 2083 2084 2085 2086 2087
          2088 2089 2090 2091 2092 2093
          2094 2095 2096 2097 2098 2099
          2100 2101 2102 2103 2104 2105
          2106 2107 2108 2109 2110 2111
          2112 2113 2114 2115 2116 2117
          2118 2119 2120 2121 3652 4392
          4393 4395 4396 4397 4398 4399
          4408 4410 4411 4412 4413 4424
          4425 4426 4427 4428 4429 4430
          4431 4432 4433 4441 4442 4443
          4444 4445 4446 4447 4512 4513
          4514 4515 4516 4517 4539 4540
          4541 4542 4543 4544 4545 4638
          4639 4640 4641 4642 4643 4644
          4645 4646 4647 4655 4656 4657
          4658 4659 4660 4661 4672 4673
          4674 4675 4676 4677 4678 4679
          4680 4681 4689 4690 4691 4692
          4693 4694 4695 4759 4760 4761
          4762 4763 4764 4765 4787 4788
          4789 4790 4791 4792 4793 5297
          5298 5299 5300 5301 5302 5303
          5304 5305 5306 5307 5308 5309
          5310 5311 5312 5313 5314 5315
          5316 5317 5318 5319 5320 5321
          5322 5323 5324 5325 5326 5327
          5328 5329 5330 5331 5332 5333
          5334 5335 5336 5337 5338 5339
          5340 5341 5342 5343 5344 5345
          5346 5347 5348 5349 5350 5351
          5352 5353 5354 5355 5356 5357
          5358 5359 5360 5361 5362 5363
          5364 5365 5366 5367 5368 5369
          5370 5371 5372 5373 5374 5375
          5376 5377 5378 5379 5380 5381
          5382 5383 5384 5385 5386 5387
          5388 5389 5390 5391 5392 5393
          5394 5395 5396 5397 5398 5399
          5400 5401 5402 5403 5404 5405
          5406 5407 5408 5409 5410 5411
          5412 5413 5414 5415 5416 5417
          5418 5419 5420 5421 5422 5433
          5434 5435 5436 5437 5438 5439
          5440 5441 5442 5443 5444 5445
          5446 5447 5448 5449 5457 5458
          5459 5460 5461 5462 5463 5464
          5465 5466 5467 5468 5469 5470
          5471 5472 5473 5474 5475 5476
          5477 5478 5479 5480 5481 5482
          5483 5484 5485 5486 5487 5488
          5489 5490 5491 5492 5493 5494
          5495 5496 5497 5498 5499 5500
          5501 5502 5503 5504 5505 5506
          5507 5508 5509 5510 5511 5512
          5513 5514 5515 5516 5517 5518
          5519 5520 5521 5522 5523 5524
          5525 5526 5527 5528 5529 5530
          5531 5532 5533 5534 5535 5536
          5537 5538 5546 5547 5548 5549
          5550 5551 5552 5553 5554 5555
          5556 5557 5558 5559 388 913
          916 919 915 918 920 914
          917 1778 1782 1779 1432 1785
          850 1467 1469 1452 1482 3541
          379 3543 3542 4390 4391 1472
          3544 4394 4382 4383 1620 4388
          4385 1621 3557 3556 4407 856
          3558 4409 4401 4405 4403 1624
          4416 4417 4419 1626 4422 1627
          4435 4437 4439 1629 3654 3653
          4511 4505 4509 4507 1637 4533
          4535 4537 1641 4630 4631 4633
          1654 4636 1655 4649 4651 4653
          1658 4664 4665 4667 1660 4670
          1661 4683 4685 4687 1663 4753
          4755 4757 1671 4781 4783 4785
          1675 849 3351 3500 3501 3503
          1466 3506 3537 3538 3540 3523
          3553 3555 3630 3650
        </DataArray>
        <DataArray type="Float64" Name="bounds" format="ascii" RangeMin="0" RangeMax="0">
          0 0 0 0 0 0
          0 0 0 0 0 0
          0 0 0 0 0 0
          0 0 0 0 0 0
          0 0 0 0 0 0
          0 0 0 0 0 0
          0 0 0 0 0 0
          0 0 0 0 0 0
          0 0 0 0 0 0
          0 0 0 0 0 0
          0 0 0 0 0 0
          0 0 0 0 0 0
          0 0 0 0 0 0
          0 0 0 0 0 0
          0 0 0 0 0 0
          0 0 0 0 0 0
          0 0 0 0 0 0
          0 0 0 0 0 0
          0 0 0 0 0 0
          0 0 0 0 0 0
          0 0 0 0 0 0
          0 0 0 0 0 0
          0 0 0 0 0 0
          0 0 0 0 0 0
          0 0 0 0 0 0
          0 0 0 0 0 0
          0 0 0 0 0 0
          0 0 0 0 0 0
          0 0 0 0 0 0
          0 0 0 0 0 0
          0 0 0 0 0 0
          0 0 0 0 0 0
          0 0 0 0 0 0
          0 0 0 0 0 0
          0 0 0 0 0 0
          0 0 0 0 0 0
          0 0 0 0 0 0
          0 0 0 0 0 0
          0 0 0 0 0 0
          0 0 0 0 0 0
          0 0 0 0 0 0
          0 0 0 0 0 0
          0 0 0 0 0 0
          0 0 0 0 0 0
          0 0 0 0 0 0
          0 0 0 0 0 0
          0 0 0 0 0 0
          0 0 0 0 0 0
          0 0 0 0 0 0
          0 0 0 0 0 0
          0 0 0 0 0 0
          0 0 0 0 0 0
          0 0 0 0 0 0
          0 0 0 0 0 0
          0 0 0 0 0 0
          0 0 0 0 0 0
          0 0 0 0 0 0
          0 0 0 0 0 0
          0 0 0 0 0 0
          0 0 0 0 0 0
          0 0 0 0 0 0
          0 0 0 0 0 0
          0 0 0 0 0 0
          0 0 0 0 0 0
          0 0 0 0 0 0
          0 0 0 0 0 0
          0 0 0 0 0 0
          0 0 0 0 0 0
          0 0 0 0 0 0
          0 0 0 0 0 0
          0 0 0 0 0 0
          0 0 0 0 0 0
          0 0 0 0 0 0
          0 0 0 0 0 0
          0 0 0 0 0 0
          0 0 0 0 0 0
          0 0 0 0 0 0
          0 0 0 0 0 0
          0 0 0 0 0 0
          0 0 0 0 0 0
          0 0 0 0 0 0
          0 0 0 0 0 0
          0 0 0 0 0 0
          0 0 0 0 0 0
          0 0 0 0 0 0
          0 0 0 0 0 0
          0 0 0 0 0 0
          0 0 0 0 0 0
          0 0 0 0 0 0
          0 0 0 0 0 0
          0 0 0 0 0 0
          0 0 0 0 0 0
          0 0 0 0 0 0
          0 0 0 0 0 0
          0 0 0 0 0 0
          0 0 0 0 0 0
          0 0 0 0 0 0
          0 0 0 0
        </DataArray>
        <DataArray type="Float64" Name="gradient_error" format="ascii" RangeMin="3.434320940015954e-12" RangeMax="2.218177649482614e-9">
          4.918490189632304e-10 3.049939552369786e-11 6.007940625564466e-12 4.6624260347795914e-11 1.8489552609703332e-11 3.0339567681388205e-11
          3.296089021215593e-11 1.1804502087178056e-11 2.597726880445127e-11 1.1528036838942641e-11 3.0277081428424155e-11 2.401832196976461e-11
          3.057519335078482e-10 1.5086599972928264e-10 2.356454008629843e-10 2.110885062845637e-11 2.1010545956161543e-11 2.029782724083388e-11
          1.3670105637555201e-11 2.931878427759799e-11 1.921432185609043e-11 1.2759768600877694e-11 9.046682655963347e-12 7.338795200890067e-12
          2.7298396827633588e-11 1.6421092365378705e-11 2.7525833179027032e-11 1.7805101598673323e-11 9.189543535537523e-12 3.4082973703154215e-11
          2.6722916289920267e-11 1.7030011484739036e-10 1.4300565580277272e-10 8.78881498020436e-11 2.547107493869478e-10 4.467036282916312e-11
          7.29320429629319e-11 4.365741568824681e-10 3.6277940084641037e-10 2.1056589947467906e-10 4.0857690147160037e-10 9.861123488071133e-11
          1.0918532613185297e-10 1.6171164224812543e-11 2.0336962178963804e-11 2.3422828652695085e-11 2.151622732939181e-11 2.03843212107881e-11
          1.6982884236611227e-11 2.21470366512043e-11 1.9484272242167723e-11 1.5160358562076127e-11 1.7576412420240036e-11 1.8024790562515654e-11
          1.897079237911348e-11 1.0644220824061978e-11 1.3384229128729842e-11 1.976357191920406e-11 1.737191225404434e-11 3.289092165798867e-11
          2.822908716924554e-11 1.2117852171946745e-11 1.0931037198435781e-11 2.1936215801583027e-11 1.2685477766936121e-11 5.692462986249665e-11
          4.837676809046422e-11 1.7233871020685794e-11 3.074886476739568e-11 1.953551210812522e-11 1.6439011850378267e-11 1.7606044882622476e-11
          2.4273393048765636e-11 1.765475479035268e-11 7.968166585862764e-11 6.73362753955644e-11 2.5131756688247926e-11 2.244031265308502e-11
          4.194243741297777e-11 1.6358143236101212e-11 8.923110976785499e-11 7.527738398099516e-11 2.4548438805346326e-11 4.6575134589702375e-11
          3.177682018515772e-11 2.2189497265220843e-11 2.921504381941596e-11 3.481199883251099e-11 2.4008922335899107e-11 6.046758214914049e-12
          9.41903219575274e-12 6.211564769040991e-12 1.0899001737409396e-11 5.796391111296238e-12 5.3706877303434465e-12 6.900326718509613e-12
          6.302160795412766e-12 3.786115822559554e-12 3.434320940015954e-12 3.837447882419199e-12 4.944984349390655e-12 5.703994872315919e-12
          4.240574824822446e-12 8.004262325722987e-12 7.233633860482085e-12 3.888779942278846e-12 6.463005395241182e-12 8.256381480477563e-12
          7.640340864638858e-12 1.0926275437034907e-11 1.0069324138696704e-11 4.829878083941881e-12 5.809280333691579e-12 5.465687187499704e-12
          6.380953861278194e-12 8.1475430685195e-12 4.63214046617705e-12 1.6247929129135413e-11 1.4900980204883476e-11 7.198687865082773e-12
          1.1696941502975313e-11 5.307086200481654e-12 6.405620308981473e-12 3.666258616727055e-12 4.086093322476803e-12 4.876564927207071e-12
          5.728527321282446e-12 4.029999753907335e-12 8.556888682677245e-12 5.120341694381165e-12 7.2739256400353984e-12 2.0615675644389026e-11
          1.8867765274051054e-11 9.643436333315224e-12 8.962147632299835e-12 1.4640829412275688e-11 7.284676676322565e-12 2.233166242409948e-11
          2.0431877551089717e-11 9.628415825491651e-12 1.5801908094361555e-11 1.0335832341050062e-11 6.1114695277418975e-12 8.509860761261841e-12
          5.934444634123109e-12 1.1062041734226928e-11 6.4881836949480155e-12 9.052359957810705e-12 1.7534605268139687e-11 1.173981207066992e-10
          1.1251592751533564e-10 9.923520732803698e-11 3.6695870743979834e-10 3.5063932677166493e-10 1.6298115880849372e-10 3.057638268409465e-10
          8.115724080215301e-11 6.243381388907979e-11 2.444367395456488e-10 1.1580762675994042e-10 1.8204961457692958e-10 5.089729223247803e-10
          4.861165705116413e-10 2.3458217985888467e-10 2.2428802564875426e-10 4.2270627391021806e-10 1.9603454596116632e-10 6.663719039585014e-10
          6.36468181484834e-10 2.9218550848361587e-10 5.526405062776252e-10 3.3541708808241287e-10 1.5743577414928602e-10 2.467874993297222e-10
          1.180264818973867e-10 4.3616211385619066e-10 2.032593217478323e-10 3.178138181888565e-10 4.591240298630874e-11 6.481480988935876e-11
          3.2620140625905516e-11 1.2916042792155692e-10 6.367815335022684e-11 8.89226683358713e-11 1.725265549200346e-10 8.435299657318919e-11
          1.1701628800534835e-10 5.840077036000006e-11 2.1946498136195284e-10 1.0656796309271698e-10 1.4696792687413068e-10 8.222148766815643e-10
          7.855888162205027e-10 3.762400935423348e-10 3.594821766929229e-10 6.818097053398134e-10 3.128901702269684e-10 9.554368751459178e-10
          9.132883893643803e-10 4.1713608204952544e-10 7.927212702871007e-10 5.361658063816766e-10 2.485668090781284e-10 3.8785131881825767e-10
          1.831094907971483e-10 6.220052640736137e-10 2.8734974463051967e-10 4.476967816910151e-10 1.0454548956766568e-9 9.996984106141633e-10
          4.773998419608588e-10 4.561783786952422e-10 8.679446928104264e-10 3.965960029940097e-10 1.0772855373749548e-9 1.030277751347527e-9
          4.700024913541755e-10 8.946005242820845e-10 6.802344079134747e-10 3.136122601336642e-10 4.88177866431613e-10 2.2909418937027033e-10
          7.00872833827523e-10 3.2291334149859403e-10 5.025062757888435e-10 2.652687635883649e-10 1.2815813171191174e-10 1.7583657324471016e-10
          8.69002191726244e-11 3.0410588934840826e-10 1.4640269163703088e-10 2.000684717947638e-10 3.302413713604245e-10 1.5865095848664877e-10
          2.162614319248467e-10 1.064333743727734e-10 3.3946832574285146e-10 1.6297024241476713e-10 2.2195776692492631e-10 5.939299560770358e-12
          5.976751828961387e-12 8.185474296749214e-12 7.973336970203327e-12 4.277408145535307e-12 5.324298165786663e-12 5.589576645028402e-12
          6.014204097152417e-12 7.761199643657438e-12 5.85485512427014e-12 1.3950292365349981e-11 1.3361282126421189e-11 8.904265468845845e-12
          1.3106744876280388e-11 2.2658277898848584e-11 2.1807223041981022e-11 1.4299695649530912e-11 1.3843716848980231e-11 1.952636423572477e-11
          1.2569216254320329e-11 3.554570343478452e-11 3.422474970876842e-11 1.7647663249193795e-11 3.0616070097484585e-11 1.2557222152618229e-11
          1.6460043844775952e-11 8.60919708363822e-12 1.0730509634992459e-11 1.0140004720388594e-11 1.3214768345835142e-11 8.68497454934399e-12
          2.5671937660840902e-11 1.3420090747139643e-11 2.0393200514070022e-11 7.956956360378748e-12 1.0155300825405622e-11 5.723994077563869e-12
          7.037835405611083e-12 6.9726567313604e-12 8.70459236235678e-12 6.4160465223079976e-12 1.538149424866732e-11 1.0247136590162296e-11
          1.2252685440050971e-11 5.3193396354034797e-11 5.110727964257016e-11 2.3143049461463542e-11 2.2297889393495626e-11 4.542358203117351e-11
          1.999115299633546e-11 7.599298574912675e-11 7.290040291579731e-11 3.164544819576232e-11 6.446274638091312e-11 7.91235397007045e-12
          7.654573626522273e-12 9.841235544451532e-12 9.5116596224778e-12 5.202214876260811e-12 6.14503191903528e-12 5.952593402014746e-12
          6.968538606069119e-12 8.624398641364898e-12 5.422836486159732e-12 1.3930325358893338e-11 1.344238564888646e-11 7.920651327304799e-12
          1.211974055710943e-11 3.775678028156004e-11 1.6702545683222367e-11 2.966965648177573e-11 1.5409527698635353e-11 5.307454970946764e-11
          2.342351890228914e-11 4.1202473327942174e-11 5.988005947821296e-12 7.320445792038875e-12 4.288362453721386e-12 4.954192729695096e-12
          5.435727966478451e-12 6.57417800185202e-12 4.822867372064936e-12 1.0182656225895476e-11 6.4214742587205566e-12 8.721037614963698e-12
          1.0372111306173675e-10 9.93761702741077e-11 4.438759301519154e-11 4.2647282118083694e-11 8.750624574232472e-11 3.788748951439918e-11
          1.342215278603692e-10 1.2848882947278023e-10 5.4635426740367724e-11 1.1277810452881362e-10 1.8544192754656713e-11 1.78725481602165e-11
          1.0834506849281634e-11 1.046447635931304e-11 1.6037063263896033e-11 9.457642043273743e-12 2.355061636946929e-11 2.267595980334885e-11
          1.3185731050563133e-11 2.0269870353270232e-11 7.133807206017901e-11 3.1319769046876555e-11 5.461394585091445e-11 2.4335287746479893e-11
          9.126780236501165e-11 3.977603767897759e-11 6.911914226536875e-11 1.3463490544836097e-11 8.13451618276995e-12 1.0655368563205808e-11
          6.7100426677225464e-12 1.695662637232483e-11 1.004945664074944e-11 1.339814795640957e-11 2.2212423515131725e-11 1.4440552087860063e-11
          1.593535155234952e-11 1.056651564949171e-11 3.056035919928308e-11 1.6036288312949005e-11 2.185207205682203e-11 4.0053644320824046e-11
          1.8036022288386695e-11 2.8371098424198408e-11 1.5107043999468746e-11 5.016949245008278e-11 2.2631702505175747e-11 3.51995048927288e-11
          6.933546954299864e-12 7.967371153091853e-12 5.023562575370858e-12 5.377483167557538e-12 5.864535616611982e-12 6.6777633074285e-12
          4.783075148006845e-12 9.940734381906142e-12 6.3500733861544665e-12 8.259988126330755e-12 1.6432812706564945e-10 1.572259851406981e-10
          6.922176067352497e-11 6.638822445355454e-11 1.376905891006828e-10 5.86301899412313e-11 1.9005024027255393e-10 1.8178399526884893e-10
          7.638257088526568e-11 1.589725188243992e-10 2.8417408116790626e-11 2.7337968311979888e-11 1.639116819042628e-11 1.580779733851659e-11
          2.4368912591574937e-11 1.4179378111303389e-11 3.252487926426547e-11 3.126901111476211e-11 1.799649687185779e-11 2.7816206346761946e-11
          1.1089503598603519e-10 4.797340114364186e-11 8.338653351989469e-11 3.683019192643114e-11 1.276062738697824e-10 5.490450519027735e-11
          9.54514994147186e-11 2.0276536692437893e-11 1.1945511631433579e-11 1.5905867220924072e-11 9.507227772921484e-12 2.30681537566902e-11
          1.3529173836142925e-11 1.8013571328586206e-11 2.0744170508928236e-10 1.983933014555537e-10 8.67374149560318e-11 8.31238596439803e-11
          1.7336530179596487e-10 7.320417325362663e-11 2.1359538860746313e-10 2.0427132223603437e-10 8.550644865404137e-11 1.7845926642918103e-10
          3.529242329850082e-11 3.3917250600713644e-11 2.0218814815092178e-11 1.947533028660703e-11 3.013550367446121e-11 1.7407095055345415e-11
          3.6266523473472726e-11 3.484956663025852e-11 1.999242139719054e-11 3.0951583222241836e-11 1.3888824708199976e-10 5.956583592418655e-11
          1.0356856464881378e-10 4.536811990231665e-11 1.4287800914627648e-10 6.121075502523041e-11 1.064343019298799e-10 2.4938431592240476e-11
          1.4588921669631498e-11 1.941835802536848e-11 1.1526954262557908e-11 2.559493058546437e-11 1.495771250211301e-11 1.9910506645172418e-11
          6.001037943206913e-11 2.6891604337175935e-11 4.177377364222352e-11 2.2131645034076877e-11 6.827416816910872e-11 3.045027209656193e-11
          4.7276076299142786e-11 1.1719052736176143e-11 7.479963124106379e-12 9.700147739399205e-12 6.702164229237068e-12 1.3187658075925054e-11
          8.372187171547578e-12 1.0865211279792962e-11 7.381714668967882e-11 3.2835778537845325e-11 5.093835543679344e-11 2.687826982623415e-11
          7.576980507155615e-11 3.3677682518443953e-11 5.222108745034264e-11 1.4163877138399348e-11 8.962097021368356e-12 1.1638971964546717e-11
          7.965784504314941e-12 1.4510270185372436e-11 9.1710029352896e-12 1.1918831593889426e-11 1.4841647680457647e-11 2.1824811644324086e-11
          1.3043417138170706e-11 3.1226042917095696e-11 2.2626018798615312e-11 2.218977184663204e-11 3.747288771723012e-11 1.6373358416681878e-11
          2.272157876316635e-11 1.141068511719956e-11 1.0334913253802414e-11 1.6617142786035952e-11 2.4948360755875904e-11 2.1599448463049593e-11
          3.590799837846385e-11 2.988893746875056e-11 2.5191204353192508e-11 3.4391715806843884e-11 2.7487521808671875e-11 1.6239447468539328e-10
          7.710759114936999e-11 7.404369778755524e-11 1.556000373315133e-10 2.5042955436959957e-10 2.3954674238839956e-10 6.571472063180838e-11
          1.3710615584110665e-10 2.0981362367575734e-10 5.118351065434396e-10 4.890442727603786e-10 7.544744575709029e-10 7.205628460168076e-10
          4.263077223001663e-10 6.261731854071534e-10 5.433407185437195e-11 1.1193700404166853e-10 1.6934122293080272e-10 4.239560822520043e-11
          8.594098506517936e-11 1.2794763680088466e-10 3.4051286747202796e-10 4.958697155643109e-10 2.5331472776838996e-10 3.636124980869723e-10
          1.0498049395426892e-9 1.0028898066694536e-9 8.704141004338115e-10 1.3758622886573255e-9 1.3154313901515267e-9 1.1419020926832715e-9
          6.850766355049926e-10 4.965208710648629e-10 8.952309318656237e-10 6.430208425317018e-10 3.1577533955017596e-11 6.329667386454351e-11
          9.239735051579347e-11 1.7960704581808368e-10 2.5322180436842667e-10 1.2372799121662527e-10 1.7120821595070322e-10 3.405538538288666e-10
          2.2656815808769152e-10 4.3560574200205285e-10 2.8595253475757777e-10 1.6969605255232075e-9 1.6241753930875927e-9 1.4114914891601262e-9
          1.9698950365846335e-9 1.8874012633500626e-9 1.6425464049589653e-9 1.104142405908065e-9 7.879173317197391e-10 1.2835434468452793e-9
          9.119634244622995e-10 2.1534476108029406e-9 2.064854423621142e-9 1.7989765162480106e-9 2.218177649482614e-9 2.127518923396546e-9
          1.8543494715040714e-9 1.4052331166258723e-9 9.959650782351376e-10 1.448357841484421e-9 1.0257127360353723e-9 5.286982001046542e-10
          3.4340248173883054e-10 6.078296255146221e-10 3.9175589573497434e-10 6.611692771312835e-10 4.241167027188937e-10 6.800157164779135e-10
          4.355086658145316e-10 1.3894994843282589e-11 1.1154791603959554e-11 1.7069469497104997e-11 1.6342888192519488e-11 1.6710639756004245e-11
          2.918175894611094e-11 2.7979963836657764e-11 4.8394053621930776e-11 4.6587135733593487e-11 4.164576501407427e-11 2.5028677137997296e-11
          3.482777520945106e-11 2.7567388242999753e-11 1.549096140005342e-11 2.0801251832198096e-11
        </DataArray>
        <DataArray type="Float64" Name="gradient_matprop_error" format="ascii" RangeMin="0" RangeMax="0">
          0 0 0 0 0 0
          0 0 0 0 0 0
          0 0 0 0 0 0
          0 0 0 0 0 0
          0 0 0 0 0 0
          0 0 0 0 0 0
          0 0 0 0 0 0
          0 0 0 0 0 0
          0 0 0 0 0 0
          0 0 0 0 0 0
          0 0 0 0 0 0
          0 0 0 0 0 0
          0 0 0 0 0 0
          0 0 0 0 0 0
          0 0 0 0 0 0
          0 0 0 0 0 0
          0 0 0 0 0 0
          0 0 0 0 0 0
          0 0 0 0 0 0
          0 0 0 0 0 0
          0 0 0 0 0 0
          0 0 0 0 0 0
          0 0 0 0 0 0
          0 0 0 0 0 0
          0 0 0 0 0 0
          0 0 0 0 0 0
          0 0 0 0 0 0
          0 0 0 0 0 0
          0 0 0 0 0 0
          0 0 0 0 0 0
          0 0 0 0 0 0
          0 0 0 0 0 0
          0 0 0 0 0 0
          0 0 0 0 0 0
          0 0 0 0 0 0
          0 0 0 0 0 0
          0 0 0 0 0 0
          0 0 0 0 0 0
          0 0 0 0 0 0
          0 0 0 0 0 0
          0 0 0 0 0 0
          0 0 0 0 0 0
          0 0 0 0 0 0
          0 0 0 0 0 0
          0 0 0 0 0 0
          0 0 0 0 0 0
          0 0 0 0 0 0
          0 0 0 0 0 0
          0 0 0 0 0 0
          0 0 0 0 0 0
          0 0 0 0 0 0
          0 0 0 0 0 0
          0 0 0 0 0 0
          0 0 0 0 0 0
          0 0 0 0 0 0
          0 0 0 0 0 0
          0 0 0 0 0 0
          0 0 0 0 0 0
          0 0 0 0 0 0
          0 0 0 0 0 0
          0 0 0 0 0 0
          0 0 0 0 0 0
          0 0 0 0 0 0
          0 0 0 0 0 0
          0 0 0 0 0 0
          0 0 0 0 0 0
          0 0 0 0 0 0
          0 0 0 0 0 0
          0 0 0 0 0 0
          0 0 0 0 0 0
          0 0 0 0 0 0
          0 0 0 0 0 0
          0 0 0 0 0 0
          0 0 0 0 0 0
          0 0 0 0 0 0
          0 0 0 0 0 0
          0 0 0 0 0 0
          0 0 0 0 0 0
          0 0 0 0 0 0
          0 0 0 0 0 0
          0 0 0 0 0 0
          0 0 0 0 0 0
          0 0 0 0 0 0
          0 0 0 0 0 0
          0 0 0 0 0 0
          0 0 0 0 0 0
          0 0 0 0 0 0
          0 0 0 0 0 0
          0 0 0 0 0 0
          0 0 0 0 0 0
          0 0 0 0 0 0
          0 0 0 0 0 0
          0 0 0 0 0 0
          0 0 0 0 0 0
          0 0 0 0 0 0
          0 0 0 0 0 0
          0 0 0 0 0 0
          0 0 0 0
        </DataArray>
        <DataArray type="Float64" Name="initial_marker" format="ascii" RangeMin="0" RangeMax="2">
          2 0 0 0 0 0
          0 0 0 0 0 0
          2 2 2 0 0 0
          0 0 1 0 0 0
          0 0 1 0.5 0 0
          1.25 2 2 2 2 2
          2 2 2 2 2 2
          2 0 0 0 0 0
          0 1 1 0 0.5 0
          0 0 0 0 0 2
          2 0 0 1.25 0 2
          2 0.75 2 0.5 0 0
          1.25 0 2 2 1 1
          2 0.5 2 2 1 2
          1.5 0 0 1.5 0 0
          0 0 0 0 0 0
          0 0 0 0 0 0
          0 0 0 0 0 0
          0 0 0 0 0 0
          0 0 0 0 0 0
          0 0 0 0 0 0
          0 0 0 0 0 0
          0 0 0 0 0 0
          0 0 0 0 0 0
          0 0 0 0 1 2
          2 2 2 2 2 2
          2 2 2 2 2 2
          2 2 2 2 2 2
          2 2 2 2 2 2
          2 2 2 2 2 2
          1.75 2 2 2 2 2
          2 2 2 2 2 2
          2 2 2 2 2 2
          2 2 2 2 2 2
          2 2 2 2 2 2
          2 2 2 2 2 2
          2 2 2 2 2 2
          2 2 2 2 2 2
          2 2 2 2 2 2
          2 2 2 2 2 0
          0 0.5 0.25 0 0 0
          0 0 0 1 0.75 0
          0.6666666666666666 1.5 1.5 1 1 1.5
          1 2 2 1.3333333333333333 2 1
          1.25 0 0.5 0.5 0.75 0
          1.75 1 1.5 0 0.25 0
          0 0 0 0 1 0.5
          0.3333333333333333 2 2 1.5 1.5 2
          1.5 2 2 2 2 0
          0 0.5 0.5 0 0 0
          0 0.5 0 1 1 0
          1 2 1.25 2 1.3333333333333333 2
          1.75 2 0 0.25 0 0
          0 0 0 0.75 0 0.3333333333333333
          2 2 2 2 2 2
          2 2 2 2 1.5 1.5
          1 1 1.25 0.5 2 2
          2 1.75 2 2 2 1.75
          2 2 2 1 0 0.75
          0 1.25 0.5 1 1.75 1.5
          1 0.5 2 1.3333333333333333 1.5 2
          1.25 1.75 1 2 1.75 2
          0 0.25 0 0 0 0
          0 0.75 0 0.5 2 2
          2 2 2 2 2 2
          2 2 2 2 2 2
          2 2 2 2 2 2
          2 2 2 2 2 2
          2 1.75 1.5 1.25 0.5 2
          2 1.5 2 2 2 2
          2 2 2 2 2 2
          2 2 2 2 2 2
          2 2 2 2 2 2
          2 2 2 2 2 2
          2 1.5 1 2 2 1.5
          2 2 2 2 2 2
          2 1 0 1 0 1
          0 1 2 2 2 2
          2 2 2 1 0 1
          0 1 0 1 0 0
          0 0 0 0 0 0
          0 0 0 0 0.25 0
          0 1.5 1 0 0.25 2
          2 2 2 2 2 2
          2 2 2 2 2 2
          2 2 2 2 2 2
          2 2 2 2 2 2
          2 2 2 2 2 2
          2 2 2 2 1.75 2
          2 2 2 2 2 2
          2 2 2 2 2 2
          2 2 2 2 2 2
          2 2 2 2 2 2
          2 2 2 2 2 2
          2 2 2 2 2 2
          2 0.5 0.6666666666666666 1.5 1.25 1
          2 1.75 2 2 2 2
          2 1.75 0.6666666666666666 1.25
        </DataArray>
        <DataArray type="Float64" Name="markers_norefine" format="ascii" RangeMin="0" RangeMax="0">
          0 0 0 0 0 0
          0 0 0 0 0 0
          0 0 0 0 0 0
          0 0 0 0 0 0
          0 0 0 0 0 0
          0 0 0 0 0 0
          0 0 0 0 0 0
          0 0 0 0 0 0
          0 0 0 0 0 0
          0 0 0 0 0 0
          0 0 0 0 0 0
          0 0 0 0 0 0
          0 0 0 0 0 0
          0 0 0 0 0 0
          0 0 0 0 0 0
          0 0 0 0 0 0
          0 0 0 0 0 0
          0 0 0 0 0 0
          0 0 0 0 0 0
          0 0 0 0 0 0
          0 0 0 0 0 0
          0 0 0 0 0 0
          0 0 0 0 0 0
          0 0 0 0 0 0
          0 0 0 0 0 0
          0 0 0 0 0 0
          0 0 0 0 0 0
          0 0 0 0 0 0
          0 0 0 0 0 0
          0 0 0 0 0 0
          0 0 0 0 0 0
          0 0 0 0 0 0
          0 0 0 0 0 0
          0 0 0 0 0 0
          0 0 0 0 0 0
          0 0 0 0 0 0
          0 0 0 0 0 0
          0 0 0 0 0 0
          0 0 0 0 0 0
          0 0 0 0 0 0
          0 0 0 0 0 0
          0 0 0 0 0 0
          0 0 0 0 0 0
          0 0 0 0 0 0
          0 0 0 0 0 0
          0 0 0 0 0 0
          0 0 0 0 0 0
          0 0 0 0 0 0
          0 0 0 0 0 0
          0 0 0 0 0 0
          0 0 0 0 0 0
          0 0 0 0 0 0
          0 0 0 0 0 0
          0 0 0 0 0 0
          0 0 0 0 0 0
          0 0 0 0 0 0
          0 0 0 0 0 0
          0 0 0 0 0 0
          0 0 0 0 0 0
          0 0 0 0 0 0
          0 0 0 0 0 0
          0 0 0 0 0 0
          0 0 0 0 0 0
          0 0 0 0 0 0
          0 0 0 0 0 0
          0 0 0 0 0 0
          0 0 0 0 0 0
          0 0 0 0 0 0
          0 0 0 0 0 0
          0 0 0 0 0 0
          0 0 0 0 0 0
          0 0 0 0 0 0
          0 0 0 0 0 0
          0 0 0 0 0 0
          0 0 0 0 0 0
          0 0 0 0 0 0
          0 0 0 0 0 0
          0 0 0 0 0 0
          0 0 0 0 0 0
          0 0 0 0 0 0
          0 0 0 0 0 0
          0 0 0 0 0 0
          0 0 0 0 0 0
          0 0 0 0 0 0
          0 0 0 0 0 0
          0 0 0 0 0 0
          0 0 0 0 0 0
          0 0 0 0 0 0
          0 0 0 0 0 0
          0 0 0 0 0 0
          0 0 0 0 0 0
          0 0 0 0 0 0
          0 0 0 0 0 0
          0 0 0 0 0 0
          0 0 0 0 0 0
          0 0 0 0 0 0
          0 0 0 0 0 0
          0 0 0 0
        </DataArray>
        <DataArray type="Float64" Name="markers_mustrefine" format="ascii" RangeMin="0" RangeMax="2">
          2 0 0 0 0 0
          0 0 0 0 0 0
          2 2 2 0 0 0
          0 0 1 0 0 0
          0 0 1 0.5 0 0
          1.25 2 2 2 2 2
          2 2 2 2 2 2
          2 0 0 0 0 0
          0 1 1 0 0.5 0
          0 0 0 0 0 2
          2 0 0 1.25 0 2
          2 0.75 2 0.5 0 0
          1.25 0 2 2 1 1
          2 0.5 2 2 1 2
          1.5 0 0 1.5 0 0
          0 0 0 0 0 0
          0 0 0 0 0 0
          0 0 0 0 0 0
          0 0 0 0 0 0
          0 0 0 0 0 0
          0 0 0 0 0 0
          0 0 0 0 0 0
          0 0 0 0 0 0
          0 0 0 0 0 0
          0 0 0 0 1 2
          2 2 2 2 2 2
          2 2 2 2 2 2
          2 2 2 2 2 2
          2 2 2 2 2 2
          2 2 2 2 2 2
          1.75 2 2 2 2 2
          2 2 2 2 2 2
          2 2 2 2 2 2
          2 2 2 2 2 2
          2 2 2 2 2 2
          2 2 2 2 2 2
          2 2 2 2 2 2
          2 2 2 2 2 2
          2 2 2 2 2 2
          2 2 2 2 2 0
          0 0.5 0.25 0 0 0
          0 0 0 1 0.75 0
          0.6666666666666666 1.5 1.5 1 1 1.5
          1 2 2 1.3333333333333333 2 1
          1.25 0 0.5 0.5 0.75 0
          1.75 1 1.5 0 0.25 0
          0 0 0 0 1 0.5
          0.3333333333333333 2 2 1.5 1.5 2
          1.5 2 2 2 2 0
          0 0.5 0.5 0 0 0
          0 0.5 0 1 1 0
          1 2 1.25 2 1.3333333333333333 2
          1.75 2 0 0.25 0 0
          0 0 0 0.75 0 0.3333333333333333
          2 2 2 2 2 2
          2 2 2 2 1.5 1.5
          1 1 1.25 0.5 2 2
          2 1.75 2 2 2 1.75
          2 2 2 1 0 0.75
          0 1.25 0.5 1 1.75 1.5
          1 0.5 2 1.3333333333333333 1.5 2
          1.25 1.75 1 2 1.75 2
          0 0.25 0 0 0 0
          0 0.75 0 0.5 2 2
          2 2 2 2 2 2
          2 2 2 2 2 2
          2 2 2 2 2 2
          2 2 2 2 2 2
          2 1.75 1.5 1.25 0.5 2
          2 1.5 2 2 2 2
          2 2 2 2 2 2
          2 2 2 2 2 2
          2 2 2 2 2 2
          2 2 2 2 2 2
          2 1.5 1 2 2 1.5
          2 2 2 2 2 2
          2 1 0 1 0 1
          0 1 2 2 2 2
          2 2 2 1 0 1
          0 1 0 1 0 0
          0 0 0 0 0 0