<?xml version="1.0"?>
<VTKFile type="UnstructuredGrid" version="0.1" byte_order="LittleEndian" header_type="UInt32" compressor="vtkZLibDataCompressor">
  <UnstructuredGrid>
    <Piece NumberOfPoints="575" NumberOfCells="351">
      <PointData>
        <DataArray type="Int32" Name="libmesh_node_id" format="ascii" RangeMin="351" RangeMax="2775">
          351 352 362 363 370 371
          689 727 729 758 759 760
          761 777 783 784 796 797
          798 799 800 801 802 803
          804 805 816 817 820 821
          1072 1088 1089 1091 1130 1131
          1132 1133 1134 1135 1136 1137
          1138 1139 1140 1141 1151 1152
          1154 1162 1163 1164 1177 1178
          1179 1180 1181 1182 1183 1184
          1185 1186 1187 1188 1189 1190
          1191 1192 1193 1194 1195 1196
          1197 1198 1199 1200 1201 1202
          1203 1204 1205 1206 1207 1208
          1209 1210 1211 1212 1213 1214
          1215 1216 1217 1218 1219 1220
          1221 1222 1223 1224 1225 1226
          1227 1228 1229 1230 1231 1232
          1233 1234 1235 1236 1237 1238
          1239 1240 1241 1242 1243 1244
          1247 1249 1250 1252 1263 1264
          1265 1266 1267 1268 1269 1277
          1278 1281 1283 1284 1286 1297
          1298 1299 1300 1301 1302 1303
          2251 2254 2256 2257 2258 2259
          2260 2261 2262 2264 2266 2267
          2268 2269 2270 2271 2272 2273
          2274 2275 2276 2277 2278 2279
          2280 2281 2282 2283 2284 2285
          2286 2287 2288 2289 2290 2291
          2292 2293 2294 2295 2296 2297
          2298 2299 2300 2301 2302 2303
          2304 2305 2306 2307 2308 2309
          2310 2311 2312 2313 2314 2315
          2316 2319 2320 2322 2325 2327
          2328 2329 2330 2331 2332 2333
          2334 2335 2336 2338 2340 2342
          2344 2345 2346 2347 2348 2349
          2350 2353 2354 2356 2359 2361
          2362 2363 2364 2365 2366 2367
          2368 2369 2370 2372 2374 2376
          2378 2379 2380 2381 2382 2383
          2384 2385 2386 2387 2388 2389
          2390 2391 2392 2393 2394 2395
          2396 2397 2398 2399 2400 2401
          2402 2403 2404 2405 2406 2407
          2408 2409 2410 2411 2412 2413
          2414 2415 2416 2417 2418 2419
          2420 2421 2422 2423 2424 2425
          2426 2427 2428 2429 2430 2431
          2432 2433 2434 2435 2436 2437
          2438 2439 2440 2441 2442 2443
          2444 2445 2446 2447 2448 2449
          2450 2451 2452 2453 2454 2455
          2456 2457 2458 2459 2460 2461
          2462 2463 2464 2465 2466 2467
          2468 2469 2470 2471 2472 2473
          2474 2475 2476 2477 2478 2479
          2480 2481 2482 2483 2484 2485
          2486 2487 2488 2490 2491 2492
          2493 2494 2496 2497 2498 2499
          2500 2501 2502 2503 2504 2505
          2506 2507 2508 2511 2513 2514
          2516 2517 2518 2519 2520 2521
          2522 2523 2524 2526 2528 2530
          2579 2580 2581 2582 2583 2584
          2585 2587 2591 2592 2593 2594
          2595 2596 2597 2598 2599 2600
          2601 2602 2605 2607 2608 2610
          2611 2612 2613 2614 2615 2616
          2617 2618 2620 2622 2624 2625
          2626 2627 2628 2629 2630 2631
          2632 2633 2634 2635 2636 2639
          2641 2642 2644 2645 2646 2647
          2648 2649 2650 2651 2652 2654
          2656 2658 2727 2728 2729 2730
          2731 2732 2733 2734 2735 2736
          2737 2738 2739 2740 2741 2742
          2743 2744 2745 2746 2747 2748
          2749 2750 2751 2752 2753 2754
          2755 2757 2759 2761 2769 2771
          2773 2775 682 750 751 683
          753 754 756 686 757 764
          765 772 773 770 775 779
          787 793 810 823 815 827
          1153 1245 1246 1248 807 1161
          1167 1257 1270 1169 1272 1262
          1274 1276 1304 1306 1308 1310
          2489 2509 2510 2512 806 2515
          1251 2495 2525 2527 2529 2603
          2604 2606 1279 2609 1280 2619
          2621 2623 1282 2637 2638 2640
          812 2643 1285 2653 2655 2657
          813 2571 2681 2586 2682 2756
          2758 2685 1291 2760 2715 2716
          2770 2772 2719 1296 2774
        </DataArray>
        <DataArray type="Float64" Name="bounds" format="ascii" RangeMin="0" RangeMax="0">
          0 0 0 0 0 0
          0 0 0 0 0 0
          0 0 0 0 0 0
          0 0 0 0 0 0
          0 0 0 0 0 0
          0 0 0 0 0 0
          0 0 0 0 0 0
          0 0 0 0 0 0
          0 0 0 0 0 0
          0 0 0 0 0 0
          0 0 0 0 0 0
          0 0 0 0 0 0
          0 0 0 0 0 0
          0 0 0 0 0 0
          0 0 0 0 0 0
          0 0 0 0 0 0
          0 0 0 0 0 0
          0 0 0 0 0 0
          0 0 0 0 0 0
          0 0 0 0 0 0
          0 0 0 0 0 0
          0 0 0 0 0 0
          0 0 0 0 0 0
          0 0 0 0 0 0
          0 0 0 0 0 0
          0 0 0 0 0 0
          0 0 0 0 0 0
          0 0 0 0 0 0
          0 0 0 0 0 0
          0 0 0 0 0 0
          0 0 0 0 0 0
          0 0 0 0 0 0
          0 0 0 0 0 0
          0 0 0 0 0 0
          0 0 0 0 0 0
          0 0 0 0 0 0
          0 0 0 0 0 0
          0 0 0 0 0 0
          0 0 0 0 0 0
          0 0 0 0 0 0
          0 0 0 0 0 0
          0 0 0 0 0 0
          0 0 0 0 0 0
          0 0 0 0 0 0
          0 0 0 0 0 0
          0 0 0 0 0 0
          0 0 0 0 0 0
          0 0 0 0 0 0
          0 0 0 0 0 0
          0 0 0 0 0 0
          0 0 0 0 0 0
          0 0 0 0 0 0
          0 0 0 0 0 0
          0 0 0 0 0 0
          0 0 0 0 0 0
          0 0 0 0 0 0
          0 0 0 0 0 0
          0 0 0 0 0 0
          0 0 0 0 0 0
          0 0 0 0 0 0
          0 0 0 0 0 0
          0 0 0 0 0 0
          0 0 0 0 0 0
          0 0 0 0 0 0
          0 0 0 0 0 0
          0 0 0 0 0 0
          0 0 0 0 0 0
          0 0 0 0 0 0
          0 0 0 0 0 0
          0 0 0 0 0 0
          0 0 0 0 0 0
          0 0 0 0 0 0
          0 0 0 0 0 0
          0 0 0 0 0 0
          0 0 0 0 0 0
          0 0 0 0 0 0
          0 0 0 0 0 0
          0 0 0 0 0 0
          0 0 0 0 0 0
          0 0 0 0 0 0
          0 0 0 0 0 0
          0 0 0 0 0 0
          0 0 0 0 0 0
          0 0 0 0 0 0
          0 0 0 0 0 0
          0 0 0 0 0 0
          0 0 0 0 0 0
          0 0 0 0 0 0
          0 0 0 0 0 0
          0 0 0 0 0 0
          0 0 0 0 0 0
          0 0 0 0 0 0
          0 0 0 0 0 0
          0 0 0 0 0 0
          0 0 0 0 0 0
          0 0 0 0 0
        </DataArray>
        <DataArray type="Float64" Name="gradient_error" format="ascii" RangeMin="1.9571580220461853e-9" RangeMax="5.844544562549487e-7">
          3.4558480591121736e-7 5.48218401911782e-7 4.428496880670987e-7 3.880499853280745e-7 8.594834051367691e-9 5.035538947679925e-7
          4.902028621069189e-7 2.529134862928058e-7 5.38835012999357e-7 3.9346818588713643e-7 4.495891489393995e-7 3.9075960173713007e-7
          4.859535008713527e-7 1.708201404034734e-7 3.448948295737384e-7 3.1321467020130594e-7 3.43492754006487e-8 1.873729390268392e-7
          1.1747789726381221e-8 5.628325004440884e-8 5.012287366546525e-7 4.326220624499338e-7 3.891375170107595e-9 3.846963682305691e-8
          1.5320831940841963e-8 4.662235664189403e-7 5.150273532286912e-7 4.973590827483783e-7 5.844544562549487e-7 5.767291918861593e-7
          9.686230564704704e-8 9.552125821587595e-8 9.664141054886777e-8 9.776156288185959e-8 1.0816030243333419e-7 1.0722602130499623e-7
          1.2013412552053043e-7 1.0629174017665827e-7 1.387018325435054e-7 1.3644936837236677e-7 1.5583490999327637e-7 1.2773159301925894e-7
          1.0777952313050135e-7 1.1198122567641843e-7 1.1968825923274903e-7 1.0269616951554712e-7 1.8287225938097965e-7 1.7713338096114105e-7
          1.5627900641113e-7 1.249855477365415e-7 1.2614222672366553e-7 1.0880758519212544e-7 1.0583936542771958e-7 1.0733164314059439e-7
          9.165812625567916e-8 1.0652091105458717e-7 1.0882392085346919e-7 1.2284790264802987e-7 5.638119417018109e-8 5.937525922723804e-8
          5.1880125050595166e-8 8.045966435414338e-8 7.807963800444422e-8 9.120660530181306e-8 8.945629932305022e-8 8.809941535078224e-8
          1.18519238827917e-7 1.1716678857611738e-7 1.0028430548341114e-8 2.7597204163868507e-8 1.4350010301397021e-8 7.85546728559891e-8
          1.182404244191643e-7 1.1092682937766058e-7 1.1754600514944637e-7 1.305891011607606e-7 1.1820755308114339e-7 1.2388403107746387e-7
          1.352425320123082e-7 1.1506923130896391e-7 1.225799663384276e-7 1.247059191949455e-7 1.2239342833123157e-7 1.3791400013816434e-7
          3.333013074264749e-9 6.453293477158203e-9 4.4214891694889625e-9 6.169596190627649e-9 6.364817177019332e-8 5.569221546437347e-8
          1.9571580220461853e-9 3.988876354884189e-9 5.133132082769409e-9 6.203954136351252e-8 6.843107036006746e-9 8.186142636858636e-9
          9.793331454333431e-9 1.1763827127297481e-8 3.0014878213678965e-8 1.6746390521040183e-8 5.958923166974246e-9 7.749754479184004e-9
          1.1297758753485075e-8 1.2722984808638453e-8 1.1787931556774561e-7 1.1725663987188836e-7 1.204532577270701e-7 1.3498189897698563e-7
          1.1821262598604489e-7 1.0302801199605707e-7 1.2269896237299686e-7 1.0084694330640764e-7 9.737359745997046e-8 1.523905528703709e-7
          1.7171782782230383e-7 8.798296964063986e-8 1.0034185307294778e-7 1.5639539856679382e-7 1.0192349718808779e-7 1.002344829261041e-7
          1.3079745428688017e-7 1.5549428490519887e-8 1.772963776654009e-8 6.43836932686425e-8 1.4549331420482206e-7 1.5199554244992353e-7
          1.2727730875387408e-7 1.2692464402967364e-7 1.350099344947272e-7 1.4449399289340773e-7 1.6404939216001332e-7 1.3476839139920857e-8
          1.674565485621673e-8 2.0696493626425278e-8 1.1753299345979887e-8 1.6298905913709345e-8 1.9733078548582804e-8 1.0876213208043721e-7
          1.1757299088632158e-7 1.9023249871725563e-7 2.0304438336156617e-7 1.130153813605978e-7 1.2339982943025157e-7 1.9811324543010733e-7
          1.5273434585453774e-8 9.724353207473223e-9 1.4682058324250564e-8 1.4730469034325566e-8 1.4778879744400566e-8 8.471442129449842e-9
          9.10311283635826e-9 1.0332259573731726e-8 1.1205949337118812e-8 1.2780097387139254e-8 1.3268002784509706e-8 1.3729127610985767e-8
          1.3858890438048467e-8 1.6227261091580366e-8 1.6024852825284078e-8 1.733706763428799e-8 1.582244455898779e-8 1.8445925457201324e-8
          1.8461309353684846e-8 1.955677392452106e-8 1.8884863886680054e-8 1.8203019888547498e-8 1.911903253238552e-8 2.085701557958677e-8
          1.8945030541579296e-8 1.4698724913083696e-8 1.494781933719388e-8 1.48505180232334e-8 1.5357959370386125e-8 1.519691376130407e-8
          1.6606428032342766e-8 1.0206391470099735e-8 1.0903530009855581e-8 1.0835828391694438e-8 1.20153348571238e-8 1.5253982759101692e-8
          1.5817609577992616e-8 1.5918570822176428e-8 1.650125485651293e-8 1.742687400367125e-8 1.8277479929787496e-8 1.0642857061781536e-8
          1.1367101406979562e-8 1.2393607566292884e-8 1.3627117332245212e-8 1.8200492043220014e-8 1.831250142448944e-8 1.4160815253466779e-8
          1.5749822944377545e-8 1.5476963034785e-8 1.8883985588431195e-8 2.0278209944189332e-8 1.929545956640343e-8 2.1085398919653113e-8
          1.6756939898458266e-8 1.766847002530042e-8 1.8989975749189814e-8 1.9255217444557843e-8 2.021224620258732e-8 2.2033080159835834e-8
          2.0156546926812592e-8 6.748949789674772e-9 7.464230855265205e-9 9.571919038290628e-9 4.075415735967906e-9 6.233350671652856e-9
          6.915766546113685e-9 6.131488561068532e-9 6.725866040862213e-9 9.185719964802989e-9 8.950799059583322e-9 3.5575569845891944e-9
          4.079278205608856e-9 4.776185036942013e-9 6.0225155631055045e-9 1.1974809724622202e-8 1.298529329351879e-8 1.0039869344305422e-8
          1.215223984873208e-8 1.2322002030970592e-8 1.3531222188432698e-8 1.4062649463430432e-8 9.75764912838757e-9 9.616543699687676e-9
          1.2071266557192647e-8 2.1846222547416637e-9 2.6587177785445953e-9 4.532439355451435e-9 2.3707125882105678e-9 2.9895742415820742e-9
          3.3052880120977126e-9 4.063169383141874e-9 4.384573217391804e-9 4.5584017402004815e-9 5.279704444857719e-9 2.8592937278416296e-9
          3.180439868846822e-9 4.263870823625098e-9 4.237262946677118e-9 8.341677984084235e-9 1.0751290559613126e-8 7.773139341662774e-9
          7.943049735289148e-9 7.8986264794348e-9 1.0390297772790684e-8 1.19478107254649e-8 7.407278126757613e-9 7.479042010449662e-9
          9.841616370013004e-9 6.537722761218648e-9 7.023192224599272e-9 7.512094425678115e-9 7.905002795724652e-9 9.031594879784352e-9
          9.56932788231473e-9 5.583314900173796e-9 5.906686186794162e-9 7.229522533644765e-9 6.940035496673592e-9 8.941646840981672e-9
          9.31605111674473e-9 1.0662547813756183e-8 1.1081601776324346e-8 1.0624178496346622e-8 1.2220628129400043e-8 8.228102221372187e-9
          8.71779481703656e-9 1.0417742924519281e-8 9.80924432219795e-9 1.2567079582008709e-8 1.2932024965537625e-8 1.4579631092428611e-8
          1.6444631466223118e-8 9.78905313747798e-9 1.0422935824576047e-8 1.3443226295801887e-8 1.3486016687751018e-8 1.4578091473540882e-8
          1.7663880295685378e-8 1.8762543234797666e-8 1.1579991959179602e-8 1.3296031691886856e-8 1.5631722670820747e-8 5.100776842821896e-9
          5.5170591477512215e-9 6.2171084516149785e-9 6.723005142066877e-9 6.451816838321964e-9 7.868405702054386e-9 4.867775202121049e-9
          5.330856200505192e-9 6.504165131388912e-9 6.349441638989924e-9 7.495451681847346e-9 8.116177098776635e-9 8.945828229306362e-9
          9.733352450311284e-9 9.516156071864622e-9 1.1446569100393531e-8 7.194318540352655e-9 7.868573785310873e-9 9.452943260151728e-9
          9.376829948198612e-9 8.328432356891806e-9 9.350145144684379e-9 1.2848162469326964e-8 1.3219875377710664e-8 8.052102349378291e-9
          9.192716253671864e-9 1.237263506998721e-8 1.0967650487476392e-8 1.302708464923608e-8 1.4192132995075324e-8 1.5641893349209226e-8
          1.0882409279655955e-8 1.2980753119971266e-8 1.3786561911708974e-8 1.6538905068034897e-8 1.6466794401485817e-8 1.6977798868168716e-8
          1.6394683734936736e-8 1.9413392419072068e-8 1.9539501103908746e-8 1.709996887461414e-8 1.864273586321263e-8 1.7726444371869234e-8
          2.0232254040302794e-8 2.1889513315279166e-8 2.055087926455142e-8 2.2469522588137177e-8 1.9774052985048634e-8 2.1207792307916802e-8
          2.103364331512001e-8 1.691845402183868e-8 1.7859454970758786e-8 1.7827155594843655e-8 1.9471539903875008e-8 1.6736939169063214e-8
          1.7540589843491777e-8 1.7927866817818083e-8 1.8969686279670946e-8 2.038790028007841e-8 2.1194997916120704e-8 2.3173921630739667e-8
          1.8643528467262903e-8 2.0106162415045718e-8 2.1267920804291635e-8 2.0139690772044926e-8 2.053364379279411e-8 2.1562336698082034e-8
          2.181491391670096e-8 2.2271088302846244e-8 2.2937547593536005e-8 2.502471791319686e-8 2.256787376486593e-8 2.444895333792213e-8
          2.2433516509873242e-8 2.645816900533071e-8 2.647090906849346e-8 1.6910919090551868e-8 1.7506492731597143e-8 1.8360613009515906e-8
          1.8929629749402566e-8 1.944998144347933e-8 2.093373669674954e-8 1.3402800398799202e-8 1.398002554509494e-8 1.6091311756467e-8
          1.5768059433784308e-8 2.0236224486064796e-8 2.078837253971052e-8 2.2803610020135166e-8 1.795679412608078e-8 1.856434164264029e-8
          2.0196232520492136e-8 2.1766764343472406e-8 2.3468766528491247e-8 2.2735632172628565e-8 2.4568706152772645e-8 1.9030639116632434e-8
          2.0817080625366992e-8 2.2003100690010314e-8 2.543080970767277e-8 2.6594919968431455e-8 2.307720448055937e-8 2.5852117501236382e-8
          2.3788218473573088e-8 2.5674653596075556e-8 2.3731954991289083e-8 2.7703660348880687e-8 2.980960924727587e-8 2.7718634352720812e-8
          3.181983664799555e-8 3.135043404693625e-8 1.2631617262905098e-8 1.3152703172278082e-8 1.4768528142753639e-8 1.548787808378025e-8
          1.4350120761549644e-8 1.6928754629166068e-8 1.1555131717405457e-8 1.2368563455752914e-8 1.4568382082528367e-8 1.4064168793824566e-8
          1.7030429081029602e-8 1.803644459333404e-8 1.988401555906084e-8 1.5465071718756126e-8 1.696992182212946e-8 1.980646585874314e-8
          1.6357528983895715e-8 1.8702846652984213e-8 2.030355677406294e-8 2.2240452854648678e-8 1.5571508155905944e-8 1.8344345980460955e-8
          1.8473946210274046e-8 2.154994825151808e-8 2.460658343740852e-8 2.1567506180015872e-8 2.3395035278790912e-8 1.0555114227753355e-8
          1.1590881392421733e-8 1.2261143648759093e-8 1.3670172180003838e-8 1.3735591864568003e-8 1.6430046699229457e-8 1.0139746157966399e-8
          1.1269332798104095e-8 1.3293635650300537e-8 1.3592017767275245e-8 1.3932402455939392e-8 1.5900583473343604e-8 1.953968595630155e-8
          1.3283292053547526e-8 1.5444726689700815e-8 1.9424508399327706e-8 1.5524422770652426e-8 1.848441254911823e-8 1.7550382514086237e-8
          1.9952306804348076e-8 1.5525263886098404e-8 1.854024491160935e-8 1.7274209038426732e-8 2.1891627292169608e-8 2.2856170501541146e-8
          2.1997180176239703e-8 2.271672650264766e-8 2.3619565471348672e-8 2.5541192972838025e-8 2.4320622920914677e-8 2.6356892308821854e-8
          2.290554288932274e-8 2.4913722711422514e-8 2.5059867276360505e-8 2.7678510497460506e-8 2.995427488678144e-8 2.851817961065693e-8
          3.0604552764291657e-8 2.7252098876543346e-8 2.981593079007077e-8 2.9710979763553116e-8 2.2117093114585957e-8 2.4226612646080447e-8
          2.5337731570258396e-8 2.7736544094490865e-8 2.1874012919650695e-8 2.4033512218916362e-8 2.546501943833604e-8 2.6737713237926376e-8
          2.9506441546424062e-8 3.033573263525438e-8 3.2991619326104696e-8 2.6624589368806397e-8 2.9479962038993606e-8 3.056723061199557e-8
          3.218357399271551e-8 3.236218385576535e-8 3.2407136375038115e-8 3.412972113365669e-8 3.2316366603507005e-8 3.5390136901657505e-8
          3.236577179437327e-8 3.589476520059607e-8 4.342928245959252e-7 4.585354753524934e-7 4.162969627660446e-7 4.020854757668919e-7
          4.701096741183264e-7 4.1568396346564774e-7 3.0231413297590066e-7 3.095955669181374e-7 2.7982187725863093e-7 4.552300896997139e-7
          3.8906541181355694e-7 4.761172160181355e-7 3.9953860279595056e-7 2.3838323011737575e-7 3.4622309787684543e-7 1.4160753656281455e-7
          1.0589525165340934e-7 2.555624743155803e-7 4.101859280009989e-7 4.2977434106238735e-7 4.93331017558783e-7 5.081030652071388e-7
          1.981559430804798e-7 1.1534363635678982e-7 1.1256065155428109e-7 1.4310424058511642e-7 7.322666233156542e-8 1.7318375705105067e-7
          1.2139470487824804e-7 1.5021232828495445e-7 1.5145735546855715e-7 9.849831242776788e-8 1.196656782469803e-7 8.088183405212339e-8
          1.4673569589639446e-7 1.6606567005869048e-7 1.1992967956812148e-7 2.0414446104717212e-7 1.2749338884138892e-7 2.1699062604315604e-7
          2.474563544862946e-8 2.2393867264292424e-8 2.2979660975487746e-8 2.5039130600195782e-8 2.0459271328848027e-8 2.123042987123557e-8
          2.3049254454467804e-8 2.8549458155822358e-8 2.7647811289417175e-8 2.8782816065125847e-8 2.5776695166124633e-8 1.9356229620199114e-8
          2.073684019966894e-8 2.315071731817875e-8 1.7380005008918197e-8 1.9481556932826896e-8 2.322089961271585e-8 2.480408859920419e-8
          2.736409517523043e-8 2.51772180714928e-8 2.6513004471677012e-8 1.5373819264554344e-8 1.816078706908124e-8 2.3032039382998e-8
          1.4504985809991265e-8 1.7584967431721458e-8 2.2938106440295353e-8 2.572638846198477e-8 2.617885839916255e-8 2.5899292070155037e-8
          2.6112531176607117e-8 3.095218329411339e-8 3.038142246720157e-8 3.3621675570930164e-8 3.352259314689449e-8 3.42664994916141e-8
          3.3693223829253737e-8 2.995226326313115e-8 3.357033004598147e-8 3.495417405844063e-8 2.982212534055223e-8 3.3701305095446696e-8
          3.5122411029498806e-8 3.732198778795662e-8 2.980821359535324e-8 3.3744933711697236e-8 3.524779735441438e-8
        </DataArray>
        <DataArray type="Float64" Name="gradient_matprop_error" format="ascii" RangeMin="0" RangeMax="0">
          0 0 0 0 0 0
          0 0 0 0 0 0
          0 0 0 0 0 0
          0 0 0 0 0 0
          0 0 0 0 0 0
          0 0 0 0 0 0
          0 0 0 0 0 0
          0 0 0 0 0 0
          0 0 0 0 0 0
          0 0 0 0 0 0
          0 0 0 0 0 0
          0 0 0 0 0 0
          0 0 0 0 0 0
          0 0 0 0 0 0
          0 0 0 0 0 0
          0 0 0 0 0 0
          0 0 0 0 0 0
          0 0 0 0 0 0
          0 0 0 0 0 0
          0 0 0 0 0 0
          0 0 0 0 0 0
          0 0 0 0 0 0
          0 0 0 0 0 0
          0 0 0 0 0 0
          0 0 0 0 0 0
          0 0 0 0 0 0
          0 0 0 0 0 0
          0 0 0 0 0 0
          0 0 0 0 0 0
          0 0 0 0 0 0
          0 0 0 0 0 0
          0 0 0 0 0 0
          0 0 0 0 0 0
          0 0 0 0 0 0
          0 0 0 0 0 0
          0 0 0 0 0 0
          0 0 0 0 0 0
          0 0 0 0 0 0
          0 0 0 0 0 0
          0 0 0 0 0 0
          0 0 0 0 0 0
          0 0 0 0 0 0
          0 0 0 0 0 0
          0 0 0 0 0 0
          0 0 0 0 0 0
          0 0 0 0 0 0
          0 0 0 0 0 0
          0 0 0 0 0 0
          0 0 0 0 0 0
          0 0 0 0 0 0
          0 0 0 0 0 0
          0 0 0 0 0 0
          0 0 0 0 0 0
          0 0 0 0 0 0
          0 0 0 0 0 0
          0 0 0 0 0 0
          0 0 0 0 0 0
          0 0 0 0 0 0
          0 0 0 0 0 0
          0 0 0 0 0 0
          0 0 0 0 0 0
          0 0 0 0 0 0
          0 0 0 0 0 0
          0 0 0 0 0 0
          0 0 0 0 0 0
          0 0 0 0 0 0
          0 0 0 0 0 0
          0 0 0 0 0 0
          0 0 0 0 0 0
          0 0 0 0 0 0
          0 0 0 0 0 0
          0 0 0 0 0 0
          0 0 0 0 0 0
          0 0 0 0 0 0
          0 0 0 0 0 0
          0 0 0 0 0 0
          0 0 0 0 0 0
          0 0 0 0 0 0
          0 0 0 0 0 0
          0 0 0 0 0 0
          0 0 0 0 0 0
          0 0 0 0 0 0
          0 0 0 0 0 0
          0 0 0 0 0 0
          0 0 0 0 0 0
          0 0 0 0 0 0
          0 0 0 0 0 0
          0 0 0 0 0 0
          0 0 0 0 0 0
          0 0 0 0 0 0
          0 0 0 0 0 0
          0 0 0 0 0 0
          0 0 0 0 0 0
          0 0 0 0 0 0
          0 0 0 0 0 0
          0 0 0 0 0
        </DataArray>
        <DataArray type="Float64" Name="initial_marker" format="ascii" RangeMin="0.5" RangeMax="2">
          2 2 2 2 2 2
          2 2 2 2 2 2
          2 0.5 1.25 1.5 2 2
          2 2 2 2 2 2
          2 2 1.75 2 2 2
          2 2 2 2 2 2
          2 2 2 2 2 2
          2 2 2 2 2 2
          2 2 2 2 2 2
          2 2 2 2 2 2
          2 2 2 2 2 2
          2 2 2 2 2 2
          2 2 2 2 2 2
          2 2 2 2 2 2
          2 2 2 2 2 2
          2 2 2 2 2 2
          2 2 2 2 2 2
          2 2 2 2 2 2
          2 2 2 2 2 2
          2 2 2 2 2 2
          2 2 2 2 2 2
          2 2 2 2 2 2
          2 2 2 2 2 2
          2 2 2 2 2 2
          2 2 2 2 2 2
          2 2 2 2 2 2
          2 2 2 2 2 2
          2 2 2 2 2 2
          2 2 2 2 2 2
          2 2 2 2 2 2
          2 2 2 2 2 2
          2 2 2 2 2 2
          2 2 2 2 2 2
          2 2 2 2 2 2
          2 2 2 2 2 2
          2 2 2 2 2 2
          2 2 2 2 2 2
          2 2 2 2 2 2
          2 2 2 2 2 2
          2 2 2 2 2 2
          2 2 2 2 2 2
          2 2 2 2 2 2
          2 2 2 2 2 2
          2 2 2 2 2 2
          2 2 2 2 2 2
          2 2 2 2 2 2
          2 2 2 2 2 2
          2 2 2 2 2 2
          2 2 2 2 2 2
          2 2 2 2 2 2
          2 2 2 2 2 2
          2 2 2 2 2 2
          2 2 2 2 2 2
          2 2 2 2 2 2
          2 2 2 2 2 2
          2 2 2 2 2 2
          2 2 2 2 2 2
          2 2 2 2 2 2
          2 2 2 2 2 2
          2 2 2 2 2 2
          2 2 2 2 2 2
          2 2 2 2 2 2
          2 2 2 2 2 2
          2 2 2 2 2 2
          2 2 2 2 2 2
          2 2 2 2 2 2
          2 2 2 2 2 2
          2 2 2 2 2 2
          2 2 2 2 2 2
          2 2 2 2 2 2
          2 2 2 2 2 2
          2 2 2 2 2 2
          2 2 2 2 2 2
          2 2 2 2 2 2
          2 2 2 2 2 2
          2 2 2 2 2 2
          2 2 2 2 2 2
          2 2 2 2 2 2
          2 2 2 2 2 2
          2 2 2 2 2 2
          2 2 2 2 2 2
          2 2 2 2 2 2
          2 2 1.5 1.5 1.75 2
          2 2 2 2 2 0.75
          1 1.5 2 2 2 2
          2 2 2 2 2 2
          2 2 2 2 2 2
          2 2 2 2 2 2
          2 2 2 2 2 2
          2 2 2 2 2 2
          2 2 2 2 2 2
          2 2 2 2 2 2
          2 2 2 2 2 2
          2 2 2 2 2 2
          2 2 2 2 2 2
          2 2 2 2 2
        </DataArray>
        <DataArray type="Float64" Name="markers_norefine" format="ascii" RangeMin="0" RangeMax="2">
          0 0 0 0 2 0
          0 0 0 0 0 0
          0 0 0 0 1.5 0
          2 0.75 0 0 2 1.5
          2 0 0 0 0 0
          0 0 0 0 0 0
          0 0 0 0 0 0
          0 0 0 0 0 0
          0 0 0 0 0 0
          0 0 0 0 1 0.5
          1.25 0 0 0 1 0.25
          0 0 2 1.75 2 0.5
          0 0 0 0 0 0
          0 0 0 0 0 0
          2 2 2 2 0.5 1.25
          2 2 2 1 2 2
          2 2 1.75 2 2 2
          2 2 0 0 0 0
          0 0 0 0 0 0
          0 0 0 0 1 0.5
          0 2 2 1.5 0 0
          0 0 0 0 0 2
          2 2 2 2 2 0
          0 0 0 1 1 0
          0 2 1 1 1 2
          2 2 1.5 0 0.5 1
          0 0 0 0 0 1
          0.5 1.5 0 0 0 0
          0 1 1 1 1 1
          1 2 2 2 2 1.5
          1.25 2 1.75 1 1.25 2
          2 2 2 0.5 0 1.5
          1.6666666666666667 1 0.5 0.75 0 0.5
          1.5 1.75 0.6666666666666666 0 0 0
          0 2 2 1.5 2 2
          2 2 2 1.75 2 2
          2 2 2 0.5 0 1.5
          1 1.5 0.5 1 1.75 2
          1.5 2 2 2 2 2
          2 2 2 2 2 2
          2 2 2 2 2 2
          2 2 2 2 2 2
          2 2 2 2 2 2
          2 2 2 2 2 2
          2 2 2 2 2 2
          2 2 2 1.75 2 1.5
          1.6666666666666667 2 2 2 2 2
          1.5 1.5 2 2 2 2
          2 2 2 2 2 2
          2 2 2 2 2 2
          2 2 2 2 2 2
          2 2 2 2 2 2
          2 2 2 2 2 2
          2 2 2 1 1 0
          1 0.5 0 1 1 0
          0.5 0.5 0 0 1 1
          0 1 1 0 0 1
          1 0 1 1 0 0
          1 1 0 2 2 2
          1 2 2 1.5 0 0
          0 0.5 0 2 2 2
          2 1.5 1.5 2 2 2
          2 2 2 1.75 2 2
          2 1 1 1 1 2
          2 1.6666666666666667 1.25 1 2 2
          0.5 1 0 1 1 0
          1 0 2 2 2 2
          2 2 2 2 2 2
          2 2 2 2 2 2
          2 2 1.75 2 2 2
          2 2 2 2 2 2
          2 2 2 2 2 2
          2 2 2 2 2 2
          2 2 2 2 2 2
          2 2 2 2 2 2
          2 2 0.75 1 0 0
          1 1 0 1 1 0
          0 1 1 0 1.25 1.5
          0.5 1 1.5 2 1 1.5
          1.5 1 1 2 2 2
          1 0 1 0 1.5 1
          2 2 0 0 0 0
          0 0 0 0 0 0
          0 0 0 0 0 0
          0 0 0 0 0 0
          0 1 1 0 1.5 0
          0 0 0 0 0 1.5
          0 0 0 0 0.5 0
          2 2 2 2 2 2
          2 1 1.5 1 2 2
          2 2 2 2 2 2
          2 2 2 2 2 2
          2 2 2 2 2 2
          2 2 2 1 2 1
          0 2 2 1 2 2
          1.25 0.5 2 2 1.5
        </DataArray>
        <DataArray type="Float64" Name="markers_mustrefine" format="ascii" RangeMin="0.5" RangeMax="2">
          2 2 2 2 2 2
          2 2 2 2 2 2
          2 0.5 1.25 1.5 2 2
          2 2 2 2 2 2
          2 2 1.75 2 2 2
          2 2 2 2 2 2
          2 2 2 2 2 2
          2 2 2 2 2 2
          2 2 2 2 2 2
          2 2 2 2 2 2
          2 2 2 2 2 2
          2 2 2 2 2 2
          2 2 2 2 2 2
          2 2 2 2 2 2
          2 2 2 2 2 2
          2 2 2 2 2 2
          2 2 2 2 2 2
          2 2 2 2 2 2
          2 2 2 2 2 2
          2 2 2 2 2 2
          2 2 2 2 2 2
          2 2 2 2 2 2
          2 2 2 2 2 2
          2 2 2 2 2 2
          2 2 2 2 2 2
          2 2 2 2 2 2
          2 2 2 2 2 2
          2 2 2 2 2 2
          2 2 2 2 2 2
          2 2 2 2 2 2
          2 2 2 2 2 2
          2 2 2 2 2 2
          2 2 2 2 2 2
          2 2 2 2 2 2
          2 2 2 2 2 2
          2 2 2 2 2 2
          2 2 2 2 2 2
          2 2 2 2 2 2
          2 2 2 2 2 2
          2 2 2 2 2 2
          2 2 2 2 2 2
          2 2 2 2 2 2
          2 2 2 2 2 2
          2 2 2 2 2 2
          2 2 2 2 2 2
          2 2 2 2 2 2
          2 2 2 2 2 2
          2 2 2 2 2 2
          2 2 2 2 2 2
          2 2 2 2 2 2
          2 2 2 2 2 2
          2 2 2 2 2 2
          2 2 2 2 2 2
          2 2 2 2 2 2
          2 2 2 2 2 2
          2 2 2 2 2 2
          2 2 2 2 2 2
          2 2 2 2 2 2
          2 2 2 2 2 2
          2 2 2 2 2 2
          2 2 2 2 2 2
          2 2 2 2 2 2
          2 2 2 2 2 2
          2 2 2 2 2 2
          2 2 2 2 2 2
          2 2 2 2 2 2
          2 2 2 2 2 2
          2 2 2 2 2 2
          2 2 2 2 2 2
          2 2 2 2 2 2
          2 2 2 2 2 2
          2 2 2 2 2 2
          2 2 2 2 2 2
          2 2 2 2 2 2
          2 2 2 2 2 2
          2 2 2 2 2 2
          2 2 2 2 2 2
          2 2 2 2 2 2
          2 2 2 2 2 2
          2 2 2 2 2 2
          2 2 2 2 2 2
          2 2 2 2 2 2
          2 2 1.5 1.5 1.75 2
          2 2 2 2 2 0.75
          1 1.5 2 2 2 2
          2 2 2 2 2 2
          2 2 2 2 2 2
          2 2 2 2 2 2
          2 2 2 2 2 2
          2 2 2 2 2 2
          2 2 2 2 2 2
          2 2 2 2 2 2
          2 2 2 2 2 2
          2 2 2 2 2 2
          2 2 2 2 2 2
          2 2 2 2 2
        </DataArray>
        <DataArray type="Float64" Name="gradient_marker" format="ascii" RangeMin="0" RangeMax="1">
          0.5 1 1 0.75 0 1
          0.75 0.25 0.75 0.5 0.625 0.875
          0.875 0.625 1 0.875 0 0.375
          0 0.25 0.75 1 0 0
          0 0.75 1 1 1 1
          0 0 0 0 0 0
          0 0 0.5 0.5 1 0.25
          0 0 0.25 0 1 1
          1 0.5 0.5 0 0 0
          0 0 0 0.16666666666666666 0 0
          0 0 0.25 0.25 0.5 0.5
          0.375 0.625 0 0 0 0.375
          0.25 0 0 0.5 0 0.375
          0.625 0.25 0.5 0.75 0.75 0.75
          0 0 0 0 0 0.125
          0 0 0 0 0 0
          0 0 0.125 0 0 0
          0 0 0 0.375 0 0.5
          0 0.25 0 0.625 0.5 1
          1 0.5 0.5 1 0.5 0.5
          0.75 0 0 0.25 0.75 0.75
          0.5 0.5 0.75 0.75 1 0
          0 0 0 0 0 0.5
          0.5 1 1 0.5 0.5 1
          0 0 0 0 0 0
          0 0 0 0 0 0
          0 0 0 0 0 0
          0 0 0 0 0 0
          0 0 0 0 0 0