<?xml version="1.0"?>
<VTKFile type="UnstructuredGrid" version="0.1" byte_order="LittleEndian" header_type="UInt32" compressor="vtkZLibDataCompressor">
  <UnstructuredGrid>
    <Piece NumberOfPoints="1182" NumberOfCells="808">
      <PointData>
        <DataArray type="Int32" Name="libmesh_node_id" format="ascii" RangeMin="1510" RangeMax="8379">
          1521 1529 1752 1754 1755 1757
          1762 1763 2460 2461 2462 2468
          2470 2471 2472 2473 2474 2475
          2476 2480 2481 2482 2506 2507
          2509 2512 2514 2515 2516 2517
          2520 2521 2522 3515 3516 3517
          3518 3519 3520 3521 3522 3526
          3527 3528 3529 3530 3531 3532
          3533 3534 3535 3536 3537 3538
          3539 3540 3541 3542 3543 3544
          3545 3546 3547 3548 3549 3550
          3551 3552 3553 3554 3555 3556
          3557 3558 3559 3560 3561 3562
          3563 3567 3568 3570 3571 3572
          3573 3577 3578 3580 3581 3582
          3583 3614 3615 3616 3617 3618
          3619 3620 3621 3622 3623 3631
          3632 3633 3634 3635 3636 3637
          3648 3649 3650 3651 3652 3653
          3654 3655 3656 3657 3665 3666
          3667 3668 3669 3670 3671 3672
          3673 3674 3675 3676 3677 3678
          3679 3680 3681 3682 3683 3684
          3685 3686 3687 3688 3689 3690
          3691 3692 3693 3696 3697 3699
          3700 3703 3704 3706 3707 3708
          3709 3710 3711 3712 3713 3714
          3715 3716 3717 3718 3719 3720
          3721 3722 3723 3724 3725 3726
          3727 3730 3731 3733 3734 3737
          3738 3743 3745 3746 3747 3759
          3760 3761 3763 3764 3765 3831
          3832 3833 3834 3838 3839 3841
          3842 3844 3859 3860 3866 3967
          3968 3971 3973 3974 3976 3987
          3991 4001 4002 4005 4007 4008
          4010 4021 4025 6304 6305 6306
          6307 6308 6309 6310 6311 6312
          6313 6314 6315 6316 6317 6318
          6319 6320 6321 6322 6323 6324
          6325 6326 6327 6328 6329 6330
          6331 6332 6333 6334 6335 6336
          6337 6338 6339 6340 6341 6342
          6343 6344 6345 6346 6347 6348
          6349 6350 6351 6352 6353 6354
          6355 6356 6357 6358 6359 6360
          6361 6362 6363 6364 6365 6366
          6368 6369 6370 6371 6372 6373
          6374 6375 6376 6377 6378 6379
          6380 6381 6382 6383 6384 6385
          6386 6387 6388 6389 6390 6391
          6392 6396 6397 6399 6400 6401
          6402 6406 6407 6491 6492 6493
          6494 6495 6496 6497 6498 6499
          6500 6501 6502 6503 6504 6517
          6518 6519 6520 6521 6522 6523
          6524 6525 6594 6595 6596 6597
          6598 6599 6600 6601 6602 6603
          6604 6605 6606 6607 6608 6609
          6610 6611 6612 6613 6614 6615
          6616 6617 6618 6619 6620 6621
          6622 6623 6624 6625 6626 6627
          6628 6629 6630 6631 6632 6633
          6634 6635 6636 6637 6638 6639
          6640 6641 6642 6643 6644 6645
          6646 6647 6648 6649 6650 6651
          6652 6653 6654 6655 6656 6657
          6658 6659 6660 6661 6718 6719
          6720 6721 6722 6723 6724 6725
          6726 6727 6728 6729 6730 6731
          6732 6733 6734 6735 6736 6737
          6738 6739 6740 6741 6742 6743
          6744 6745 6746 6747 6748 6749
          6750 6751 6752 6753 6754 6755
          6756 6757 6758 6759 6760 6761
          6762 6763 6764 6765 6766 6767
          6768 6769 6770 6771 6772 6773
          6774 6775 6776 6777 6778 6779
          6780 6781 6782 6783 6784 6785
          6786 6787 6788 6789 6790 6791
          6792 6793 6794 6795 6796 6797
          6798 6799 6800 6801 6802 6803
          6804 6805 6806 6807 6808 6809
          6810 6811 6812 6813 6814 6815
          6816 6817 6818 6819 6820 6821
          6822 6823 6824 6825 6826 6827
          6828 6829 6830 6831 6832 6833
          6834 6835 6836 6837 6838 6839
          6840 6841 6842 6843 6844 6845
          6846 6847 6848 6849 6850 6851
          6852 6853 6854 6855 6856 6857
          6858 6859 6860 6861 6862 6863
          6864 6865 6866 6867 6869 6870
          6871 6872 6873 6874 6875 6876
          6877 6878 6880 6881 6882 6883
          6884 6885 6886 6887 6888 6889
          6890 6891 6892 6893 6894 6895
          6896 6899 6900 6902 6903 6906
          6907 6909 6910 6911 6912 6913
          6914 6915 6916 6917 6918 6919
          6920 6921 6922 6923 6924 6927
          6928 6930 6931 6934 6935 6937
          6938 6939 6940 6941 6942 6943
          6944 6945 6946 6947 6948 6949
          6950 6951 6952 6953 6954 6955
          6956 6957 6958 6959 6960 6961
          6962 6963 6964 6965 6966 6967
          6968 6969 6970 6971 6972 6973
          6974 6975 6976 6977 6978 6979
          6980 6981 6982 6983 6984 6985
          6986 6987 6988 6989 6990 6991
          6992 6993 6994 6995 6996 6997
          6998 6999 7000 7001 7002 7003
          7004 7005 7006 7007 7008 7009
          7010 7011 7012 7013 7014 7015
          7016 7017 7018 7019 7020 7021
          7022 7023 7024 7025 7026 7027
          7028 7029 7030 7031 7032 7033
          7034 7035 7036 7037 7038 7039
          7040 7041 7042 7043 7044 7045
          7046 7047 7048 7049 7050 7051
          7052 7053 7054 7055 7056 7057
          7058 7059 7060 7061 7062 7063
          7064 7065 7066 7067 7068 7069
          7070 7071 7072 7073 7074 7075
          7076 7077 7078 7079 7080 7081
          7082 7083 7084 7085 7086 7087
          7088 7089 7090 7092 7093 7094
          7095 7096 7097 7098 7099 7100
          7101 7102 7103 7104 7105 7106
          7107 7108 7109 7110 7111 7112
          7113 7114 7115 7116 7117 7118
          7120 7121 7122 7123 7124 7125
          7126 7127 7128 7129 7130 7131
          7132 7133 7134 7135 7136 7137
          7138 7141 7142 7144 7145 7148
          7149 7151 7152 7153 7154 7155
          7156 7157 7158 7159 7160 7161
          7162 7163 7164 7165 7166 7169
          7170 7172 7173 7176 7177 7465
          7466 7467 7468 7469 7470 7471
          7472 7473 7474 7475 7476 7477
          7478 7493 7494 7495 7496 7497
          7498 7499 7500 7501 7502 7561
          7562 7563 7564 7565 7566 7567
          7568 7569 7570 7581 7582 7583
          7584 7588 7589 7947 7948 7949
          7950 7951 7952 7953 7954 7955
          7956 7967 7968 7969 7970 7971
          7972 7973 7981 7982 7983 7984
          7985 7986 7987 7988 7989 7990
          8001 8002 8003 8004 8005 8006
          8007 8083 8084 8085 8086 8087
          8088 8089 8097 8098 8101 8102
          8111 8112 8113 8114 8115 8116
          8117 8125 8126 8129 8130 8195
          8196 8197 8198 8199 8200 8201
          8202 8203 8204 8215 8216 8217
          8218 8219 8220 8221 8229 8230
          8231 8232 8233 8234 8235 8236
          8237 8238 8249 8250 8251 8252
          8253 8254 8255 8331 8332 8333
          8334 8335 8336 8337 8345 8346
          8349 8350 8359 8360 8361 8362
          8363 8364 8365 8373 8374 8377
          8378 1941 1948 1949 1942 1510
          1753 1722 1951 1952 1756 2456
          2457 2458 2459 2463 2465 2464
          2466 2467 2469 2477 2478 2479
          2486 2484 2487 2485 2492 2491
          2508 2525 2524 3564 3565 3566
          3569 2483 3574 3575 3576 3584
          3585 3588 3589 3591 3593 3513
          3606 3607 3609 2504 3612 2505
          3524 3625 3627 3629 3694 3695
          3698 2518 3728 3729 3741 3661
          3753 3755 3762 2513 3757 2528
          2529 3769 3771 3744 3773 3775
          3803 3805 3732 3807 3809 3863
          3864 6393 6394 6367 6395 6398
          3579 6403 6404 6405 6408 1758
          6483 6538 6539 6541 3640 6544
          3641 6489 6554 6556 6558 3643
          6572 6573 6575 2510 6578 3646
          6588 6590 6592 2511 6509 6670
          6672 6674 3659 6515 6684 6686
          6688 6698 6700 6702 3663 6712
          6714 6716 6897 6868 6898 6901
          3701 6904 6905 6908 3702 6925
          6879 6926 6929 3705 6932 6933
          6936 2519 7119 2523 7139 7091
          7140 7143 3735 7146 7147 7150
          3736 7167 7168 7171 3739 7174
          7175 7178 1764 7585 7586 7587
          7590 3868 8099 8100 8103 3989
          8127 8128 8131 3993 8347 8348
          8351 4023 8375 8376 8379 4027
        </DataArray>
        <DataArray type="Float64" Name="bounds" format="ascii" RangeMin="0" RangeMax="0">
          0 0 0 0 0 0
          0 0 0 0 0 0
          0 0 0 0 0 0
          0 0 0 0 0 0
          0 0 0 0 0 0
          0 0 0 0 0 0
          0 0 0 0 0 0
          0 0 0 0 0 0
          0 0 0 0 0 0
          0 0 0 0 0 0
          0 0 0 0 0 0
          0 0 0 0 0 0
          0 0 0 0 0 0
          0 0 0 0 0 0
          0 0 0 0 0 0
          0 0 0 0 0 0
          0 0 0 0 0 0
          0 0 0 0 0 0
          0 0 0 0 0 0
          0 0 0 0 0 0
          0 0 0 0 0 0
          0 0 0 0 0 0
          0 0 0 0 0 0
          0 0 0 0 0 0
          0 0 0 0 0 0
          0 0 0 0 0 0
          0 0 0 0 0 0
          0 0 0 0 0 0
          0 0 0 0 0 0
          0 0 0 0 0 0
          0 0 0 0 0 0
          0 0 0 0 0 0
          0 0 0 0 0 0
          0 0 0 0 0 0
          0 0 0 0 0 0
          0 0 0 0 0 0
          0 0 0 0 0 0
          0 0 0 0 0 0
          0 0 0 0 0 0
          0 0 0 0 0 0
          0 0 0 0 0 0
          0 0 0 0 0 0
          0 0 0 0 0 0
          0 0 0 0 0 0
          0 0 0 0 0 0
          0 0 0 0 0 0
          0 0 0 0 0 0
          0 0 0 0 0 0
          0 0 0 0 0 0
          0 0 0 0 0 0
          0 0 0 0 0 0
          0 0 0 0 0 0
          0 0 0 0 0 0
          0 0 0 0 0 0
          0 0 0 0 0 0
          0 0 0 0 0 0
          0 0 0 0 0 0
          0 0 0 0 0 0
          0 0 0 0 0 0
          0 0 0 0 0 0
          0 0 0 0 0 0
          0 0 0 0 0 0
          0 0 0 0 0 0
          0 0 0 0 0 0
          0 0 0 0 0 0
          0 0 0 0 0 0
          0 0 0 0 0 0
          0 0 0 0 0 0
          0 0 0 0 0 0
          0 0 0 0 0 0
          0 0 0 0 0 0
          0 0 0 0 0 0
          0 0 0 0 0 0
          0 0 0 0 0 0
          0 0 0 0 0 0
          0 0 0 0 0 0
          0 0 0 0 0 0
          0 0 0 0 0 0
          0 0 0 0 0 0
          0 0 0 0 0 0
          0 0 0 0 0 0
          0 0 0 0 0 0
          0 0 0 0 0 0
          0 0 0 0 0 0
          0 0 0 0 0 0
          0 0 0 0 0 0
          0 0 0 0 0 0
          0 0 0 0 0 0
          0 0 0 0 0 0
          0 0 0 0 0 0
          0 0 0 0 0 0
          0 0 0 0 0 0
          0 0 0 0 0 0
          0 0 0 0 0 0
          0 0 0 0 0 0
          0 0 0 0 0 0
          0 0 0 0 0 0
          0 0 0 0 0 0
          0 0 0 0 0 0
          0 0 0 0 0 0
          0 0 0 0 0 0
          0 0 0 0 0 0
          0 0 0 0 0 0
          0 0 0 0 0 0
          0 0 0 0 0 0
          0 0 0 0 0 0
          0 0 0 0 0 0
          0 0 0 0 0 0
          0 0 0 0 0 0
          0 0 0 0 0 0
          0 0 0 0 0 0
          0 0 0 0 0 0
          0 0 0 0 0 0
          0 0 0 0 0 0
          0 0 0 0 0 0
          0 0 0 0 0 0
          0 0 0 0 0 0
          0 0 0 0 0 0
          0 0 0 0 0 0
          0 0 0 0 0 0
          0 0 0 0 0 0
          0 0 0 0 0 0
          0 0 0 0 0 0
          0 0 0 0 0 0
          0 0 0 0 0 0
          0 0 0 0 0 0
          0 0 0 0 0 0
          0 0 0 0 0 0
          0 0 0 0 0 0
          0 0 0 0 0 0
          0 0 0 0 0 0
          0 0 0 0 0 0
          0 0 0 0 0 0
          0 0 0 0 0 0
          0 0 0 0 0 0
          0 0 0 0 0 0
          0 0 0 0 0 0
          0 0 0 0 0 0
          0 0 0 0 0 0
          0 0 0 0 0 0
          0 0 0 0 0 0
          0 0 0 0 0 0
          0 0 0 0 0 0
          0 0 0 0 0 0
          0 0 0 0 0 0
          0 0 0 0 0 0
          0 0 0 0 0 0
          0 0 0 0 0 0
          0 0 0 0 0 0
          0 0 0 0 0 0
          0 0 0 0 0 0
          0 0 0 0 0 0
          0 0 0 0 0 0
          0 0 0 0 0 0
          0 0 0 0 0 0
          0 0 0 0 0 0
          0 0 0 0 0 0
          0 0 0 0 0 0
          0 0 0 0 0 0
          0 0 0 0 0 0
          0 0 0 0 0 0
          0 0 0 0 0 0
          0 0 0 0 0 0
          0 0 0 0 0 0
          0 0 0 0 0 0
          0 0 0 0 0 0
          0 0 0 0 0 0
          0 0 0 0 0 0
          0 0 0 0 0 0
          0 0 0 0 0 0
          0 0 0 0 0 0
          0 0 0 0 0 0
          0 0 0 0 0 0
          0 0 0 0 0 0
          0 0 0 0 0 0
          0 0 0 0 0 0
          0 0 0 0 0 0
          0 0 0 0 0 0
          0 0 0 0 0 0
          0 0 0 0 0 0
          0 0 0 0 0 0
          0 0 0 0 0 0
          0 0 0 0 0 0
          0 0 0 0 0 0
          0 0 0 0 0 0
          0 0 0 0 0 0
          0 0 0 0 0 0
          0 0 0 0 0 0
          0 0 0 0 0 0
          0 0 0 0 0 0
          0 0 0 0 0 0
          0 0 0 0 0 0
          0 0 0 0 0 0
          0 0 0 0 0 0
          0 0 0 0 0 0
          0 0 0 0 0 0
          0 0 0 0 0 0
        </DataArray>
        <DataArray type="Float64" Name="gradient_error" format="ascii" RangeMin="6.294547766433131e-11" RangeMax="5.833495791530084e-8">
          6.276275632063894e-10 3.04125091209812e-9 1.8159625166178939e-9 1.9808051391494096e-8 2.11832712300857e-8 5.032427744022709e-10
          2.6015784500431234e-9 1.957169506795224e-8 2.1773601685822105e-9 1.2271321656776988e-8 1.0848271854575219e-8 1.7172074355211826e-8
          1.4394764383631625e-9 1.3188656226317503e-9 1.3567226978922194e-9 1.1987020078370183e-9 7.62446838194792e-10 6.95878072152996e-10
          6.035941043080328e-10 4.867887664054057e-9 4.100349702422211e-9 4.0810016900702696e-10 2.2485807949286492e-8 1.9189119831739204e-8
          3.3892260502722075e-8 4.549053277137118e-9 1.284300115691398e-8 1.0531338543568588e-8 4.449869642150525e-9 3.52671022997764e-9
          2.9704225703129843e-9 4.512485409692489e-9 3.841198040482052e-9 3.222549330664877e-9 4.156312450161255e-9 3.999881175637808e-9
          3.5960855237416142e-9 1.8730942596433153e-8 1.7975003732119638e-8 1.2195636690027443e-8 1.6034938418743093e-8 2.2279261280008783e-9
          2.916473010085555e-9 2.081815705472477e-9 1.380366459638714e-8 9.16110590327096e-9 1.2756517223094214e-8 2.4693898774946802e-9
          2.373939496489656e-9 3.603983055923199e-9 3.4655117390692934e-9 1.2238645629743781e-9 1.87339343817219e-9 1.7983555289116823e-9
          2.095840879105052e-9 3.0931680131582877e-9 1.5870342942322881e-9 9.503467020767435e-9 9.11088266474448e-9 4.662461229732101e-9
          8.063576064514131e-9 8.028431842456555e-10 7.694361944822742e-10 5.30261395960234e-10 5.073943357884219e-10 5.076399217717836e-10
          3.516868220849751e-10 3.3603441586171855e-10 6.771162399841711e-10 4.4483002093644444e-10 2.9321666814031595e-10 6.939354602735879e-10
          6.60232402806986e-10 4.77570925934264e-10 5.688318646703433e-10 1.6499294814357745e-9 2.5098033111779737e-9 8.672318618973227e-10
          1.2869998722872804e-9 6.64554598315861e-9 3.3193363746580815e-9 5.491402837410465e-10 3.582212189564114e-10 3.57870221429503e-10
          2.3421400703322485e-10 4.436683236316982e-10 3.139771827828161e-10 1.0830549083647111e-9 1.4324946209297634e-9 1.1855827047168167e-9
          4.33858938416456e-9 2.9535543577497766e-8 2.8380247321061614e-8 2.7521309397122594e-8 2.6347595619840426e-8 2.5142367122417555e-8
          2.310264806671839e-8 2.3273422985336604e-8 2.247458133387463e-8 2.1643456353728887e-8 2.016305422769456e-8 2.017943771256539e-8
          1.8327799172746956e-8 1.7299092244921133e-8 1.395321452959037e-8 2.0313348400155222e-8 2.345996205096569e-8 2.3873660229893298e-8
          5.996031542033002e-9 5.911654478217288e-9 6.34180744956477e-9 6.203444334542696e-9 5.587736340306715e-9 5.856267240499832e-9
          2.3220716455364496e-9 3.264977426437337e-9 3.472416831370113e-9 4.380078325319165e-9 9.687855768435153e-9 1.3890966240405317e-8
          2.2631027591097334e-8 2.6101888407881167e-8 4.552448911237117e-9 4.673329607016206e-9 2.010344221360272e-8 2.479194473487431e-8
          2.36631601844478e-8 1.2917952612653895e-8 1.2307247521346746e-8 2.0571125569423063e-8 1.0645194082988881e-8 2.1066403021455514e-8
          2.020507707840769e-8 1.223826091257045e-8 1.7595958958585443e-8 2.062109042887727e-9 1.9585329076014932e-9 1.637895769585707e-9
          1.5526730361381854e-9 1.6793174663963865e-9 1.3221744927917972e-9 5.2095014987055524e-9 4.9364976243422646e-9 4.194166470654686e-9
          4.154670927666577e-9 1.624164558576979e-8 8.376247575240135e-9 2.1662073550490404e-8 1.2027925739647853e-8 1.3000736791550473e-9
          1.0091897901602133e-9 3.135947970131391e-9 2.6351993353132924e-9 6.471312581679352e-9 6.3330435991360704e-9 6.5009735223302895e-9
          6.40821778938913e-9 6.037359334255819e-9 6.112356690159042e-9 2.828286264711208e-9 3.6141892830341e-9 3.6738465147111725e-9
          4.607500710059961e-9 6.424633406358428e-9 6.304243384828008e-9 6.116974480483838e-9 6.0098788856407956e-9 6.012722805355136e-9
          5.648847941749616e-9 3.0554107327758854e-9 3.6445155364075274e-9 3.424953575742758e-9 4.196187895374645e-9 1.3380869530210913e-8
          9.200476787643968e-9 4.7613960253773065e-9 4.757077300035679e-9 5.239731551123617e-9 4.728858247706503e-9 4.6747818375846225e-9
          4.415860146464483e-9 9.049297981099897e-9 2.288595450460065e-8 1.8103345933815977e-8 1.819862525581076e-8 2.5860944310559185e-8
          2.4523296766905333e-8 2.0470289757278405e-8 2.883593411651772e-8 2.7493250396769443e-8 2.2741954258746044e-8 3.426183360425246e-10
          3.2772866790244867e-10 2.298582910258115e-10 2.194479503321689e-10 2.865007154764192e-10 1.9099010572474244e-10 3.585111940107594e-10
          3.395401604327009e-10 2.884504070847385e-10 2.296197293487461e-10 1.518564977164766e-10 2.1988500519806057e-10 1.2709749569031787e-9
          1.2018334186936958e-9 1.0152212022764808e-9 3.6823869231407556e-9 3.4682397357760933e-9 2.8930187789906163e-9 7.641284894962353e-10
          2.150365757903537e-9 5.620418114937083e-9 5.527182749878823e-9 5.120463763609254e-9 2.6631921418333017e-9 2.8620607368247274e-9
          3.6513365956218402e-9 4.08842359846393e-9 4.063041717363726e-9 4.2324605146238206e-10 4.99908092484804e-10 4.939112187274278e-10
          4.777893360452214e-10 9.232720031492032e-10 3.849442664655941e-10 4.509286966721381e-10 4.1592485901932257e-10 8.400720623692337e-10
          3.570991478710928e-10 3.5274553813271363e-10 4.5692824510016214e-10 4.514237364318085e-10 2.5449596029148996e-10 3.763034866916881e-10
          3.716781440680514e-10 3.4047004033723914e-10 4.360210015510584e-10 3.5820037796477375e-10 8.426646377206778e-10 8.319894194231528e-10
          6.853789606261343e-10 8.026171981785483e-10 2.0959260415521406e-10 2.0693284158127135e-10 3.1074335977417435e-10 3.0682284084714257e-10
          1.707811877538793e-10 2.594267141668115e-10 2.5609810699121e-10 1.9935287593269763e-10 2.954594623883436e-10 2.4643787438781384e-10
          5.91037868764458e-10 5.835200619076068e-10 4.966999618939525e-10 5.615394315992671e-10 3.207521262824245e-10 4.110535634064504e-10
          2.3113438961433492e-10 3.3700965316136477e-10 2.9504010320976376e-10 3.7851983783589225e-10 3.0943103098659535e-10 7.558305472739531e-10
          6.204731488883353e-10 6.953310048601044e-10 1.8757876406515443e-10 2.775807484545313e-10 1.5455023881103513e-10 2.3124215679386467e-10
          1.7222796367499523e-10 2.5436066083620767e-10 2.1153658032533305e-10 5.267101489087892e-10 4.4730030927706207e-10 4.815312459127477e-10
          3.181203995869889e-10 3.752390162455295e-10 3.305227702736677e-10 6.974524312897654e-10 2.405186545616243e-10 2.859345157876075e-10
          5.265765334494603e-10 2.651193852284685e-10 3.4063334517716565e-10 1.90812102076427e-10 2.772732010701773e-10 2.3271367015983404e-10
          2.9932710844148677e-10 2.425481869391393e-10 6.249534986181772e-10 5.086604206798308e-10 5.478708106007258e-10 1.5431697918482067e-10
          2.2734777540359268e-10 1.267293891995243e-10 1.886665784691458e-10 1.3493127382966456e-10 1.982228174945381e-10 1.640708385991284e-10
          4.2905740008804264e-10 3.626810778761794e-10 3.7259970808613985e-10 2.0029326213883107e-10 2.577262648404117e-10 1.4356845665744715e-10
          2.0724031414940543e-10 4.691857692470519e-10 3.7731780591228575e-10 1.1537530140785099e-10 1.6871886111893412e-10 9.424857806776343e-11
          1.392187553040873e-10 3.1537322004256086e-10 2.64802778062545e-10 5.948611437711439e-9 5.9457356834377655e-9 6.187654306369371e-9
          5.953460558304405e-9 6.3981602385290425e-9 6.369147576149606e-9 6.517904912158045e-9 6.3358893211587034e-9 5.93675940008018e-9
          6.129999911075714e-9 5.913214744808391e-9 6.3049814801956856e-9 6.451528678748442e-9 6.196430095657765e-9 5.7848849189079565e-9
          5.8599610951360804e-9 5.346656699389752e-9 5.860405466998901e-9 5.7976031270523076e-9 5.606269974526404e-9 4.775270845154031e-9
          4.767463749946743e-9 4.510026252443331e-9 6.074498975880845e-9 6.044964932474103e-9 6.287880958794646e-9 6.25642001593756e-9
          5.9775429470227525e-9 6.1743751141382786e-9 5.7977517534249904e-9 5.775719191769782e-9 5.977815599203841e-9 5.714110910767355e-9
          6.470449857646144e-9 6.433878071740754e-9 6.6146340050585634e-9 6.573060860887448e-9 6.334557761873889e-9 6.461207131737785e-9
          6.185082429577642e-9 6.163596109995429e-9 6.310033344807329e-9 6.079042190377258e-9 5.852655590210338e-9 6.028591116583804e-9
          5.7110018288010736e-9 5.880819806505694e-9 5.594935350521196e-9 5.771775238945427e-9 5.420612216266083e-9 6.179138909203634e-9
          6.304021407473173e-9 6.0231799340330235e-9 6.131541333707973e-9 5.917485689986687e-9 6.032843115854696e-9 5.733347972092858e-9
          3.8203471238583814e-9 3.966550624871929e-9 3.972537112061996e-9 4.1241229949487394e-9 4.289245964193068e-9 4.45160395617051e-9
          2.245577254917032e-9 2.5258570477147337e-9 2.617800516995542e-9 3.1518954425925232e-9 4.140312009775156e-9 4.283933609648502e-9
          4.298032338139024e-9 4.4297801305239655e-9 4.5993577174799015e-9 4.726730614746331e-9 2.4531986371582743e-9 2.739283566638048e-9
          2.8677103810501242e-9 3.3738572567943587e-9 4.603716216354536e-9 4.761232090439659e-9 4.79559674160919e-9 4.935112011109158e-9
          3.786113512007176e-9 3.906096025080358e-9 4.2587579634799686e-9 4.8955399828747195e-9 5.001095908488198e-9 5.047467104958817e-9
          5.124281356365256e-9 4.009404923987645e-9 4.093019721464909e-9 4.478168038140197e-9 5.6242327272688114e-9 5.757881327692355e-9
          5.452598361804495e-9 5.5633142527695455e-9 5.28351255965254e-9 5.460672368451074e-9 5.26909872291974e-9 5.834346704879709e-9
          5.870272697674036e-9 5.7088021221882256e-9 5.694578996119232e-9 5.59826172740773e-9 5.709289068229667e-9 5.455491098125599e-9
          5.052281564795349e-9 5.053408910337878e-9 4.79148437835972e-9 4.791903303056808e-9 5.270658142369622e-9 5.335977272816148e-9
          5.244255035294932e-9 5.398931105250247e-9 5.418096152422085e-9 5.529037516647329e-9 4.80747424009636e-9 4.940112921210491e-9
          4.727031264474834e-9 4.8490931643194005e-9 4.511503896517305e-9 4.614682665767463e-9 4.474405107329423e-9 5.037403541277326e-9
          5.101435338997266e-9 4.945650078393616e-9 5.028943648049542e-9 4.6865715704997085e-9 4.727234809830959e-9 4.613730644523855e-9
          4.973245873675524e-9 5.0963676891181085e-9 5.2578788455841295e-9 5.399516016173861e-9 4.73446774704847e-9 4.858446504376503e-9
          5.100190124854505e-9 5.182337685302932e-9 5.228086253734293e-9 5.473167826767134e-9 5.462851687026157e-9 4.9657442653556154e-9
          5.038076355046499e-9 5.417298136886939e-9 1.4928443787148151e-9 1.4726624232402257e-9 1.4220014822799342e-9 2.5356879755372887e-9
          1.3413109583516573e-9 1.2376347277525879e-9 2.2852421289945645e-9 6.6759696587300004e-9 6.670757664720574e-9 6.810155466665716e-9
          6.653961990275573e-9 3.895281022637772e-9 3.837685231967283e-9 3.6925778841008713e-9 6.904119084446594e-9 6.861416834088526e-9
          5.9067873769272556e-9 6.706161556965874e-9 6.5411358557430694e-9 6.524139361441544e-9 6.215656862829658e-9 3.4497637948572476e-9
          3.1377896211808534e-9 6.377951272682331e-9 5.377706811474382e-9 5.876371776411576e-9 1.4034571164658388e-9 1.385305346442407e-9
          1.228053955511628e-9 1.2127375272389485e-9 1.3361080714818586e-9 1.1676721501170343e-9 2.3775343725187683e-9 2.3451796564379792e-9
          2.0358003086893967e-9 2.256822075929914e-9 1.0692725155585137e-9 1.0555421389788568e-9 9.312112872448682e-10 9.189669527658353e-10
          1.015394103136244e-9 8.831578089508701e-10 1.8383975239558011e-9 1.8144348720999203e-9 1.616165103374774e-9 1.7444983872789317e-9
          1.2580368746749926e-9 1.0963239426983097e-9 1.1571447958083732e-9 1.0035774612179683e-9 2.1154060347280264e-9 1.8367639548769553e-9
          1.933709961282221e-9 9.517399865874513e-10 8.264518316815716e-10 8.690872063530987e-10 7.529459163643108e-10 1.6339781607563513e-9
          1.4522580245186676e-9 1.4909347318748213e-9 3.703986768332805e-9 3.651108505804816e-9 3.358901105988764e-9 3.312139128287767e-9
          3.5070114767811634e-9 3.1749267581169498e-9 5.433405397286097e-9 5.366332629972648e-9 5.142204486064252e-9 5.173891217975956e-9
          3.055765881201235e-9 3.0126191640441434e-9 2.763220967305756e-9 2.7240203527359346e-9 2.8872431674353897e-9 2.6101110813815935e-9
          4.858012868462633e-9 4.785377682971507e-9 4.383497958001903e-9 4.575158216661753e-9 3.2739644205753256e-9 2.9605859245868514e-9
          2.975950257495829e-9 2.687768728370026e-9 4.8471087889163285e-9 4.596173831970783e-9 4.3991062117611684e-9 2.6909399141764883e-9
          2.43216775702278e-9 2.4413084365644147e-9 2.206075731108084e-9 4.250708953009369e-9 3.902191645153492e-9 3.843735766104134e-9
          1.1174566253545912e-9 9.836544164082456e-10 1.8628198112074816e-9 8.467112676106616e-10 1.3848612286258996e-9 5.6781810737297945e-9
          5.499328490754872e-9 5.364941823446415e-9 2.7897677339784348e-9 2.413674194068803e-9 5.265045920409562e-9 4.369802320278137e-9
          4.9396423031593436e-9 2.061211602891264e-9 2.99124155300552e-9 1.0398663016949172e-9 8.955467298774866e-10 9.112566754832869e-10
          7.790111361407407e-10 1.7257535178375037e-9 1.4966767106683345e-9 1.5015209850969941e-9 7.730135455597854e-10 6.677088296707117e-10
          6.695586495465047e-10 5.762241706074643e-10 1.3249205605848393e-9 1.1712662452774562e-9 1.1461863450448531e-9 7.797425359082111e-10
          6.602784504666193e-10 1.278737954586012e-9 1.1000365037985653e-9 5.646657599749558e-10 4.838488327472249e-10 9.649235760904506e-10
          8.453758108369753e-10 2.641260403011828e-9 2.3794257590643934e-9 2.2872076474872024e-9 2.0591173164204788e-9 3.890888171315158e-9
          3.658498092398018e-9 3.3722221241240873e-9 2.1591679193729073e-9 1.949231272038252e-9 1.862799186052239e-9 1.6768218700407383e-9
          3.3791067855512997e-9 3.0919873550558075e-9 2.885331804238634e-9 1.946230719531376e-9 1.7402224404159934e-9 2.860874494557984e-9
          2.619717447954624e-9 1.5656103803805072e-9 1.4022894290507956e-9 2.402018185739031e-9 2.1900712420298808e-9 6.714300094820095e-9
          6.672237510280808e-9 6.768530313790855e-9 6.728733547757858e-9 6.558759060276723e-9 6.6203531053340915e-9 6.437128763132684e-9
          6.397020988206419e-9 6.4336263350645236e-9 6.282461026092305e-9 6.788890481950079e-9 6.7501031960344886e-9 6.775156741215442e-9
          6.7326629701537675e-9 6.640890795794687e-9 6.605449892740035e-9 6.480972688999656e-9 6.4527079321814025e-9 6.478259448297417e-9
          6.377270699447532e-9 6.3997082386060824e-9 6.452589781317761e-9 6.198812807275227e-9 6.212079863471653e-9 6.125386379998065e-9
          6.2016173534692694e-9 5.957480859863726e-9 6.45098201472712e-9 6.391548665244278e-9 6.1692998474208245e-9 6.076971225683307e-9
          6.258403137102805e-9 6.276946902752222e-9 6.090433674642172e-9 4.4243913324830496e-9 4.548828215369712e-9 4.525562590416882e-9
          4.6418741885284615e-9 4.827517740675059e-9 4.894042703198938e-9 2.7271556696109214e-9 2.9773318101676287e-9 3.0638073357778742e-9
          3.553669559443382e-9 4.596934332228691e-9 4.697921490774238e-9 4.610651327051577e-9 4.699337246384409e-9 4.916601670972875e-9
          4.89520493828464e-9 2.9055851659116353e-9 3.1292166751661196e-9 3.1809763406078915e-9 3.6542819776741832e-9 5.073689262917855e-9
          5.108043596170446e-9 5.162808427082717e-9 5.1721917058848985e-9 4.154886387308678e-9 4.193892686596328e-9 4.592623886158774e-9
          5.100486507581219e-9 5.053221860906861e-9 5.152096577648825e-9 5.09877720441642e-9 4.208179497728739e-9 4.193304154870711e-9
          4.585553724443378e-9 6.7027101271370934e-9 6.652581312160806e-9 6.559049030214825e-9 6.5118126970120695e-9 6.5108349929475366e-9
          6.373301255539737e-9 6.503253240558491e-9 6.474754687298464e-9 6.3933715720855246e-9 6.386371611429772e-9 6.3677626475498356e-9
          6.320374258454609e-9 6.101514433222194e-9 6.042022629109089e-9 6.1644138298415806e-9 5.854592992964659e-9 6.286347880008271e-9
          6.259939095431011e-9 6.090191723417188e-9 6.18320449676967e-9 6.286089080403085e-9 6.123169404628351e-9 5.929814482148835e-9
          5.706488616796402e-9 6.247708713886033e-9 6.178666459203435e-9 6.092764079098996e-9 5.865553129039948e-9 5.523896540239538e-9
          5.403959264154263e-9 5.056192532795855e-9 6.0582306437318895e-9 5.8706233308785836e-9 5.861200857207068e-9 4.58070565737938e-9
          4.66222676578918e-9 4.524417000043739e-9 4.5913941036949995e-9 4.835641700487093e-9 4.730339784591307e-9 3.0247613847914004e-9
          3.216033008860833e-9 3.2315165853815664e-9 3.6713602391317998e-9 4.414552061957429e-9 4.4662160007895376e-9 4.259735708222207e-9
          4.3121894046666734e-9 4.587758238088299e-9 4.434680803530201e-9 3.079008045544835e-9 3.229672539827217e-9 3.1627042114079675e-9
          3.572383661227772e-9 4.968625286360159e-9 4.851575216041618e-9 5.0157045764808665e-9 4.912643075349132e-9 4.14267815494892e-9