<?xml version="1.0"?>
<VTKFile type="UnstructuredGrid" version="0.1" byte_order="LittleEndian" header_type="UInt32" compressor="vtkZLibDataCompressor">
  <UnstructuredGrid>
    <Piece NumberOfPoints="1366" NumberOfCells="848">
      <PointData>
        <DataArray type="Int32" Name="libmesh_node_id" format="ascii" RangeMin="1136" RangeMax="12547">
          1322 1323 1351 1374 1414 1415
          1416 1443 1466 1533 1534 1535
          1537 1538 1539 1540 1542 1543
          1545 1561 1562 1563 1564 1565
          1566 1567 1568 1569 1570 1571
          1572 1573 1574 1609 1611 1612
          1613 1614 1615 1617 1618 1805
          1810 1814 1815 1816 1817 1818
          1819 1820 1821 1822 1823 1824
          1825 1826 1827 1872 1873 1874
          1875 1876 1877 1878 1879 1880
          1881 1966 1967 1970 1971 1973
          1976 1977 1978 1979 1980 1981
          1982 1983 1984 1985 2676 2677
          2682 2684 2685 2686 2687 2688
          2689 2690 2694 2695 2696 2718
          2719 2720 2721 2722 2723 2724
          2725 2726 2727 2728 2729 2730
          2731 2732 2733 2734 2735 2736
          2737 2738 2739 2740 2741 2830
          2831 2832 2833 2834 2835 2836
          2837 2838 2839 2840 2841 2842
          2843 2844 2845 2846 2847 2848
          2849 2850 2851 2852 2853 3021
          3022 3023 3024 3025 3026 3027
          3045 3046 3047 3048 3049 3050
          3051 3052 3053 3054 3055 3056
          3057 3058 3059 3060 3061 3062
          3063 3064 3065 3066 3067 3068
          4420 4421 4423 4426 4457 4458
          4460 4463 4479 4480 4481 4482
          4483 4484 4485 4486 4487 4488
          4489 4490 4491 4492 4493 4494
          4495 4496 4497 4498 4499 4500
          4501 4502 4503 4504 4505 4506
          4527 4528 4529 4530 4531 4532
          4533 4534 4535 4536 4537 4538
          4539 4540 4541 4542 4543 4544
          4545 4546 4690 4691 4692 4693
          4694 4695 4696 4697 4698 4699
          4700 4701 4702 4703 4704 4705
          4706 4707 4708 4709 4710 4711
          4712 4713 4714 4715 4716 4717
          4718 4719 4720 4721 4722 4723
          4724 4725 4726 4727 4728 4729
          4730 4731 4732 4733 4734 4735
          4736 4737 4738 4739 4740 4741
          4742 4743 4744 4745 4746 4747
          4748 4749 4750 4751 4752 4753
          4754 4755 4756 4757 4758 4759
          4760 4761 4762 4763 4764 4785
          4787 4789 4790 4791 4849 4850
          4851 4852 4853 4854 4855 4856
          4857 4858 4859 4860 4861 4862
          4863 4864 4865 4883 4884 4885
          4886 4887 4888 4889 4890 4891
          4892 4999 5000 5001 5002 5003
          5004 5005 5006 5007 5008 5009
          5010 5011 5012 5013 5014 5015
          5016 5017 5018 5019 5020 5021
          5022 5023 5024 5025 5026 5027
          5028 5029 5030 5031 5032 5033
          5034 5035 5036 5037 5038 5039
          5040 5041 5042 5057 5058 5059
          5060 5061 5062 5063 5064 5065
          5066 5067 5068 5069 5070 5071
          5072 5073 5074 5075 5076 5077
          5079 5084 5086 5088 5119 5120
          5121 5122 5123 5124 5125 5126
          5127 5128 5129 5130 5131 5132
          10569 10586 10600 10601 10603 10606
          10616 10618 10620 10699 10829 10830
          10832 10835 10845 10847 10849 10863
          10864 10866 10869 10879 10881 10883
          10997 10998 10999 11000 11001 11002
          11003 11004 11005 11006 11007 11008
          11009 11010 11011 11012 11013 11014
          11015 11016 11017 11018 11019 11020
          11021 11022 11023 11024 11025 11026
          11027 11028 11029 11030 11031 11032
          11033 11034 11035 11036 11037 11038
          11039 11040 11041 11042 11043 11044
          11045 11046 11047 11048 11049 11050
          11051 11052 11053 11054 11055 11056
          11057 11058 11059 11060 11061 11062
          11063 11064 11065 11066 11067 11068
          11069 11070 11071 11072 11073 11074
          11075 11076 11077 11078 11079 11080
          11081 11082 11083 11084 11085 11086
          11087 11088 11089 11090 11091 11092
          11093 11094 11095 11096 11097 11098
          11099 11100 11101 11102 11103 11104
          11105 11106 11107 11108 11109 11110
          11111 11112 11113 11114 11115 11116
          11117 11118 11119 11120 11121 11122
          11123 11124 11125 11126 11127 11128
          11129 11130 11131 11132 11133 11134
          11135 11136 11137 11138 11139 11140
          11141 11142 11143 11144 11145 11146
          11147 11151 11152 11154 11155 11156
          11157 11161 11162 11212 11213 11214
          11215 11216 11217 11218 11219 11220
          11229 11230 11231 11232 11259 11260
          11261 11262 11263 11264 11265 11266
          11267 11268 11269 11270 11271 11272
          11273 11274 11275 11276 11277 11278
          11279 11280 11281 11282 11283 11284
          11285 11286 11287 11288 11289 11290
          11291 11292 11293 11294 11295 11296
          11297 11298 11299 11300 11301 11302
          11303 11304 11305 11306 11307 11308
          11309 11310 11311 11312 11313 11314
          11315 11316 11317 11318 11319 11320
          11321 11322 11323 11324 11325 11326
          11327 11328 11329 11330 11331 11332
          11333 11334 11335 11336 11337 11338
          11339 11340 11341 11342 11343 11344
          11345 11346 11347 11348 11349 11350
          11351 11352 11353 11354 11355 11356
          11357 11358 11359 11360 11361 11362
          11363 11364 11365 11366 11367 11368
          11369 11370 11371 11372 11373 11374
          11375 11376 11377 11378 11379 11380
          11381 11382 11383 11384 11385 11386
          11387 11388 11389 11390 11391 11392
          11393 11394 12231 12232 12233 12234
          12235 12236 12237 12238 12239 12240
          12241 12242 12243 12244 12245 12246
          12247 12248 12249 12250 12251 12252
          12253 12254 12255 12256 12257 12258
          12259 12260 12261 12262 12263 12264
          12265 12266 12267 12268 12269 12270
          12271 12272 12273 12274 12275 12276
          12277 12278 12279 12280 12281 12282
          12283 12284 12285 12286 12287 12288
          12289 12290 12291 12292 12293 12294
          12295 12296 12297 12298 12299 12300
          12301 12302 12303 12304 12305 12306
          12307 12308 12309 12310 12311 12312
          12313 12314 12315 12316 12317 12318
          12319 12320 12321 12322 12323 12324
          12325 12326 12327 12328 12329 12330
          12331 12332 12333 12334 12335 12336
          12337 12338 12339 12340 12341 12342
          12343 12344 12345 12346 12347 12348
          12349 12350 12351 12352 12353 12354
          12355 12356 12357 12358 12359 12360
          12361 12362 12363 12364 12365 12366
          12367 12368 12369 12370 12371 12372
          12373 12374 12375 12376 12377 12378
          12379 12380 12381 12382 12383 12384
          12385 12386 12387 12388 12389 12390
          12391 12392 12393 12394 12395 12396
          12397 12398 12399 12400 12401 12402
          12403 12404 12405 12406 12407 12408
          12409 12410 12411 12412 12413 12414
          12415 12416 12417 12418 12419 12420
          12421 12422 12423 12424 12425 12426
          12427 12428 12429 12430 12431 12432
          12433 12434 12435 12436 12437 12438
          12439 12440 12441 12442 12443 12444
          12445 12446 12447 12448 12449 12450
          12451 12452 12453 12454 12455 12456
          12457 12458 12459 12460 12461 12462
          12463 12464 12465 12466 12467 12468
          12469 12470 12471 12472 12473 12474
          12475 12476 12477 12478 12479 12480
          12481 12482 12483 12484 12485 12486
          12487 12488 12489 12490 12491 12492
          12493 12494 12495 12496 12497 12498
          12499 12500 12501 12502 12503 12504
          12505 12506 12507 12508 12509 12510
          12511 12512 12513 12514 12515 12516
          12517 12518 12519 12520 12521 12522
          12523 12524 12525 12526 12527 12528
          12529 12530 12531 12532 12533 12534
          12535 12536 12537 12538 12539 12540
          12541 12542 12543 12544 12545 12546
          12547 1136 1138 1139 1137 1228
          1230 1231 1229 1232 1233 1324
          1325 1259 1258 1321 1350 1260
          1352 1282 1281 1373 1283 1375
          1326 1327 1418 1419 1417 1444
          1442 1465 1467 1536 1541 1601
          1528 1610 1602 1605 1546 1616
          1607 1866 1867 1868 1871 1320
          1523 1960 1961 1968 1969 1962
          1972 1974 1965 1975 1800 1804
          1801 1830 1809 1831 1834 1836
          2710 2711 2714 2664 2665 2666
          3028 3029 2669 3030 1806 4519
          4517 4520 4518 4523 4647 4667
          4669 2825 4786 2826 4788 2829
          1792 1828 1832 3040 3041 3044
          3071 3072 3075 1544 3077 4641
          4642 4645 2693 4682 4683 4686
          2716 4688 4388 4389 4390 4393
          1802 4396 2672 4987 5078 4988
          5080 5081 5082 4991 5083 4507
          4437 4509 5085 5087 5089 5090
          10559 10562 10563 10560 10567 10568
          10566 10565 10570 10581 10579 10585
          10584 10583 10587 10598 10599 10602
          10604 10605 10607 10615 10617 10619
          10621 10694 10692 10698 10697 10696
          4438 10700 10729 10728 10731 10730
          10733 10732 10827 10828 10831 10833
          10834 10836 10844 10846 10848 10850
          10861 10862 10865 10867 10868 10870
          10878 10880 10882 10884 10949 10948
          10953 10952 10977 10976 10981 10980
          10561 10580 10693 11148 11149 11150
          11153 4508 11158 11159 11160 11163
          4510 11184 11185 11186 11187 11188
          11189 11191 11192 11193 11194 11195
          11196 11221 11222 11223 11224 11225
          11226 11227 11233 11234 11235 11236
          11237 11238 4524 4525 11395 11396
          11399 11400 11402 11403 11406 11407
          11423 11424 11427 11428 11430 11431
          11434 11435 11451 11452 11455 11456
          11458 11459 11462 11463 11479 11480
          11483 11484 11486 11487 11490 11491
          11251 11252 11255 11257 11461 4555
          11473 11475 11477 4557 11489 4559
          11501 11503 11505 1812 12019 12105
          12107 12109 12136 12138 12140 4671
          12126 12150 12152 12154
        </DataArray>
        <DataArray type="Float64" Name="bounds" format="ascii" RangeMin="0" RangeMax="0">
          0 0 0 0 0 0
          0 0 0 0 0 0
          0 0 0 0 0 0
          0 0 0 0 0 0
          0 0 0 0 0 0
          0 0 0 0 0 0
          0 0 0 0 0 0
          0 0 0 0 0 0
          0 0 0 0 0 0
          0 0 0 0 0 0
          0 0 0 0 0 0
          0 0 0 0 0 0
          0 0 0 0 0 0
          0 0 0 0 0 0
          0 0 0 0 0 0
          0 0 0 0 0 0
          0 0 0 0 0 0
          0 0 0 0 0 0
          0 0 0 0 0 0
          0 0 0 0 0 0
          0 0 0 0 0 0
          0 0 0 0 0 0
          0 0 0 0 0 0
          0 0 0 0 0 0
          0 0 0 0 0 0
          0 0 0 0 0 0
          0 0 0 0 0 0
          0 0 0 0 0 0
          0 0 0 0 0 0
          0 0 0 0 0 0
          0 0 0 0 0 0
          0 0 0 0 0 0
          0 0 0 0 0 0
          0 0 0 0 0 0
          0 0 0 0 0 0
          0 0 0 0 0 0
          0 0 0 0 0 0
          0 0 0 0 0 0
          0 0 0 0 0 0
          0 0 0 0 0 0
          0 0 0 0 0 0
          0 0 0 0 0 0
          0 0 0 0 0 0
          0 0 0 0 0 0
          0 0 0 0 0 0
          0 0 0 0 0 0
          0 0 0 0 0 0
          0 0 0 0 0 0
          0 0 0 0 0 0
          0 0 0 0 0 0
          0 0 0 0 0 0
          0 0 0 0 0 0
          0 0 0 0 0 0
          0 0 0 0 0 0
          0 0 0 0 0 0
          0 0 0 0 0 0
          0 0 0 0 0 0
          0 0 0 0 0 0
          0 0 0 0 0 0
          0 0 0 0 0 0
          0 0 0 0 0 0
          0 0 0 0 0 0
          0 0 0 0 0 0
          0 0 0 0 0 0
          0 0 0 0 0 0
          0 0 0 0 0 0
          0 0 0 0 0 0
          0 0 0 0 0 0
          0 0 0 0 0 0
          0 0 0 0 0 0
          0 0 0 0 0 0
          0 0 0 0 0 0
          0 0 0 0 0 0
          0 0 0 0 0 0
          0 0 0 0 0 0
          0 0 0 0 0 0
          0 0 0 0 0 0
          0 0 0 0 0 0
          0 0 0 0 0 0
          0 0 0 0 0 0
          0 0 0 0 0 0
          0 0 0 0 0 0
          0 0 0 0 0 0
          0 0 0 0 0 0
          0 0 0 0 0 0
          0 0 0 0 0 0
          0 0 0 0 0 0
          0 0 0 0 0 0
          0 0 0 0 0 0
          0 0 0 0 0 0
          0 0 0 0 0 0
          0 0 0 0 0 0
          0 0 0 0 0 0
          0 0 0 0 0 0
          0 0 0 0 0 0
          0 0 0 0 0 0
          0 0 0 0 0 0
          0 0 0 0 0 0
          0 0 0 0 0 0
          0 0 0 0 0 0
          0 0 0 0 0 0
          0 0 0 0 0 0
          0 0 0 0 0 0
          0 0 0 0 0 0
          0 0 0 0 0 0
          0 0 0 0 0 0
          0 0 0 0 0 0
          0 0 0 0 0 0
          0 0 0 0 0 0
          0 0 0 0 0 0
          0 0 0 0 0 0
          0 0 0 0 0 0
          0 0 0 0 0 0
          0 0 0 0 0 0
          0 0 0 0 0 0
          0 0 0 0 0 0
          0 0 0 0 0 0
          0 0 0 0 0 0
          0 0 0 0 0 0
          0 0 0 0 0 0
          0 0 0 0 0 0
          0 0 0 0 0 0
          0 0 0 0 0 0
          0 0 0 0 0 0
          0 0 0 0 0 0
          0 0 0 0 0 0
          0 0 0 0 0 0
          0 0 0 0 0 0
          0 0 0 0 0 0
          0 0 0 0 0 0
          0 0 0 0 0 0
          0 0 0 0 0 0
          0 0 0 0 0 0
          0 0 0 0 0 0
          0 0 0 0 0 0
          0 0 0 0 0 0
          0 0 0 0 0 0
          0 0 0 0 0 0
          0 0 0 0 0 0
          0 0 0 0 0 0
          0 0 0 0 0 0
          0 0 0 0 0 0
          0 0 0 0 0 0
          0 0 0 0 0 0
          0 0 0 0 0 0
          0 0 0 0 0 0
          0 0 0 0 0 0
          0 0 0 0 0 0
          0 0 0 0 0 0
          0 0 0 0 0 0
          0 0 0 0 0 0
          0 0 0 0 0 0
          0 0 0 0 0 0
          0 0 0 0 0 0
          0 0 0 0 0 0
          0 0 0 0 0 0
          0 0 0 0 0 0
          0 0 0 0 0 0
          0 0 0 0 0 0
          0 0 0 0 0 0
          0 0 0 0 0 0
          0 0 0 0 0 0
          0 0 0 0 0 0
          0 0 0 0 0 0
          0 0 0 0 0 0
          0 0 0 0 0 0
          0 0 0 0 0 0
          0 0 0 0 0 0
          0 0 0 0 0 0
          0 0 0 0 0 0
          0 0 0 0 0 0
          0 0 0 0 0 0
          0 0 0 0 0 0
          0 0 0 0 0 0
          0 0 0 0 0 0
          0 0 0 0 0 0
          0 0 0 0 0 0
          0 0 0 0 0 0
          0 0 0 0 0 0
          0 0 0 0 0 0
          0 0 0 0 0 0
          0 0 0 0 0 0
          0 0 0 0 0 0
          0 0 0 0 0 0
          0 0 0 0 0 0
          0 0 0 0 0 0
          0 0 0 0 0 0
          0 0 0 0 0 0
          0 0 0 0 0 0
          0 0 0 0 0 0
          0 0 0 0 0 0
          0 0 0 0 0 0
          0 0 0 0 0 0
          0 0 0 0 0 0
          0 0 0 0 0 0
          0 0 0 0 0 0
          0 0 0 0 0 0
          0 0 0 0 0 0
          0 0 0 0 0 0
          0 0 0 0 0 0
          0 0 0 0 0 0
          0 0 0 0 0 0
          0 0 0 0 0 0
          0 0 0 0 0 0
          0 0 0 0 0 0
          0 0 0 0 0 0
          0 0 0 0 0 0
          0 0 0 0 0 0
          0 0 0 0 0 0
          0 0 0 0 0 0
          0 0 0 0 0 0
          0 0 0 0 0 0
          0 0 0 0 0 0
          0 0 0 0 0 0
          0 0 0 0 0 0
          0 0 0 0 0 0
          0 0 0 0 0 0
          0 0 0 0 0 0
          0 0 0 0 0 0
          0 0 0 0 0 0
          0 0 0 0 0 0
          0 0 0 0 0 0
          0 0 0 0 0 0
          0 0 0 0 0 0
          0 0 0 0 0 0
          0 0 0 0 0 0
          0 0 0 0 0 0
          0 0 0 0
        </DataArray>
        <DataArray type="Float64" Name="gradient_error" format="ascii" RangeMin="3.811324967735289e-15" RangeMax="9.18983615967917e-11">
          1.1128033229633245e-13 4.910945102469362e-13 6.421356669922459e-13 5.601613372040441e-13 8.549209100208023e-14 1.6813551564755336e-13
          1.4417519490166917e-14 4.696562839426703e-13 8.039483657517951e-13 3.8455866910990593e-13 3.3744807653845107e-13 3.7202606848436606e-13
          1.0457083324025467e-13 2.2919153666659036e-14 6.846752936462257e-14 6.407874170673778e-13 1.833734897938029e-13 2.2241886279096208e-12
          3.976459272749619e-14 1.4963693377910507e-14 1.8666955119580967e-14 1.0417603240145321e-14 2.0748637898610645e-14 1.0069702613773966e-14
          6.105564881189836e-15 1.4197025140885781e-14 2.237021686125143e-14 3.1178983852341e-14 2.2288485400581725e-14 1.1199538744513622e-14
          2.394499810750092e-14 1.8324347667997593e-14 3.998775084343058e-14 7.040374428580929e-13 1.7163488045154855e-13 2.0660555028633997e-13
          1.1126710024896836e-13 1.167671162688781e-13 9.313585595259992e-14 2.415762201211314e-13 1.2226713228878787e-13 2.5681257221485896e-13
          6.155017856558032e-11 6.556588587769941e-14 5.877208182913498e-14 5.234376390631731e-14 5.126494382599644e-14 2.310599170669414e-14
          3.625353140210001e-14 2.952617402305537e-14 5.875628583205374e-14 4.588887446193555e-14 2.955143142668453e-14 8.689534080465809e-14
          2.0436544412744186e-13 6.310384631926046e-14 8.963294942153514e-14 2.520832302526328e-13 3.900427276285546e-13 3.3484698515576904e-13
          3.897576104921254e-13 2.572242177087537e-13 9.863106159878928e-14 1.8252945021310818e-13 5.280022250044763e-13 4.4466823582848175e-13
          2.664278388274271e-13 1.0226181086925818e-12 9.524854282876155e-13 3.1657839758203796e-13 4.977804698791605e-13 6.909961198672148e-13
          6.631522830272411e-14 6.175660321353557e-14 4.307737964460698e-14 4.789228280033554e-14 6.056417739219704e-14 7.01299969277761e-14
          5.026663258502058e-14 5.906999982696914e-14 5.2707185956064094e-14 7.969581646335517e-14 1.8805931953667958e-11 1.3556817963463178e-11
          4.8957011950994685e-11 2.978210195243934e-13 2.390513751627174e-13 3.6307222280759456e-12 2.6110138849397666e-12 2.0688316649932277e-13
          5.724307918518122e-13 4.105718869870198e-13 1.3089183173405504e-11 1.0113888254843852e-11 1.6830772236235231e-12 8.774929346209297e-14
          7.362744699825974e-14 1.0035999285911375e-13 1.0267063126298797e-13 5.1316569136955734e-14 1.1629447537554354e-13 1.3692528839375897e-13
          6.872396954669719e-14 1.5850423391923212e-13 1.292653845276691e-13 3.029893622497572e-13 2.266821304925969e-13 2.794429962017115e-13
          1.315278819078987e-13 8.315142134622337e-14 1.3664668106967996e-13 5.554911985401987e-14 9.433466881093629e-14 7.990667956780722e-14
          1.1912060606778224e-13 7.11898694791056e-14 1.9058604214955338e-13 1.1783962076946952e-13 1.3704886188338417e-13 9.4255231609025e-14
          8.101590745963015e-14 1.0126882110302244e-13 8.804279081734006e-14 2.9493792127050386e-14 3.3616005310156606e-14 3.1789781947328866e-14
          6.777658331023531e-14 7.48167605316577e-14 2.996355858450113e-14 5.20671341505327e-15 4.7304762478539325e-15 2.657434180540001e-14
          2.039645536039836e-14 3.811324967735289e-15 9.33797320039885e-15 7.590015218662633e-15 4.254239080654595e-15 1.421856891539671e-14
          5.842057236926417e-15 4.794197019574675e-14 3.606243447294279e-14 1.1368705469589976e-14 2.4182898750138825e-14 2.8041471496963875e-13
          2.5775370919922393e-13 1.9579346937804213e-13 1.7626435452447266e-13 9.213261038659401e-14 1.06570088985259e-13 9.553213831587767e-14
          2.6844029523790713e-14 2.434136811737438e-14 7.337685949289734e-14 6.462448822841987e-14 1.826245090194312e-14 3.751332114356398e-14
          3.2449940764731393e-14 1.9847118515965627e-14 4.47422707759168e-14 2.0488213071181226e-14 6.87069250199979e-14 5.944027143817008e-14
          6.544602218287564e-14 1.085635981137776e-13 2.9186627760176946e-14 6.05183980348333e-14 5.6822160267029007e-14 4.050668308938971e-14
          1.0851517730269878e-13 4.378392921283807e-14 7.359286086751375e-14 1.6404830836170216e-13 8.445769277388107e-14 1.7652367151600784e-13
          3.4655067299105177e-12 3.226905014082104e-12 2.6073117887882606e-12 1.73249064697424e-11 5.799265639908576e-11 5.3482028205241986e-11
          4.1853886659582987e-11 5.844797421859471e-11 7.002736658022346e-13 6.623892855405557e-13 1.538177284494229e-12 1.4320172619079518e-12
          2.821556491837341e-13 6.513947534588818e-13 6.063481097155079e-13 5.610483762921432e-13 1.1562855437656746e-12 4.888662167373453e-13
          8.470900041870639e-12 7.801078074353668e-12 3.3427331287516353e-12 6.098286536415652e-12 2.385056026633454e-13 2.2537683066371293e-13
          3.6858955464426325e-13 3.442260511026473e-13 2.646326226475163e-13 2.63670896249836e-13 2.472262157926285e-13 1.8930127956341987e-13
          2.804123040659718e-13 2.04003460733879e-13 1.4790944146594178e-12 1.361455667990213e-12 5.266517477469917e-13 1.0626332742593702e-12
          2.6617076976377777e-11 2.4520034672443667e-11 1.1577000967186488e-11 1.0655954863954664e-11 1.9133498698280362e-11 8.296512796733418e-12
          2.9208927310367125e-11 2.7601794687275118e-11 1.2319149534816994e-11 2.2869052856625654e-11 4.7749573612955816e-12 4.3921073456060106e-12
          1.868084919560144e-12 1.7173015098970056e-12 3.413462895435206e-12 1.332652631378706e-12 5.546572963808118e-12 5.2025673446530764e-12
          2.080371036444146e-12 4.237873973859999e-12 1.5814007887558948e-13 1.4782986496514253e-13 1.0529249807589417e-13 9.840925058810671e-14
          5.167425443267612e-14 6.948737220287404e-14 6.5085427174513e-14 1.199262832320711e-13 1.1182712821489407e-13 8.56154592137208e-14
          2.10209268175427e-13 1.9311219981011763e-13 9.297766433786124e-14 1.747899906380555e-13 8.736099067571583e-14 1.0732535614418382e-13
          3.5539763994031937e-14 9.141164301054274e-14 6.058951687360988e-14 9.698710994812084e-14 6.910791842980419e-14 1.4182617683053315e-13
          1.2450146730238126e-13 1.4865587611454233e-13 6.931847746848297e-13 6.367406814304387e-13 2.432551072201692e-13 2.2273086784399375e-13
          4.928139951609912e-13 1.7111363792453108e-13 8.44248074194601e-13 7.882257414106986e-13 2.8390037376730156e-13 6.33779670353641e-13
          1.1437959926941157e-13 1.0719712064024999e-13 1.2465511627234474e-13 1.4831521255733525e-13 1.1297510503272456e-13 1.2037232347803185e-13
          1.518041475019589e-13 8.6954584004987e-14 1.4859296931575554e-13 1.8523154652425078e-13 1.0256905962702912e-13 1.6401469430635268e-13
          1.5769360994497058e-13 1.9356569701401182e-13 3.20889469287341e-13 1.3290243777527915e-13 2.088938738530977e-13 1.6145096677974637e-13
          4.3075224588911733e-13 1.5147809694695844e-13 2.441369980171178e-13 8.970306411067495e-14 1.2648528801127623e-13 7.284735774922663e-14
          1.5548150817136782e-13 1.0196362698759883e-13 1.2971139524410276e-13 9.718756997297944e-14 1.3022711837407453e-13 1.9611629141167124e-13
          1.3006230690472794e-13 1.956610280646071e-13 2.1500408910140095e-13 1.4915072087982187e-13 1.8303689851969857e-13 1.7704404987342835e-13
          2.1495909638096136e-13 1.45164550032853e-13 1.7536303984606207e-13 1.8052546291094907e-13 2.098913658111045e-13 4.136230997352011e-13
          2.2164734698136041e-13 3.27606707618622e-13 4.590186577179198e-13 2.6046048202681787e-13 1.635371633150239e-14 2.674248668130039e-14
          1.2716378103700752e-14 1.3507707867215277e-14 1.485190234203158e-14 1.9872548774709612e-14 1.3425549977966912e-14 2.3384662988876096e-14
          4.4669064244619063e-14 1.2584758743106367e-14 2.2891233527715353e-14 1.5929577655315036e-14 2.3273896937409845e-14 1.1340531128979264e-14
          6.595346550036201e-14 3.319770831232434e-14 3.0618216219504654e-14 3.931267331350497e-14 6.137904121990747e-14 2.2256004772746185e-14
          2.6768375367234825e-14 2.4570932804131147e-14 3.060453678826983e-14 2.0081725859688958e-14 8.344540912630996e-14 3.128074596172347e-14
          3.66381407724085e-14 2.409735674867049e-14 2.3081449341267903e-14 5.83074192007969e-14 5.5206392028086306e-14 2.045048299889904e-14
          3.3164309616383266e-14 3.1385211969491495e-14 2.1442180263794945e-14 4.759960615985392e-14 2.7224420773848982e-14 2.111955796382088e-14
          3.7842536685868106e-14 1.5642081361008872e-14 2.3245035964198866e-14 2.142029733391719e-14 3.25912259074041e-14 2.1647344703299486e-14
          4.323499133125328e-14 8.573250259056298e-14 3.239578906234647e-14 5.1836253030232756e-14 3.7680014857271814e-14 6.160975751071214e-14
          4.227350496538626e-14 7.427196683600631e-14 9.9007632629026e-14 4.4175290900493e-14 5.764224087100247e-14 5.3527926490116006e-14
          6.916368288664423e-14 4.3112600609409594e-14 1.2374329842204567e-13 7.110919084151194e-14 8.479943928317242e-14 9.960122829539608e-14
          1.327185748616087e-13 6.123991296266402e-14 7.667144410934324e-14 6.575423137534497e-14 8.402307099827419e-14 5.510940071629494e-14
          1.6583592142782138e-13 9.210297525602244e-14 1.022919106212034e-13 2.0857752936494027e-13 2.0260598857196396e-13 6.224924150708202e-13
          5.927655553127246e-13 1.063569278654037e-13 2.752275893982034e-13 2.619573037722911e-13 1.8518276314070566e-13 5.119381992034144e-13
          2.2548599361500408e-13 5.765064742928344e-14 5.473546197107808e-14 1.0899504990508417e-13 1.039830632381891e-13 3.987338499219382e-14
          5.588501418145972e-14 5.340230402292779e-14 4.845063659593391e-14 8.992522082160371e-14 4.7520472416231147e-14 1.5843228603301002e-13
          8.283039368989694e-14 4.422736340513443e-14 3.104478910944035e-14 4.337373013127374e-14 6.12679528228973e-14 6.057797196434901e-14
          7.747510293169936e-14 7.622999828429212e-14 3.603410021852797e-14 4.6011739758067846e-14 4.809935455172521e-14 5.988799110580071e-14
          7.498489363688488e-14 5.018696934538257e-14 9.368225304050143e-14 9.188202460423524e-14 6.016460888492245e-14 9.008179616796905e-14
          3.404214390069198e-12 2.952145002513213e-12 8.25025298502314e-12 8.093066629351468e-12 7.639705068339268e-12 1.8423983710790702e-11
          6.941234325076944e-12 6.071960731242155e-12 1.5639511662079717e-11 2.2239635828216876e-12 3.754642232218817e-11 3.6761296320284303e-11
          3.450311626744786e-11 5.683281655410821e-11 3.104403694627058e-11 2.677798518102513e-11 4.830674971460117e-11 6.422312117404257e-11
          6.319715225373247e-11 6.016238073651185e-11 6.078553882892737e-11 5.527715369432649e-11 4.886875368232815e-11 5.447875270296271e-11
          5.516540089612933e-13 5.428725462520975e-13 9.56389212360143e-13 9.405723904561897e-13 3.5842209028993106e-13 6.315499205714661e-13
          6.211365682917433e-13 5.176557665512871e-13 8.948305108531664e-13 5.909522836708195e-13 2.3218097903801702e-12 2.2807001514257664e-12
          1.5109054645347842e-12 2.1617758705800474e-12 2.3764493711227884e-13 2.339746889692855e-13 4.122171915087162e-13 4.0544582679319743e-13
          1.5397917417454117e-13 2.660683027819592e-13 2.617193373736856e-13 2.2311041275298984e-13 3.8570471486890225e-13 2.4895839356111006e-13
          1.0073971387684236e-12 9.895130540247075e-13 6.398205780947726e-13 9.377803104415104e-13 4.787377043650525e-13 8.237984745418984e-13
          3.1608790835890906e-13 5.439859016700864e-13 4.2920547829478757e-13 7.339062351580011e-13 4.844824905272479e-13 1.977494647330126e-12
          1.309755208454029e-12 1.7462402565717066e-12 2.0593568924784747e-13 3.5486986609475226e-13 1.3512187549384029e-13 2.2892231193335065e-13
          1.8516172137195115e-13 3.161052303500878e-13 2.041662506542216e-13 8.575965810553003e-13 5.544553172206589e-13 7.566250405977528e-13
          5.550332777686398e-12 5.444398064239566e-12 3.690153373133371e-12 3.619609708240068e-12 5.138871726912083e-12 3.416159388828488e-12
          1.2700078258145925e-11 1.244155864420957e-11 8.298131246207136e-12 1.1697736773076843e-11 2.4247022887168017e-12 2.378282761541161e-12
          1.575167349956847e-12 1.544971817200564e-12 2.24440754318529e-12 1.4578860804133823e-12 5.580357187603146e-12 5.4663486108471276e-12
          3.5564337496308482e-12 5.1383695122071415e-12 4.668226435419313e-12 3.102763601396793e-12 4.082661983711032e-12 2.71301678195811e-12
          1.0557368712093219e-11 7.0391801014716666e-12 9.148656060663647e-12 2.0381600718390124e-12 1.3236968523614364e-12 1.781644323761871e-12
          1.1566051191100312e-12 4.635702065693522e-12 3.015237568841546e-12 4.01513075285579e-12 1.0817931327270519e-13 1.0647383619585467e-13
          1.6830617556321385e-13 1.655405338145281e-13 9.043899716529728e-14 1.291290977824381e-13 1.269826037860209e-13 1.014059078618958e-13
          1.5752866977960866e-13 1.2090893712826552e-13 4.147057085122672e-13 4.0733187233403315e-13 3.0541322914322783e-13 3.8604767313807296e-13
          9.329160935187001e-14 1.4493379011493818e-13 7.923588572612301e-14 1.1137997701896233e-13 8.384857351288157e-14 1.2928766177076485e-13
          9.922122153138749e-14 3.5304985903073773e-13 2.644572931606556e-13 3.1119646708547194e-13 1.0136554595134328e-12 9.942017319167764e-13
          6.432131369207688e-13 6.308504785659349e-13 9.380787780812388e-13 5.951691944409458e-13 2.3323233546666564e-12 2.2845341743182894e-12
          1.4487428346634044e-12 2.1470746919093185e-12 2.341318251812266e-13 2.2987168815504806e-13 3.9944514000676484e-13 3.917500508231116e-13
          1.3824074509509642e-13 2.446152841546733e-13 2.398783121029966e-13 2.1754769729387512e-13 3.6955373287936936e-13 2.2626776197324758e-13
          9.261611896038111e-13 9.071165744964614e-13 5.606176604140435e-13 8.523630305143516e-13 8.516098468154519e-13 5.402424728266307e-13
          7.437687884082862e-13 4.715944968875126e-13 1.936431328192304e-12 1.227711355106519e-12 1.676433550629955e-12 1.9860784457202443e-13
          3.3541069272298987e-13 1.200431293909172e-13 2.0535375828227222e-13 1.7440358479519593e-13 2.9269883586662787e-13 1.7917411152928215e-13
          7.685024118942686e-13 4.746654411140644e-13 6.650244850631987e-13 3.73144252337475e-13 6.32907964850533e-13 2.467625435779297e-13
          4.174976933033942e-13 1.4891601518862307e-12 9.856203755536637e-13 1.6397295321058088e-13 2.7210204383495635e-13 1.120741692736598e-13