<?xml version="1.0"?>
<VTKFile type="UnstructuredGrid" version="0.1" byte_order="LittleEndian" header_type="UInt32" compressor="vtkZLibDataCompressor">
  <UnstructuredGrid>
    <Piece NumberOfPoints="1205" NumberOfCells="851">
      <PointData>
        <DataArray type="Int32" Name="libmesh_node_id" format="ascii" RangeMin="1521" RangeMax="8916">
          1766 1768 1776 2538 2539 2540
          2541 2542 2543 2544 2548 2549
          2550 2552 2553 2554 2555 2562
          2563 2586 2587 2588 2589 2592
          2593 2594 2596 2597 2602 2603
          3835 3836 3837 3840 3843 3845
          3846 3847 3848 3849 3850 3851
          3852 3853 3854 3855 3856 3857
          3858 3861 3862 3867 3879 3880
          3881 3882 3883 3884 3885 3886
          3887 3888 3889 3890 3891 3892
          3893 3894 3895 3896 3900 3901
          3903 3904 3906 3969 3970 3972
          3975 3977 3978 3979 3980 3981
          3982 3983 3984 3985 3986 3988
          3992 4003 4004 4006 4009 4011
          4012 4013 4014 4015 4016 4017
          4018 4019 4020 4022 4026 4035
          4036 4037 4038 4039 4040 4041
          4042 4043 4044 4045 4046 4049
          4051 4052 4054 4069 4070 4071
          4072 4073 4074 4075 4076 4077
          4078 4079 4080 4085 4086 7479
          7480 7481 7482 7483 7484 7485
          7486 7487 7488 7489 7490 7491
          7492 7503 7504 7505 7506 7507
          7508 7509 7510 7511 7512 7513
          7514 7515 7516 7517 7518 7519
          7520 7521 7522 7523 7524 7525
          7526 7527 7528 7529 7530 7531
          7532 7533 7534 7535 7536 7537
          7538 7539 7540 7541 7542 7543
          7544 7545 7546 7547 7548 7549
          7550 7551 7552 7553 7554 7555
          7556 7557 7558 7559 7560 7571
          7572 7573 7574 7575 7576 7577
          7578 7579 7580 7601 7602 7603
          7604 7605 7606 7608 7609 7610
          7611 7612 7613 7614 7618 7619
          7641 7642 7643 7644 7645 7646
          7647 7648 7649 7650 7651 7652
          7653 7654 7655 7656 7657 7658
          7659 7660 7661 7662 7663 7664
          7665 7666 7667 7668 7669 7670
          7671 7672 7673 7674 7675 7676
          7677 7678 7679 7680 7681 7682
          7683 7684 7685 7686 7687 7688
          7689 7690 7691 7692 7693 7694
          7695 7696 7697 7698 7699 7700
          7701 7702 7703 7704 7705 7706
          7710 7711 7717 7718 7719 7720
          7721 7722 7723 7724 7725 7726
          7727 7728 7731 7732 7737 7738
          7739 7740 7744 7745 7747 7748
          7749 7750 7754 7755 7777 7778
          7779 7780 7784 7785 7787 7788
          7957 7958 7959 7960 7961 7962
          7963 7964 7965 7966 7974 7975
          7976 7977 7978 7979 7980 7991
          7992 7993 7994 7995 7996 7997
          7998 7999 8000 8008 8009 8010
          8011 8012 8013 8014 8015 8016
          8017 8018 8019 8020 8021 8022
          8023 8024 8025 8026 8027 8028
          8029 8030 8031 8032 8033 8034
          8035 8036 8037 8038 8039 8040
          8041 8042 8043 8044 8045 8046
          8047 8048 8049 8050 8051 8052
          8053 8054 8055 8056 8057 8058
          8059 8060 8061 8062 8063 8064
          8065 8066 8067 8068 8069 8070
          8071 8072 8073 8074 8075 8076
          8077 8078 8079 8080 8081 8082
          8090 8091 8092 8093 8094 8095
          8096 8118 8119 8120 8121 8122
          8123 8124 8139 8140 8141 8143
          8144 8145 8146 8147 8150 8151
          8167 8168 8169 8171 8172 8173
          8174 8175 8178 8179 8205 8206
          8207 8208 8209 8210 8211 8212
          8213 8214 8222 8223 8224 8225
          8226 8227 8228 8239 8240 8241
          8242 8243 8244 8245 8246 8247
          8248 8256 8257 8258 8259 8260
          8261 8262 8263 8264 8265 8266
          8267 8268 8269 8270 8271 8272
          8273 8274 8275 8276 8277 8278
          8279 8280 8281 8282 8283 8284
          8285 8286 8287 8288 8289 8290
          8291 8292 8293 8294 8295 8296
          8297 8298 8299 8300 8301 8302
          8303 8304 8305 8306 8307 8308
          8309 8310 8311 8312 8313 8314
          8315 8316 8317 8318 8319 8320
          8321 8322 8323 8324 8325 8326
          8327 8328 8329 8330 8338 8339
          8340 8341 8342 8343 8344 8366
          8367 8368 8369 8370 8371 8372
          8387 8388 8389 8391 8392 8393
          8394 8395 8398 8399 8415 8416
          8417 8419 8420 8421 8422 8423
          8426 8427 8443 8444 8445 8446
          8447 8448 8449 8450 8451 8452
          8453 8454 8455 8456 8457 8458
          8459 8460 8461 8462 8463 8464
          8465 8466 8467 8468 8469 8470
          8471 8472 8473 8474 8475 8476
          8477 8478 8479 8480 8481 8482
          8483 8484 8485 8486 8487 8488
          8489 8490 8491 8492 8493 8494
          8495 8496 8497 8498 8499 8500
          8501 8502 8503 8504 8505 8506
          8507 8508 8509 8510 8511 8512
          8513 8514 8515 8516 8517 8518
          8519 8520 8531 8532 8533 8534
          8535 8536 8537 8545 8546 8547
          8548 8549 8550 8551 8552 8553
          8554 8565 8566 8567 8568 8569
          8570 8571 8579 8580 8583 8584
          8586 8587 8590 8591 8607 8608
          8611 8612 8614 8615 8618 8619
          8635 8636 8639 8640 8663 8664
          8667 8668 8691 8692 8693 8694
          8695 8696 8697 8698 8699 8700
          8701 8702 8703 8704 8705 8706
          8707 8708 8709 8710 8711 8712
          8713 8714 8715 8716 8717 8718
          8719 8720 8721 8722 8723 8724
          8725 8726 8727 8728 8729 8730
          8731 8732 8733 8734 8735 8736
          8737 8738 8739 8740 8741 8742
          8743 8744 8745 8746 8747 8748
          8749 8750 8751 8752 8753 8754
          8755 8756 8757 8758 8759 8760
          8761 8762 8763 8764 8765 8766
          8767 8768 8779 8780 8781 8782
          8783 8784 8785 8793 8794 8795
          8796 8797 8798 8799 8800 8801
          8802 8813 8814 8815 8817 8818
          8819 8827 8828 8831 8832 8855
          8856 8859 8860 1951 1958 1959
          1952 1521 1767 1756 1961 1962
          1524 1770 2474 2475 2476 2545
          2546 2479 2547 2556 2557 2558
          2559 2560 2561 3831 3832 3833
          3834 3838 3839 3859 3860 3863
          3865 3864 3869 3870 3871 3872
          3873 3874 3897 3898 3899 3902
          3907 3908 3909 3910 3917 3918
          3919 3920 7469 7470 7471 7474
          3841 7477 3842 7495 7496 7499
          7501 3844 7563 7564 7567 7569
          3866 7591 7583 7592 7584 7593
          7594 7598 7589 7599 7607 3876
          7615 7616 7617 7620 3877 7621
          7622 7623 7624 7628 7629 7707
          7708 7709 7712 7713 7714 1771
          7715 7716 3905 7729 7730 7733
          7734 7735 7736 2564 7741 7742
          7743 7746 3914 7751 7752 7753
          7756 3915 7781 7782 7783 7786
          3924 7789 7790 7791 7792 7793
          7794 7795 7796 3925 7949 7950
          7952 3967 7955 3968 7968 7970
          7972 3971 7983 7984 7986 3973
          7989 3974 8002 8004 8006 3976
          8084 8086 8088 3987 8104 8098
          8105 8108 8102 8109 8112 8114
          8116 3991 8132 8126 8133 8136
          8130 8137 8142 3994 8148 8149
          8152 3995 8153 8154 8157 8158
          8170 3998 8176 8177 8180 3999
          8181 8182 8185 8186 8197 8198
          8200 4001 8203 4002 8216 8218
          8220 4005 8231 8232 8234 4007
          8237 4008 8250 8252 8254 4010
          8332 8334 8336 4021 8352 8346
          8353 8356 8350 8357 8360 8362
          8364 4025 8380 8374 8381 8384
          8378 8385 8390 4028 8396 8397
          8400 4029 8401 8402 8405 8406
          8418 4032 8424 8425 8428 4033
          8429 8430 8433 8434 8521 8522
          8525 8527 8528 8530 8538 8540
          8542 8544 8555 8556 8559 8561
          8562 8564 8572 8574 8576 8578
          8581 8582 8585 4055 8588 8589
          8592 4056 8609 8610 8613 4059
          8616 8617 8620 4060 8637 8638
          8641 4062 8642 8644 8646 8648
          8665 8666 8669 4066 8670 8672
          8674 8676 8769 8770 8773 8775
          8776 8778 4083 8786 8788 8790
          8792 8803 8804 8807 8809 8810
          8812 8816 4088 8820 8822 8824
          8826 8829 8830 8833 4089 8834
          8835 8836 8837 8838 8839 8840
          8857 8858 8861 4093 8862 8863
          8864 8866 8867 8868 8883 8884
          8885 8886 8887 8888 8890 8892
          8894 8911 8912 8915 8916
        </DataArray>
        <DataArray type="Float64" Name="bounds" format="ascii" RangeMin="0" RangeMax="0">
          0 0 0 0 0 0
          0 0 0 0 0 0
          0 0 0 0 0 0
          0 0 0 0 0 0
          0 0 0 0 0 0
          0 0 0 0 0 0
          0 0 0 0 0 0
          0 0 0 0 0 0
          0 0 0 0 0 0
          0 0 0 0 0 0
          0 0 0 0 0 0
          0 0 0 0 0 0
          0 0 0 0 0 0
          0 0 0 0 0 0
          0 0 0 0 0 0
          0 0 0 0 0 0
          0 0 0 0 0 0
          0 0 0 0 0 0
          0 0 0 0 0 0
          0 0 0 0 0 0
          0 0 0 0 0 0
          0 0 0 0 0 0
          0 0 0 0 0 0
          0 0 0 0 0 0
          0 0 0 0 0 0
          0 0 0 0 0 0
          0 0 0 0 0 0
          0 0 0 0 0 0
          0 0 0 0 0 0
          0 0 0 0 0 0
          0 0 0 0 0 0
          0 0 0 0 0 0
          0 0 0 0 0 0
          0 0 0 0 0 0
          0 0 0 0 0 0
          0 0 0 0 0 0
          0 0 0 0 0 0
          0 0 0 0 0 0
          0 0 0 0 0 0
          0 0 0 0 0 0
          0 0 0 0 0 0
          0 0 0 0 0 0
          0 0 0 0 0 0
          0 0 0 0 0 0
          0 0 0 0 0 0
          0 0 0 0 0 0
          0 0 0 0 0 0
          0 0 0 0 0 0
          0 0 0 0 0 0
          0 0 0 0 0 0
          0 0 0 0 0 0
          0 0 0 0 0 0
          0 0 0 0 0 0
          0 0 0 0 0 0
          0 0 0 0 0 0
          0 0 0 0 0 0
          0 0 0 0 0 0
          0 0 0 0 0 0
          0 0 0 0 0 0
          0 0 0 0 0 0
          0 0 0 0 0 0
          0 0 0 0 0 0
          0 0 0 0 0 0
          0 0 0 0 0 0
          0 0 0 0 0 0
          0 0 0 0 0 0
          0 0 0 0 0 0
          0 0 0 0 0 0
          0 0 0 0 0 0
          0 0 0 0 0 0
          0 0 0 0 0 0
          0 0 0 0 0 0
          0 0 0 0 0 0
          0 0 0 0 0 0
          0 0 0 0 0 0
          0 0 0 0 0 0
          0 0 0 0 0 0
          0 0 0 0 0 0
          0 0 0 0 0 0
          0 0 0 0 0 0
          0 0 0 0 0 0
          0 0 0 0 0 0
          0 0 0 0 0 0
          0 0 0 0 0 0
          0 0 0 0 0 0
          0 0 0 0 0 0
          0 0 0 0 0 0
          0 0 0 0 0 0
          0 0 0 0 0 0
          0 0 0 0 0 0
          0 0 0 0 0 0
          0 0 0 0 0 0
          0 0 0 0 0 0
          0 0 0 0 0 0
          0 0 0 0 0 0
          0 0 0 0 0 0
          0 0 0 0 0 0
          0 0 0 0 0 0
          0 0 0 0 0 0
          0 0 0 0 0 0
          0 0 0 0 0 0
          0 0 0 0 0 0
          0 0 0 0 0 0
          0 0 0 0 0 0
          0 0 0 0 0 0
          0 0 0 0 0 0
          0 0 0 0 0 0
          0 0 0 0 0 0
          0 0 0 0 0 0
          0 0 0 0 0 0
          0 0 0 0 0 0
          0 0 0 0 0 0
          0 0 0 0 0 0
          0 0 0 0 0 0
          0 0 0 0 0 0
          0 0 0 0 0 0
          0 0 0 0 0 0
          0 0 0 0 0 0
          0 0 0 0 0 0
          0 0 0 0 0 0
          0 0 0 0 0 0
          0 0 0 0 0 0
          0 0 0 0 0 0
          0 0 0 0 0 0
          0 0 0 0 0 0
          0 0 0 0 0 0
          0 0 0 0 0 0
          0 0 0 0 0 0
          0 0 0 0 0 0
          0 0 0 0 0 0
          0 0 0 0 0 0
          0 0 0 0 0 0
          0 0 0 0 0 0
          0 0 0 0 0 0
          0 0 0 0 0 0
          0 0 0 0 0 0
          0 0 0 0 0 0
          0 0 0 0 0 0
          0 0 0 0 0 0
          0 0 0 0 0 0
          0 0 0 0 0 0
          0 0 0 0 0 0
          0 0 0 0 0 0
          0 0 0 0 0 0
          0 0 0 0 0 0
          0 0 0 0 0 0
          0 0 0 0 0 0
          0 0 0 0 0 0
          0 0 0 0 0 0
          0 0 0 0 0 0
          0 0 0 0 0 0
          0 0 0 0 0 0
          0 0 0 0 0 0
          0 0 0 0 0 0
          0 0 0 0 0 0
          0 0 0 0 0 0
          0 0 0 0 0 0
          0 0 0 0 0 0
          0 0 0 0 0 0
          0 0 0 0 0 0
          0 0 0 0 0 0
          0 0 0 0 0 0
          0 0 0 0 0 0
          0 0 0 0 0 0
          0 0 0 0 0 0
          0 0 0 0 0 0
          0 0 0 0 0 0
          0 0 0 0 0 0
          0 0 0 0 0 0
          0 0 0 0 0 0
          0 0 0 0 0 0
          0 0 0 0 0 0
          0 0 0 0 0 0
          0 0 0 0 0 0
          0 0 0 0 0 0
          0 0 0 0 0 0
          0 0 0 0 0 0
          0 0 0 0 0 0
          0 0 0 0 0 0
          0 0 0 0 0 0
          0 0 0 0 0 0
          0 0 0 0 0 0
          0 0 0 0 0 0
          0 0 0 0 0 0
          0 0 0 0 0 0
          0 0 0 0 0 0
          0 0 0 0 0 0
          0 0 0 0 0 0
          0 0 0 0 0 0
          0 0 0 0 0 0
          0 0 0 0 0 0
          0 0 0 0 0 0
          0 0 0 0 0 0
          0 0 0 0 0 0
          0 0 0 0 0 0
          0 0 0 0 0 0
          0 0 0 0 0 0
          0 0 0 0 0 0
          0 0 0 0 0 0
          0 0 0 0 0 0
          0 0 0 0 0
        </DataArray>
        <DataArray type="Float64" Name="gradient_error" format="ascii" RangeMin="1.97383134144621e-12" RangeMax="5.620418114937083e-9">
          9.82685808708375e-11 1.0238500791576375e-10 2.374143247475427e-9 3.464517989055081e-10 3.042025881651494e-10 2.8264525260136876e-10
          2.433894576631508e-10 1.1110936498644907e-10 1.039264039790337e-10 8.938805164541047e-11 2.4616611916053697e-10 1.967589223502266e-10
          8.105216250598696e-11 4.2433068521743954e-11 3.741839081312035e-11 3.446210398826962e-11 2.970118903511601e-11 3.603327217450986e-11
          2.837020431166631e-11 2.9387149376958737e-9 2.2944828203909804e-9 1.6629626424321641e-9 1.278944178192297e-9 2.2801525485165304e-9
          3.645900701732128e-9 2.3719660864273306e-9 7.693219019828575e-10 5.729347840327107e-10 1.3409452051882056e-9 1.3146855890072812e-9
          2.0921646971757665e-10 1.4750935532778364e-10 1.4074008413690867e-10 1.222346155552251e-10 2.327435846504589e-10 1.3586748860555126e-10
          1.2982298130590463e-10 9.204517599375677e-11 8.776745002970045e-11 7.775966889452393e-11 5.5296878934273457e-11 5.269809242065425e-11
          1.1311782224168747e-10 7.609864346219164e-11 4.5626498290399444e-11 1.6214123006050748e-10 1.530858597948562e-10 9.656171766789886e-11
          1.2890009150090658e-10 1.4584335698974118e-10 9.683761156747676e-11 1.488673230189807e-10 4.728141523820321e-11 4.513537019258709e-11
          3.2221243334065543e-11 3.0694232578976604e-11 2.528760942073997e-11 1.806283938590047e-11 1.7205023466119617e-11 3.92445058070667e-11
          2.6550689264718047e-11 1.4876067137207824e-11 6.199577873296104e-11 5.842200324528797e-11 3.393630177030263e-11 4.8922949329408394e-11
          1.4341124735745572e-11 1.3690562853389681e-11 9.80812790725703e-12 9.341837933266159e-12 1.1897891743541582e-11 8.074056205355413e-12
          2.01204269737453e-11 1.8941440953893786e-11 1.5814106876043638e-11 9.468317922522195e-10 8.927812932971867e-10 7.477499920697093e-10
          2.7600096901773574e-9 6.729535295045381e-10 6.32694760008508e-10 4.546686612919609e-10 4.2632460918359925e-10 5.254357199336969e-10
          3.513601744674762e-10 2.2524851825915957e-9 2.1156043794040136e-9 1.5583884626201682e-9 1.7535367607765439e-9 5.549883504751713e-10
          1.6933685111154023e-9 5.17237651529775e-9 5.031596091069136e-9 4.442803294194076e-9 2.7773941552239935e-9 4.445647347168005e-9
          4.208694764481778e-9 3.357074967252301e-9 3.163451323761124e-9 3.5206681958466797e-9 2.656644996994082e-9 2.777150060639769e-9
          3.0314003553757813e-9 2.4389758830768394e-9 3.1625689881978315e-9 3.3330371464748815e-9 3.440501520468139e-9 2.916021920298725e-10
          2.728213444158409e-10 1.7765445230490825e-10 1.6594651054250384e-10 2.2347507434738205e-10 1.3533129971515768e-10 1.1665871722367723e-9
          1.0885511297628785e-9 7.149315586726337e-10 8.823691859813173e-10 1.03061669424724e-10 9.616978946033417e-11 7.820143626480038e-11
          4.758130646692379e-10 4.407774871498337e-10 3.50211206425048e-10 2.4620415065685014e-9 2.3320757502211864e-9 1.7684872040267619e-9
          1.6654821026405063e-9 1.9676522637760767e-9 1.3791555690973374e-9 1.744042063193991e-9 1.7845145604367345e-9 1.3613130129497878e-9
          1.7817252397398394e-9 1.181919970912589e-9 1.1064083017968927e-9 9.697506733090483e-10 9.662684955324061e-10 9.488771797732761e-11
          9.363402088941794e-11 1.4636523471644538e-10 1.4441361313262358e-10 7.516784710515894e-11 1.1877788091993477e-10 1.1717920786884099e-10
          9.004255941857923e-11 1.387511963144048e-10 1.1253954375966468e-10 2.985771616117861e-10 2.9448076231201797e-10 2.427387553668926e-10
          2.8252714777123156e-10 8.446350952369987e-11 1.2986214755042993e-10 6.774810857293911e-11 1.0525736649792602e-10 7.722220137321078e-11
          1.1837884394656606e-10 9.586018110156063e-11 2.636793399475187e-10 2.1700189079184756e-10 2.39403324798872e-10 6.084938571838886e-11
          6.00353193732158e-11 9.55951857508203e-11 9.429702253004735e-11 4.757347053115705e-11 7.622517967381301e-11 7.518185852251366e-11
          5.770009308615831e-11 9.053048860493024e-11 7.215571036775945e-11 2.0084391378391473e-10 1.9801086526455885e-10 1.5982731381207805e-10
          1.8975293455221062e-10 3.76844325236576e-11 3.717517368399297e-11 6.010986667419124e-11 5.928181593742975e-11 2.8771597911900472e-11
          4.6940374079008115e-11 4.629031944147204e-11 3.57137401950041e-11 5.687966434968879e-11 4.4403985374860524e-11 1.2952428553072466e-10
          1.2765721385785326e-10 1.008961314796393e-10 1.2221981163431305e-10 5.407149634278233e-11 8.462243979386386e-11 4.2822325889654273e-11
          6.741187785727213e-11 4.9369590692746705e-11 7.700537439378841e-11 6.130014947025029e-11 1.7675981990127482e-10 1.4248891976808248e-10
          1.600759521383815e-10 3.3443830299959876e-11 5.3114623694654696e-11 2.5871531931828888e-11 4.144730790378975e-11 3.050413933127591e-11
          4.8266875127156515e-11 3.76424008487183e-11 1.1367916283963896e-10 8.975827919096739e-11 1.0273926245046196e-10 6.882486286934652e-11
          1.0511688652570708e-10 5.5113751745602404e-11 8.502374913953254e-11 5.97927329303525e-11 9.094028980690125e-11 7.345864001598546e-11
          2.1147478227941215e-10 1.7351802972498558e-10 1.8177937036592087e-10 4.3929057676299065e-11 6.823123428031146e-11 3.4749201209465364e-11
          5.426607632340223e-11 3.80914265488076e-11 5.888030174360471e-11 1.4095780359715965e-10 1.1335425351824246e-10 1.2072468871629655e-10
          2.7104804745870186e-11 4.269222955736431e-11 2.0945547932598508e-11 3.3270346675520167e-11 9.024168129478849e-11 7.111843526233204e-11
          2.245616020961908e-11 2.2150650988700448e-11 3.6348024572161966e-11 3.584196940634649e-11 1.692638972331369e-11 2.788983603922881e-11
          2.7499656548722186e-11 2.12731201076285e-11 3.437388247836835e-11 2.6368171074848988e-11 8.008656805642009e-11 7.891322946339212e-11
          6.108169899370198e-11 7.549837939176893e-11 1.2920253790775177e-11 1.2743138977624594e-11 2.1162441793218003e-11 2.086528420768659e-11
          9.502381525158672e-12 1.5904769100045015e-11 1.5680802110803734e-11 1.2234636042902017e-11 2.0003432785087607e-11 1.5031020048051713e-11
          4.7504018932220146e-11 4.6799870567449337e-11 3.549676743636842e-11 4.4751439496462195e-11 1.9909563041395464e-11 3.207377104346288e-11
          1.5208103811512198e-11 2.459630873134134e-11 1.8145159165355705e-11 2.911550525058367e-11 2.2318630530069942e-11 7.014136180911108e-11
          5.425161187554652e-11 6.329175848973572e-11 1.1444997576556957e-11 1.8653811481667873e-11 8.531683456231863e-12 1.4013255445889007e-11
          1.0424189367693507e-11 1.6919500529672307e-11 1.2705749713949455e-11 4.1540773323700705e-11 3.149124089868995e-11 3.744068234311876e-11
          7.152677093962073e-12 7.05425952558239e-12 1.1857736901674914e-11 1.1690228628387491e-11 5.20219755462152e-12 8.763638087981212e-12
          8.639404402448126e-12 6.771447405311711e-12 1.1204327978880277e-11 8.279281137147069e-12 2.705991679423545e-11 2.665550799068579e-11
          1.9818744621376475e-11 2.547939774307743e-11 3.828391694172744e-12 3.775112935378109e-12 6.404042495553569e-12 6.312891192615227e-12
          3.623119277296678e-12 6.048990465608871e-12 6.331909820403103e-12 1.0443401023536738e-11 4.66882957189645e-12 7.715628304748127e-12
          5.764372662881039e-12 9.466219403481974e-12 6.991748763374731e-12 2.36369897113001e-11 1.7567302224718904e-11 2.128591468535363e-11
          3.3883907519108897e-12 5.636294347458061e-12 3.0843579350054963e-12 5.105480945353359e-12 1.6107815917320877e-11 2.5718449398451582e-11
          1.229778371364179e-11 1.970452488030897e-11 5.548404762635928e-11 4.285400020647317e-11 9.247204904628034e-12 1.493002917106809e-11
          6.888474301428043e-12 1.1206589857844317e-11 3.277418851693359e-11 2.4819950056968987e-11 5.111278179792379e-12 8.346295330310185e-12
          3.768339464646808e-12 6.162071094944424e-12 1.861253788879555e-11 1.3820921848102584e-11 2.732233206633208e-12 4.495885325351102e-12
          5.872967411957966e-10 5.790334887200236e-10 4.932582295302886e-10 4.861750278428323e-10 5.549176452781359e-10 4.6551855315190924e-10
          1.1031185319209178e-9 1.0874390087881352e-9 9.330336230160587e-10 1.0416558888395206e-9 5.168865820168667e-10 4.3299272322096643e-10
          4.679015460773679e-10 3.9119642330313146e-10 9.69387987708326e-10 8.293538392392446e-10 8.761964181288389e-10 1.961167566673547e-9
          1.932947214386394e-9 1.7201507490622803e-9 1.6949519090621222e-9 1.8507572291460506e-9 1.6214613411420824e-9 3.3080670670514644e-9
          3.257240266693158e-9 2.8928058804233323e-9 3.1095532068760287e-9 1.7214658714253894e-9 1.5056366265142895e-9 1.5550139790595256e-9
          1.3564752891090477e-9 2.878983895190251e-9 2.5541375515365716e-9 2.5873801476780025e-9 4.095803531969267e-10 4.035853147103426e-10
          3.361656993769634e-10 3.311610498404947e-10 3.861175547280667e-10 3.165883494472161e-10 8.031530988029828e-10 7.911638665653217e-10
          6.626630159658219e-10 7.562106933874114e-10 2.7269834002420315e-10 2.685750390582131e-10 2.1863071887280088e-10 2.152802356340709e-10
          2.565774961777695e-10 2.055374529211944e-10 5.567314475665031e-10 5.480282199071461e-10 4.4741349481733134e-10 5.227059946682065e-10
          3.586580593909867e-10 2.9370987434213015e-10 3.2345119628525545e-10 2.6443736002713317e-10 7.012132585613386e-10 5.856409442930368e-10
          6.306411396866628e-10 2.3776909544061585e-10 1.9028210010518683e-10 2.137520008697221e-10 1.708352306034293e-10 4.830173666471784e-10
          3.933350189002886e-10 4.323745824275958e-10 1.4924497595485595e-9 1.4700410067024436e-9 1.2794404408187191e-9 1.2597396839485906e-9
          1.4047032975143263e-9 1.2023009973313702e-9 2.5840401483812457e-9 2.5438087791377706e-9 2.2173884876269955e-9 2.427294093109108e-9
          1.0830937397709747e-9 1.0659396156694552e-9 9.046939250626537e-10 8.899829224184266e-10 1.0159902057940983e-9 8.471930914254744e-10
          1.9455791669164866e-9 1.9150783665746446e-9 1.6362531180199088e-9 1.8262485858634374e-9 1.3018171357272019e-9 1.1119180233990914e-9
          1.1695350134828752e-9 9.96002560061359e-10 2.246043761406924e-9 1.9566349860388043e-9 2.0161740739743007e-9 9.376023681731672e-10
          7.801769002125675e-10 8.374181375605841e-10 6.947824549705903e-10 1.6865940906123857e-9 1.4359056766959179e-9 1.5073275688024147e-9
          4.1158995994188027e-10 3.432931709706857e-10 3.518138262305895e-10 2.926249421399314e-10 7.689123318830378e-10 6.541064427745081e-10
          6.548650233432576e-10 1.3632525857995454e-9 1.184968742497205e-9 1.1590028872340709e-9 1.0030181253560284e-9 2.259733006535552e-9
          2.0014463306253667e-9 1.91783910429097e-9 2.8321449845816893e-10 2.310740502901568e-10 2.408001101677873e-10 5.499525871582805e-10
          4.568496983223327e-10 4.649298356697134e-10 1.864444287138301e-10 1.48771546819645e-10 3.748974769001676e-10 3.0388947980627966e-10
          1.0179153396956034e-9 8.636902401472653e-10 8.578150623138057e-10 1.754804616371571e-9 1.5211553789237167e-9 1.4785835108032091e-9
          7.235037919880108e-10 5.980896418197098e-10 1.302263953427579e-9 1.1001531254764582e-9 4.931793313680962e-9 4.8683425978188895e-9
          4.499234692034386e-9 4.433616603677371e-9 4.675542744425021e-9 4.239284334684993e-9 5.384117313480181e-9 5.364108483138454e-9
          5.140808498660572e-9 5.290271355586e-9 4.354991748396501e-9 3.926818507807635e-9 3.923897487841222e-9 3.5191277685203354e-9
          5.121675044362358e-9 4.811229265006092e-9 4.813336563131065e-9 3.6786100647425745e-9 3.73263291122009e-9 3.6508340892969247e-9
          3.72127158250974e-9 3.896343031385531e-9 3.9031558133456066e-9 2.3278179759126248e-9 2.4145685878030976e-9 2.4124472998829405e-9
          2.6945659355341456e-9 4.130913968844925e-9 4.105028340458112e-9 4.3166366082749244e-9 4.17303216981163e-9 3.156324592527619e-9
          3.2602739272774044e-9 3.653801821552446e-9 4.029413061830271e-9 3.9658332194956754e-9 3.5436717727324657e-9 3.4860949522616613e-9
          3.780127130630886e-9 3.3190276204318383e-9 4.887304053742618e-9 4.8385555399219475e-9 4.3870391039005874e-9 4.683716803820196e-9
          3.0760366981722173e-9 3.0261628950814177e-9 2.650461102416446e-9 2.6086813712068994e-9 2.8823355591147793e-9 2.4876827728369813e-9
          3.8979348860537244e-9 3.8405178689785495e-9 3.3074780411563602e-9 3.6723484967935183e-9 3.4881941998521603e-9 3.0596602989120274e-9
          3.1174077295982503e-9 2.734998839179634e-9 4.4050941440045335e-9 3.912671150510871e-9 3.997031900530768e-9 2.6604708063546164e-9
          2.2989415789710704e-9 2.3818853976541573e-9 2.057732575227555e-9 3.4058398931205215e-9 2.9394414391954198e-9 3.0651929579288822e-9
          3.7501539496482265e-9 3.803037292937297e-9 3.71041065873355e-9 3.7264657443371945e-9 3.921151528266109e-9 3.738563223175611e-9
          2.5428528048096973e-9 2.6704742915991983e-9 2.8558772646787867e-9 2.9936108566646263e-9 3.3983382737335757e-9 3.3882262567821606e-9
          2.958020055528902e-9 2.9447971816095324e-9 3.342647962517718e-9 2.8932150101860916e-9 2.6833298320917875e-9 2.716632732736973e-9
          2.3972108917624236e-9 2.7861022577941528e-9 3.989415048102571e-9 3.670660387055961e-9 3.885917224320328e-9 3.4726260857597146e-9
          3.3331203016426445e-9 3.1690265960217186e-9 3.4894173528080215e-9 3.2294106549706165e-9 2.781521101422284e-9 3.0229424589359725e-9
          2.604785022861428e-9 2.825030240527932e-9 2.4419856173327806e-9 2.762756857745199e-9 3.416869207876387e-9 3.053592824467241e-9
          2.88241799415882e-9 2.5735213633220304e-9 4.335103603149857e-9 3.927806784887608e-9 3.717385995320724e-9 4.276265723460545e-9
          3.9756429597899e-9 3.914630815559038e-9 3.531804953557135e-9 3.926916416643064e-9 3.7161739659585904e-9 3.794079906406743e-9
          2.7033754983078267e-9 2.3739974884022085e-9 2.2784464872173884e-9 3.493794012561629e-9 3.071652511957892e-9 2.9583081379863523e-9
          2.0671911103931316e-9 1.78083084518239e-9 2.6836096621984204e-9 2.3347688070177555e-9 3.5792685010195288e-9 3.147599971680012e-9
          3.1318087126218457e-9 3.381063046469298e-9 2.980482767032256e-9 3.052317575228913e-9 2.736304138012302e-9 2.377973652731911e-9
          2.583141044941496e-9 2.237066823400103e-9 1.732509366196804e-10 1.705649467188192e-10 1.357162612356851e-10 1.335917292833313e-10
          1.6275877326435997e-10 1.2742012835750356e-10 3.664952720357323e-10 3.605401503370582e-10 2.8678856678541746e-10 3.4324578947651605e-10
          1.0511503128587276e-10 1.0345637601673187e-10 8.051340457812475e-11 7.923461029912256e-11 9.863985155948882e-11 7.552226473546814e-11
          2.290457412893336e-10 2.2521448723991986e-10 1.7465078109220972e-10 2.1410555994232917e-10 1.5054884981723063e-10 1.1777546322727974e-10
          1.3500774641191807e-10 1.0551485841217327e-10 3.162401532206698e-10 2.510469814586548e-10 2.8196648927091446e-10 9.111809144114934e-11
          6.972820223271639e-11 8.156576977387951e-11 6.237594323413608e-11 1.968108365431683e-10 1.5241059273713267e-10 1.749540326524886e-10
          7.453157866175091e-10 7.32879689608148e-10 6.052633502240884e-10 5.949147800507653e-10 6.967471812553181e-10 5.648858340705913e-10
          1.403059803971533e-9 1.3797891571901517e-9 1.146613484920353e-9 1.3120371962249661e-9 4.843885040492193e-10 4.759280034360027e-10
          3.820735223400867e-10 3.7527930984486465e-10 4.5140732256951627e-10 3.556094841647232e-10 9.55013116890428e-10 9.381604679356583e-10
          7.553678494116614e-10 8.892484239401164e-10 6.402826593163948e-10 5.180781471025356e-10 5.685795695928605e-10 4.588564302932636e-10
          1.2057647081014518e-9 9.977477687158798e-10 1.0701510095457796e-9 4.13275733124876e-10 3.2508384477824476e-10 3.6519277474082535e-10
          2.867009887992528e-10 8.129851273434224e-10 6.520817396565308e-10 7.165120100620538e-10 6.100126622152232e-11 6.002724051193555e-11
          4.5726780369196546e-11 4.499351100975222e-11 5.7200262465147423e-11 4.2865700408764776e-11 1.3611672691123178e-10 1.337956004371349e-10
          1.0129249468063775e-10 1.2707252926975674e-10 5.2790030669515197e-11 3.954741350144861e-11 4.719739528308935e-11 3.534167584267855e-11
          1.1662695159827442e-10 8.821584904292338e-11 1.0346316452638393e-10 2.971443872174757e-10 2.9178249209946606e-10 2.2796474449173556e-10
          2.238032858696665e-10 2.7627283273994976e-10 2.1177433485040902e-10 6.09796941722551e-10 5.984757363923546e-10 4.668066015852562e-10
          5.657150108632147e-10 2.5224476492418267e-10 1.9316357350548686e-10 2.2210439779184187e-10 1.6986246285054087e-10 5.149349475594481e-10