<?xml version="1.0"?>
<VTKFile type="UnstructuredGrid" version="0.1" byte_order="LittleEndian" header_type="UInt32" compressor="vtkZLibDataCompressor">
  <UnstructuredGrid>
    <Piece NumberOfPoints="373" NumberOfCells="196">
      <PointData>
        <DataArray type="Int32" Name="libmesh_node_id" format="ascii" RangeMin="0" RangeMax="3555">
          0 1 2 3 4 5
          6 7 8 9 10 11
          12 13 14 15 40 41
          42 43 44 45 46 47
          60 61 62 63 64 65
          66 67 80 81 82 83
          90 91 92 93 94 95
          96 97 110 111 112 113
          120 121 122 123 124 125
          126 127 140 141 142 143
          150 151 152 153 154 155
          157 170 171 172 173 180
          181 182 183 184 185 200
          201 202 379 3172 3173 3176
          3179 3180 3181 3182 3183 3184
          3185 3186 3187 3188 3189 3190
          3191 3192 3193 3194 3195 3196
          3197 3198 3199 3200 3201 3202
          3203 3204 3205 3206 3207 3208
          3209 3210 3211 3212 3213 3214
          3215 3216 3217 3218 3219 3220
          3221 3223 3225 3228 3298 3299
          3300 3301 3302 3303 3304 3305
          3306 3307 3308 3309 3310 3311
          3312 3313 3314 3315 3316 3317
          3318 3319 3320 3321 3322 3323
          3324 3325 3326 3327 3328 3329
          3330 3331 3332 3333 3334 3335
          3336 3337 3338 3339 3340 3341
          3342 3343 3344 3345 3346 3347
          3348 3349 3350 3351 3352 3353
          3354 3355 3356 3357 3358 3359
          3360 3361 3362 3363 3364 3365
          3366 3367 3368 3369 3370 3371
          3372 3373 3374 3375 3376 3377
          3378 3379 3380 3381 3382 3383
          3384 3385 3386 3387 3388 3389
          3390 3391 3392 3393 3394 3395
          3396 3397 3398 3399 3400 3401
          3402 3403 3404 3405 3406 3407
          3408 3409 3410 3411 3412 3413
          3414 3415 3416 3417 3418 3419
          3420 3421 3422 3423 3424 3425
          3426 3427 3428 3429 3430 3431
          3432 3433 3434 3435 3436 3437
          3438 3439 3440 3441 3442 3443
          3444 3445 3446 3447 3448 3449
          3450 3451 3452 3453 3454 3455
          3456 3457 3458 3459 3460 3461
          3462 3463 3464 3465 3466 3467
          3468 3469 3470 3471 3472 3473
          3474 3475 3476 3477 3478 3479
          3480 3481 3482 3483 3484 3485
          3486 3487 3488 3489 3490 3491
          3492 3493 3494 3495 3496 3497
          3498 3499 3500 3501 3502 3503
          3504 3505 3506 3507 3508 3509
          3510 3511 3512 3513 3514 3515
          3516 3517 3518 3519 3520 3530
          3531 3532 3533 3534 3535 3536
          3537 3538 3539 3546 3547 3548
          3549 3550 3551 3552 3553 3554
          3555
        </DataArray>
        <DataArray type="Float64" Name="bounds" format="ascii" RangeMin="0" RangeMax="0">
          0 0 0 0 0 0
          0 0 0 0 0 0
          0 0 0 0 0 0
          0 0 0 0 0 0
          0 0 0 0 0 0
          0 0 0 0 0 0
          0 0 0 0 0 0
          0 0 0 0 0 0
          0 0 0 0 0 0
          0 0 0 0 0 0
          0 0 0 0 0 0
          0 0 0 0 0 0
          0 0 0 0 0 0
          0 0 0 0 0 0
          0 0 0 0 0 0
          0 0 0 0 0 0
          0 0 0 0 0 0
          0 0 0 0 0 0
          0 0 0 0 0 0
          0 0 0 0 0 0
          0 0 0 0 0 0
          0 0 0 0 0 0
          0 0 0 0 0 0
          0 0 0 0 0 0
          0 0 0 0 0 0
          0 0 0 0 0 0
          0 0 0 0 0 0
          0 0 0 0 0 0
          0 0 0 0 0 0
          0 0 0 0 0 0
          0 0 0 0 0 0
          0 0 0 0 0 0
          0 0 0 0 0 0
          0 0 0 0 0 0
          0 0 0 0 0 0
          0 0 0 0 0 0
          0 0 0 0 0 0
          0 0 0 0 0 0
          0 0 0 0 0 0
          0 0 0 0 0 0
          0 0 0 0 0 0
          0 0 0 0 0 0
          0 0 0 0 0 0
          0 0 0 0 0 0
          0 0 0 0 0 0
          0 0 0 0 0 0
          0 0 0 0 0 0
          0 0 0 0 0 0
          0 0 0 0 0 0
          0 0 0 0 0 0
          0 0 0 0 0 0
          0 0 0 0 0 0
          0 0 0 0 0 0
          0 0 0 0 0 0
          0 0 0 0 0 0
          0 0 0 0 0 0
          0 0 0 0 0 0
          0 0 0 0 0 0
          0 0 0 0 0 0
          0 0 0 0 0 0
          0 0 0 0 0 0
          0 0 0 0 0 0
          0
        </DataArray>
        <DataArray type="Float64" Name="gradient_error" format="ascii" RangeMin="4.5159910871863806e-11" RangeMax="8.850405988333257e-7">
          2.2960768092385254e-10 2.317211057365013e-10 1.417428435935102e-10 1.4105240157893707e-10 5.96896685061378e-10 5.910510827674222e-10
          3.6865899054397025e-10 3.7319520659717286e-10 2.1106687615883148e-10 1.3074782978688652e-10 5.152375129078119e-10 3.274111578994913e-10
          1.5023692614977202e-10 9.769841851081792e-11 3.7330708290527063e-10 2.4621492211333393e-10 5.1764581450519105e-11 5.2497122234021615e-11
          1.4626689832051843e-10 1.4949372813296765e-10 5.042878341494153e-11 1.395848028911707e-10 4.5159910871863806e-11 1.1912276132139724e-10
          2.6794395346458973e-9 2.592464585957332e-9 1.6369942710208339e-9 1.6904793779195807e-9 2.1525482202553663e-9 1.3939623059988734e-9
          1.5007255782100726e-9 1.0124237997132827e-9 6.815239560843358e-10 7.015192211932635e-10 6.353763917423811e-10 5.241220212164928e-10
          1.1828805671687042e-8 1.1212255318532131e-8 7.2449132239852725e-9 7.611587095053693e-9 8.946597581565754e-9 5.970239719904483e-9
          6.076451450077533e-9 4.250534411850749e-9 3.277571129438413e-9 3.394368518420342e-9 2.9938818582432094e-9 2.4246173736239654e-9
          2.728684771418702e-8 2.4098108209596112e-8 1.2037664438838556e-8 1.3416501347666791e-8 1.6305884742107796e-8 9.672298505475568e-9
          1.2029764203333488e-8 8.690907069023737e-9 1.142700413898286e-8 1.1931235132978973e-8 1.0654646935698362e-8 1.011796321458513e-8
          1.4431000564850427e-7 1.1787345991952355e-7 2.631102002416079e-7 2.8850656014425834e-7 9.458059389443029e-8 2.1338556364952708e-7
          1.55183106766859e-7 1.4742825746424045e-8 1.576414645651549e-8 1.2663301899477868e-8 1.0536897520412044e-8 3.278395247078148e-7
          4.184822791558978e-7 2.8830628625596313e-7 3.2990415798251645e-7 6.044961942955146e-7 2.1094619163867906e-7 4.967693879315533e-8
          4.742195616708965e-8 4.85915665506208e-8 1.89516667865325e-7 9.545786143400141e-9 7.220724636655761e-8 5.1414804230610865e-8
          3.0622362094664115e-8 1.3565925633056637e-7 3.145941960194581e-7 3.2356813347079296e-7 4.647039340228853e-7 4.869404556708166e-7
          5.578641810507838e-7 5.54085859344467e-7 2.938978208935156e-7 5.297172169894424e-7 5.619120680459676e-7 3.68831998494217e-7
          4.160709719053647e-7 4.305951907210431e-7 3.8052042240833867e-7 3.5795109299135904e-7 5.257628446241168e-7 4.979755076949483e-7
          5.801891532258945e-7 3.174700980924783e-7 1.0133459191452902e-7 2.693184862757091e-7 5.784269200555622e-7 5.616133600399231e-7
          2.445411642456933e-7 6.316429680006746e-7 5.556938350568425e-7 3.1447112615978873e-7 3.351030222511659e-7 2.8457970998272135e-7
          4.984201429077383e-7 6.444934441958501e-7 7.18142530404485e-7 2.51529995414243e-7 1.0586300985346561e-7 2.2272500175618775e-7
          6.88517202179157e-7 5.419527113891273e-7 2.4015042831550935e-7 2.315352191836367e-7 7.476752503510518e-7 8.012750888244767e-7
          1.689204232064279e-7 9.072945493803989e-9 2.6837666019229168e-8 1.7136659080756366e-8 3.379957962995207e-8 2.1645486977726434e-8
          2.2925697313260434e-8 7.382862703672758e-8 6.730907105775877e-8 4.0431977873683334e-8 4.3351379562703635e-8 1.8556470423342417e-8
          5.251392924444913e-8 3.457403927196331e-8 9.491394325500804e-9 1.3554884689607913e-8 1.2874132088679695e-8 1.663414929947749e-8
          2.490197557842991e-8 1.4737517467227411e-8 3.846832900415158e-8 3.000422164169296e-8 1.0588327945083002e-8 3.2613400271727995e-8
          2.9297345045580333e-8 4.5730593560249145e-9 2.1540114279234357e-8 2.5981289819432672e-8 1.0748736350960747e-8 7.006631475046364e-9
          4.1190067974016724e-8 3.51758036836893e-8 3.2645265991319817e-9 2.916153939336187e-8 6.064987918399683e-8 6.583078493494562e-8
          1.3169543314942963e-7 1.3960679595188288e-7 4.8125859957228666e-8 1.1228997630090521e-7 1.2969445418942616e-8 3.055072074092666e-8
          3.0359983871324376e-8 3.0870722784968186e-8 2.0274098711486241e-7 2.1338280696882012e-7 1.7645409264458177e-7 4.813199606291071e-8
          3.364472884347376e-8 8.853825829015499e-8 2.0520061075337847e-8 6.379890561022801e-8 1.0703861133589318e-8 3.0577605543706724e-8
          2.8777314116774435e-8 1.4343178773683622e-7 1.0707775014511818e-7 5.0451349953824137e-8 1.1391504542556626e-8 3.9669633409341175e-8
          6.965294907207088e-9 2.4672033315333837e-8 6.794776227612572e-8 4.237877172346058e-8 1.7463517261449232e-7 1.6884533285552807e-7
          1.7038359550911321e-7 2.8740930809179744e-7 2.879179098961634e-7 2.6170438530226206e-7 2.616128273722316e-7 1.649462446171172e-7
          2.890735391569544e-7 2.6183226579664075e-7 1.630554930965638e-7 2.3549086070836076e-7 2.3581634665266587e-7 2.345909924363271e-7
          4.7101515828601344e-7 4.4827574648383963e-7 4.4304010989511176e-7 4.614962073937048e-7 4.081888941106753e-7 1.6563151568826877e-7
          1.6020526304642566e-7 2.9034298295169113e-7 2.6187431944244485e-7 1.5523127555555677e-7 2.9123771140777846e-7 2.615339219623437e-7
          1.5477901040458256e-7 2.3340565593319855e-7 2.3183013251690883e-7 5.073531825099248e-7 4.786080483300363e-7 4.973941461137506e-7
          4.2846304270064536e-7 4.293511556293184e-7 4.3865370921987645e-7 4.877217867564194e-7 4.785932941304947e-7 4.6209243809732534e-7
          5.108416790165787e-7 4.820789521431076e-7 4.757326654656788e-7 4.981614150393743e-7 3.3647774904556057e-7 4.3345551829415555e-7
          4.239484277061159e-7 4.5740923022191223e-7 5.058376772802811e-7 4.928004451211376e-7 5.412473731448135e-7 5.280833027818095e-7
          5.75970379008064e-7 5.191066418941855e-7 5.423581795005972e-7 3.8594897543753897e-7 4.888220254680186e-7 5.249890341577571e-7
          5.515348704683101e-7 2.973557812530929e-7 2.969074524019427e-7 3.389045208440418e-7 3.375433119209618e-7 2.984308937578868e-7
          3.422775818324211e-7 2.212175495374917e-7 2.5044100169483075e-7 2.5145672554223707e-7 2.4782325352192566e-7 3.8045326043499066e-7
          3.7817917143998097e-7 3.861242699069553e-7 2.7966445385216974e-7 2.9994376734396656e-7 3.4668691841054377e-7 3.014138443875379e-7
          3.512728830207916e-7 2.1422423488629242e-7 2.4485485420120606e-7 2.4168686227470733e-7 3.9343006947712094e-7 4.011319216540453e-7
          2.754854735161197e-7 1.5564433522791755e-7 1.499503194203548e-7 2.913228051409784e-7 2.604088135581165e-7 1.4452299107307e-7
          2.9035986538741445e-7 2.582978336775726e-7 1.4425630361279205e-7 2.2949482197525464e-7 2.262358019677307e-7 5.534701567474122e-7
          5.170903854934949e-7 5.374600006412838e-7 4.5362725133174405e-7 1.4595858351023673e-7 1.3911370931626017e-7 2.880848357879804e-7
          2.549655284240507e-7 1.3408955844713248e-7 2.8424655447759097e-7 2.501919703869251e-7 1.3226883512228357e-7 2.2184622106012086e-7
          2.1613738629625932e-7 6.045133872421204e-7 5.583326436833056e-7 5.795078371816958e-7 4.779238154213298e-7 5.678311839916255e-7
          6.145736704690227e-7 6.125943768216091e-7 6.573964672928724e-7 5.671383844684829e-7 5.932648981598306e-7 4.55723329542466e-7
          5.658338776469337e-7 6.119456095852523e-7 6.112025621082082e-7 6.632064163337967e-7 7.050221031811306e-7 7.207138355995122e-7
          7.581956308942735e-7 6.206484729113904e-7 6.491786574567619e-7 5.475971462490767e-7 6.641962665274914e-7 7.23669969751873e-7
          6.801230261897651e-7 3.0221609866770294e-7 3.553374750624237e-7 3.021201595950053e-7 3.5860097415689547e-7 2.0497167181932892e-7
          2.3771433813430146e-7 2.3287070975826535e-7 4.0845885145714443e-7 4.1508178871878576e-7 2.70457004449274e-7 3.008684931668477e-7
          3.6076811306789504e-7 2.9824242095903325e-7 3.615636517641368e-7 1.9226934031868784e-7 2.2707707034147427e-7 2.2044741480378449e-7
          4.206677329689423e-7 4.248848825692403e-7 2.618848003642607e-7 1.3983590293858633e-7 1.2991950274270184e-7 2.785324981161878e-7
          2.4370760116230473e-7 1.273648283844574e-7 2.7063884984959776e-7 2.3523403997956248e-7 1.2000310254681736e-7 2.0888270420842168e-7
          1.9982923010952715e-7 6.596986689189063e-7 6.007414937058408e-7 6.216951110561322e-7 4.984815182817432e-7 7.863859530189737e-7
          8.17830857985799e-7 8.617632875600144e-7 8.850405988333257e-7 6.786981274361621e-7 7.089406452661086e-7 6.706036614939242e-7
          7.916744281418238e-7 8.697942271290544e-7 7.585551303847225e-7 2.9399715075295697e-7 3.6065632369725836e-7 2.878605891280418e-7
          3.5767056139551126e-7 1.7611838364623519e-7 2.1319215547481652e-7 2.0577774236544225e-7 4.2731549664155976e-7 4.2748053366298067e-7
          2.502659273033979e-7
        </DataArray>
        <DataArray type="Float64" Name="gradient_matprop_error" format="ascii" RangeMin="0" RangeMax="0">
          0 0 0 0 0 0
          0 0 0 0 0 0
          0 0 0 0 0 0
          0 0 0 0 0 0
          0 0 0 0 0 0
          0 0 0 0 0 0
          0 0 0 0 0 0
          0 0 0 0 0 0
          0 0 0 0 0 0
          0 0 0 0 0 0
          0 0 0 0 0 0
          0 0 0 0 0 0
          0 0 0 0 0 0
          0 0 0 0 0 0
          0 0 0 0 0 0
          0 0 0 0 0 0
          0 0 0 0 0 0
          0 0 0 0 0 0
          0 0 0 0 0 0
          0 0 0 0 0 0
          0 0 0 0 0 0
          0 0 0 0 0 0
          0 0 0 0 0 0
          0 0 0 0 0 0
          0 0 0 0 0 0
          0 0 0 0 0 0
          0 0 0 0 0 0
          0 0 0 0 0 0
          0 0 0 0 0 0
          0 0 0 0 0 0
          0 0 0 0 0 0
          0 0 0 0 0 0
          0 0 0 0 0 0
          0 0 0 0 0 0
          0 0 0 0 0 0
          0 0 0 0 0 0
          0 0 0 0 0 0
          0 0 0 0 0 0
          0 0 0 0 0 0
          0 0 0 0 0 0
          0 0 0 0 0 0
          0 0 0 0 0 0
          0 0 0 0 0 0
          0 0 0 0 0 0
          0 0 0 0 0 0
          0 0 0 0 0 0
          0 0 0 0 0 0
          0 0 0 0 0 0
          0 0 0 0 0 0
          0 0 0 0 0 0
          0 0 0 0 0 0
          0 0 0 0 0 0
          0 0 0 0 0 0
          0 0 0 0 0 0
          0 0 0 0 0 0
          0 0 0 0 0 0
          0 0 0 0 0 0
          0 0 0 0 0 0
          0 0 0 0 0 0
          0 0 0 0 0 0
          0 0 0 0 0 0
          0 0 0 0 0 0
          0
        </DataArray>
        <DataArray type="Float64" Name="initial_marker" format="ascii" RangeMin="0" RangeMax="0">
          0 0 0 0 0 0
          0 0 0 0 0 0
          0 0 0 0 0 0
          0 0 0 0 0 0
          0 0 0 0 0 0
          0 0 0 0 0 0
          0 0 0 0 0 0
          0 0 0 0 0 0
          0 0 0 0 0 0
          0 0 0 0 0 0
          0 0 0 0 0 0
          0 0 0 0 0 0
          0 0 0 0 0 0
          0 0 0 0 0 0
          0 0 0 0 0 0
          0 0 0 0 0 0
          0 0 0 0 0 0
          0 0 0 0 0 0
          0 0 0 0 0 0
          0 0 0 0 0 0
          0 0 0 0 0 0
          0 0 0 0 0 0
          0 0 0 0 0 0
          0 0 0 0 0 0
          0 0 0 0 0 0
          0 0 0 0 0 0
          0 0 0 0 0 0
          0 0 0 0 0 0
          0 0 0 0 0 0
          0 0 0 0 0 0
          0 0 0 0 0 0
          0 0 0 0 0 0
          0 0 0 0 0 0
          0 0 0 0 0 0
          0 0 0 0 0 0
          0 0 0 0 0 0
          0 0 0 0 0 0
          0 0 0 0 0 0
          0 0 0 0 0 0
          0 0 0 0 0 0
          0 0 0 0 0 0
          0 0 0 0 0 0
          0 0 0 0 0 0
          0 0 0 0 0 0
          0 0 0 0 0 0
          0 0 0 0 0 0
          0 0 0 0 0 0
          0 0 0 0 0 0
          0 0 0 0 0 0
          0 0 0 0 0 0
          0 0 0 0 0 0
          0 0 0 0 0 0
          0 0 0 0 0 0
          0 0 0 0 0 0
          0 0 0 0 0 0
          0 0 0 0 0 0
          0 0 0 0 0 0
          0 0 0 0 0 0
          0 0 0 0 0 0
          0 0 0 0 0 0
          0 0 0 0 0 0
          0 0 0 0 0 0
          0
        </DataArray>
        <DataArray type="Float64" Name="markers_norefine" format="ascii" RangeMin="0" RangeMax="0">
          0 0 0 0 0 0
          0 0 0 0 0 0
          0 0 0 0 0 0
          0 0 0 0 0 0
          0 0 0 0 0 0
          0 0 0 0 0 0
          0 0 0 0 0 0
          0 0 0 0 0 0
          0 0 0 0 0 0
          0 0 0 0 0 0
          0 0 0 0 0 0
          0 0 0 0 0 0
          0 0 0 0 0 0
          0 0 0 0 0 0
          0 0 0 0 0 0
          0 0 0 0 0 0
          0 0 0 0 0 0
          0 0 0 0 0 0
          0 0 0 0 0 0
          0 0 0 0 0 0
          0 0 0 0 0 0
          0 0 0 0 0 0
          0 0 0 0 0 0
          0 0 0 0 0 0
          0 0 0 0 0 0
          0 0 0 0 0 0
          0 0 0 0 0 0
          0 0 0 0 0 0
          0 0 0 0 0 0
          0 0 0 0 0 0
          0 0 0 0 0 0
          0 0 0 0 0 0
          0 0 0 0 0 0
          0 0 0 0 0 0
          0 0 0 0 0 0
          0 0 0 0 0 0
          0 0 0 0 0 0
          0 0 0 0 0 0
          0 0 0 0 0 0
          0 0 0 0 0 0
          0 0 0 0 0 0
          0 0 0 0 0 0
          0 0 0 0 0 0
          0 0 0 0 0 0
          0 0 0 0 0 0
          0 0 0 0 0 0
          0 0 0 0 0 0
          0 0 0 0 0 0
          0 0 0 0 0 0
          0 0 0 0 0 0
          0 0 0 0 0 0
          0 0 0 0 0 0
          0 0 0 0 0 0
          0 0 0 0 0 0
          0 0 0 0 0 0
          0 0 0 0 0 0
          0 0 0 0 0 0
          0 0 0 0 0 0
          0 0 0 0 0 0
          0 0 0 0 0 0
          0 0 0 0 0 0
          0 0 0 0 0 0
          0
        </DataArray>
        <DataArray type="Float64" Name="markers_mustrefine" format="ascii" RangeMin="0" RangeMax="0">
          0 0 0 0 0 0
          0 0 0 0 0 0
          0 0 0 0 0 0
          0 0 0 0 0 0
          0 0 0 0 0 0
          0 0 0 0 0 0
          0 0 0 0 0 0
          0 0 0 0 0 0
          0 0 0 0 0 0
          0 0 0 0 0 0
          0 0 0 0 0 0
          0 0 0 0 0 0
          0 0 0 0 0 0
          0 0 0 0 0 0
          0 0 0 0 0 0
          0 0 0 0 0 0
          0 0 0 0 0 0
          0 0 0 0 0 0
          0 0 0 0 0 0
          0 0 0 0 0 0
          0 0 0 0 0 0
          0 0 0 0 0 0
          0 0 0 0 0 0
          0 0 0 0 0 0
          0 0 0 0 0 0
          0 0 0 0 0 0
          0 0 0 0 0 0
          0 0 0 0 0 0
          0 0 0 0 0 0
          0 0 0 0 0 0
          0 0 0 0 0 0
          0 0 0 0 0 0
          0 0 0 0 0 0
          0 0 0 0 0 0
          0 0 0 0 0 0
          0 0 0 0 0 0
          0 0 0 0 0 0
          0 0 0 0 0 0
          0 0 0 0 0 0
          0 0 0 0 0 0
          0 0 0 0 0 0
          0 0 0 0 0 0
          0 0 0 0 0 0
          0 0 0 0 0 0
          0 0 0 0 0 0
          0 0 0 0 0 0
          0 0 0 0 0 0
          0 0 0 0 0 0
          0 0 0 0 0 0
          0 0 0 0 0 0
          0 0 0 0 0 0
          0 0 0 0 0 0
          0 0 0 0 0 0
          0 0 0 0 0 0
          0 0 0 0 0 0
          0 0 0 0 0 0
          0 0 0 0 0 0
          0 0 0 0 0 0
          0 0 0 0 0 0
          0 0 0 0 0 0
          0 0 0 0 0 0
          0 0 0 0 0 0
          0
        </DataArray>
        <DataArray type="Float64" Name="gradient_marker" format="ascii" RangeMin="1" RangeMax="1">
          1 1 1 1 1 1
          1 1 1 1 1 1
          1 1 1 1 1 1
          1 1 1 1 1 1
          1 1 1 1 1 1
          1 1 1 1 1 1
          1 1 1 1 1 1
          1 1 1 1 1 1
          1 1 1 1 1 1
          1 1 1 1 1 1
          1 1 1 1 1 1
          1 1 1 1 1 1
          1 1 1 1 1 1
          1 1 1 1 1 1
          1 1 1 1 1 1
          1 1 1 1 1 1
          1 1 1 1 1 1
          1 1 1 1 1 1
          1 1 1 1 1 1
          1 1 1 1 1 1
          1 1 1 1 1 1
          1 1 1 1 1 1
          1 1 1 1 1 1
          1 1 1 1 1 1
          1 1 1 1 1 1
          1 1 1 1 1 1
          1 1 1 1 1 1
          1 1 1 1 1 1
          1 1 1 1 1 1
          1 1 1 1 1 1
          1 1 1 1 1 1
          1 1 1 1 1 1
          1 1 1 1 1 1
          1 1 1 1 1 1
          1 1 1 1 1 1
          1 1 1 1 1 1
          1 1 1 1 1 1
          1 1 1 1 1 1
          1 1 1 1 1 1
          1 1 1 1 1 1
          1 1 1 1 1 1
          1 1 1 1 1 1
          1 1 1 1 1 1
          1 1 1 1 1 1
          1 1 1 1 1 1
          1 1 1 1 1 1
          1 1 1 1 1 1
          1 1 1 1 1 1
          1 1 1 1 1 1
          1 1 1 1 1 1
          1 1 1 1 1 1
          1 1 1 1 1 1
          1 1 1 1 1 1
          1 1 1 1 1 1
          1 1 1 1 1 1
          1 1 1 1 1 1
          1 1 1 1 1 1
          1 1 1 1 1 1
          1 1 1 1 1 1
          1 1 1 1 1 1
          1 1 1 1 1 1
          1 1 1 1 1 1
          1
        </DataArray>
        <DataArray type="Float64" Name="gradient_matprop_marker" format="ascii" RangeMin="0" RangeMax="0">
          0 0 0 0 0 0
          0 0 0 0 0 0
          0 0 0 0 0 0
          0 0 0 0 0 0
          0 0 0 0 0 0
          0 0 0 0 0 0
          0 0 0 0 0 0
          0 0 0 0 0 0
          0 0 0 0 0 0
          0 0 0 0 0 0
          0 0 0 0 0 0
          0 0 0 0 0 0
          0 0 0 0 0 0
          0 0 0 0 0 0
          0 0 0 0 0 0
          0 0 0 0 0 0
          0 0 0 0 0 0
          0 0 0 0 0 0
          0 0 0 0 0 0
          0 0 0 0 0 0
          0 0 0 0 0 0
          0 0 0 0 0 0
          0 0 0 0 0 0
          0 0 0 0 0 0
          0 0 0 0 0 0
          0 0 0 0 0 0
          0 0 0 0 0 0
          0 0 0 0 0 0
          0 0 0 0 0 0
          0 0 0 0 0 0
          0 0 0 0 0 0
          0 0 0 0 0 0
          0 0 0 0 0 0
          0 0 0 0 0 0
          0 0 0 0 0 0
          0 0 0 0 0 0
          0 0 0 0 0 0
          0 0 0 0 0 0
          0 0 0 0 0 0
          0 0 0 0 0 0
          0 0 0 0 0 0
          0 0 0 0 0 0
          0 0 0 0 0 0
          0 0 0 0 0 0
          0 0 0 0 0 0
          0 0 0 0 0 0
          0 0 0 0 0 0
          0 0 0 0 0 0
          0 0 0 0 0 0
          0 0 0 0 0 0
          0 0 0 0 0 0
          0 0 0 0 0 0
          0 0 0 0 0 0
          0 0 0 0 0 0
          0 0 0 0 0 0
          0 0 0 0 0 0
          0 0 0 0 0 0
          0 0 0 0 0 0
          0 0 0 0 0 0
          0 0 0 0 0 0
          0 0 0 0 0 0
          0 0 0 0 0 0
          0
        </DataArray>
        <DataArray type="Float64" Name="combo" format="ascii" RangeMin="1" RangeMax="1">
          1 1 1 1 1 1
          1 1 1 1 1 1
          1 1 1 1 1 1
          1 1 1 1 1 1
          1 1 1 1 1 1
          1 1 1 1 1 1
          1 1 1 1 1 1
          1 1 1 1 1 1
          1 1 1 1 1 1
          1 1 1 1 1 1
          1 1 1 1 1 1
          1 1 1 1 1 1
          1 1 1 1 1 1
          1 1 1 1 1 1
          1 1 1 1 1 1
          1 1 1 1 1 1
          1 1 1 1 1 1
          1 1 1 1 1 1
          1 1 1 1 1 1
          1 1 1 1 1 1
          1 1 1 1 1 1
          1 1 1 1 1 1
          1 1 1 1 1 1
          1 1 1 1 1 1
          1 1 1 1 1 1
          1 1 1 1 1 1
          1 1 1 1 1 1
          1 1 1 1 1 1
          1 1 1 1 1 1
          1 1 1 1 1 1
          1 1 1 1 1 1
          1 1 1 1 1 1
          1 1 1 1 1 1
          1 1 1 1 1 1
          1 1 1 1 1 1
          1 1 1 1 1 1
          1 1 1 1 1 1
          1 1 1 1 1 1
          1 1 1 1 1 1
          1 1 1 1 1 1
          1 1 1 1 1 1
          1 1 1 1 1 1
          1 1 1 1 1 1
          1 1 1 1 1 1
          1 1 1 1 1 1
          1 1 1 1 1 1
          1 1 1 1 1 1
          1 1 1 1 1 1
          1 1 1 1 1 1
          1 1 1 1 1 1
          1 1 1 1 1 1
          1 1 1 1 1 1
          1 1 1 1 1 1
          1 1 1 1 1 1
          1 1 1 1 1 1
          1 1 1 1 1 1
          1 1 1 1 1 1
          1 1 1 1 1 1
          1 1 1 1 1 1
          1 1 1 1 1 1
          1 1 1 1 1 1
          1 1 1 1 1 1
          1
        </DataArray>
        <DataArray type="Float64" Name="dHdT" format="ascii" RangeMin="25.794831532356476" RangeMax="31.17978440309806">
          25.811440320825184 25.81144014558214 25.81144528304745 25.811445382301134 25.811458420040687 25.811458035343215
          25.81145142001789 25.811451573698324 25.811441330058976 25.811445868497067 25.811455491186052 25.811450224209768
          25.811447508596245 25.81144890066077 25.811447912970912 25.811446584404344 25.811450420512763 25.811450443777083
          25.811444804692556 25.811444727355962 25.81145040693516 25.811444957233483 25.811450292725304 25.81144525583778
          25.81138840936056 25.811391342288736 25.811421413315788 25.81142021463733 25.81140478005345 25.811427547939488
          25.81143821299763 25.811443327008753 25.81145148434284 25.811452019914093 25.811450315825518 25.811448441019877
          25.81165166266076 25.811634244654833 25.811508249113498 25.81151526084932 25.81156910109924 25.81147955254107
          25.81143017830599 25.811415590919438 25.811382253572162 25.81137885903788 25.8113900039829 25.811401003532886
          25.807399650649423 25.808372561101827 25.811356643878593 25.81115563567606 25.810208666377775 25.811649159357888
          25.813143730490864 25.81178380860277 25.811598468326636 25.81160932271967 25.81158640132036 25.81159601761542
          25.98253577162437 25.94869053898742 25.870974854568 25.881745194422088 25.898281231190868 25.852490743408083
          25.83522176218254 25.810457451067577 25.810208980758468 25.81094505735946 25.811430494966356 29.389877777842113
          29.817443285929095 26.109729586439673 26.15480567957031 30.611552878860973 26.032514709095647 25.801158944879806
          25.799819796968382 25.804302382740822 25.878747729131888 25.81368308211868 25.794831532356476 25.800852553184118
          25.806873574011764 25.97139260801609 25.938678669119078 25.94577121431645 27.607027975183186 27.625092356776893
          26.80279641489596 26.808866252049746 25.922491242105757 27.654388196350038 26.78315981183621 25.90084258489686
          25.99974182093794 26.008609413134558 25.979277779510433 29.52750756542035 27.932288191577975 27.901723563274047
          27.99221830868276 26.140709100864747 25.923335092374447 25.90372115562873 27.686004467887024 26.753626376538744
          25.884933063565587 27.707856938850604 26.713079448820395 25.87840203745669 25.954810826407964 25.929121616918
          30.171753098481258 28.053479134243922 28.115141511370684 26.072506214222376 25.876389023765906 25.866875514797236
          27.721662405039858 26.66015192855928 25.85406723506419 25.903491022503008 31.17978440309806 28.17183475831648
          25.991128854663952 25.81044676443614 25.807902091910698 25.81013983367724 25.80337239956293 25.806513626590803
          25.80609857342528 25.813231785788133 25.81180977866773 25.810623371782427 25.811567441495733 25.807525650695894
          25.808470648241997 25.808429713007108 25.809654853618675 25.809436964897113 25.809903097203332 25.808388777772223
          25.806567376846225 25.808772669057866 25.804750598728315 25.80606035619742 25.81012228936849 25.80132837911744
          25.804032644735763 25.810977961269515 25.807370113666522 25.80673691035408 25.81117376127989 25.811657996141797
          25.798151199412168 25.802370961100905 25.812142231003705 25.806590722789647 25.820938793934907 25.82198697951285
          25.83346061068965 25.83557475304722 25.818462257316625 25.828397028169626 25.808640369314023 25.80441542787222
          25.804155901114196 25.80508881884633 25.845982427444387 25.84916252658159 25.838331799022622 25.80019048643042
          25.815716170843594 25.822551771627975 25.813357591016725 25.81705548301665 25.809509538745992 25.806023306702684
          25.80716928933279 25.82938737241236 25.820753375016576 25.802537074659373 25.811597571901874 25.81219412161674
          25.81054873122748 25.808525279270285 25.812790671331612 25.806501827313095 26.136065777327474 26.105903924526988
          26.11062447029038 26.549109108335873 26.544273552231132 26.462527338827485 26.4672906546177 26.09385752041432
          26.531936193256218 26.450274803229668 26.075742071726506 26.380781125423844 26.385472200899528 26.36861341320311
          27.612592200917128 27.38612862754921 27.38336308045907 27.391909363349786 27.054253162589045 26.104789217369305
          26.077650719329608 26.515662099914785 26.43365525493799 26.059466425517446 26.497339244912155 26.414549703549184
          26.050512221289914 26.3516484099612 26.331760162186225 27.639142354186372 27.396991063620554 27.401138877033492
          27.04279024371954 28.82355987932573 28.850840227894853 28.460794228243415 28.44158401011282 28.918178975360675
          28.50900725607159 27.574236168871604 27.56966122043666 27.585910184735837 29.428977381090235 28.968481954516392
          28.940398698252526 29.040887871488614 27.910002683420227 29.0065807271199 28.571882497828838 29.108382181331443
          28.641948916832668 27.59997599458209 27.61241936922632 29.66141172832731 29.13944265896294 29.251253061179284
          27.962158922901114 26.534929057362483 26.539091994986 26.69674143016439 26.70045440020074 26.523772848278806
          26.686874433856957 26.22642873532041 26.315758751177547 26.32119450042807 26.301764035024753 26.858553802966295
          26.861816805415486 26.849976019435108 26.405088767034684 26.5075548343664 26.67262279704241 26.48769264687392
          26.65467839859945 26.19641848368364 26.282477873458422 26.26003371108015 26.837690759718427 26.82166415032498
          26.3685372632332 26.064730356999412 26.04049457001133 26.47743097585572 26.393769487954263 26.021201928307065
          26.455705086765597 26.371247447429862 26.016258783023247 26.3101080000528 26.286789808094127 27.67034289681263
          27.404742191186877 27.40654615221688 27.018225029229257 26.022744736609543 26.00201458973308 26.43176933382974
          26.34700896293188 25.98339460407325 26.4059336085179 26.321416090095127 25.981284442856612 26.26224859203402
          26.236898571672352 27.698590197673987 27.404855577186883 27.400158528120677 26.981270702893138 29.21835292658472
          28.716527028386686 29.3380441124313 28.79650046443278 27.62355294135078 27.634257651891218 29.98615165425621
          29.37061408029681 29.501201590984447 28.021746947398864 29.467458695848094 28.880567198389997 29.60896214101205