<?xml version="1.0"?>
<VTKFile type="UnstructuredGrid" version="0.1" byte_order="LittleEndian" header_type="UInt32" compressor="vtkZLibDataCompressor">
  <UnstructuredGrid>
    <Piece NumberOfPoints="379" NumberOfCells="197">
      <PointData>
        <DataArray type="Int32" Name="libmesh_node_id" format="ascii" RangeMin="246" RangeMax="3060">
          686 687 692 877 878 881
          882 884 886 1366 1368 1369
          1370 1371 1372 1373 1374 1375
          1376 1379 1380 1382 1384 1406
          1408 1410 1412 1414 1416 1418
          1500 1501 1502 1503 1504 1505
          1506 1600 1601 1602 1603 1604
          1605 1606 1607 1608 1609 1610
          1611 1612 1614 1615 1616 1618
          1619 1620 1621 1622 1623 1624
          1625 1626 1627 1628 1629 2756
          2758 2764 2765 2766 2767 2768
          2769 2771 2773 2775 2777 2778
          2779 2780 2781 2782 2783 2784
          2785 2786 2787 2788 2789 2790
          2791 2792 2793 2794 2795 2796
          2797 2798 2799 2800 2801 2802
          2803 2804 2805 2806 2807 2808
          2809 2810 2811 2812 2813 2814
          2815 2816 2817 2818 2819 2820
          2821 2823 2967 2968 2969 2970
          2971 2972 2973 2976 2977 2981
          2982 2983 2984 2985 2986 2987
          2995 2996 2997 2998 2999 3000
          3001 3009 3010 3011 3012 3013
          3014 3015 3016 3017 3018 3019
          3020 3021 3022 3023 3025 3027
          3029 3030 3031 3032 3033 3034
          3035 3036 3037 3038 3039 3040
          3041 3042 3043 3044 3045 3046
          3047 3049 3051 3053 3054 3055
          3056 3057 3058 3059 3060 456
          770 775 459 322 333 339
          246 777 462 327 340 778
          463 254 345 784 468 860
          863 866 865 680 683 335
          879 688 880 671 672 675
          883 677 885 1271 1365 324
          1272 1275 1367 1358 1346 1359
          1377 1360 1378 1381 1383 1413
          1415 1417 343 864 1495 634
          1496 1499 1533 1596 1534 1597
          1537 1598 1599 1550 1551 1554
          654 1329 1309 1407 1613 1330
          1333 1411 1617 1335 2734 2741
          2745 2736 2738 2747 2749 1364
          2750 2752 2754 2751 2753 2755
          2636 2637 2640 1345 2757 2759
          2760 2761 2762 2763 2646 2650
          2647 2673 2674 2770 2772 2677
          1350 2774 2776 2680 2681 2684
          682 2312 2296 2313 2316 1277
          2318 2708 2735 2739 2744 2746
          685 2822 2913 2919 2921 2915
          2846 2847 2961 2960 2963 2962
          2853 2854 1389 2857 2965 1390
          1405 2506 2974 2518 2975 2520
          2522 2978 2980 2979 2881 2887
          2989 2888 2991 1394 2891 2993
          690 1409 3003 3005 3007 2914
          2918 1399 2922 3024 3026 2925
          1400 3028 2948 2949 2952 1404
          2955 2956 3048 3050 2959 691
          3052
        </DataArray>
        <DataArray type="Float64" Name="bounds" format="ascii" RangeMin="0" RangeMax="0">
          0 0 0 0 0 0
          0 0 0 0 0 0
          0 0 0 0 0 0
          0 0 0 0 0 0
          0 0 0 0 0 0
          0 0 0 0 0 0
          0 0 0 0 0 0
          0 0 0 0 0 0
          0 0 0 0 0 0
          0 0 0 0 0 0
          0 0 0 0 0 0
          0 0 0 0 0 0
          0 0 0 0 0 0
          0 0 0 0 0 0
          0 0 0 0 0 0
          0 0 0 0 0 0
          0 0 0 0 0 0
          0 0 0 0 0 0
          0 0 0 0 0 0
          0 0 0 0 0 0
          0 0 0 0 0 0
          0 0 0 0 0 0
          0 0 0 0 0 0
          0 0 0 0 0 0
          0 0 0 0 0 0
          0 0 0 0 0 0
          0 0 0 0 0 0
          0 0 0 0 0 0
          0 0 0 0 0 0
          0 0 0 0 0 0
          0 0 0 0 0 0
          0 0 0 0 0 0
          0 0 0 0 0 0
          0 0 0 0 0 0
          0 0 0 0 0 0
          0 0 0 0 0 0
          0 0 0 0 0 0
          0 0 0 0 0 0
          0 0 0 0 0 0
          0 0 0 0 0 0
          0 0 0 0 0 0
          0 0 0 0 0 0
          0 0 0 0 0 0
          0 0 0 0 0 0
          0 0 0 0 0 0
          0 0 0 0 0 0
          0 0 0 0 0 0
          0 0 0 0 0 0
          0 0 0 0 0 0
          0 0 0 0 0 0
          0 0 0 0 0 0
          0 0 0 0 0 0
          0 0 0 0 0 0
          0 0 0 0 0 0
          0 0 0 0 0 0
          0 0 0 0 0 0
          0 0 0 0 0 0
          0 0 0 0 0 0
          0 0 0 0 0 0
          0 0 0 0 0 0
          0 0 0 0 0 0
          0 0 0 0 0 0
          0 0 0 0 0 0
          0
        </DataArray>
        <DataArray type="Float64" Name="gradient_error" format="ascii" RangeMin="6.403576357936601e-12" RangeMax="3.913334306662244e-9">
          1.4540970283517264e-10 1.1672774649146137e-10 1.6275013388791666e-10 1.907968469410546e-10 1.9474491436610342e-10 1.9725054685704021e-10
          2.935739789774882e-10 2.1546750261668176e-10 3.4929722979514675e-10 1.642021495445732e-10 7.934099210810803e-11 1.8515423464529818e-10
          1.9580869259191898e-10 9.86584201807419e-11 3.182686721755316e-10 1.0963099484876287e-10 2.4949361343851007e-10 5.401103685406827e-11
          5.24727158007574e-11 3.323777898879941e-11 6.024123164580804e-11 5.240968279761558e-11 6.337286720352092e-11 2.0460523208201402e-10
          1.3785154418356234e-10 2.637878212017695e-10 7.224397678158029e-11 6.373599837156066e-11 9.056038552979388e-11 7.543633455115201e-11
          1.0852478610257345e-10 1.5705932962746656e-10 5.197763661709508e-11 6.549723183402785e-11 9.634906303885786e-11 1.2649971429655434e-10
          6.794089818567354e-11 5.776567631959617e-11 8.453988918251024e-11 5.535806570533066e-11 1.0341414969754103e-10 1.5155872371114373e-10
          6.758651962783034e-11 8.875183554104082e-11 7.439462158414668e-11 9.347248772409604e-11 6.329706531274498e-11 2.640499033178847e-10
          1.1989285112470553e-10 1.3014603225901713e-10 1.4616785162178112e-10 1.5095568302248216e-10 7.538487732776111e-11 1.6745500228362964e-10
          1.5416965539097546e-10 4.1599632692662044e-11 4.8432167533815604e-11 2.3128385665623935e-11 2.3860343659475356e-11 2.8303266373849425e-11
          3.1306012418910446e-11 1.9303983595493707e-11 5.526470237496916e-11 2.4592301653326777e-11 3.430875846397147e-11 6.336800416450045e-11
          1.7283497607851525e-10 2.573316680178899e-11 3.6251149426715054e-11 2.735636268635375e-11 9.813405003663282e-11 6.319458831080815e-11
          6.557773465196027e-11 3.441210205244439e-10 1.8579884186926561e-10 6.227615021626418e-10 1.9493099493548803e-10 1.0545468391453058e-10
          1.055214416232117e-10 6.730726812735899e-11 3.5039579717130313e-10 1.886966905904336e-10 1.8035068937856462e-10 1.1880917124936044e-10
          1.6183252407633963e-10 7.153316996742575e-11 9.653752248960216e-11 8.552440296062242e-11 1.0914406564015921e-10 6.614300294061633e-11
          2.636251929510283e-10 1.5610397020958982e-10 1.6859832237230838e-10 4.0828086308525615e-11 5.5012166904324804e-11 3.067876753746821e-11
          4.0013778510089554e-11 3.005723784553371e-11 3.854779717010879e-11 2.9517591355245055e-11 8.919584234574369e-11 5.6164903495220247e-11
          5.916194617779948e-11 3.7754314284093683e-11 5.4575927249968186e-11 1.9299010931943187e-11 2.7526478936579776e-11 2.8269030677580325e-11
          3.922558914147208e-11 2.009300198931236e-11 9.731509820871342e-11 4.8368195219871956e-11 5.842451655018034e-11 9.334984131056e-12
          1.3188746406883355e-11 6.403576357936601e-12 8.595650896861677e-12 7.173884489909312e-12 9.697791323492211e-12 6.6318167052119415e-12
          2.2984397275227372e-11 1.6237270293123736e-11 5.650317634864313e-10 3.0254735584540605e-10 2.7681988303773603e-10 1.4965062738206633e-10
          8.037790319338032e-10 4.283377459612572e-10 3.7878013045866417e-10 2.435020706869975e-10 1.435643055452482e-10 1.3065264872847495e-10
          7.165806494346832e-11 8.278175135296126e-11 4.696530733925838e-11 1.7191477404266324e-10 9.4311426856373e-11 1.0515615098734324e-10
          9.974991692573617e-10 5.302898517112159e-10 4.592980964332239e-10 2.474737205893709e-10 1.0725455209027821e-9 5.697312176350788e-10
          4.90035166561766e-10 2.0379083768811006e-10 1.1145562193927751e-10 1.2273474565338536e-10 6.838589336647877e-11 2.1586198755648018e-10
          1.1803155955127073e-10 1.294351561770916e-10 1.5537795713085236e-10 7.63838968860303e-11 7.764534860291675e-11 4.6124094916176525e-11
          2.1890399872727618e-10 1.0679585103533668e-10 1.0635462864431063e-10 3.58104019197538e-11 2.455777778534731e-11 4.944613587944166e-11
          3.312297752582908e-11 3.074926806833735e-11 3.729716928209868e-11 2.1357146363179307e-11 2.5385399739453833e-11 2.1877933282060846e-11
          2.5187825853316005e-11 1.7754142146669265e-11 4.94319693760337e-11 3.338910656653462e-11 3.1884401630402466e-11 2.6998490252642093e-10
          1.3113583142872495e-10 1.282342087299423e-10 7.562311219936661e-11 2.8968506565841e-10 1.404653110603096e-10 1.3650415635450822e-10
          6.036756352779169e-11 3.9937888249389683e-11 6.453737326846365e-11 4.249253458864348e-11 5.833278363168024e-11 3.946605652828436e-11
          3.725159905446172e-11 2.7015942214363572e-11 6.16466990071531e-11 4.156755303922782e-11 3.923211327268967e-11 4.905772536176787e-10
          1.0523018370268863e-10 1.3413509631085724e-10 5.117133163771923e-10 6.808035107421304e-10 1.0324544953085568e-10 2.0210230895914458e-10
          1.274013401796202e-9 2.1374891234670963e-10 7.755976693183353e-10 1.3755986801576391e-9 2.646344742225346e-10 2.749867820967455e-10
          1.0872264236311371e-9 2.1671345372069416e-9 3.2022012011075946e-10 3.362246518467814e-10 1.398855177943939e-9 1.0491117876395708e-10
          3.9399625963803234e-11 5.597424650975447e-11 1.4701671808917768e-10 8.223717693132731e-11 4.061146285290734e-11 7.221774710061955e-11
          8.279191150872152e-11 5.497357240435866e-11 7.229014370996144e-11 7.876667867452238e-10 8.563711346342005e-10 1.4298267636364428e-9
          7.566327186674877e-11 1.0874606461605246e-9 6.028435809818625e-11 4.405567584026571e-10 1.6687962114881145e-10 6.96398042041979e-10
          4.4551220183671363e-10 5.070990585534366e-10 8.597898117090134e-11 4.8844689575640205e-11 9.683214592844818e-11 4.4838763510661115e-11
          1.7999975262176722e-11 2.1742744214708346e-11 1.9294837045735235e-11 1.9942987213773688e-11 2.5855960951385778e-11 3.949196560925861e-11
          5.207786084180987e-11 4.773183524959206e-11 5.849848564192265e-11 1.2547163608227916e-10 4.2688979875113677e-10 6.489207547800351e-10
          6.855714185909126e-10 4.540123104105919e-10 1.5673673926362748e-10 6.466653852462811e-11 2.823992786070623e-10 1.1019477376298463e-10
          2.1582038328639514e-10 4.191325616583955e-11 6.450190090595605e-11 2.673520706513647e-10 3.734897944740545e-10 2.1654674551279058e-10
          6.347170013503572e-10 6.373140142260298e-10 7.444525957646748e-10 3.9014001458928727e-10 3.7293083612369143e-10 6.419010526703588e-10
          3.5508317770300855e-10 4.551576477290785e-10 4.1746516333635985e-10 4.857665075578955e-10 7.084536142689417e-11 3.3129187794631297e-11
          2.188704084121011e-11 4.6070488940311403e-11 1.3624421460464853e-10 6.300086674963108e-11 3.9963415954363726e-11 8.483293030383058e-11
          8.758923376779549e-11 5.305688806939762e-11 7.224238861445607e-11 1.3729745844235422e-10 8.188215980647647e-11 1.0493858209922123e-10
          2.1182900139851852e-10 1.2518026119954728e-10 4.815038229996958e-10 2.829937694478606e-10 2.9290745998011415e-10 1.936743455918874e-10
          3.115855722971606e-11 4.669899052870721e-11 2.4055831170117728e-11 3.403610584742635e-11 7.13402880794051e-11 1.600419079917778e-10
          4.4558134190278115e-11 1.0190258366087874e-9 5.975509106884347e-10 5.852493769294599e-10 3.148818304021227e-10 1.9570523455823434e-9
          1.1473423272753441e-9 1.0611095555426502e-9 5.409730826618865e-10 3.3574197532658924e-10 1.80545255196494e-10 6.400690516768048e-10
          3.4078458150811566e-10 1.9513739813287904e-10 5.160689351043236e-10 2.6542994869517177e-10 1.7874260605790514e-10 8.850250255206124e-10
          4.328927392831447e-10 5.1940569712237756e-11 9.294248581956649e-11 1.7363637236230948e-10 1.480709143814399e-11 1.1663326547354454e-11
          2.0227466304341453e-11 1.2312393068234529e-11 2.3276701995984982e-10 1.0574768034747697e-10 6.47122058805678e-11 1.3955999251894525e-10
          3.313704028276531e-9 1.9491581310303722e-9 1.0090559946321768e-9 1.719940607214936e-9 4.903108192959968e-10 8.346747699811436e-10
          1.0851762168955884e-9 5.739029950235234e-10 2.8686589307128708e-9 1.5980259389823828e-9 1.4392373862624955e-9 8.422625115933526e-10
          6.73445020008103e-10 1.3636649588542622e-9 3.896476890704849e-10 6.415989230797809e-10 2.2932205370977184e-10 4.0468179654849987e-10
          8.569146546799854e-10 5.19492285505227e-10 3.197976359214497e-10 3.0376802704682624e-10 3.6212693549632806e-9 2.020519229314841e-9
          1.7874324234043083e-9 1.0637172816181336e-9 8.177879184650151e-10 3.913334306662244e-9 2.185241797107332e-9 1.9222585796581087e-9
          1.1502205668892951e-9 8.730101707518929e-10 3.6120096883954913e-10 2.1759245950216269e-10 3.8284392559758826e-10 2.8932266804313587e-10
          4.2174422322144545e-10 2.0148720557249664e-10 2.8777075482251656e-11 1.6220205852684108e-11 1.1333840205623153e-11 9.223059920803835e-11
          4.062178169297309e-11 2.224972360768169e-11 5.308141296830167e-10 2.522591596845883e-10 5.734053600209765e-10 2.720490325370947e-10
          1.1471784988454367e-10 5.013078218607534e-11 2.6930662131688212e-11 1.798866722286859e-11 1.2343907144969506e-10 5.37944300370709e-11
          2.8727561868922846e-11
        </DataArray>
        <DataArray type="Float64" Name="gradient_matprop_error" format="ascii" RangeMin="0" RangeMax="0">
          0 0 0 0 0 0
          0 0 0 0 0 0
          0 0 0 0 0 0
          0 0 0 0 0 0
          0 0 0 0 0 0
          0 0 0 0 0 0
          0 0 0 0 0 0
          0 0 0 0 0 0
          0 0 0 0 0 0
          0 0 0 0 0 0
          0 0 0 0 0 0
          0 0 0 0 0 0
          0 0 0 0 0 0
          0 0 0 0 0 0
          0 0 0 0 0 0
          0 0 0 0 0 0
          0 0 0 0 0 0
          0 0 0 0 0 0
          0 0 0 0 0 0
          0 0 0 0 0 0
          0 0 0 0 0 0
          0 0 0 0 0 0
          0 0 0 0 0 0
          0 0 0 0 0 0
          0 0 0 0 0 0
          0 0 0 0 0 0
          0 0 0 0 0 0
          0 0 0 0 0 0
          0 0 0 0 0 0
          0 0 0 0 0 0
          0 0 0 0 0 0
          0 0 0 0 0 0
          0 0 0 0 0 0
          0 0 0 0 0 0
          0 0 0 0 0 0
          0 0 0 0 0 0
          0 0 0 0 0 0
          0 0 0 0 0 0
          0 0 0 0 0 0
          0 0 0 0 0 0
          0 0 0 0 0 0
          0 0 0 0 0 0
          0 0 0 0 0 0
          0 0 0 0 0 0
          0 0 0 0 0 0
          0 0 0 0 0 0
          0 0 0 0 0 0
          0 0 0 0 0 0
          0 0 0 0 0 0
          0 0 0 0 0 0
          0 0 0 0 0 0
          0 0 0 0 0 0
          0 0 0 0 0 0
          0 0 0 0 0 0
          0 0 0 0 0 0
          0 0 0 0 0 0
          0 0 0 0 0 0
          0 0 0 0 0 0
          0 0 0 0 0 0
          0 0 0 0 0 0
          0 0 0 0 0 0
          0 0 0 0 0 0
          0 0 0 0 0 0
          0
        </DataArray>
        <DataArray type="Float64" Name="initial_marker" format="ascii" RangeMin="0" RangeMax="2">
          0 0 0.5 0 0 0
          0 0 0 0.5 0 0
          0 0 2 1.5 0.25 0
          0 0 0 0.5 0 2
          0.25 2 1.5 0 1.5 0
          0 0 0 0 0 0
          0 0 0 0 0 0
          0 0 0 0 0 0
          0 0 0 0 0 0
          0 0 0 0 0 0
          0 0 0 0 0 0
          1.5 0 0 0 1 0.6666666666666666
          0.3333333333333333 2 1.5 2 1.75 1.5
          1 0.6666666666666666 2 2 1.75 0
          0.5 0 0.5 0 0 0
          1.5 1.25 1 0 0.25 0
          0 0 0 0 0.75 0.6666666666666666
          0 0.5 1 0 0.5 0
          0.5 0 1.75 1.5 1.3333333333333333 0
          0.25 0 0 0 0 0
          1 0.5 2 2 2 2
          2 2 2 2 1.5 1.25
          1 0.5 0 1.75 1.25 1.5
          2 2 2 2 2 2
          2 2 1.5 2 1 2
          1.5 2 2 2 1.75 1.6666666666666667
          2 2 2 1.5 1 1.75
          1.5 0.5 0.75 0 0.5 0
          0 0 1 1 0 2
          2 2 2 2 2 2
          2 2 2 2 1 1
          0 0 1 1 0 0
          0 0 0 0 0 0
          0 0 0 0 0 0
          0 0 0 0 0 0
          0 0 0 0 0 0
          0 0 0 0 0 0
          0 0 0 0 0 0
          1 0 0 0 1.25 0.25
          0 0 0 0 0 0.25
          0 0.5 0 0 0 0
          0 0 0 0 0 0
          0 0 0 0 0 0
          0.5 0 1.25 1 0 0
          0 1 0 0 1.75 1.25
          0.75 1.25 2 2 1.75 2
          0 0 0 0.5 0.5 0
          1.25 1 2 2 1.5 0.6666666666666666
          0 0.25 0 0 0.75 1.75
          0.3333333333333333 2 2 2 1.5 2
          2 2 2 2 2 2
          2 0.5 1.75 0.75 0 2
          1.5 1 1.75 2 0 0.3333333333333333
          1 0.3333333333333333 2 2 2 2
          2 2 2 2 2 2
          2 2 2 2 2 2
          2 2 2 2 1.75 2
          2 2 2 2 2 2
          2 2 2 2 2 2
          2 2 2 2 2 2
          2 2 1.75 0.75 0 2
          2 1.25 2 2 2 2
          2 2 1.5 1 2 2
          1.5
        </DataArray>
        <DataArray type="Float64" Name="markers_norefine" format="ascii" RangeMin="0" RangeMax="0">
          0 0 0 0 0 0
          0 0 0 0 0 0
          0 0 0 0 0 0
          0 0 0 0 0 0
          0 0 0 0 0 0
          0 0 0 0 0 0
          0 0 0 0 0 0
          0 0 0 0 0 0
          0 0 0 0 0 0
          0 0 0 0 0 0
          0 0 0 0 0 0
          0 0 0 0 0 0
          0 0 0 0 0 0
          0 0 0 0 0 0
          0 0 0 0 0 0
          0 0 0 0 0 0
          0 0 0 0 0 0
          0 0 0 0 0 0
          0 0 0 0 0 0
          0 0 0 0 0 0
          0 0 0 0 0 0
          0 0 0 0 0 0
          0 0 0 0 0 0
          0 0 0 0 0 0
          0 0 0 0 0 0
          0 0 0 0 0 0
          0 0 0 0 0 0
          0 0 0 0 0 0
          0 0 0 0 0 0
          0 0 0 0 0 0
          0 0 0 0 0 0
          0 0 0 0 0 0
          0 0 0 0 0 0
          0 0 0 0 0 0
          0 0 0 0 0 0
          0 0 0 0 0 0
          0 0 0 0 0 0
          0 0 0 0 0 0
          0 0 0 0 0 0
          0 0 0 0 0 0
          0 0 0 0 0 0
          0 0 0 0 0 0
          0 0 0 0 0 0
          0 0 0 0 0 0
          0 0 0 0 0 0
          0 0 0 0 0 0
          0 0 0 0 0 0
          0 0 0 0 0 0
          0 0 0 0 0 0
          0 0 0 0 0 0
          0 0 0 0 0 0
          0 0 0 0 0 0
          0 0 0 0 0 0
          0 0 0 0 0 0
          0 0 0 0 0 0
          0 0 0 0 0 0
          0 0 0 0 0 0
          0 0 0 0 0 0
          0 0 0 0 0 0
          0 0 0 0 0 0
          0 0 0 0 0 0
          0 0 0 0 0 0
          0 0 0 0 0 0
          0
        </DataArray>
        <DataArray type="Float64" Name="markers_mustrefine" format="ascii" RangeMin="0" RangeMax="2">
          0 0 0.5 0 0 0
          0 0 0 0.5 0 0
          0 0 2 1.5 0.25 0
          0 0 0 0.5 0 2
          0.25 2 1.5 0 1.5 0
          0 0 0 0 0 0
          0 0 0 0 0 0
          0 0 0 0 0 0
          0 0 0 0 0 0
          0 0 0 0 0 0
          0 0 0 0 0 0
          1.5 0 0 0 1 0.6666666666666666
          0.3333333333333333 2 1.5 2 1.75 1.5
          1 0.6666666666666666 2 2 1.75 0
          0.5 0 0.5 0 0 0
          1.5 1.25 1 0 0.25 0
          0 0 0 0 0.75 0.6666666666666666
          0 0.5 1 0 0.5 0
          0.5 0 1.75 1.5 1.3333333333333333 0
          0.25 0 0 0 0 0
          1 0.5 2 2 2 2
          2 2 2 2 1.5 1.25
          1 0.5 0 1.75 1.25 1.5
          2 2 2 2 2 2
          2 2 1.5 2 1 2
          1.5 2 2 2 1.75 1.6666666666666667
          2 2 2 1.5 1 1.75
          1.5 0.5 0.75 0 0.5 0
          0 0 1 1 0 2
          2 2 2 2 2 2
          2 2 2 2 1 1
          0 0 1 1 0 0
          0 0 0 0 0 0
          0 0 0 0 0 0
          0 0 0 0 0 0
          0 0 0 0 0 0
          0 0 0 0 0 0
          0 0 0 0 0 0
          1 0 0 0 1.25 0.25
          0 0 0 0 0 0.25
          0 0.5 0 0 0 0
          0 0 0 0 0 0
          0 0 0 0 0 0
          0.5 0 1.25 1 0 0
          0 1 0 0 1.75 1.25
          0.75 1.25 2 2 1.75 2
          0 0 0 0.5 0.5 0
          1.25 1 2 2 1.5 0.6666666666666666
          0 0.25 0 0 0.75 1.75
          0.3333333333333333 2 2 2 1.5 2
          2 2 2 2 2 2
          2 0.5 1.75 0.75 0 2
          1.5 1 1.75 2 0 0.3333333333333333
          1 0.3333333333333333 2 2 2 2
          2 2 2 2 2 2
          2 2 2 2 2 2
          2 2 2 2 1.75 2
          2 2 2 2 2 2
          2 2 2 2 2 2
          2 2 2 2 2 2
          2 2 1.75 0.75 0 2
          2 1.25 2 2 2 2
          2 2 1.5 1 2 2
          1.5
        </DataArray>
        <DataArray type="Float64" Name="gradient_marker" format="ascii" RangeMin="1" RangeMax="1">
          1 1 1 1 1 1
          1 1 1 1 1 1
          1 1 1 1 1 1
          1 1 1 1 1 1
          1 1 1 1 1 1
          1 1 1 1 1 1
          1 1 1 1 1 1
          1 1 1 1 1 1
          1 1 1 1 1 1
          1 1 1 1 1 1
          1 1 1 1 1 1
          1 1 1 1 1 1
          1 1 1 1 1 1
          1 1 1 1 1 1
          1 1 1 1 1 1
          1 1 1 1 1 1
          1 1 1 1 1 1
          1 1 1 1 1 1
          1 1 1 1 1 1
          1 1 1 1 1 1
          1 1 1 1 1 1
          1 1 1 1 1 1
          1 1 1 1 1 1
          1 1 1 1 1 1
          1 1 1 1 1 1
          1 1 1 1 1 1
          1 1 1 1 1 1
          1 1 1 1 1 1
          1 1 1 1 1 1
          1 1 1 1 1 1
          1 1 1 1 1 1
          1 1 1 1 1 1
          1 1 1 1 1 1
          1 1 1 1 1 1
          1 1 1 1 1 1
          1 1 1 1 1 1
          1 1 1 1 1 1
          1 1 1 1 1 1
          1 1 1 1 1 1
          1 1 1 1 1 1
          1 1 1 1 1 1
          1 1 1 1 1 1
          1 1 1 1 1 1
          1 1 1 1 1 1
          1 1 1 1 1 1
          1 1 1 1 1 1
          1 1 1 1 1 1
          1 1 1 1 1 1
          1 1 1 1 1 1
          1 1 1 1 1 1
          1 1 1 1 1 1
          1 1 1 1 1 1
          1 1 1 1 1 1
          1 1 1 1 1 1
          1 1 1 1 1 1
          1 1 1 1 1 1
          1 1 1 1 1 1
          1 1 1 1 1 1
          1 1 1 1 1 1
          1 1 1 1 1 1
          1 1 1 1 1 1
          1 1 1 1 1 1
          1 1 1 1 1 1
          1
        </DataArray>
        <DataArray type="Float64" Name="gradient_matprop_marker" format="ascii" RangeMin="0" RangeMax="0">
          0 0 0 0 0 0
          0 0 0 0 0 0
          0 0 0 0 0 0
          0 0 0 0 0 0
          0 0 0 0 0 0
          0 0 0 0 0 0
          0 0 0 0 0 0
          0 0 0 0 0 0
          0 0 0 0 0 0
          0 0 0 0 0 0
          0 0 0 0 0 0
          0 0 0 0 0 0
          0 0 0 0 0 0
          0 0 0 0 0 0
          0 0 0 0 0 0
          0 0 0 0 0 0
          0 0 0 0 0 0
          0 0 0 0 0 0
          0 0 0 0 0 0
          0 0 0 0 0 0
          0 0 0 0 0 0
          0 0 0 0 0 0
          0 0 0 0 0 0
          0 0 0 0 0 0
          0 0 0 0 0 0
          0 0 0 0 0 0
          0 0 0 0 0 0
          0 0 0 0 0 0
          0 0 0 0 0 0
          0 0 0 0 0 0
          0 0 0 0 0 0
          0 0 0 0 0 0
          0 0 0 0 0 0
          0 0 0 0 0 0
          0 0 0 0 0 0
          0 0 0 0 0 0
          0 0 0 0 0 0
          0 0 0 0 0 0
          0 0 0 0 0 0
          0 0 0 0 0 0
          0 0 0 0 0 0
          0 0 0 0 0 0
          0 0 0 0 0 0
          0 0 0 0 0 0
          0 0 0 0 0 0
          0 0 0 0 0 0
          0 0 0 0 0 0
          0 0 0 0 0 0
          0 0 0 0 0 0
          0 0 0 0 0 0
          0 0 0 0 0 0
          0 0 0 0 0 0
          0 0 0 0 0 0
          0 0 0 0 0 0
          0 0 0 0 0 0
          0 0 0 0 0 0
          0 0 0 0 0 0
          0 0 0 0 0 0
          0 0 0 0 0 0
          0 0 0 0 0 0
          0 0 0 0 0 0
          0 0 0 0 0 0
          0 0 0 0 0 0
          0
        </DataArray>
        <DataArray type="Float64" Name="combo" format="ascii" RangeMin="1" RangeMax="1">
          1 1 1 1 1 1
          1 1 1 1 1 1
          1 1 1 1 1 1
          1 1 1 1 1 1
          1 1 1 1 1 1
          1 1 1 1 1 1
          1 1 1 1 1 1
          1 1 1 1 1 1
          1 1 1 1 1 1
          1 1 1 1 1 1
          1 1 1 1 1 1
          1 1 1 1 1 1
          1 1 1 1 1 1
          1 1 1 1 1 1
          1 1 1 1 1 1
          1 1 1 1 1 1
          1 1 1 1 1 1
          1 1 1 1 1 1
          1 1 1 1 1 1
          1 1 1 1 1 1
          1 1 1 1 1 1
          1 1 1 1 1 1
          1 1 1 1 1 1
          1 1 1 1 1 1
          1 1 1 1 1 1
          1 1 1 1 1 1
          1 1 1 1 1 1
          1 1 1 1 1 1
          1 1 1 1 1 1
          1 1 1 1 1 1
          1 1 1 1 1 1
          1 1 1 1 1 1
          1 1 1 1 1 1
          1 1 1 1 1 1
          1 1 1 1 1 1
          1 1 1 1 1 1
          1 1 1 1 1 1
          1 1 1 1 1 1
          1 1 1 1 1 1
          1 1 1 1 1 1
          1 1 1 1 1 1
          1 1 1 1 1 1
          1 1 1 1 1 1
          1 1 1 1 1 1
          1 1 1 1 1 1
          1 1 1 1 1 1
          1 1 1 1 1 1
          1 1 1 1 1 1
          1 1 1 1 1 1
          1 1 1 1 1 1
          1 1 1 1 1 1
          1 1 1 1 1 1
          1 1 1 1 1 1
          1 1 1 1 1 1
          1 1 1 1 1 1
          1 1 1 1 1 1
          1 1 1 1 1 1
          1 1 1 1 1 1
          1 1 1 1 1 1
          1 1 1 1 1 1
          1 1 1 1 1 1
          1 1 1 1 1 1
          1 1 1 1 1 1
          1
        </DataArray>
        <DataArray type="Float64" Name="dHdT" format="ascii" RangeMin="25.81152725421579" RangeMax="26.533127384894065">
          25.814079565068962 25.81754041619036 25.823294469188195 25.813489843786954 25.814231635430687 25.813441615057858
          25.814111834410674 25.814926991747026 25.8144722141623 25.8314636197317 25.817985940384556 25.818668009045826
          25.821230181227577 25.81593444996251 25.869602149221983 25.829090734709037 25.829018456680377 25.813511686228114
          25.81406312939622 25.81306057515062 25.81374687117369 25.81651612345512 25.814322085642758 25.848181131283475
          25.821455405902785 25.85869088987222 25.82074755227577 25.81479621658697 25.823172057669055 25.81529451716122
          25.8125016100535 25.812918621332237 25.81205662424228 25.812176254845387 25.812502934968784 25.812817355212726
          25.812232183869384 25.81454342906362 25.81558391809647 25.814006092775756 25.81666143916091 25.817984777525304
          25.81468512743003 25.81533009119493 25.815788864339204 25.816460955860748 25.81463565682033 25.821319657721453
          25.81617324807881 25.817970382781233 25.816938533116254 25.81936196704337 25.815090401197544 25.817604721594208
          25.819916215906566 25.813413990969078 25.813591059424084 25.812652886324983 25.812691505132804 25.812985060738185
          25.81307017342869 25.81250384802413 25.813768127879086 25.812730123940632 25.813155286119194 25.825710330974406
          25.844108449268568 25.817682281445798 25.819760993778058 25.81759456766622 25.830011352601446 25.823498845574623
          25.82479705800745 25.873397107493577 25.846571469856215 25.92217813470897 25.84627712251568 25.8304835086635
          25.83144222552172 25.824342297538696 25.873199019984458 25.844700345373177 25.844259496666375 25.83827685682155
          25.845696872961838 25.827505036651477 25.831819945435182 25.83231499379003 25.836982524498126 25.826794419728717
          25.86365766794931 25.842331956217304 25.848035038894466 25.820855563279544 25.823268859261656 25.81843175531405
          25.820101981013856 25.818939365383955 25.820470229097758 25.81815966303649 25.829178478598756 25.82285093307858
          25.82420065455064 25.818874007418927 25.821695205898113 25.81552225252647 25.816874952293862 25.817319047041707
          25.819219694311286 25.815706805642673 25.828829519032595 25.8202995590593 25.822562342639173 25.813680312227678
          25.814297189905734 25.813064382616844 25.813430368496018 25.81335713505249 25.81377734456247 25.813134466852965
          25.815882837707296 25.814843127494818 25.910925949322387 25.86446385273063 25.86129684763471 25.838526013107362
          25.953685826783094 25.886707923343344 25.87957277990497 25.86163263787698 25.841614727349313 25.836824432676636
          25.825619133534303 25.82901774484559 25.821475883015427 25.844656902295657 25.829830535652036 25.833822814658582
          25.988811972141136 25.90493019659594 25.894003450527872 25.855773024338475 26.002510748209147 25.912057101768255
          25.899544760269897 25.85057444304381 25.83301317761259 25.83732415441158 25.82605035692171 25.852809144895836
          25.834213254728688 25.83863795290745 25.83868625907489 25.82502132027061 25.825737790419833 25.820074747751136
          25.849712315125732 25.83026209503471 25.83052932313421 25.818098302598973 25.81631106900539 25.82052941158444
          25.81787059444528 25.818222523166373 25.819269977486705 25.816399151722273 25.81702094506492 25.816534759814285
          25.81718390963301 25.81570627814067 25.82131600706084 25.81828407622271 25.818447914035275 25.85870516496976
          25.834510733147567 25.834340348123472 25.825034833902137 25.862215584149936 25.8361684507096 25.83581428764986
          25.822472916296313 25.819086918109733 25.823232006790867 25.819566084422497 25.822947727656622 25.819368170670508
          25.819453849627614 25.81713365783161 25.823580872998612 25.81981092730316 25.81984493063642 25.81156492639178
          25.81152725421579 25.81156502442162 25.811615111439753 25.81312948442639 25.811704085463372 25.811844303327337
          25.812653458331532 25.81174072531082 25.812358257216193 25.815750817206652 25.812091076015342 25.811817246529678
          25.81271868469485 25.81866211397959 25.812295137298022 25.81189376774853 25.81307911217351 25.812771195967247
          25.8118512965603 25.811980747417874 25.812848568771937 25.815833833246813 25.812321874691982 25.81214450805907
          25.812275318124815 25.812614466600586 25.812277768472562 25.819219916238076 25.823379585263268 25.82095782527936
          25.812294603737804 25.826737701870073 25.812300206999694 25.83303099520142 25.819770246995883 25.827334131813416
          25.866827773441113 25.836511459621843 25.815300768711385 25.81360016710832 25.826971437000402 25.815869770424772
          25.812313747074846 25.812828645249112 25.812454314167628 25.81240051883686 25.813053640006288 25.81409370211268