<?xml version="1.0"?>
<VTKFile type="UnstructuredGrid" version="0.1" byte_order="LittleEndian" header_type="UInt32" compressor="vtkZLibDataCompressor">
  <UnstructuredGrid>
    <Piece NumberOfPoints="427" NumberOfCells="190">
      <PointData>
        <DataArray type="Int32" Name="libmesh_node_id" format="ascii" RangeMin="12" RangeMax="1482">
          16 17 18 19 20 21
          22 23 24 25 26 27
          28 29 30 31 32 33
          34 35 36 37 38 39
          48 49 50 51 52 53
          54 55 56 57 58 59
          72 73 74 75 76 77
          78 79 86 87 88 89
          102 103 104 105 106 107
          108 109 116 117 118 119
          132 133 134 135 136 137
          138 139 146 147 148 149
          162 163 164 165 166 167
          168 169 176 177 178 179
          193 195 196 197 198 199
          206 207 208 209 229 230
          233 236 237 238 242 243
          244 247 248 249 250 251
          252 255 256 257 258 259
          260 261 262 263 264 265
          266 267 268 269 270 290
          291 293 297 298 303 333
          336 338 339 340 341 346
          347 350 351 353 354 355
          356 357 359 360 361 362
          363 364 365 366 367 368
          369 384 386 388 389 390
          391 393 394 396 397 398
          399 400 401 402 403 404
          405 406 407 422 423 424
          429 432 435 440 442 443
          444 445 449 450 451 454
          457 464 465 466 468 469
          470 471 472 473 474 475
          476 477 478 479 481 482
          483 517 518 519 520 524
          525 527 528 530 755 756
          757 758 759 760 761 762
          763 764 765 766 767 768
          769 770 771 772 773 774
          775 776 777 778 779 780
          781 782 783 784 785 786
          815 816 817 818 819 820
          821 822 823 824 825 826
          832 833 835 836 837 838
          839 840 841 842 843 844
          845 847 848 850 1473 1474
          1475 1476 1479 1480 1481 12
          13 14 15 46 47 66
          68 69 67 70 71 84
          83 85 100 101 115 130
          131 145 161 175 217 219
          232 223 235 246 278 280
          284 348 349 352 358 160
          385 387 392 191 395 205
          425 426 427 428 430 431
          433 434 305 308 311 436
          312 313 441 438 437 439
          447 446 448 452 453 455
          456 458 459 319 325 460
          326 461 462 463 467 279
          507 508 509 292 521 522
          523 512 526 190 515 300
          529 288 301 532 538 534
          539 734 735 736 740 218
          231 294 745 746 299 750
          227 753 240 794 795 796
          800 827 828 829 830 831
          834 531 535 296 805 806
          810 813 846 588 540 590
          595 544 849 598 1477 1478
          1482
        </DataArray>
        <DataArray type="Float64" Name="bounds" format="ascii" RangeMin="0" RangeMax="0">
          0 0 0 0 0 0
          0 0 0 0 0 0
          0 0 0 0 0 0
          0 0 0 0 0 0
          0 0 0 0 0 0
          0 0 0 0 0 0
          0 0 0 0 0 0
          0 0 0 0 0 0
          0 0 0 0 0 0
          0 0 0 0 0 0
          0 0 0 0 0 0
          0 0 0 0 0 0
          0 0 0 0 0 0
          0 0 0 0 0 0
          0 0 0 0 0 0
          0 0 0 0 0 0
          0 0 0 0 0 0
          0 0 0 0 0 0
          0 0 0 0 0 0
          0 0 0 0 0 0
          0 0 0 0 0 0
          0 0 0 0 0 0
          0 0 0 0 0 0
          0 0 0 0 0 0
          0 0 0 0 0 0
          0 0 0 0 0 0
          0 0 0 0 0 0
          0 0 0 0 0 0
          0 0 0 0 0 0
          0 0 0 0 0 0
          0 0 0 0 0 0
          0 0 0 0 0 0
          0 0 0 0 0 0
          0 0 0 0 0 0
          0 0 0 0 0 0
          0 0 0 0 0 0
          0 0 0 0 0 0
          0 0 0 0 0 0
          0 0 0 0 0 0
          0 0 0 0 0 0
          0 0 0 0 0 0
          0 0 0 0 0 0
          0 0 0 0 0 0
          0 0 0 0 0 0
          0 0 0 0 0 0
          0 0 0 0 0 0
          0 0 0 0 0 0
          0 0 0 0 0 0
          0 0 0 0 0 0
          0 0 0 0 0 0
          0 0 0 0 0 0
          0 0 0 0 0 0
          0 0 0 0 0 0
          0 0 0 0 0 0
          0 0 0 0 0 0
          0 0 0 0 0 0
          0 0 0 0 0 0
          0 0 0 0 0 0
          0 0 0 0 0 0
          0 0 0 0 0 0
          0 0 0 0 0 0
          0 0 0 0 0 0
          0 0 0 0 0 0
          0 0 0 0 0 0
          0 0 0 0 0 0
          0 0 0 0 0 0
          0 0 0 0 0 0
          0 0 0 0 0 0
          0 0 0 0 0 0
          0 0 0 0 0 0
          0 0 0 0 0 0
          0
        </DataArray>
        <DataArray type="Float64" Name="gradient_error" format="ascii" RangeMin="2.6690363901556796e-12" RangeMax="5.705451596259792e-7">
          9.886101666687459e-11 6.723908447085122e-11 2.9123043825261346e-10 1.8621396209891735e-10 5.493685560971001e-11 4.247581334654578e-11
          1.7361558204104606e-10 1.1202415767554488e-10 2.7432839983449816e-11 2.844952778366924e-11 4.8079771804022574e-11 4.1772212070284786e-11
          3.045278979222859e-11 3.008655441498166e-11 2.924233137312262e-11 2.953972040607027e-11 3.011715655081695e-11 2.99268686958577e-11
          2.8779834647658426e-11 2.9096687107354484e-11 2.9868105067374366e-11 2.977176332175532e-11 2.91196421118678e-11 2.930766347143e-11
          3.561715227482786e-11 8.119748594522127e-11 3.001477108338154e-11 5.0432733310043696e-11 2.946621558388867e-11 3.5464652336547e-11
          2.972031903773474e-11 2.9837109439017905e-11 2.9736580840898455e-11 2.9413539567050546e-11 2.9675421576136274e-11 2.94956848309922e-11
          1.374316317685898e-10 1.0381218865208971e-10 3.505884391072106e-11 3.363280309669178e-11 3.500208933925816e-11 3.234207075698952e-11
          3.452306386053139e-11 3.204359652139893e-11 7.019274553558959e-11 3.2206762282662494e-11 2.9682052174720866e-11 2.956412918226647e-11
          6.532190894530569e-10 4.776177341284543e-10 9.659967376027167e-11 8.743861639863986e-11 3.878328724977077e-11 3.5969615491547236e-11
          3.616003247599051e-11 3.349952038787466e-11 3.0201637880385166e-10 7.827755903700804e-11 3.315594373332371e-11 3.0839008299758805e-11
          7.974441776873071e-10 1.0254867383536516e-9 1.1612770579924861e-10 1.8219583359746668e-10 7.35673124778823e-11 6.802477013048111e-11
          7.001913412907161e-11 6.364481289498237e-11 1.3191548473639713e-9 2.4512869719333907e-10 6.248222778307993e-11 5.727049166089313e-11
          2.373332377977424e-9 3.4076336149521627e-9 8.74369466168776e-11 2.429971644685423e-10 9.009029961514643e-11 8.57548031975398e-11
          1.096998581855202e-10 9.331378608619793e-11 1.187838010178642e-9 2.144332493218843e-10 8.315190052741822e-11 7.692771398687565e-11
          1.4307482587059133e-9 8.215267493854779e-11 6.416427452673157e-11 7.120065104877277e-11 1.1100656450017668e-10 9.109335773648726e-11
          7.657156686566221e-10 5.918220013092485e-11 7.737762689908488e-11 7.118015097279784e-11 4.953797497663204e-9 9.894754679992623e-9
          3.734704777635679e-9 1.1137361937486102e-8 9.064938589915536e-9 3.117377077176403e-9 5.33661255733848e-9 3.813176105650976e-10
          1.0701341037390755e-9 1.9496642813142288e-10 3.134551635681913e-11 1.5450653236433041e-10 1.2652777135495914e-9 9.190129942356579e-10
          1.7556122412741825e-10 7.807637871948851e-11 2.950690262273465e-10 4.7691484322247526e-11 4.254150053168013e-11 2.9045437655997735e-11
          4.066112860616479e-11 2.1630013684960052e-11 2.120859286660828e-11 1.9905699454987802e-11 3.739151674111274e-11 5.053399297952778e-11
          1.8602806043367322e-11 9.591629953694193e-12 3.982776654590279e-11 1.818138522501555e-11 6.367646921794282e-11 9.986606154273481e-8
          1.6555599027337543e-7 4.273958872639087e-7 1.762286831925204e-7 2.3574113185605487e-7 2.2738465936986554e-7 1.0324544953085568e-10
          4.944210042236869e-11 2.6890687643359977e-11 2.0210230895914458e-10 2.646344742225346e-10 7.463014407400593e-11 1.2536680140222823e-9
          1.0453930976489422e-9 3.0444488229773108e-9 3.0168385714505883e-9 4.2896118803711e-10 1.1893008801837177e-9 1.1864112253187723e-9
          8.371181812756023e-10 2.9892283199238663e-9 1.1835215704538267e-9 1.3826545177047714e-10 1.432603309035745e-10 3.888368005289608e-10
          4.098725328902914e-10 5.2688005385834803e-11 9.894895380464042e-11 1.1305244798692578e-10 1.4825521003667184e-10 4.3090826525162197e-10
          1.2715594216921114e-10 1.5128898340002206e-9 2.5472947226651587e-9 6.411454882383927e-10 7.914953172433555e-10 4.750947149773614e-10
          1.549852307214617e-9 5.040961749558467e-10 3.5816996113300968e-9 9.418451462483183e-10 2.624609899451873e-9 2.484503042644885e-10
          2.366404785298563e-10 7.206353144438422e-11 6.226317173137873e-11 9.391133128369132e-11 9.920637967577012e-11 3.6311694911635544e-11
          2.248306527952241e-10 5.246281201837322e-11 1.0450142806784892e-10 4.046855002371252e-9 3.788487672414611e-9 4.4773767959984976e-9
          2.7299664965200697e-9 3.53012034245797e-9 7.583828022823984e-9 2.41999356273551e-9 2.64635849558921e-9 3.2469361475874963e-9
          4.79232673701814e-9 1.8007139794727448e-9 3.847513799585783e-9 8.679603297874213e-10 9.265200706553867e-10 1.8575573705406078e-10
          9.85079811523352e-10 7.542666726653092e-10 6.344966931132737e-10 2.4679922708496217e-10 1.398855177943939e-9 5.147267135612381e-10
          7.057637020856618e-12 1.0444492236855165e-11 4.270870448735735e-12 1.0746713772149935e-11 6.962450579817567e-12 2.6690363901556796e-12
          7.605579927044027e-12 1.3831347452853708e-11 1.7095977076304143e-11 1.2542123463932373e-11 1.1058027017532198e-11 8.248709274270486e-12
          2.036060669975458e-11 4.628530903511395e-7 4.346934069093873e-7 4.569016620589987e-7 5.000630696755105e-7 3.839213976680321e-7
          4.702600376912713e-7 3.64003909901544e-7 4.584758855131079e-7 5.044211556184429e-7 8.357261413900404e-9 6.925589568241699e-9
          4.4042733204146716e-8 2.6696746622816695e-8 5.493917722582995e-9 9.350760041486673e-9 4.263007381550909e-8 8.310512531699306e-8
          6.247509348892022e-9 7.110022517452604e-9 1.23580176818477e-7 7.972535686013185e-9 4.431202115575806e-11 6.28287277209134e-11
          7.632527109452e-11 1.0523018370268863e-10 2.9112259362511834e-11 2.5742998364483752e-11 4.959702849731633e-11 8.134543428606874e-11
          1.3413509631085724e-10 7.345105863014891e-11 2.1374891234670963e-10 2.749867820967455e-10 8.631688747900901e-11 9.875378688215391e-11
          9.509589269989581e-11 1.0577718429169224e-10 6.432360201221305e-11 3.362246518467814e-10 1.111906862852988e-10 1.164584758834887e-10
          1.3428914550100044e-7 1.312535291467567e-7 2.5509795599341305e-7 2.2949504456380896e-7 1.1629338572099169e-7 2.5393778735762406e-7
          2.267506897812892e-7 1.2821791279251295e-7 2.0389213313420487e-7 1.712201539482814e-7 1.0308908749669793e-7 9.676911173142514e-8
          7.823473932798184e-8 1.4946630529664684e-7 2.585448889643176e-7 2.999448275799412e-7 2.1128035974355752e-7 3.040533734046654e-7
          1.7839303185980889e-7 2.025940570693623e-7 1.901408272366993e-7 3.4134476619556476e-7 3.501321544708287e-7 2.267950822789157e-7
          1.8259499453789944e-7 1.0972827491891886e-7 1.714829083767868e-7 1.9841077892566127e-7 4.947992742899114e-8 6.090769182675501e-8
          8.062950985541862e-8 8.939979319021169e-8 3.293951216817096e-8 5.392051208904818e-8 6.426630894548767e-8 1.5023692614977202e-10
          9.769841851081792e-11 3.7330708290527063e-10 2.4621492211333393e-10 4.5159910871863806e-11 1.1912276132139724e-10 1.5007255782100726e-9
          1.1823917618155854e-9 7.574908696484531e-10 1.0124237997132827e-9 7.015829304933566e-10 4.33774451924688e-10 3.3258997748132065e-10
          5.241220212164928e-10 1.659659733560196e-10 3.0005693376328528e-9 1.8858157700564427e-9 7.710622024800325e-10 6.373133334206017e-9
          3.932980184837867e-9 4.3634897917566685e-9 2.6553430849257326e-8 4.174222499623507e-9 3.57294508746318e-8 2.787481509409736e-7
          2.602509691247827e-8 4.484590436942857e-8 5.086311224763925e-8 1.274013401796202e-9 2.9498469662769567e-7 4.911071529810502e-7
          3.8172515341800034e-7 4.9853367893737064e-9 2.4087029828420955e-8 1.594713246780697e-8 7.807235107192984e-9 2.639991869159668e-8
          3.830378673288717e-9 2.534905227496883e-8 8.72331779918869e-9 5.089764136953719e-8 4.686772587664894e-8 1.654412702885897e-8
          2.3360975799711458e-8 1.5000521433914153e-8 1.234112758176351e-8 1.538956304389957e-8 9.571181155639235e-9 8.57750458923161e-9
          9.681733729612864e-9 7.41815028808769e-9 5.816619743246208e-8 5.7323304588184384e-8 5.6139542246671954e-8 9.638034776049117e-9
          7.829940810072385e-8 6.104367328920937e-8 8.545894703779051e-9 2.3338708977273075e-8 2.4002220496342278e-8 4.930285885852626e-8
          7.460349722071024e-8 3.703938317849703e-8 1.4671795844822591e-8 3.1353011490469648e-9 2.9217955809334458e-9 4.694411908581651e-10
          4.905772536176787e-10 2.708290012819927e-9 5.117133163771923e-10 1.7776359356955796e-8 2.0263378695666716e-8 1.4685993222969486e-9
          1.9044819574589344e-8 3.1376303757607044e-9 7.755976693183353e-10 1.0872264236311371e-9 4.80666142922446e-9 4.236892435613805e-7
          4.017110521634856e-7 3.983414521364178e-7 4.420477729042135e-7 5.066151554106786e-7 4.703683585853428e-7 5.320462542822034e-7
          5.705451596259792e-7 4.3102641063337515e-7 5.135049922711932e-7 3.092082692775012e-7 3.9742784117245017e-7 4.387338543672214e-7
          5.375615959228594e-7 4.559372271157346e-7 5.605360728156823e-7 4.2232654709989993e-7 3.5703442281735383e-7 4.1874563960973256e-7
          4.7110176567384825e-7 1.1535991234558195e-8 7.093869622344116e-8 4.645115797305236e-8 2.1963619722663574e-8 1.3770318884036668e-7
          6.229260418186587e-8 4.202847727454345e-8 7.073882655319787e-8 1.2575360760865353e-7 9.138582132572531e-8 2.0764129990954672e-8
          2.8502058833867306e-7 1.807683886641092e-7 1.5846021571619287e-7 1.4231221161297282e-7 2.5295730731664493e-7 2.295333056519836e-7
          2.0610930398732225e-7 2.4921582542710027e-7 2.2040496419930243e-7 7.613210844883775e-8 2.404519502946267e-7 2.094728666198044e-7
          1.3493278677752897e-7 3.877075678487511e-7 2.859179089598096e-7 2.855523442718278e-7 2.5659619043855084e-7 2.9313194485123374e-7
          2.0996516210772623e-7 3.2966769926391665e-7 3.041019876637952e-7 1.6924168320365024e-7 3.4077334790195e-7 2.9779195254446527e-7
          1.4776840456751736e-7 4.511527637567845e-7 3.547930785336377e-7 3.534952049145218e-7 3.452700266798026e-8 6.546083445043599e-8
          3.9549878290796126e-8
        </DataArray>
        <DataArray type="Float64" Name="gradient_matprop_error" format="ascii" RangeMin="0" RangeMax="0">
          0 0 0 0 0 0
          0 0 0 0 0 0
          0 0 0 0 0 0
          0 0 0 0 0 0
          0 0 0 0 0 0
          0 0 0 0 0 0
          0 0 0 0 0 0
          0 0 0 0 0 0
          0 0 0 0 0 0
          0 0 0 0 0 0
          0 0 0 0 0 0
          0 0 0 0 0 0
          0 0 0 0 0 0
          0 0 0 0 0 0
          0 0 0 0 0 0
          0 0 0 0 0 0
          0 0 0 0 0 0
          0 0 0 0 0 0
          0 0 0 0 0 0
          0 0 0 0 0 0
          0 0 0 0 0 0
          0 0 0 0 0 0
          0 0 0 0 0 0
          0 0 0 0 0 0
          0 0 0 0 0 0
          0 0 0 0 0 0
          0 0 0 0 0 0
          0 0 0 0 0 0
          0 0 0 0 0 0
          0 0 0 0 0 0
          0 0 0 0 0 0
          0 0 0 0 0 0
          0 0 0 0 0 0
          0 0 0 0 0 0
          0 0 0 0 0 0
          0 0 0 0 0 0
          0 0 0 0 0 0
          0 0 0 0 0 0
          0 0 0 0 0 0
          0 0 0 0 0 0
          0 0 0 0 0 0
          0 0 0 0 0 0
          0 0 0 0 0 0
          0 0 0 0 0 0
          0 0 0 0 0 0
          0 0 0 0 0 0
          0 0 0 0 0 0
          0 0 0 0 0 0
          0 0 0 0 0 0
          0 0 0 0 0 0
          0 0 0 0 0 0
          0 0 0 0 0 0
          0 0 0 0 0 0
          0 0 0 0 0 0
          0 0 0 0 0 0
          0 0 0 0 0 0
          0 0 0 0 0 0
          0 0 0 0 0 0
          0 0 0 0 0 0
          0 0 0 0 0 0
          0 0 0 0 0 0
          0 0 0 0 0 0
          0 0 0 0 0 0
          0 0 0 0 0 0
          0 0 0 0 0 0
          0 0 0 0 0 0
          0 0 0 0 0 0
          0 0 0 0 0 0
          0 0 0 0 0 0
          0 0 0 0 0 0
          0 0 0 0 0 0
          0
        </DataArray>
        <DataArray type="Float64" Name="initial_marker" format="ascii" RangeMin="0" RangeMax="2">
          0 0 0 0 0 0
          0 0 0 0 0 0
          0 0 0 0 0 0
          0 0 0 0 0 0
          0 0 0 0 0 0
          0 0 0 0 0 0
          0 0 0 0 0 0
          0 0 0 0 0 0
          0 0 0 0 0 0
          0 0 0 0 0 0
          0 0 0 0 0 0
          0 0 0 0 0 0
          0 0 0 0 0 0
          0 0 0 0 0 0
          0 0 0 0 0 0
          0 0 0 0 0 0
          0 0 0 0 0 0
          0 0 0 0 0 0
          0 0 0 0 0 0
          0 0 0 0 0 0
          0 0 0 0 0 0
          0 0.5 0 0 0 0
          0 0 0 0 0 0
          0 0 0 0 0 0
          0 0 0 0 0 0
          0 0 0 0 0 0
          0 0 0 0 0 0
          0 0 0 0 0 0
          0 0 0 0 0 0
          0 0 0 0 0 0
          0 0 0 0 0 0
          0 0 0 0 0 0
          0 0 0 0 0 0
          0 0 0 0 0 0
          0 0 0 0 0 0
          0 1 1 2 2 0.6666666666666666
          1 2 2 1 0 0
          0 0 0 0 0 0
          0 0 0 0 0 0
          0 0 0 0 0 0
          0 0 0 0 0 0
          0 0 0 0 0 0
          0 0 0 0 0 0
          0 0 0 0 0 0
          0 0 0 0 0 0
          0 0 0 0 0 0
          0 0 0 0 0 0
          0 0 0 0 0 0
          0 0 0 0 0 0
          0 0 0 0 0 0
          0 0 0 0 0 0
          0 0 0 0 0 0
          0 0 0 0 0 0.25
          0 0 0 0 0 0
          0 0 0 0 0 0
          0 0 0 0 0 0
          0 0 0 0 0 0
          0 0 0 0 0 0
          0 0 0 0 0 0
          0 0 0 0 0 0
          0 0 0 0 0 1
          0.75 2 1.75 1 1 2
          2 0.75 1 2 2 2
          2 1 1 1 0.5 2
          1 0 0 0 0 0
          0 0 0 0 0 0
          0 0 0 0 0 0
          0 0 0 0 0 0
          0 1 1 0.25 0 0
          0 0 0 0 1 0
          0 1 0 0 0 0
          0
        </DataArray>
        <DataArray type="Float64" Name="markers_norefine" format="ascii" RangeMin="0" RangeMax="0">
          0 0 0 0 0 0
          0 0 0 0 0 0
          0 0 0 0 0 0
          0 0 0 0 0 0
          0 0 0 0 0 0
          0 0 0 0 0 0
          0 0 0 0 0 0
          0 0 0 0 0 0
          0 0 0 0 0 0
          0 0 0 0 0 0
          0 0 0 0 0 0
          0 0 0 0 0 0
          0 0 0 0 0 0
          0 0 0 0 0 0
          0 0 0 0 0 0
          0 0 0 0 0 0
          0 0 0 0 0 0
          0 0 0 0 0 0
          0 0 0 0 0 0
          0 0 0 0 0 0
          0 0 0 0 0 0
          0 0 0 0 0 0
          0 0 0 0 0 0
          0 0 0 0 0 0
          0 0 0 0 0 0
          0 0 0 0 0 0
          0 0 0 0 0 0
          0 0 0 0 0 0
          0 0 0 0 0 0
          0 0 0 0 0 0
          0 0 0 0 0 0
          0 0 0 0 0 0
          0 0 0 0 0 0
          0 0 0 0 0 0
          0 0 0 0 0 0
          0 0 0 0 0 0
          0 0 0 0 0 0
          0 0 0 0 0 0
          0 0 0 0 0 0
          0 0 0 0 0 0
          0 0 0 0 0 0
          0 0 0 0 0 0
          0 0 0 0 0 0
          0 0 0 0 0 0
          0 0 0 0 0 0
          0 0 0 0 0 0
          0 0 0 0 0 0
          0 0 0 0 0 0
          0 0 0 0 0 0
          0 0 0 0 0 0
          0 0 0 0 0 0
          0 0 0 0 0 0
          0 0 0 0 0 0
          0 0 0 0 0 0
          0 0 0 0 0 0
          0 0 0 0 0 0
          0 0 0 0 0 0
          0 0 0 0 0 0
          0 0 0 0 0 0
          0 0 0 0 0 0
          0 0 0 0 0 0
          0 0 0 0 0 0
          0 0 0 0 0 0
          0 0 0 0 0 0
          0 0 0 0 0 0
          0 0 0 0 0 0
          0 0 0 0 0 0
          0 0 0 0 0 0
          0 0 0 0 0 0
          0 0 0 0 0 0
          0 0 0 0 0 0
          0
        </DataArray>
        <DataArray type="Float64" Name="markers_mustrefine" format="ascii" RangeMin="0" RangeMax="2">
          0 0 0 0 0 0
          0 0 0 0 0 0
          0 0 0 0 0 0
          0 0 0 0 0 0
          0 0 0 0 0 0
          0 0 0 0 0 0
          0 0 0 0 0 0
          0 0 0 0 0 0
          0 0 0 0 0 0
          0 0 0 0 0 0
          0 0 0 0 0 0
          0 0 0 0 0 0
          0 0 0 0 0 0
          0 0 0 0 0 0
          0 0 0 0 0 0
          0 0 0 0 0 0
          0 0 0 0 0 0
          0 0 0 0 0 0
          0 0 0 0 0 0
          0 0 0 0 0 0
          0 0 0 0 0 0
          0 0.5 0 0 0 0
          0 0 0 0 0 0
          0 0 0 0 0 0
          0 0 0 0 0 0
          0 0 0 0 0 0
          0 0 0 0 0 0
          0 0 0 0 0 0
          0 0 0 0 0 0
          0 0 0 0 0 0
          0 0 0 0 0 0
          0 0 0 0 0 0
          0 0 0 0 0 0
          0 0 0 0 0 0
          0 0 0 0 0 0
          0 1 1 2 2 0.6666666666666666
          1 2 2 1 0 0
          0 0 0 0 0 0
          0 0 0 0 0 0
          0 0 0 0 0 0
          0 0 0 0 0 0
          0 0 0 0 0 0
          0 0 0 0 0 0
          0 0 0 0 0 0
          0 0 0 0 0 0
          0 0 0 0 0 0
          0 0 0 0 0 0
          0 0 0 0 0 0
          0 0 0 0 0 0
          0 0 0 0 0 0
          0 0 0 0 0 0
          0 0 0 0 0 0
          0 0 0 0 0 0.25
          0 0 0 0 0 0
          0 0 0 0 0 0
          0 0 0 0 0 0
          0 0 0 0 0 0
          0 0 0 0 0 0
          0 0 0 0 0 0
          0 0 0 0 0 0
          0 0 0 0 0 1
          0.75 2 1.75 1 1 2
          2 0.75 1 2 2 2
          2 1 1 1 0.5 2
          1 0 0 0 0 0
          0 0 0 0 0 0
          0 0 0 0 0 0
          0 0 0 0 0 0
          0 1 1 0.25 0 0
          0 0 0 0 1 0
          0 1 0 0 0 0
          0
        </DataArray>
        <DataArray type="Float64" Name="gradient_marker" format="ascii" RangeMin="0" RangeMax="1">
          1 1 1 1 1 1
          1 1 1 1 1 1
          1 1 1 1 1 1
          1 1 1 1 1 1
          1 1 1 1 1 1
          1 1 1 1 1 1
          1 1 1 1 1 1
          1 1 1 1 1 1
          1 1 1 1 1 1
          1 1 1 1 1 1
          1 1 1 1 1 1
          1 1 1 1 1 1
          1 1 1 1 1 1
          1 1 1 1 1 1
          1 1 1 1 1 1
          1 1 1 1 1 1
          1 1 1 1 1 1
          1 1 1 1 1 1
          1 1 1 1 1 1
          1 1 1 1 1 1
          1 1 1 1 1 1
          0.875 1 0.8333333333333334 0.875 1 1
          1 1 1 1 1 1
          1 1 1 1 1 1
          1 1 1 1 1 1
          1 1 1 1 1 1
          1 1 1 1 1 1
          1 1 1 1 1 1
          1 1 1 1 1 1
          1 1 1 1 1 1
          1 1 1 1 1 1
          1 1 1 1 1 1
          1 1 1 1 1 1
          1 1 1 1 1 1
          1 1 1 1 1 1
          1 1 1 1 1 1
          1 1 1 1 1 1
          1 1 1 1 1 1
          1 1 1 1 1 1
          1 1 1 1 1 1
          1 1 1 1 1 1
          1 1 1 1 1 1
          1 1 1 1 1 1
          1 1 1 0.8333333333333334 0.5 0.5
          0.25 0.625 1 1 0.8333333333333334 1
          1 1 1 1 1 1
          0.75 0.5 1 1 0 0
          0.25 0.25 0 0 0 1
          1 1 1 1 1 1
          1 1 1 1 1 1
          1 1 1 1 1 1
          1 1 1 1 1 1
          0.75 1 1 1 1 1
          1 1 1 1 1 1
          1 1 1 1 1 1
          1 1 1 1 1 1
          1 1 0.625 0.75 0.8333333333333334 1
          0.625 0.75 1 1 1 1
          1 1 1 1 1 1
          1 1 1 0.875 1 1
          0.875 1 1 1 1 1
          1 1 1 1 1 1
          1 1 1 1 1 1
          1 1 1 0.875 1 0.625
          0.875 1 1 1 1 1
          0.5 0.5 1 1 0.75 1
          1 1 1 1 1 1
          1 0.75 0.75 0 0.5 0.5
          0.5 0.75 0.625 0.875 1 1
          1 1 1 0.75 0.75 1
          1 0.75 1 1 0 0.25
          0
        </DataArray>
        <DataArray type="Float64" Name="gradient_matprop_marker" format="ascii" RangeMin="0" RangeMax="0">
          0 0 0 0 0 0
          0 0 0 0 0 0
          0 0 0 0 0 0
          0 0 0 0 0 0
          0 0 0 0 0 0
          0 0 0 0 0 0
          0 0 0 0 0 0
          0 0 0 0 0 0
          0 0 0 0 0 0
          0 0 0 0 0 0
          0 0 0 0 0 0
          0 0 0 0 0 0
          0 0 0 0 0 0
          0 0 0 0 0 0
          0 0 0 0 0 0
          0 0 0 0 0 0
          0 0 0 0 0 0
          0 0 0 0 0 0
          0 0 0 0 0 0
          0 0 0 0 0 0
          0 0 0 0 0 0
          0 0 0 0 0 0
          0 0 0 0 0 0
          0 0 0 0 0 0
          0 0 0 0 0 0
          0 0 0 0 0 0
          0 0 0 0 0 0
          0 0 0 0 0 0
          0 0 0 0 0 0
          0 0 0 0 0 0
          0 0 0 0 0 0
          0 0 0 0 0 0
          0 0 0 0 0 0
          0 0 0 0 0 0
          0 0 0 0 0 0
          0 0 0 0 0 0
          0 0 0 0 0 0
          0 0 0 0 0 0
          0 0 0 0 0 0
          0 0 0 0 0 0
          0 0 0 0 0 0
          0 0 0 0 0 0
          0 0 0 0 0 0
          0 0 0 0 0 0
          0 0 0 0 0 0
          0 0 0 0 0 0
          0 0 0 0 0 0
          0 0 0 0 0 0
          0 0 0 0 0 0
          0 0 0 0 0 0
          0 0 0 0 0 0
          0 0 0 0 0 0
          0 0 0 0 0 0
          0 0 0 0 0 0
          0 0 0 0 0 0
          0 0 0 0 0 0
          0 0 0 0 0 0
          0 0 0 0 0 0
          0 0 0 0 0 0
          0 0 0 0 0 0
          0 0 0 0 0 0
          0 0 0 0 0 0
          0 0 0 0 0 0
          0 0 0 0 0 0
          0 0 0 0 0 0
          0 0 0 0 0 0
          0 0 0 0 0 0
          0 0 0 0 0 0
          0 0 0 0 0 0
          0 0 0 0 0 0
          0 0 0 0 0 0
          0
        </DataArray>
        <DataArray type="Float64" Name="combo" format="ascii" RangeMin="0" RangeMax="1">
          1 1 1 1 1 1
          1 1 1 1 1 1
          1 1 1 1 1 1
          1 1 1 1 1 1
          1 1 1 1 1 1
          1 1 1 1 1 1
          1 1 1 1 1 1
          1 1 1 1 1 1
          1 1 1 1 1 1
          1 1 1 1 1 1
          1 1 1 1 1 1
          1 1 1 1 1 1
          1 1 1 1 1 1
          1 1 1 1 1 1
          1 1 1 1 1 1
          1 1 1 1 1 1
          1 1 1 1 1 1
          1 1 1 1 1 1
          1 1 1 1 1 1
          1 1 1 1 1 1
          1 1 1 1 1 1
          0.875 1 0.8333333333333334 0.875 1 1
          1 1 1 1 1 1
          1 1 1 1 1 1
          1 1 1 1 1 1
          1 1 1 1 1 1
          1 1 1 1 1 1
          1 1 1 1 1 1
          1 1 1 1 1 1
          1 1 1 1 1 1
          1 1 1 1 1 1
          1 1 1 1 1 1
          1 1 1 1 1 1
          1 1 1 1 1 1
          1 1 1 1 1 1
          1 1 1 1 1 1
          1 1 1 1 1 1
          1 1 1 1 1 1
          1 1 1 1 1 1
          1 1 1 1 1 1
          1 1 1 1 1 1
          1 1 1 1 1 1
          1 1 1 1 1 1
          1 1 1 0.8333333333333334 0.5 0.5
          0.25 0.625 1 1 0.8333333333333334 1
          1 1 1 1 1 1
          0.75 0.5 1 1 0 0
          0.25 0.25 0 0 0 1
          1 1 1 1 1 1
          1 1 1 1 1 1
          1 1 1 1 1 1
          1 1 1 1 1 1
          0.75 1 1 1 1 1
          1 1 1 1 1 1
          1 1 1 1 1 1
          1 1 1 1 1 1
          1 1 0.625 0.75 0.8333333333333334 1
          0.625 0.75 1 1 1 1
          1 1 1 1 1 1
          1 1 1 0.875 1 1
          0.875 1 1 1 1 1
          1 1 1 1 1 1
          1 1 1 1 1 1
          1 1 1 0.875 1 0.625
          0.875 1 1 1 1 1
          0.5 0.5 1 1 0.75 1
          1 1 1 1 1 1
          1 0.75 0.75 0 0.5 0.5
          0.5 0.75 0.625 0.875 1 1
          1 1 1 0.75 0.75 1
          1 0.75 1 1 0 0.25
          0
        </DataArray>
        <DataArray type="Float64" Name="dHdT" format="ascii" RangeMin="25.802018298693213" RangeMax="37.53962472380482">
          25.81145377839613 25.811451877074877 25.81144103611988 25.811443400610518 25.81145278264181 25.811451226641886
          25.81144236529064 25.811444296656212 25.81144983693833 25.8114496624506 25.81144586197339 25.81144618616338
          25.811449342685883 25.81144937574471 25.811446630774775 25.8114466338009 25.811449370391387 25.81144938812515
          25.811446679904428 25.811446667629262 25.81144939338268 25.811449402406872 25.8114466696491 25.811446661165494
          25.811449975753625 25.811445765101148 25.81144967064197 25.81144622802178 25.81144948796286 25.811446510353374
          25.811449408803536 25.81144663682703 25.81144940585892 25.811446655354096 25.811449411431067 25.81144665268188
          25.811445027255367 25.81144349114197 25.81144118609481 25.811441241402882 25.811440747306797 25.811440957857425
          25.811440741824104 25.81144095477812 25.811441955028574 25.811441296710953 25.811441168408056 25.81144116773214
          25.811413430517653 25.811423431515045 25.81143171306986 25.811434223562323 25.81143464864104 25.81143608440564
          25.81143493038896 25.811436259860383 25.811433432512445 25.811436734054787 25.811437520170234 25.811437589331803
          25.81137236438278 25.811442803943386 25.811426960395195 25.811436961428676 25.81143555682068 25.811438238546376
          25.811436446742256 25.81143866561143 25.811460606979857 25.811443485738238 25.81144092027208 25.8114408844806
          25.811538526079648 25.8117034722191 25.81144043290671 25.811464303499264 25.81144869735789 25.81144953647681
          25.81145052288874 25.811450323980807 25.811474541304058 25.811452760267105 25.811450101235483 25.811450125072874
          25.811473255724373 25.811478442891577 25.811464983184855 25.811459520413273 25.811460475338194 25.811457846827377
          25.811397358820667 25.81145010715068 25.81145497030043 25.81145521831656 25.809520461616987 25.81245537243277
          25.812122778807623 25.81251982308464 25.812575314496094 25.8120780210839 25.808291131795375 25.811346319942537
          25.811490157028288 25.811465730882166 25.811491826983374 25.811548917331464 25.81153904748983 25.811552616178535
          25.811487272249806 25.811596643961334 25.811513061226435 25.811459522378854 25.811460074807552 25.811465023736343
          25.811468780207445 25.81145621970309 25.81146258100705 25.811462399037932 25.81146062723625 25.811469777519946
          25.811462217068815 25.811470976949252 25.811478838771535 25.811468578372775 25.81147892780364 26.29258679613278
          26.179962608885752 29.592253177180723 26.028612842539292 26.371299696708956 26.78756676424505 25.811704085463372
          25.811546099894013 25.811554251568772 25.811844303327337 25.812091076015342 25.81161836929481 25.811224627566503
          25.811376859131627 25.81081567690522 25.810986200194613 25.811418671756687 25.811245039231288 25.811292196942812