<?xml version="1.0"?>
<VTKFile type="UnstructuredGrid" version="0.1" byte_order="LittleEndian" header_type="UInt32" compressor="vtkZLibDataCompressor">
  <UnstructuredGrid>
    <Piece NumberOfPoints="1961" NumberOfCells="1415">
      <PointData>
        <DataArray type="Int32" Name="libmesh_node_id" format="ascii" RangeMin="502" RangeMax="19323">
          502 739 813 894 896 1340
          1342 1351 1354 1356 1361 1362
          1366 1370 1371 1372 1373 1374
          1375 1376 3060 3061 3065 3071
          3072 3073 3074 3075 3076 3077
          3092 3093 3105 3106 3107 3108
          3109 3110 3111 3132 3133 3134
          3135 3136 3137 3138 3139 3140
          3141 3142 3143 3145 3150 3155
          3166 3167 3168 3169 3170 3171
          3172 3173 3175 3184 3185 3186
          3187 3190 3194 3195 3196 3197
          3198 3199 3200 3629 3630 3631
          3634 3635 3636 3637 3638 3639
          3640 3641 3642 3643 3644 3645
          3646 3647 3648 3649 3650 3651
          3652 3654 3655 4881 4885 4888
          4889 4890 4891 4892 4893 4894
          4935 4961 4965 4966 4967 4968
          4969 4970 4971 4972 4973 4974
          4975 4976 5003 5033 5037 5117
          5119 5126 5131 5132 5133 5138
          5139 5140 5141 5142 5143 5144
          5145 5146 5147 5148 5149 5150
          5151 5152 5153 5154 5155 5156
          5157 5158 5159 5160 5161 5162
          5163 5164 5165 5166 5167 5168
          5175 5180 5181 5182 5190 5191
          5192 5193 5194 5195 5196 5197
          5198 5199 5200 5201 5202 5203
          5206 5207 5208 5209 5210 5211
          5212 5213 5236 5237 5240 5243
          5247 5270 5271 5274 5277 5281
          5350 5351 5352 5353 5354 5355
          5356 5357 5358 5359 5360 5361
          5362 5363 5364 5365 5366 5367
          5368 5369 5370 5371 5372 5373
          5374 5375 5376 5377 5378 5379
          5380 5381 5382 5383 5384 5385
          5386 5387 5388 5389 5390 5391
          5392 5393 5394 5395 5396 5397
          5398 5399 5400 5401 5402 5403
          5404 5405 5406 5407 5408 5409
          5410 5411 5412 5415 5420 5421
          5422 5423 5424 5425 5426 5427
          5428 5429 5430 5431 5432 5433
          5436 5437 5438 5439 5440 5441
          5443 5451 5452 5453 5454 5455
          5457 5465 5466 5467 5468 5469
          5470 5471 5472 5473 5474 5475
          5476 5477 5478 5479 5480 5481
          5482 5483 5484 5485 5486 5487
          5488 5625 5626 5628 5825 5931
          5932 5933 5934 5938 5939 5940
          5941 5945 5946 5952 5953 5987
          5989 6001 6901 6902 6903 6904
          6905 6906 6907 6908 6909 6910
          6911 6912 6913 6914 6915 6916
          6917 6918 6919 6920 6921 6922
          6923 6924 7110 7111 7112 7113
          7114 7115 7116 7117 7118 7119
          7120 7121 7122 7123 7124 7125
          7126 7127 7128 7129 7130 7131
          7132 7133 7134 7135 7136 7137
          7138 7139 7140 7141 7142 7143
          7144 7145 7146 7147 11479 11483
          11487 11499 11503 11507 12099 12148
          12155 12168 12173 12174 12175 12194
          12195 12196 12201 12202 12203 12204
          12205 12206 12207 12208 12209 12210
          12211 12212 12213 12214 12215 12216
          12217 12218 12219 12220 12221 12222
          12223 12224 12225 12226 12227 12228
          12229 12230 12231 12232 12233 12234
          12235 12236 12237 12238 12239 12240
          12241 12242 12243 12244 12245 12246
          12247 12248 12249 12250 12251 12252
          12253 12254 12255 12256 12257 12258
          12259 12260 12261 12262 12263 12264
          12265 12266 12267 12268 12269 12270
          12271 12272 12273 12274 12275 12276
          12277 12278 12279 12280 12281 12282
          12283 12284 12285 12286 12287 12288
          12289 12290 12291 12292 12293 12294
          12295 12296 12297 12298 12299 12300
          12301 12302 12303 12304 12305 12306
          12307 12308 12309 12310 12311 12312
          12313 12314 12315 12316 12317 12318
          12319 12320 12321 12322 12323 12324
          12325 12326 12327 12328 12329 12330
          12331 12332 12333 12334 12335 12336
          12337 12338 12339 12340 12341 12342
          12343 12344 12345 12346 12347 12348
          12349 12350 12351 12352 12353 12354
          12355 12356 12357 12358 12359 12360
          12361 12362 12363 12364 12365 12366
          12367 12368 12369 12370 12371 12372
          12373 12374 12375 12376 12377 12378
          12379 12380 12381 12382 12383 12384
          12385 12386 12387 12388 12389 12390
          12391 12392 12393 12394 12395 12396
          12397 12398 12399 12400 12401 12402
          12403 12404 12405 12454 12461 12495
          12507 12508 12509 12524 12525 12526
          12534 12535 12536 12537 12538 12539
          12540 12541 12542 12543 12544 12545
          12546 12547 12548 12549 12550 12551
          12552 12553 12554 12555 12556 12557
          12558 12559 12560 12561 12562 12563
          12564 12565 12566 12567 12568 12569
          12570 12571 12572 12573 12574 12575
          12576 12577 12578 12579 12580 12581
          12582 12583 12584 12585 12586 12587
          12588 12589 12590 12591 12592 12593
          12595 12596 12597 12599 12606 12607
          12608 12609 12610 12611 12612 12613
          12614 12615 12616 12617 12618 12620
          12623 12624 12628 12629 12630 12631
          12632 12633 12634 12635 12636 12637
          12638 12639 12640 12641 12642 12643
          12644 12645 12646 12647 12648 12649
          12650 12651 12652 12653 12654 12655
          12656 12657 12658 12659 12660 12661
          12662 12663 12664 12665 12666 12667
          12668 12669 12670 12671 12672 12673
          12674 12675 12676 12677 12678 12679
          12680 12681 12682 12810 12814 12815
          12818 12830 12834 12835 12838 12855
          12859 12883 12884 12887 13025 13029
          13030 13033 13045 13049 13050 13053
          13070 13071 13074 13098 13099 13102
          13105 13106 13109 13606 13607 13608
          13609 13610 13611 13612 13613 13614
          13615 13616 13617 13618 13619 13620
          13621 13622 13623 13624 13625 13626
          13627 13628 13629 13630 13631 13632
          13633 13634 13635 13636 13637 13638
          13639 13640 13641 13642 13643 13644
          13645 13646 13647 13648 13649 13650
          13651 13652 13653 13654 13655 13656
          13657 13658 13659 13660 13661 13662
          13663 13664 13665 13666 13667 13668
          13669 13670 13671 13672 13673 13674
          13675 13676 13677 13678 13679 13680
          13681 13682 13683 13684 13685 13686
          13687 13688 13689 13690 13691 13692
          13693 13694 13695 13696 13697 13698
          13699 13700 13701 13702 13703 13704
          13705 13706 13707 13708 13709 13710
          13711 13712 13713 13714 13715 13716
          13717 13718 13719 13720 13721 13722
          13723 13724 13725 13726 13727 13728
          13729 13730 13731 13732 13733 13734
          13735 13736 13737 13738 13739 13740
          13741 13742 13743 13744 13745 13746
          13747 13748 13749 13750 13751 13752
          13753 13754 13755 13756 13757 13758
          13759 13760 13761 13762 13763 13764
          13765 13766 13767 13768 13769 13770
          13771 13772 13773 13774 13775 13776
          13777 13778 13779 13780 13781 13782
          13783 13784 13785 13786 13787 13788
          13789 13790 13791 13792 13793 13794
          13795 13796 13797 13798 13799 13800
          13801 13802 13803 13804 13805 13806
          13807 13808 13809 13810 13811 13812
          13813 13814 13815 13816 13817 13818
          13819 13820 13821 13822 13823 13824
          13825 13826 13827 13828 13829 13830
          13831 13832 13833 13834 13835 13836
          13837 13838 13839 13840 13841 13842
          13843 13844 13845 13846 13847 13848
          13849 13850 13851 13852 13853 13854
          13855 13856 13857 13858 13859 13860
          13861 13862 13863 13864 13865 13866
          13867 13868 13869 13870 13871 13872
          13873 13874 13875 13876 13877 13878
          13879 13880 13881 13882 13883 13884
          13885 13886 13887 13888 13889 13890
          13891 13892 13893 13894 13895 13896
          13897 13898 13899 13900 13901 13902
          13903 13904 13905 13906 13907 13908
          13909 13910 13911 13912 13913 13914
          13915 13916 13917 13918 13919 13920
          13921 13922 13923 13924 13925 13926
          13927 13928 13929 13930 13931 13932
          13933 13934 13935 13936 13937 13938
          13939 13940 13941 13942 13943 13944
          13945 13946 13947 13948 13949 13950
          13951 13952 13953 13954 13955 13956
          13957 13958 13959 13960 13961 13962
          13963 13964 13965 13966 13967 13968
          13969 13970 13971 13972 13973 13974
          13975 13976 13977 13978 13979 13980
          13981 13982 13983 13984 13985 13986
          13987 13988 13989 13990 13991 13992
          13993 13994 13995 13996 13997 13998
          13999 14000 14001 14002 14003 14004
          14005 14006 14007 14008 14009 14010
          14011 14012 14013 14014 14015 14016
          14017 14018 14019 14020 14021 14022
          14023 14024 14025 14026 14027 14028
          14029 14030 14031 14032 14033 14034
          14035 14036 14037 14038 14039 14040
          14041 14042 14043 14044 14045 14046
          14048 14050 14052 14060 14061 14062
          14063 14064 14066 14067 14068 14069
          14070 14073 14074 14076 14078 14080
          14088 14090 14091 14092 14094 14097
          14098 14102 14103 14104 14105 14106
          14107 14108 14109 14110 14111 14112
          14113 14114 14115 14116 14117 14118
          14119 14120 14121 14122 14123 14124
          14125 14126 14127 14128 14129 14130
          14131 14132 14133 14134 14135 14136
          14137 14138 14139 14140 14141 14142
          14143 14144 14145 14146 14147 14148
          14149 14150 14151 14152 14153 14154
          14155 14156 14157 14158 14159 14160
          14161 14162 14163 14164 14165 14166
          14167 14168 14169 14170 14171 14172
          14173 14174 14175 14176 14177 14178
          14179 14180 14181 14182 14183 14184
          14185 14186 14187 14188 14189 14190
          14191 14192 14193 14194 14195 14196
          14198 14199 14200 14202 14203 14204
          14205 14206 14207 14208 14209 14210
          14211 14212 14213 14214 14216 14219
          14231 14233 14237 14261 14273 14274
          14275 14276 14277 14278 14279 14280
          14281 14282 14283 14284 14285 14286
          14287 14288 14289 14290 14291 14292
          14293 14294 14295 14296 14297 14298
          14299 14300 14301 14302 14303 14304
          14305 14306 14307 14308 14309 14310
          14311 14312 14313 14314 14315 14317
          14318 14319 14320 14321 14322 14323
          14324 14325 14326 14327 14328 14329
          14330 14331 14332 14333 14334 14335
          14336 14338 14339 14341 14356 14357
          14358 14359 14360 14361 14362 14363
          14364 14365 14366 14367 14368 14369
          14370 14371 14372 14373 14374 14375
          14376 14377 14378 14379 15896 15900
          15901 15941 15942 15948 15949 15952
          16709 16710 16711 16712 16713 16714
          16715 16716 16717 16718 16719 16720
          16721 16722 16723 16724 16725 16726
          16727 16728 16729 16730 16732 16733
          16734 16735 16739 16740 16742 16743
          16744 16745 16749 16750 16751 16752
          16753 16754 16755 16756 16757 16758
          16759 16760 16761 16762 16763 16764
          16765 16766 16767 16768 16769 16770
          16771 16772 16773 16774 16775 16776
          16777 16778 16779 16780 16786 16787
          16791 16792 16793 16794 16798 16799
          16800 16801 16805 16806 16807 16808
          16809 16810 16811 16812 16813 16814
          16815 16816 16817 16818 16819 16820
          16821 16822 16823 16825 16826 16828
          16829 16830 16831 16835 16838 16839
          16845 16846 16847 16848 16849 16850
          16851 16852 16853 16854 16855 16856
          16857 16858 16859 16860 16861 16862
          16863 16864 16866 16867 16868 16869
          16870 16871 16873 16874 16875 16876
          16880 16881 16882 16883 16887 16888
          16894 16895 17093 17094 17095 17096
          17097 17098 17099 17100 17102 17107
          17108 17109 17110 17111 17112 17113
          17114 17116 17123 17124 17135 17136
          17137 17138 17205 17206 17207 17208
          17209 17210 17211 17212 17214 17219
          17220 17221 17222 17223 17224 17225
          17226 17227 17228 17229 17233 17234
          17235 17236 17247 17248 17249 17250
          19287 19288 19290 19291 19292 19293
          19307 19308 19309 19310 19314 19315
          19316 19317 19318 19319 19320 816
          817 897 895 1368 1377 1379
          1378 3097 1345 3192 3191 3201
          3203 3202 3218 3219 3232 3231
          3234 3233 3344 3343 1352 3176
          3653 3179 815 3369 3367 3371
          3144 5416 5419 3174 5435 5434
          5458 5460 5459 5461 5456 5462
          5464 5587 5817 5821 5935 5627
          5937 5947 5629 5949 5630 5951
          6303 6291 6305 6292 6304 6306
          6310 6312 6311 6313 6925 5955
          6003 6926 6927 6004 6928 6929
          6930 12619 5204 12627 5205 14047
          14049 14051 5413 14065 14055 14056
          14059 14071 5414 14072 14075 14077
          14079 5417 14089 14093 14095 14096
          14099 14101 14100 14197 14201 5442
          14215 3177 14217 14218 14220 14221
          14223 14222 5444 14232 14234 14235
          14236 5446 14245 14247 14249 14251
          14259 14260 14262 14263 14265 14264
          5450 14316 14337 14340 14342 14343
          14344 14345 15904 5818 15916 15920
          15921 15924 16736 16731 3276 16737
          16738 5936 16746 16741 16747 16748
          3292 15945 5824 15969 15970 15973
          16781 5828 16782 16783 5942 15976
          16784 15977 16785 15980 16788 16790
          16789 5943 16795 16796 16797 5944
          16802 16803 16804 3293 16824 5948
          16832 16827 16833 16834 5950 16840
          16836 16841 16842 16837 16843 16844
          3294 16865 5954 16872 16877 16878
          16879 5956 16884 16885 16886 5957
          16889 16890 16891 16892 16893 5958
          16896 16897 16898 16899 16900 3295
          17101 17103 17104 17106 17105 5988
          17115 17117 17118 17119 17120 5990
          17121 17122 17125 17127 17126 5991
          17128 17130 17132 17134 17139 17140
          17141 5993 17142 17144 17146 17148
          17213 17215 17216 17217 17218 6002
          17230 17231 17232 17237 17238 17239
          6005 17240 17242 17244 17246 17251
          17252 17253 6007 17254 17256 17258
          17260 19294 19289 19295 19296 19311
          19312 19313 19321 19322 19323
        </DataArray>
        <DataArray type="Float64" Name="bounds" format="ascii" RangeMin="0" RangeMax="0">
          0 0 0 0 0 0
          0 0 0 0 0 0
          0 0 0 0 0 0
          0 0 0 0 0 0
          0 0 0 0 0 0
          0 0 0 0 0 0
          0 0 0 0 0 0
          0 0 0 0 0 0
          0 0 0 0 0 0
          0 0 0 0 0 0
          0 0 0 0 0 0
          0 0 0 0 0 0
          0 0 0 0 0 0
          0 0 0 0 0 0
          0 0 0 0 0 0
          0 0 0 0 0 0
          0 0 0 0 0 0
          0 0 0 0 0 0
          0 0 0 0 0 0
          0 0 0 0 0 0
          0 0 0 0 0 0
          0 0 0 0 0 0
          0 0 0 0 0 0
          0 0 0 0 0 0
          0 0 0 0 0 0
          0 0 0 0 0 0
          0 0 0 0 0 0
          0 0 0 0 0 0
          0 0 0 0 0 0
          0 0 0 0 0 0
          0 0 0 0 0 0
          0 0 0 0 0 0
          0 0 0 0 0 0
          0 0 0 0 0 0
          0 0 0 0 0 0
          0 0 0 0 0 0
          0 0 0 0 0 0
          0 0 0 0 0 0
          0 0 0 0 0 0
          0 0 0 0 0 0
          0 0 0 0 0 0
          0 0 0 0 0 0
          0 0 0 0 0 0
          0 0 0 0 0 0
          0 0 0 0 0 0
          0 0 0 0 0 0
          0 0 0 0 0 0
          0 0 0 0 0 0
          0 0 0 0 0 0
          0 0 0 0 0 0
          0 0 0 0 0 0
          0 0 0 0 0 0
          0 0 0 0 0 0
          0 0 0 0 0 0
          0 0 0 0 0 0
          0 0 0 0 0 0
          0 0 0 0 0 0
          0 0 0 0 0 0
          0 0 0 0 0 0
          0 0 0 0 0 0
          0 0 0 0 0 0
          0 0 0 0 0 0
          0 0 0 0 0 0
          0 0 0 0 0 0
          0 0 0 0 0 0
          0 0 0 0 0 0
          0 0 0 0 0 0
          0 0 0 0 0 0
          0 0 0 0 0 0
          0 0 0 0 0 0
          0 0 0 0 0 0
          0 0 0 0 0 0
          0 0 0 0 0 0
          0 0 0 0 0 0
          0 0 0 0 0 0
          0 0 0 0 0 0
          0 0 0 0 0 0
          0 0 0 0 0 0
          0 0 0 0 0 0
          0 0 0 0 0 0
          0 0 0 0 0 0
          0 0 0 0 0 0
          0 0 0 0 0 0
          0 0 0 0 0 0
          0 0 0 0 0 0
          0 0 0 0 0 0
          0 0 0 0 0 0
          0 0 0 0 0 0
          0 0 0 0 0 0
          0 0 0 0 0 0
          0 0 0 0 0 0
          0 0 0 0 0 0
          0 0 0 0 0 0
          0 0 0 0 0 0
          0 0 0 0 0 0
          0 0 0 0 0 0
          0 0 0 0 0 0
          0 0 0 0 0 0
          0 0 0 0 0 0
          0 0 0 0 0 0
          0 0 0 0 0 0
          0 0 0 0 0 0
          0 0 0 0 0 0
          0 0 0 0 0 0
          0 0 0 0 0 0
          0 0 0 0 0 0
          0 0 0 0 0 0
          0 0 0 0 0 0
          0 0 0 0 0 0
          0 0 0 0 0 0
          0 0 0 0 0 0
          0 0 0 0 0 0
          0 0 0 0 0 0
          0 0 0 0 0 0
          0 0 0 0 0 0
          0 0 0 0 0 0
          0 0 0 0 0 0
          0 0 0 0 0 0
          0 0 0 0 0 0
          0 0 0 0 0 0
          0 0 0 0 0 0
          0 0 0 0 0 0
          0 0 0 0 0 0
          0 0 0 0 0 0
          0 0 0 0 0 0
          0 0 0 0 0 0
          0 0 0 0 0 0
          0 0 0 0 0 0
          0 0 0 0 0 0
          0 0 0 0 0 0
          0 0 0 0 0 0
          0 0 0 0 0 0
          0 0 0 0 0 0
          0 0 0 0 0 0
          0 0 0 0 0 0
          0 0 0 0 0 0
          0 0 0 0 0 0
          0 0 0 0 0 0
          0 0 0 0 0 0
          0 0 0 0 0 0
          0 0 0 0 0 0
          0 0 0 0 0 0
          0 0 0 0 0 0
          0 0 0 0 0 0
          0 0 0 0 0 0
          0 0 0 0 0 0
          0 0 0 0 0 0
          0 0 0 0 0 0
          0 0 0 0 0 0
          0 0 0 0 0 0
          0 0 0 0 0 0
          0 0 0 0 0 0
          0 0 0 0 0 0
          0 0 0 0 0 0
          0 0 0 0 0 0
          0 0 0 0 0 0
          0 0 0 0 0 0
          0 0 0 0 0 0
          0 0 0 0 0 0
          0 0 0 0 0 0
          0 0 0 0 0 0
          0 0 0 0 0 0
          0 0 0 0 0 0
          0 0 0 0 0 0
          0 0 0 0 0 0
          0 0 0 0 0 0
          0 0 0 0 0 0
          0 0 0 0 0 0
          0 0 0 0 0 0
          0 0 0 0 0 0
          0 0 0 0 0 0
          0 0 0 0 0 0
          0 0 0 0 0 0
          0 0 0 0 0 0
          0 0 0 0 0 0
          0 0 0 0 0 0
          0 0 0 0 0 0
          0 0 0 0 0 0
          0 0 0 0 0 0
          0 0 0 0 0 0
          0 0 0 0 0 0
          0 0 0 0 0 0
          0 0 0 0 0 0
          0 0 0 0 0 0
          0 0 0 0 0 0
          0 0 0 0 0 0
          0 0 0 0 0 0
          0 0 0 0 0 0
          0 0 0 0 0 0
          0 0 0 0 0 0
          0 0 0 0 0 0
          0 0 0 0 0 0
          0 0 0 0 0 0
          0 0 0 0 0 0
          0 0 0 0 0 0
          0 0 0 0 0 0
          0 0 0 0 0 0
          0 0 0 0 0 0
          0 0 0 0 0 0
          0 0 0 0 0 0
          0 0 0 0 0 0
          0 0 0 0 0 0
          0 0 0 0 0 0
          0 0 0 0 0 0
          0 0 0 0 0 0
          0 0 0 0 0 0
          0 0 0 0 0 0
          0 0 0 0 0 0
          0 0 0 0 0 0
          0 0 0 0 0 0
          0 0 0 0 0 0
          0 0 0 0 0 0
          0 0 0 0 0 0
          0 0 0 0 0 0
          0 0 0 0 0 0
          0 0 0 0 0 0
          0 0 0 0 0 0
          0 0 0 0 0 0
          0 0 0 0 0 0
          0 0 0 0 0 0
          0 0 0 0 0 0
          0 0 0 0 0 0
          0 0 0 0 0 0
          0 0 0 0 0 0
          0 0 0 0 0 0
          0 0 0 0 0 0
          0 0 0 0 0 0
          0 0 0 0 0 0
          0 0 0 0 0 0
          0 0 0 0 0 0
          0 0 0 0 0 0
          0 0 0 0 0 0
          0 0 0 0 0 0
          0 0 0 0 0 0
          0 0 0 0 0 0
          0 0 0 0 0 0
          0 0 0 0 0 0
          0 0 0 0 0 0
          0 0 0 0 0 0
          0 0 0 0 0 0
          0 0 0 0 0 0
          0 0 0 0 0 0
          0 0 0 0 0 0
          0 0 0 0 0 0
          0 0 0 0 0 0
          0 0 0 0 0 0
          0 0 0 0 0 0
          0 0 0 0 0 0
          0 0 0 0 0 0
          0 0 0 0 0 0
          0 0 0 0 0 0
          0 0 0 0 0 0
          0 0 0 0 0 0
          0 0 0 0 0 0
          0 0 0 0 0 0
          0 0 0 0 0 0
          0 0 0 0 0 0
          0 0 0 0 0 0
          0 0 0 0 0 0
          0 0 0 0 0 0
          0 0 0 0 0 0
          0 0 0 0 0 0
          0 0 0 0 0 0
          0 0 0 0 0 0
          0 0 0 0 0 0
          0 0 0 0 0 0
          0 0 0 0 0 0
          0 0 0 0 0 0
          0 0 0 0 0 0
          0 0 0 0 0 0
          0 0 0 0 0 0
          0 0 0 0 0 0
          0 0 0 0 0 0
          0 0 0 0 0 0
          0 0 0 0 0 0
          0 0 0 0 0 0
          0 0 0 0 0 0
          0 0 0 0 0 0
          0 0 0 0 0 0
          0 0 0 0 0 0
          0 0 0 0 0 0
          0 0 0 0 0 0
          0 0 0 0 0 0
          0 0 0 0 0 0
          0 0 0 0 0 0
          0 0 0 0 0 0
          0 0 0 0 0 0
          0 0 0 0 0 0
          0 0 0 0 0 0
          0 0 0 0 0 0
          0 0 0 0 0 0
          0 0 0 0 0 0
          0 0 0 0 0 0
          0 0 0 0 0 0
          0 0 0 0 0 0
          0 0 0 0 0 0
          0 0 0 0 0 0
          0 0 0 0 0 0
          0 0 0 0 0 0
          0 0 0 0 0 0
          0 0 0 0 0 0
          0 0 0 0 0 0
          0 0 0 0 0 0
          0 0 0 0 0 0
          0 0 0 0 0 0
          0 0 0 0 0 0
          0 0 0 0 0 0
          0 0 0 0 0 0
          0 0 0 0 0 0
          0 0 0 0 0 0
          0 0 0 0 0 0
          0 0 0 0 0 0
          0 0 0 0 0 0
          0 0 0 0 0 0
          0 0 0 0 0 0
          0 0 0 0 0 0
          0 0 0 0 0 0
          0 0 0 0 0 0
          0 0 0 0 0 0
          0 0 0 0 0 0
          0 0 0 0 0 0
          0 0 0 0 0 0
          0 0 0 0 0 0
          0 0 0 0 0 0
          0 0 0 0 0 0
          0 0 0 0 0 0
          0 0 0 0 0
        </DataArray>
        <DataArray type="Float64" Name="gradient_error" format="ascii" RangeMin="5.858196043326559e-13" RangeMax="3.7452787867416203e-7">
          1.4034127754188655e-10 9.84805100531505e-10 1.6661947241204947e-8 5.382595434712168e-10 1.4617069573863875e-10 1.0134283596368069e-7
          5.6317481543157035e-9 1.1062156375680959e-11 7.648115246615144e-10 2.1030339323067647e-11 1.1876285802186992e-9 1.4928827994867038e-9
          2.355736199667767e-9 1.2955469755577454e-10 3.5623400243229683e-10 3.1176162108871415e-11 7.089747170705057e-11 2.1474829120346204e-10
          6.165234193485748e-10 1.22775764927281e-10 9.172454318926188e-8 4.524278565310421e-8 2.0022488152767884e-7 2.94585853904584e-8
          1.1421914466506706e-8 1.0027454482040084e-8 3.219722706072788e-9 5.708151266626161e-8 2.3985023941640033e-8 1.6151974951674008e-8
          3.7452787867416203e-7 1.902870180153908e-7 1.0469744791014496e-7 4.5065968887210365e-8 2.5130686450440145e-8 9.899360809577697e-9
          1.8015757395779572e-7 7.894800183676015e-8 4.081241830751096e-8 5.159704781052669e-11 8.107554206980968e-12 1.6082809897460447e-10
          3.381300680700329e-11 1.1771574035886645e-10 1.985728271754488e-11 8.280445304675352e-11 2.0696795000493423e-12 2.5530019340923754e-12
          7.973517465638293e-12 4.1168500913100325e-12 4.0077103192633165e-12 6.4253515938791115e-12 1.6353450269109469e-9 2.97318211441766e-9
          2.392622119175967e-10 4.233442563514989e-11 1.506923797898346e-10 1.9653671805059316e-11 4.358193173627078e-10 7.92591419787068e-11
          7.126596378666384e-11 7.179634681262768e-12 9.219094826097436e-12 3.1689772150442745e-9 6.53954751624943e-9 1.3669611817227656e-9
          2.4208727399368447e-9 1.3389658764860816e-9 1.6409175146277357e-10 2.9544259720197893e-10 5.463578932359449e-11 8.871280402171755e-11
          2.670675841820421e-10 4.835025055422847e-10 1.555322728659424e-10 1.3946911395528342e-9 5.509626370070804e-10 8.294131564985677e-10
          3.226203125153234e-10 2.2669148197684037e-10 1.9344817905464144e-10 6.305712722162313e-11 5.650565577554983e-11 1.2865281382651856e-10
          1.5408340445281012e-10 5.933646575769247e-11 1.6959254076854534e-11 1.708567170334289e-11 8.246835614949677e-12 1.0993922221873041e-11
          1.5334221180014244e-11 2.102233701594678e-11 1.3924561273291291e-11 2.0793948646647873e-11 1.3429264797739341e-11 3.392833940716827e-11
          3.2948176688540056e-11 5.429111141997585e-11 2.406562605421269e-11 1.0595115082645579e-8 2.619402576785954e-9 6.869944912902467e-10
          3.957370084404602e-9 2.1518589388140843e-9 5.945428478352222e-9 9.834941080539004e-10 5.142511065352097e-10 1.3627312729308576e-9
          2.3441309501496465e-8 4.196789770938812e-8 8.675076171724906e-9 4.492296791198547e-9 1.1980819152298825e-8 1.8292850068068859e-9
          9.578814845302227e-10 2.4859210484102635e-9 1.5802013591045925e-8 8.31768275241138e-9 2.0959638727038158e-8 3.377444563401502e-9
          1.7255430784518013e-9 4.3834009929971145e-9 3.642616548423819e-9 5.7480353006567046e-9 8.752820271334277e-9 1.4312854170561147e-9
          7.827217457883759e-10 1.967025114381705e-11 3.8831792217975285e-10 4.9269918618257647e-11 2.7103760191427403e-10 1.6775463433569026e-11
          7.75519370034371e-12 2.5932670972059628e-11 2.16746833708796e-9 1.921058483459952e-10 1.1623743336006043e-9 7.907175974983131e-11
          3.257602701984687e-9 2.9397664900681036e-10 1.6992150852808526e-9 8.337679825567995e-11 3.717642405353012e-11 3.091498333784345e-11
          1.2918220726758475e-11 1.2929877133206163e-10 5.802244288315115e-11 4.697599687736484e-11 5.330120946105846e-10 3.468724505255696e-11
          3.057570784781015e-10 6.00442115085947e-11 7.394574327790392e-10 5.0157663722925146e-11 4.235935111594018e-10 1.196176575997403e-11
          5.6548779355792525e-12 2.162933997516189e-11 9.74803922218546e-12 1.777243386522796e-11 6.964619050856706e-12 2.9454108482127945e-11
          3.3547650551426225e-12 2.2672145187348656e-12 2.4398526204246777e-12 2.5002248787345258e-12 4.196969681164333e-12 2.565073015462e-12
          6.24733811923653e-12 1.6003435688227516e-11 6.423683678431654e-12 5.3832296976201466e-12 3.33214391528512e-12 2.5025745879309172e-11
          1.0046561610392945e-11 8.32075489083476e-12 2.83534947491344e-12 3.0364254391269714e-12 3.117210587953269e-12 2.3745151415633744e-12
          2.7035139905183986e-12 4.158985972467616e-12 3.702747071253138e-12 5.718714816388994e-12 3.697309225153164e-12 4.434666485649137e-12
          4.365613985832091e-12 6.120268258264478e-12 1.2745080092009447e-8 1.1382466742230692e-9 1.7494854694127356e-8 5.563426501942527e-10
          8.143130511823494e-10 2.291661677681858e-8 2.2512180993828337e-9 2.753647395810391e-8 1.147066733591382e-9 1.5571915992805729e-9
          4.756052763292822e-9 4.3518998752642374e-10 2.4265744095631194e-9 1.704943732371768e-10 6.5776050587456285e-9 6.189177668566363e-10
          3.359333681134335e-9 1.9366497985312556e-10 8.748332297760418e-11 6.911212541210815e-11 2.948409988947761e-11 2.797433132789433e-10
          1.273691809817715e-10 9.838856263653559e-11 9.947928711706653e-10 7.056734803071486e-11 5.688140000889592e-10 1.1224445667888215e-10
          1.3524273837687345e-9 9.754741251765081e-11 7.660696669391741e-10 2.5578652702688652e-11 1.0177064376604039e-11 4.045884948516087e-11
          1.5277834501902032e-11 3.585088098925449e-11 1.438800420532762e-11 5.261933503785863e-11 8.692022736201151e-9 8.473999571817448e-10
          4.49731176844657e-9 3.2625206292530853e-10 1.1516492929277874e-8 1.1232237651818388e-9 5.960420334115889e-9 3.898822599285755e-10
          1.7908934040171174e-10 1.3572712888250706e-10 5.883448313275782e-11 5.255569629851624e-10 2.4342906990171507e-10 1.8194815943537068e-10
          1.8370202610008406e-9 1.326847804679102e-10 9.674158380195384e-10 1.170705921554487e-10 2.386194082389452e-9 1.7577712474026844e-10
          1.2029060268049812e-9 4.911828748515476e-11 1.9783291374661198e-11 4.582820922227333e-11 2.3888532951908405e-11 6.55747106013531e-11
          2.6508237668921604e-11 3.006226652939213e-11 3.781225091725596e-11 1.5188046318590976e-11 1.2407088293728342e-11 4.95803878429666e-12
          5.520374681741307e-11 2.21774464160484e-11 1.790517877240535e-11 2.791751195126941e-12 6.5244918630258616e-12 5.1967999773105705e-12
          8.558536446083955e-12 7.370064807491506e-12 7.2169081362297514e-12 5.104065420523553e-12 9.438723009697339e-12 3.100211488488882e-12
          3.156609544875143e-12 2.4851289957706996e-12 3.374901905800135e-12 2.451653794319672e-12 3.4301952371258855e-12 1.9681634389478297e-12
          4.47514747262193e-12 7.784589401364025e-11 3.126719466201872e-11 2.4989970391860302e-11 1.0037507777326509e-11 1.0607060324787922e-10
          3.374973410020867e-11 8.107693456541735e-12 4.878180714500512e-12 9.887709030915594e-12 6.578522751148706e-12 1.0878553025082291e-11
          1.1894126973035046e-11 4.954595417829522e-10 6.410831596032406e-10 4.967994591365398e-10 8.219013513045154e-10 3.7951324987797625e-10
          4.3385937170459583e-10 1.806721107454794e-10 1.5017377450489657e-10 2.6633433879005133e-10 3.487668112906994e-10 1.3952964039358914e-10
          4.984031735775555e-10 1.0700204094257836e-10 4.502806551831888e-10 6.83713576897297e-11 6.259745157263747e-11 2.742740102578664e-11
          3.2538284553330454e-11 4.8144531566346564e-11 5.7415535246268685e-11 2.5638834323251957e-11 4.782097694154216e-11 3.048878078812683e-11
          7.036543277612432e-11 2.798385273208632e-8 1.4534071498820423e-8 5.458446491492073e-9 1.0121272744685963e-9 1.5326816916383975e-8