<?xml version="1.0"?>
<VTKFile type="UnstructuredGrid" version="0.1" byte_order="LittleEndian" header_type="UInt32" compressor="vtkZLibDataCompressor">
  <UnstructuredGrid>
    <Piece NumberOfPoints="1955" NumberOfCells="1431">
      <PointData>
        <DataArray type="Int32" Name="libmesh_node_id" format="ascii" RangeMin="595" RangeMax="19526">
          595 597 807 815 816 817
          819 820 821 887 892 895
          897 901 902 1329 1330 1333
          1335 1367 1368 1369 1377 1378
          1379 1385 1394 1395 1399 1400
          1401 1402 1403 1404 1405 1406
          1407 1408 1409 1410 1411 1412
          1413 3179 3183 3191 3192 3193
          3201 3202 3203 3233 3234 3237
          3267 3268 3271 3292 3293 3294
          3295 3296 3297 3298 3301 3302
          3303 3304 3305 3326 3327 3328
          3329 3330 3331 3332 3333 3334
          3335 3336 3337 3338 3339 3340
          3341 3342 3343 3344 3345 3346
          3347 3348 3349 3350 3351 3352
          3353 3354 3355 3356 3357 3358
          3359 3360 3361 3362 3363 3364
          3365 3366 3367 3368 3369 3370
          3371 3372 3373 3374 3375 3376
          3377 3378 3379 3380 3381 3382
          3383 3384 3385 3386 3387 3388
          3389 3390 5464 5629 5630 5632
          5634 5635 5636 5784 5786 5787
          5788 5789 5790 5791 5792 5793
          5794 5936 5937 5942 5943 5944
          5947 5948 5949 5950 5951 5954
          5955 5956 5957 5958 5960 5961
          5962 5964 5965 5966 5967 5968
          5969 5970 5971 5972 5973 5974
          5975 5976 5977 5978 5979 5980
          5981 5982 5983 5984 5985 5986
          5991 5993 6003 6004 6005 6007
          6010 6011 6014 6015 6016 6017
          6018 6019 6020 6021 6026 6027
          6028 6029 6030 6031 6032 6033
          6034 6035 6038 6039 6040 6041
          6042 6180 6181 6182 6184 6185
          6186 6187 6188 6189 6190 6191
          6192 6193 6194 6195 6196 6197
          6198 6199 6200 6201 6202 6203
          6204 6205 6206 6207 6208 6209
          6210 6211 6212 6213 6214 6215
          6216 6217 6218 6219 6220 6221
          6222 6223 6224 6225 6226 6227
          6228 6229 6230 6231 6232 6233
          6234 6235 6236 6237 6238 6239
          6240 6241 6242 6243 6244 6245
          6246 6247 6248 6249 6250 6251
          6252 6253 6254 6255 6256 6257
          6258 6259 6260 6261 6262 6263
          6264 6265 6266 6267 6268 6269
          6270 6271 6272 6273 6274 6275
          6276 6277 6278 6279 6280 6281
          6282 6283 6284 6285 6286 6287
          6288 6289 6290 6291 6292 6293
          6294 6295 6296 6297 6298 6299
          6300 6301 6302 6303 6304 6305
          6306 6307 6308 6309 6310 6311
          6312 6313 6314 6315 6316 6317
          6318 6319 6320 6321 6322 6323
          6324 6325 6326 6327 6328 6329
          6330 6331 6332 6333 6334 6335
          6336 6337 6338 6339 6340 6341
          6342 6343 6344 6345 6346 6347
          6348 6349 6350 6351 6352 6353
          6354 6355 6356 6357 6358 6359
          6360 6361 6362 6363 6364 6365
          6366 6367 6368 6369 6370 6371
          6372 6373 6374 6375 6376 6377
          6378 6379 6380 6381 6382 6925
          6926 6927 6928 6929 6930 6931
          6932 6933 6934 6935 6936 6937
          6938 6939 6940 6941 6942 6943
          6944 6945 6946 6947 6948 6949
          6950 6951 6952 6953 6954 6955
          6956 6957 6958 6959 6960 6961
          6962 16738 16741 16746 16747 16748
          16783 16790 16795 16796 16797 16802
          16803 16804 16824 16827 16832 16833
          16834 16836 16837 16840 16841 16842
          16843 16844 16865 16872 16877 16878
          16879 16884 16885 16886 16889 16890
          16891 16892 16893 16896 16897 16898
          16899 16900 16902 16906 16907 16910
          16911 16912 16913 16914 16915 16916
          16917 16918 16919 16920 16922 16926
          16927 16930 16931 16932 16933 16934
          16935 16936 16937 16938 16939 16940
          16943 16944 16947 16950 16951 16954
          16955 16956 16957 16958 16959 16960
          16961 16962 16963 16964 16965 16966
          16967 16968 16971 16972 16975 16978
          16979 16982 16983 16984 16985 16986
          16987 16988 16989 16990 16991 16992
          16993 16994 16995 16996 16997 16998
          16999 17000 17001 17002 17003 17004
          17005 17006 17007 17008 17009 17010
          17011 17012 17013 17014 17015 17016
          17017 17018 17019 17020 17021 17022
          17023 17024 17025 17026 17027 17028
          17029 17030 17031 17032 17033 17034
          17035 17036 17037 17038 17039 17040
          17041 17042 17043 17044 17045 17046
          17047 17048 17049 17050 17051 17052
          17053 17054 17055 17056 17057 17058
          17059 17060 17061 17062 17063 17064
          17065 17066 17067 17068 17069 17070
          17071 17072 17073 17074 17075 17076
          17077 17078 17079 17080 17081 17082
          17083 17084 17085 17086 17087 17088
          17089 17090 17091 17092 17127 17132
          17134 17139 17140 17141 17146 17148
          17237 17238 17239 17244 17246 17251
          17252 17253 17258 17260 17301 17302
          17305 17306 17308 17309 17310 17311
          17312 17313 17314 17315 17316 17317
          17318 17319 17320 17321 17322 17323
          17324 17325 17326 17328 17329 17330
          17331 17332 17333 17334 17335 17336
          17337 17338 17339 17340 17341 17342
          17343 17344 17345 17346 17347 17348
          17349 17350 17351 17352 17353 17354
          17359 17361 17371 17373 17375 17383
          17384 17385 17386 17387 17388 17389
          17394 17396 17397 17398 17399 17400
          17401 17402 17403 17408 17409 17410
          17411 17412 17413 17414 17415 17416
          17417 17418 17419 17420 17421 17422
          17423 17424 17425 17426 17427 17428
          17429 17430 17431 17432 17433 17434
          17435 17436 17437 17438 17439 17440
          17441 17442 17443 17444 17445 17446
          17447 17448 17449 17450 17451 17452
          17453 17454 17455 17456 17457 17458
          17459 17460 17461 17462 17463 17464
          17465 17466 17467 17469 17471 17473
          17481 17483 17485 17487 17488 17489
          17490 17491 17492 17493 17494 17499
          17500 17501 17502 17503 17504 17505
          17506 17507 17508 18484 18488 18489
          18492 18493 18494 18495 18496 18497
          18498 18499 18500 18501 18502 18504
          18508 18509 18512 18513 18514 18515
          18516 18517 18518 18519 18520 18521
          18522 18525 18526 18529 18532 18533
          18536 18537 18538 18539 18540 18541
          18542 18543 18544 18545 18546 18547
          18548 18549 18550 18553 18554 18557
          18560 18561 18563 18564 18565 18566
          18567 18568 18569 18570 18571 18572
          18573 18574 18575 18576 18577 18578
          18579 18580 18581 18582 18583 18584
          18585 18586 18587 18588 18589 18590
          18591 18592 18593 18594 18595 18596
          18597 18598 18599 18600 18601 18602
          18603 18604 18605 18606 18607 18608
          18609 18610 18611 18612 18613 18614
          18615 18616 18617 18618 18619 18620
          18621 18622 18623 18624 18625 18626
          18627 18628 18629 18630 18631 18632
          18633 18634 18635 18636 18637 18638
          18639 18640 18641 18642 18643 18644
          18645 18646 18647 18648 18649 18650
          18651 18652 18653 18654 18655 18656
          18657 18658 18659 18660 18661 18662
          18663 18664 18665 18666 18667 18668
          18669 18670 18671 18672 18673 18674
          18675 18676 18677 18678 18679 18680
          18681 18682 18683 18684 18685 18686
          18687 18688 18689 18690 18691 18692
          18693 18694 18695 18696 18697 18698
          18699 18700 18701 18702 18703 18704
          18705 18706 18707 18708 18709 18710
          18711 18712 18713 18714 18715 18716
          18717 18718 18719 18720 18721 18722
          18723 18724 18725 18726 18727 18728
          18729 18730 18731 18732 18733 18734
          18735 18736 18737 18738 18739 18740
          18741 18742 18743 18744 18745 18746
          18747 18748 18749 18750 18751 18752
          18753 18754 18755 18756 18757 18758
          18759 18760 18761 18762 18763 18764
          18765 18766 18767 18768 18769 18770
          18771 18772 18773 18774 18775 18776
          18777 18778 18779 18780 18781 18782
          18783 18784 18785 18786 18787 18788
          18789 18790 18791 18792 18793 18794
          18795 18796 18797 18798 18799 18800
          18801 18802 18803 18804 18805 18806
          18807 18808 18809 18810 18811 18812
          18813 18814 18815 18816 18817 18818
          18819 18820 18821 18822 18823 18824
          18825 18826 18827 18828 18829 18830
          18831 18832 18833 18834 18835 18836
          18837 18838 18839 18840 18841 18842
          18843 18844 18845 18846 18847 18848
          18849 18850 18851 18852 18853 18854
          18855 18856 18857 18858 18859 18860
          18861 18862 18863 18864 18865 18866
          18867 18868 18869 18870 18871 18872
          18873 18874 18875 18876 18877 18878
          18879 18880 18881 18882 18883 18884
          18885 18886 18887 18888 18889 18890
          18891 18892 18893 18894 18895 18896
          18897 18898 18899 18900 18901 18902
          18903 18904 18905 18906 18907 18908
          18909 18910 18911 18912 18913 18914
          18915 18916 18917 18918 18919 18920
          18921 18922 18923 18924 18925 18926
          18927 18928 18929 18930 18932 18933
          18934 18936 18937 18938 18939 18940
          18941 18942 18943 18944 18945 18946
          18947 18948 18949 18950 18951 18952
          18953 18954 18955 18956 18957 18958
          18960 18961 18962 18964 18965 18966
          18967 18968 18969 18970 18971 18972
          18973 18974 18975 18976 18977 18978
          18979 18980 18981 18982 18983 18984
          18985 18986 18987 18988 18989 18990
          18991 18992 18993 18994 18995 18996
          18997 18998 18999 19000 19001 19002
          19003 19004 19005 19006 19007 19008
          19009 19010 19011 19012 19013 19014
          19015 19016 19017 19018 19019 19020
          19021 19022 19023 19024 19025 19026
          19027 19028 19029 19030 19031 19032
          19033 19034 19035 19036 19037 19038
          19039 19040 19041 19042 19043 19044
          19045 19046 19047 19048 19049 19050
          19051 19052 19053 19054 19055 19056
          19057 19058 19059 19060 19061 19062
          19063 19064 19065 19066 19067 19068
          19069 19070 19071 19072 19073 19074
          19075 19076 19077 19078 19079 19080
          19081 19082 19083 19084 19085 19086
          19087 19088 19089 19090 19091 19092
          19093 19094 19095 19096 19097 19098
          19099 19100 19101 19102 19103 19104
          19105 19106 19107 19108 19109 19110
          19111 19112 19113 19114 19115 19116
          19117 19118 19119 19120 19121 19122
          19123 19124 19125 19126 19127 19128
          19129 19130 19131 19132 19133 19134
          19135 19136 19137 19138 19139 19140
          19142 19143 19144 19146 19147 19148
          19149 19150 19151 19152 19153 19154
          19155 19156 19157 19158 19159 19160
          19161 19162 19163 19164 19165 19166
          19167 19168 19170 19171 19172 19174
          19175 19176 19177 19178 19179 19180
          19181 19182 19183 19184 19185 19186
          19187 19188 19189 19190 19191 19192
          19193 19194 19195 19196 19197 19198
          19199 19200 19201 19202 19203 19204
          19205 19206 19207 19208 19209 19210
          19211 19212 19213 19214 19215 19216
          19217 19218 19219 19220 19221 19222
          19223 19224 19225 19226 19227 19228
          19229 19230 19231 19232 19233 19234
          19235 19236 19237 19238 19239 19240
          19241 19242 19243 19244 19245 19246
          19247 19248 19249 19250 19251 19252
          19253 19254 19255 19256 19257 19258
          19259 19260 19261 19262 19263 19264
          19265 19266 19267 19268 19269 19270
          19271 19272 19273 19274 19275 19276
          19277 19278 19279 19280 19281 19282
          19283 19284 19285 19286 19289 19294
          19295 19296 19297 19298 19299 19300
          19301 19302 19303 19304 19305 19306
          19311 19312 19313 19321 19322 19323
          19324 19325 19326 19327 19328 19329
          19330 19331 19332 19333 19334 19335
          19336 19337 19338 19339 19340 19341
          19342 19343 19344 19345 19346 19347
          19348 19349 19350 19351 19352 19353
          19354 19355 19356 19357 19358 19359
          19360 19361 19362 19363 19364 19365
          19366 19367 19368 19369 19370 19371
          19372 19373 19374 19375 19376 19377
          19378 19379 19380 19381 19382 19383
          19384 19385 19386 19387 19388 19389
          19390 19391 19392 19393 19394 19395
          19396 19397 19398 19399 19400 19401
          19402 19403 19404 19405 19406 19407
          19408 19409 19410 19411 19412 19413
          19414 19415 19416 19417 19418 19419
          19420 19421 19422 19423 19424 19425
          19426 19427 19428 19429 19430 19431
          19432 19433 19434 19435 19436 19437
          19438 19439 19440 19441 19442 19443
          19444 19445 19446 19447 19448 19449
          19450 19451 19452 19453 19454 19455
          19456 19457 19458 19459 19460 19461
          19462 19463 19464 19465 19466 19467
          19468 19469 19470 19471 19472 19473
          19474 19475 19476 19477 19478 19479
          19480 19481 19482 19483 19484 19485
          19486 19487 19488 19489 19490 19491
          19492 19493 19494 19495 19496 19497
          19498 19499 19500 19501 19502 19503
          19504 19505 19506 19507 19508 19509
          19510 19511 19512 19513 19514 19515
          19516 19517 19518 19519 19520 19521
          19522 19523 19524 19525 19526 3231
          3232 3235 3236 3265 3266 3269
          3270 5627 5935 5631 5959 5633
          5963 5783 6179 5785 6183 3253
          6069 5769 6099 1388 6103 16731
          16736 16901 16904 16737 16905 16903
          16908 16909 16921 16924 16925 16923
          16928 16929 16781 16941 16782 16942
          16945 16946 16788 16948 16789 16949
          16952 16953 16969 16970 16973 16974
          16976 16977 16980 16981 17125 17299
          17126 17300 17303 17304 17327 18483
          18486 18487 18485 18490 18491 18503
          18506 18507 18505 18510 18511 18523
          18524 18527 18528 18530 18531 18534
          18535 18551 18552 18555 18556 18558
          18559 18562 17690 17898 17902 3310
          17903 17906 6100 17922 17926 17927
          17930 3315 17739 17947 6076 17948
          17951 6106 17746 17954 17958 17975
          17976 17979 6110 17982 17986
        </DataArray>
        <DataArray type="Float64" Name="bounds" format="ascii" RangeMin="0" RangeMax="0">
          0 0 0 0 0 0
          0 0 0 0 0 0
          0 0 0 0 0 0
          0 0 0 0 0 0
          0 0 0 0 0 0
          0 0 0 0 0 0
          0 0 0 0 0 0
          0 0 0 0 0 0
          0 0 0 0 0 0
          0 0 0 0 0 0
          0 0 0 0 0 0
          0 0 0 0 0 0
          0 0 0 0 0 0
          0 0 0 0 0 0
          0 0 0 0 0 0
          0 0 0 0 0 0
          0 0 0 0 0 0
          0 0 0 0 0 0
          0 0 0 0 0 0
          0 0 0 0 0 0
          0 0 0 0 0 0
          0 0 0 0 0 0
          0 0 0 0 0 0
          0 0 0 0 0 0
          0 0 0 0 0 0
          0 0 0 0 0 0
          0 0 0 0 0 0
          0 0 0 0 0 0
          0 0 0 0 0 0
          0 0 0 0 0 0
          0 0 0 0 0 0
          0 0 0 0 0 0
          0 0 0 0 0 0
          0 0 0 0 0 0
          0 0 0 0 0 0
          0 0 0 0 0 0
          0 0 0 0 0 0
          0 0 0 0 0 0
          0 0 0 0 0 0
          0 0 0 0 0 0
          0 0 0 0 0 0
          0 0 0 0 0 0
          0 0 0 0 0 0
          0 0 0 0 0 0
          0 0 0 0 0 0
          0 0 0 0 0 0
          0 0 0 0 0 0
          0 0 0 0 0 0
          0 0 0 0 0 0
          0 0 0 0 0 0
          0 0 0 0 0 0
          0 0 0 0 0 0
          0 0 0 0 0 0
          0 0 0 0 0 0
          0 0 0 0 0 0
          0 0 0 0 0 0
          0 0 0 0 0 0
          0 0 0 0 0 0
          0 0 0 0 0 0
          0 0 0 0 0 0
          0 0 0 0 0 0
          0 0 0 0 0 0
          0 0 0 0 0 0
          0 0 0 0 0 0
          0 0 0 0 0 0
          0 0 0 0 0 0
          0 0 0 0 0 0
          0 0 0 0 0 0
          0 0 0 0 0 0
          0 0 0 0 0 0
          0 0 0 0 0 0
          0 0 0 0 0 0
          0 0 0 0 0 0
          0 0 0 0 0 0
          0 0 0 0 0 0
          0 0 0 0 0 0
          0 0 0 0 0 0
          0 0 0 0 0 0
          0 0 0 0 0 0
          0 0 0 0 0 0
          0 0 0 0 0 0
          0 0 0 0 0 0
          0 0 0 0 0 0
          0 0 0 0 0 0
          0 0 0 0 0 0
          0 0 0 0 0 0
          0 0 0 0 0 0
          0 0 0 0 0 0
          0 0 0 0 0 0
          0 0 0 0 0 0
          0 0 0 0 0 0
          0 0 0 0 0 0
          0 0 0 0 0 0
          0 0 0 0 0 0
          0 0 0 0 0 0
          0 0 0 0 0 0
          0 0 0 0 0 0
          0 0 0 0 0 0
          0 0 0 0 0 0
          0 0 0 0 0 0
          0 0 0 0 0 0
          0 0 0 0 0 0
          0 0 0 0 0 0
          0 0 0 0 0 0
          0 0 0 0 0 0
          0 0 0 0 0 0
          0 0 0 0 0 0
          0 0 0 0 0 0
          0 0 0 0 0 0
          0 0 0 0 0 0
          0 0 0 0 0 0
          0 0 0 0 0 0
          0 0 0 0 0 0
          0 0 0 0 0 0
          0 0 0 0 0 0
          0 0 0 0 0 0
          0 0 0 0 0 0
          0 0 0 0 0 0
          0 0 0 0 0 0
          0 0 0 0 0 0
          0 0 0 0 0 0
          0 0 0 0 0 0
          0 0 0 0 0 0
          0 0 0 0 0 0
          0 0 0 0 0 0
          0 0 0 0 0 0
          0 0 0 0 0 0
          0 0 0 0 0 0
          0 0 0 0 0 0
          0 0 0 0 0 0
          0 0 0 0 0 0
          0 0 0 0 0 0
          0 0 0 0 0 0
          0 0 0 0 0 0
          0 0 0 0 0 0
          0 0 0 0 0 0
          0 0 0 0 0 0
          0 0 0 0 0 0
          0 0 0 0 0 0
          0 0 0 0 0 0
          0 0 0 0 0 0
          0 0 0 0 0 0
          0 0 0 0 0 0
          0 0 0 0 0 0
          0 0 0 0 0 0
          0 0 0 0 0 0
          0 0 0 0 0 0
          0 0 0 0 0 0
          0 0 0 0 0 0
          0 0 0 0 0 0
          0 0 0 0 0 0
          0 0 0 0 0 0
          0 0 0 0 0 0
          0 0 0 0 0 0
          0 0 0 0 0 0
          0 0 0 0 0 0
          0 0 0 0 0 0
          0 0 0 0 0 0
          0 0 0 0 0 0
          0 0 0 0 0 0
          0 0 0 0 0 0
          0 0 0 0 0 0
          0 0 0 0 0 0
          0 0 0 0 0 0
          0 0 0 0 0 0
          0 0 0 0 0 0
          0 0 0 0 0 0
          0 0 0 0 0 0
          0 0 0 0 0 0
          0 0 0 0 0 0
          0 0 0 0 0 0
          0 0 0 0 0 0
          0 0 0 0 0 0
          0 0 0 0 0 0
          0 0 0 0 0 0
          0 0 0 0 0 0
          0 0 0 0 0 0
          0 0 0 0 0 0
          0 0 0 0 0 0
          0 0 0 0 0 0
          0 0 0 0 0 0
          0 0 0 0 0 0
          0 0 0 0 0 0
          0 0 0 0 0 0
          0 0 0 0 0 0
          0 0 0 0 0 0
          0 0 0 0 0 0
          0 0 0 0 0 0
          0 0 0 0 0 0
          0 0 0 0 0 0
          0 0 0 0 0 0
          0 0 0 0 0 0
          0 0 0 0 0 0
          0 0 0 0 0 0
          0 0 0 0 0 0
          0 0 0 0 0 0
          0 0 0 0 0 0
          0 0 0 0 0 0
          0 0 0 0 0 0
          0 0 0 0 0 0
          0 0 0 0 0 0
          0 0 0 0 0 0
          0 0 0 0 0 0
          0 0 0 0 0 0
          0 0 0 0 0 0
          0 0 0 0 0 0
          0 0 0 0 0 0
          0 0 0 0 0 0
          0 0 0 0 0 0
          0 0 0 0 0 0
          0 0 0 0 0 0
          0 0 0 0 0 0
          0 0 0 0 0 0
          0 0 0 0 0 0
          0 0 0 0 0 0
          0 0 0 0 0 0
          0 0 0 0 0 0
          0 0 0 0 0 0
          0 0 0 0 0 0
          0 0 0 0 0 0
          0 0 0 0 0 0
          0 0 0 0 0 0
          0 0 0 0 0 0
          0 0 0 0 0 0
          0 0 0 0 0 0
          0 0 0 0 0 0
          0 0 0 0 0 0
          0 0 0 0 0 0
          0 0 0 0 0 0
          0 0 0 0 0 0
          0 0 0 0 0 0
          0 0 0 0 0 0
          0 0 0 0 0 0
          0 0 0 0 0 0
          0 0 0 0 0 0
          0 0 0 0 0 0
          0 0 0 0 0 0
          0 0 0 0 0 0
          0 0 0 0 0 0
          0 0 0 0 0 0
          0 0 0 0 0 0
          0 0 0 0 0 0
          0 0 0 0 0 0
          0 0 0 0 0 0
          0 0 0 0 0 0
          0 0 0 0 0 0
          0 0 0 0 0 0
          0 0 0 0 0 0
          0 0 0 0 0 0
          0 0 0 0 0 0
          0 0 0 0 0 0
          0 0 0 0 0 0
          0 0 0 0 0 0
          0 0 0 0 0 0
          0 0 0 0 0 0
          0 0 0 0 0 0
          0 0 0 0 0 0
          0 0 0 0 0 0
          0 0 0 0 0 0
          0 0 0 0 0 0
          0 0 0 0 0 0
          0 0 0 0 0 0
          0 0 0 0 0 0
          0 0 0 0 0 0
          0 0 0 0 0 0
          0 0 0 0 0 0
          0 0 0 0 0 0
          0 0 0 0 0 0
          0 0 0 0 0 0
          0 0 0 0 0 0
          0 0 0 0 0 0
          0 0 0 0 0 0
          0 0 0 0 0 0
          0 0 0 0 0 0
          0 0 0 0 0 0
          0 0 0 0 0 0
          0 0 0 0 0 0
          0 0 0 0 0 0
          0 0 0 0 0 0
          0 0 0 0 0 0
          0 0 0 0 0 0
          0 0 0 0 0 0
          0 0 0 0 0 0
          0 0 0 0 0 0
          0 0 0 0 0 0
          0 0 0 0 0 0
          0 0 0 0 0 0
          0 0 0 0 0 0
          0 0 0 0 0 0
          0 0 0 0 0 0
          0 0 0 0 0 0
          0 0 0 0 0 0
          0 0 0 0 0 0
          0 0 0 0 0 0
          0 0 0 0 0 0
          0 0 0 0 0 0
          0 0 0 0 0 0
          0 0 0 0 0 0
          0 0 0 0 0 0
          0 0 0 0 0 0
          0 0 0 0 0 0
          0 0 0 0 0 0
          0 0 0 0 0 0
          0 0 0 0 0 0
          0 0 0 0 0 0
          0 0 0 0 0 0
          0 0 0 0 0 0
          0 0 0 0 0 0
          0 0 0 0 0 0
          0 0 0 0 0 0
          0 0 0 0 0 0
          0 0 0 0 0 0
          0 0 0 0 0 0
          0 0 0 0 0 0
          0 0 0 0 0 0
          0 0 0 0 0 0
          0 0 0 0 0 0
          0 0 0 0 0 0
          0 0 0 0 0 0
          0 0 0 0 0 0
          0 0 0 0 0 0
          0 0 0 0 0 0
          0 0 0 0 0 0
          0 0 0 0 0 0
          0 0 0 0 0 0
          0 0 0 0 0
        </DataArray>
        <DataArray type="Float64" Name="gradient_error" format="ascii" RangeMin="1.807872604272332e-12" RangeMax="4.901228028170299e-7">
          8.55211123941958e-9 5.07295217748021e-10 9.299133527302344e-9 6.33464226604707e-12 3.2008323591194085e-9 3.5621875847446114e-10
          4.413943338632498e-8 9.277925821615107e-12 4.5445993968165524e-9 4.783248861794131e-9 6.228404221367596e-9 1.7483079541529737e-9
          3.0750845914146425e-10 2.6862905122945835e-9 3.885641337939847e-10 1.616760104144987e-7 2.642572874892978e-7 7.998061421165106e-9
          3.0928032440419654e-7 6.144989421168929e-8 2.825498957174207e-9 5.799623644576046e-9 7.716083385847766e-10 1.41793336204706e-10
          1.3120144738283054e-9 3.4597852012074205e-8 2.070637987217246e-11 7.41232283856349e-12 2.749769220163822e-11 1.0328932744381811e-7
          4.225087773288545e-9 4.999094695699254e-9 4.085653155218116e-9 1.2249790195056687e-7 4.906753954108951e-9 4.265556893262234e-9
          1.2337292508626243e-9 2.2127032454051534e-10 2.0629109652252242e-9 3.8424212143192434e-10 1.4441477368768662e-9 2.567390025185987e-10
          2.3982261977817956e-9 9.301334020873488e-12 1.4760559962952661e-8 1.091958563945194e-8 3.992752206371695e-9 7.2543751362260205e-9
          4.741607812569634e-10 1.3105463315225583e-10 7.689542776263173e-10 6.181696152691195e-8 2.540132618370714e-8 8.310810581939902e-8
          9.896159343900926e-8 4.155868211985371e-8 1.0484465055228773e-7 7.239174575205399e-10 1.3107181705881792e-10 1.1169811038692846e-10
          1.8001129003137036e-11 1.0469106462932648e-9 1.8999774064162043e-10 1.5676971880242705e-10 7.177118058042487e-12 5.682588204476884e-12
          3.230808617198143e-11 6.108190776281489e-12 9.553948615506032e-12 1.314147507473511e-9 2.384940511220147e-10 1.9267956966811156e-10
          2.5603330859776686e-11 1.419415176475889e-9 2.5741800679523823e-10 2.064591593539928e-10 4.031613636892841e-11 7.54250460355936e-12
          1.1696770939898184e-11 8.770776829650116e-12 4.341786546855292e-11 8.092994561394813e-12 1.2520183991452123e-11 2.1498029433530307e-8
          1.645112146186282e-8 2.7656925747665977e-8 1.5963646310167093e-8 5.883515673038492e-9 1.0759310196097243e-8 3.3710831072631566e-9
          2.067387910363134e-8 7.719257800729673e-9 1.399676802149153e-8 3.2574239996540064e-8 2.540055962410467e-8 3.4782568399204606e-8
          2.439417971264408e-8 9.138492951856163e-9 1.6569417712328366e-8 5.136197477199784e-9 2.5991768336421857e-8 9.691810611836097e-9
          1.7685522003885393e-8 6.804092558468662e-10 1.8345050981595407e-10 1.0901688177128155e-9 3.206196502561478e-10 8.809289605564681e-10
          2.328594591780427e-10 1.4019270119852842e-9 4.4694535048928635e-11 5.785209148067567e-11 2.2269566715571248e-11 2.7122341266090684e-11
          7.832193754191414e-11 1.0579375519117199e-10 4.756390683532102e-11 7.134481614240023e-11 3.3257047555432787e-11 1.3011799196736756e-10
          1.0333903161690316e-9 2.6924911738131863e-10 1.6388887570908463e-9 4.662075050359573e-10 1.0911518132453438e-9 2.832272838702048e-10
          1.7280198795680182e-9 8.101162610716852e-11 3.7524067945223e-11 1.4735552471221052e-10 6.565111717949165e-11 8.491844439229747e-11
          3.9234898011169426e-11 1.5443385166298917e-10 6.631104414298804e-12 2.80662796845469e-9 6.67759367567e-9 2.235265921359365e-8
          8.09894636846e-9 4.128306243193166e-9 9.494487870017304e-9 2.956708101516097e-8 1.0721624059706817e-8 5.412094563078427e-9
          1.1685443535709136e-8 6.512727874123915e-8 3.414317190477073e-8 6.638583952286727e-8 1.229024850693919e-8 6.185869352729912e-9
          1.251311219355171e-8 1.838129027324894e-9 9.959282458235183e-9 8.739217223474164e-10 4.07921762970925e-10 3.0037781440538653e-10
          1.510458852786474e-9 9.048533144371312e-11 3.646744126289053e-9 2.829493569842028e-10 1.848489974643408e-9 3.112794310986031e-11
          1.8115600140174286e-11 1.0679805512485502e-10 4.336721099831716e-11 3.871031980134715e-11 2.2528884350299086e-9 1.2095225937099008e-8
          8.859455427152822e-10 2.6668953931253774e-9 1.4136951811225065e-8 1.0756889415383209e-9 5.023635280303023e-10 3.6807854514444493e-10
          1.6056643800631795e-10 1.2782147543974668e-9 5.970298017605075e-10 4.357615112687878e-10 4.423458584226342e-9 3.4397237086311837e-10
          2.222150370036596e-9 1.3438590914859206e-10 5.1867373195534e-9 4.0459105302825463e-10 2.5888557304459627e-9 1.2998992191965155e-10
          5.283109708017702e-11 4.669207933332162e-11 1.7670650820181255e-11 1.5306269312825087e-10 6.220653096064773e-11 5.461156273805375e-11
          1.778939437624575e-10 5.581533044763525e-11 1.4414957902553178e-11 7.558664762235727e-12 1.7790608213460387e-11 1.2724799633225393e-11
          5.3431347524185755e-12 3.5100882389982788e-12 4.632164069638136e-12 2.187848148458069e-10 8.741772414631558e-11 6.829002302898959e-11
          2.7398615876967356e-11 2.596081279828864e-10 1.0350158307687445e-10 8.068389294317103e-11 3.7719574451449174e-11 1.2574304480098285e-11
          1.2030189820137624e-11 2.1690314630502232e-11 8.611517716405407e-12 1.0441358015331383e-11 8.289519301714204e-12 2.552043642537411e-11
          1.011471907511963e-11 1.2146343641213498e-11 5.4552439391891185e-12 4.896081227273008e-12 5.757351250661746e-12 6.447688652403352e-12
          6.273567597219529e-12 3.051725814691503e-9 1.6014344839550732e-8 1.1942620457036024e-9 3.3626139524432155e-9 1.7534323014824397e-8
          1.4635590403434155e-9 6.835934118866971e-10 4.977930567098608e-10 2.1685835518587126e-10 1.6132375901966249e-9 7.533456191397492e-10
          5.479420570919801e-10 5.859044887579439e-9 4.595717355892955e-10 2.9127625812656758e-9 1.7677404364401443e-10 6.387994537783448e-9
          5.03691276951498e-10 3.1682265622101107e-9 1.7406109213608773e-10 7.071583081106384e-11 6.174669905772958e-11 2.3427922058824312e-11
          1.9095469050042398e-10 7.754846138962715e-11 6.744268802538049e-11 3.5777076275864054e-8 3.5634455596381132e-9 1.850145945006816e-8
          1.3919167856188063e-9 3.646748549469767e-8 3.6324513036981183e-9 1.8860280854916132e-8 1.710580942317795e-9 7.986522460705602e-10
          5.805698673010121e-10 2.5254890535920453e-10 1.7442950853243811e-9 8.143394742217504e-10 5.91888287419965e-10 6.7201943470831964e-9
          5.321518190388061e-10 3.329357439031912e-9 2.0287941139029993e-10 6.842514466379002e-9 5.421477859044672e-10 3.3883579666665266e-9
          2.0192160557688346e-10 8.197995509263882e-11 7.11225504753078e-11 2.7010056487309255e-11 2.0572732509702035e-10 8.351443114124446e-11
          7.239849123679869e-11 2.968602505725374e-10 1.1812468411359952e-10 9.195253742146458e-11 3.6754835249412715e-11 3.268275797924532e-10
          1.2985976150164396e-10 1.0100138328839217e-10 4.2961481745206195e-11 1.429188285692869e-11 1.3659619769059905e-11 6.906027449074362e-12
          4.715868257293539e-11 1.566476169630176e-11 1.4961727671543405e-11 2.897909998174939e-11 1.1468721851044633e-11 1.3715824186551005e-11
          1.0748155313246918e-11 3.1748759360880834e-11 1.2549961912180425e-11 1.496476529756465e-11 6.504379846176158e-12 7.2636505616037696e-12
          7.026028037442194e-12 6.340672712923554e-12 7.097844634107393e-12 7.909231700710278e-12 7.623546646496904e-12 3.4625571306114555e-10
          1.3745882115284382e-10 1.0686756526954752e-10 4.2620920793285373e-11 3.5297475791421423e-10 1.4008622716257462e-10 1.088976891336926e-10
          4.9875785006766754e-11 1.6554674041526387e-11 1.5803173202855782e-11 7.952180545815548e-12 5.081577203644948e-11 1.686302631032537e-11
          1.6093908138655536e-11 3.354193990781521e-11 1.324903539240552e-11 1.5772188739717307e-11 1.2309126812630716e-11 3.416216943720548e-11