<?xml version="1.0"?>
<VTKFile type="UnstructuredGrid" version="0.1" byte_order="LittleEndian" header_type="UInt32" compressor="vtkZLibDataCompressor">
  <UnstructuredGrid>
    <Piece NumberOfPoints="1938" NumberOfCells="1431">
      <PointData>
        <DataArray type="Int32" Name="libmesh_node_id" format="ascii" RangeMin="596" RangeMax="20708">
          596 1392 1393 1396 1397 1398
          1424 1425 1430 1431 3282 3283
          3288 3289 3290 3291 3308 3309
          3311 3314 3316 3317 3318 3319
          3320 3321 3322 3323 3324 3325
          3421 3422 3423 3424 3427 3428
          3429 3430 3435 3438 3439 3440
          3441 3442 3443 3444 3445 3446
          3447 3448 3452 3662 3663 3670
          3671 3673 3674 3675 3678 3680
          3681 3683 5869 5870 5871 5872
          5897 5898 5899 5900 5901 5902
          5903 5904 5905 5906 5907 5908
          5909 5910 5911 5912 5913 5914
          5915 5916 5918 5920 5921 5922
          5923 5924 5925 5926 5927 5928
          5929 5930 6061 6075 6089 6090
          6092 6095 6105 6107 6109 6111
          6112 6113 6114 6115 6116 6117
          6118 6119 6120 6121 6122 6123
          6124 6125 6126 6127 6128 6129
          6130 6131 6132 6133 6134 6135
          6136 6137 6138 6139 6140 6141
          6142 6143 6144 6145 6146 6147
          6148 6149 6150 6151 6152 6153
          6154 6155 6156 6157 6158 6159
          6160 6161 6162 6163 6164 6165
          6166 6167 6168 6169 6170 6171
          6172 6173 6174 6175 6176 6177
          6178 6479 6488 6489 6490 6491
          6492 6493 6494 6495 6496 6497
          6498 6499 6500 6501 6502 6503
          6504 6505 6506 6507 6508 6509
          6510 6511 6512 6513 6514 6515
          6516 6517 6518 6530 6531 6532
          6533 6534 6535 6536 6537 6538
          6539 6540 6541 6542 6543 6544
          6545 6546 6547 6548 6549 6550
          6551 6552 6553 6554 6555 6556
          6557 6558 6559 6560 6561 6562
          6563 6564 6565 6566 6567 6568
          6569 6570 6571 6572 6573 6574
          6575 6576 6577 6578 6579 6580
          6581 6582 6583 6584 6585 6586
          6587 6588 6589 6590 6591 6592
          6593 6594 6595 6596 6597 6598
          6599 6600 6601 6602 6603 6604
          6605 6606 6607 6608 6609 6610
          7037 7039 7041 7042 7043 7058
          7065 7068 7069 7070 7071 7072
          7076 7079 7083 7086 7090 7093
          7097 16247 16248 16249 16250 16251
          16252 16253 16254 16255 16256 16257
          16258 16259 16260 16261 16262 16263
          16264 16265 16266 16267 16268 16269
          16270 16271 16272 16273 16274 16275
          16276 16277 16278 16279 16280 16384
          16385 16388 16389 16461 16462 16463
          16464 16465 16466 16467 16468 16469
          16470 16471 16472 16473 16474 16475
          16476 16477 16478 16479 16480 16481
          16482 16483 16484 16485 16486 16487
          16488 16489 16490 16491 16492 16493
          16494 16495 16496 16497 16498 16499
          16500 16501 16502 16503 16504 16505
          16506 16507 16508 16509 16510 16511
          16512 16513 16514 16515 16516 16517
          16518 16519 16520 16521 16522 16523
          16524 16525 16526 16527 16528 16529
          16530 16531 16532 16533 16534 16535
          16536 16537 16538 16539 16540 16541
          16542 16543 16544 16545 16546 16547
          16548 16549 16550 16551 16552 16553
          16554 16555 16556 16557 16558 16559
          16560 16561 16562 16563 16564 16565
          16566 16567 16568 16569 16570 16571
          16572 16573 16574 16575 16576 16577
          16578 16579 16580 16581 16582 16583
          16584 16585 16586 16587 16588 16589
          16590 16591 16592 16593 16594 16595
          16596 16604 16605 16608 16609 16610
          16622 16623 16624 16626 16628 16629
          16630 16631 16632 16633 16634 16635
          16636 16637 16638 16640 16642 16643
          16644 16645 16646 16647 16648 16649
          16650 16651 16652 16653 16654 16657
          16658 16659 16660 16664 16665 16666
          16671 16672 16673 16678 16679 16680
          16681 16682 16683 16684 16685 16686
          16687 16688 16689 16690 16691 16692
          16693 16694 16695 16696 16697 16698
          16699 16700 16701 16702 16703 16704
          16705 16706 16707 16708 17360 17366
          17367 17390 17391 17395 17629 17643
          17731 17745 17827 17828 17830 17833
          17843 17845 17847 17861 17862 17864
          17867 17877 17879 17881 17939 17941
          17943 17953 17955 17957 17967 17969
          17971 17981 17983 17985 17987 17988
          17989 17990 17991 17992 17993 17994
          17995 17996 17997 17998 17999 18000
          18001 18002 18003 18004 18005 18006
          18007 18008 18009 18010 18011 18012
          18013 18014 18015 18016 18017 18018
          18019 18020 18021 18022 18023 18024
          18025 18026 18027 18028 18029 18030
          18031 18032 18033 18034 18035 18036
          18037 18038 18039 18040 18041 18042
          18043 18044 18045 18046 18047 18048
          18049 18050 18051 18052 18053 18054
          18055 18056 18057 18058 18059 18060
          18061 18062 18063 18064 18065 18066
          18067 18068 18069 18070 18071 18072
          18073 18074 18075 18076 18077 18078
          18079 18080 18081 18082 18083 18084
          18085 18086 18087 18088 18089 18090
          18091 18092 18093 18094 18095 18096
          18097 18098 18099 18100 18101 18102
          18103 18104 18105 18106 18107 18108
          18109 18110 18111 18112 18113 18114
          18115 18116 18117 18118 18119 18120
          18121 18122 18123 18124 18125 18126
          18127 18128 18129 18130 18131 18132
          18133 18134 18135 18136 18137 18138
          18139 18140 18141 18142 18143 18144
          18145 18146 18147 18148 18149 18150
          18151 18152 18153 18154 18155 18156
          18157 18158 18159 18160 18161 18162
          18163 18164 18165 18166 18167 18168
          18169 18170 18171 18172 18173 18174
          18175 18176 18177 18178 18179 18180
          18181 18182 18183 18184 18185 18186
          18187 18188 18189 18190 18191 18192
          18193 18194 18195 18196 18197 18198
          18199 18200 18201 18202 18203 18204
          18205 18206 18207 18208 18209 18210
          18211 18212 18213 18214 18215 18216
          18217 18218 18219 18220 18221 18222
          18223 18224 18225 18226 18227 18228
          18229 18230 18231 18232 18233 18234
          18235 18236 18237 18238 18239 18240
          18241 18242 18243 18244 18245 18246
          18247 18248 18249 18250 18251 18252
          18253 18254 18255 18256 18257 18258
          18259 18260 18261 18262 18263 18264
          18265 18266 18267 18268 18269 18270
          18271 18272 18273 18274 18275 18276
          18277 18278 18279 18280 18281 18282
          18283 18284 18285 18286 18287 18288
          18289 18290 18291 18292 18293 18294
          18295 18296 18297 18298 18299 18300
          18301 18302 18303 18304 18305 18306
          18307 18308 18309 18310 18311 18312
          18313 18314 18315 18316 18317 18318
          18319 18320 18321 18322 18323 18324
          18325 18326 18327 18328 18329 18330
          18331 18332 18333 18334 18335 18336
          18337 18338 18339 18340 18341 18342
          18343 18344 18345 18346 18347 18348
          18349 18350 18351 18352 18353 18354
          18355 18356 18357 18358 18359 18360
          18361 18362 18363 18364 18365 18366
          18367 18368 18369 18370 18371 18372
          18373 18374 18375 18376 18377 18378
          18379 18380 18381 18382 18383 18384
          18385 18386 18387 18388 18389 18390
          18391 18392 18393 18394 18395 18396
          18397 18398 18399 18400 18401 18402
          18403 18404 18405 18406 18407 18408
          18409 18410 18411 18412 18413 18414
          18415 18416 18417 18418 18419 18420
          18421 18422 18423 18424 18425 18426
          18427 18428 18429 18430 18431 18432
          18433 18434 18435 18436 18437 18438
          18439 18440 18441 18442 18443 18444
          18445 18446 18447 18448 18449 18450
          18451 18452 18453 18454 18455 18456
          18457 18458 18459 18460 18461 18462
          18463 18464 18465 18466 18467 18468
          18469 18470 18471 18472 18473 18474
          18475 18476 18477 18478 18479 18480
          18481 18482 18931 18935 18959 18963
          19141 19145 19169 19173 19993 20065
          20066 20067 20068 20069 20070 20071
          20072 20073 20074 20075 20076 20077
          20078 20079 20080 20081 20082 20083
          20084 20085 20086 20087 20088 20089
          20090 20091 20092 20093 20094 20095
          20096 20097 20098 20099 20100 20101
          20102 20103 20104 20105 20106 20107
          20108 20109 20110 20111 20112 20113
          20114 20115 20116 20117 20118 20119
          20120 20121 20122 20123 20124 20125
          20126 20127 20128 20129 20130 20131
          20132 20133 20134 20135 20136 20137
          20138 20139 20140 20141 20142 20143
          20144 20145 20146 20147 20148 20149
          20150 20151 20152 20153 20154 20155
          20156 20157 20158 20159 20160 20161
          20162 20163 20164 20165 20166 20171
          20172 20173 20178 20179 20180 20185
          20186 20187 20192 20193 20194 20195
          20196 20197 20198 20199 20200 20201
          20202 20203 20204 20205 20206 20207
          20208 20209 20210 20211 20212 20213
          20214 20215 20216 20217 20218 20219
          20220 20221 20222 20258 20259 20268
          20269 20278 20279 20282 20283 20284
          20285 20286 20289 20290 20291 20296
          20297 20298 20299 20300 20301 20302
          20303 20304 20305 20306 20307 20308
          20309 20310 20311 20312 20313 20314
          20315 20316 20317 20318 20319 20320
          20321 20322 20323 20324 20325 20326
          20327 20328 20329 20330 20331 20332
          20333 20334 20335 20336 20337 20338
          20339 20340 20341 20342 20343 20344
          20345 20346 20347 20348 20349 20350
          20351 20352 20353 20354 20355 20356
          20357 20358 20359 20360 20361 20362
          20363 20364 20365 20366 20367 20368
          20369 20370 20371 20372 20373 20374
          20375 20376 20377 20378 20379 20380
          20381 20382 20383 20384 20385 20386
          20387 20388 20389 20390 20391 20392
          20393 20394 20395 20396 20397 20398
          20399 20400 20401 20402 20403 20404
          20405 20406 20407 20408 20409 20410
          20411 20412 20413 20414 20415 20416
          20417 20418 20419 20420 20421 20422
          20423 20424 20425 20426 20427 20428
          20429 20430 20431 20432 20433 20434
          20435 20436 20437 20438 20439 20440
          20441 20442 20443 20444 20445 20446
          20447 20448 20449 20450 20451 20452
          20453 20454 20455 20456 20457 20458
          20459 20460 20461 20462 20463 20464
          20465 20466 20467 20468 20469 20470
          20471 20472 20473 20474 20475 20476
          20477 20478 20479 20480 20481 20482
          20483 20484 20485 20486 20487 20488
          20489 20490 20491 20492 20493 20494
          20495 20496 20497 20498 20499 20500
          20501 20502 20503 20504 20505 20506
          20507 20508 20509 20510 20511 20512
          20513 20514 20515 20516 20517 20518
          20519 20520 20521 20522 20523 20524
          20525 20526 20527 20528 20529 20530
          20531 20532 20533 20534 20535 20536
          20537 20538 20539 20540 20541 20542
          20543 20544 20545 20546 20547 20548
          20549 20550 20551 20552 20553 20554
          20555 20556 20557 20558 20559 20560
          20561 20562 20563 20564 20565 20566
          20567 20568 20569 20570 20571 20572
          20573 20574 20575 20576 20577 20578
          20579 20580 20581 20582 20583 20584
          20585 20586 20587 20588 20589 20590
          20591 20592 20593 20594 20595 20596
          20597 20598 20599 20600 20601 20602
          20603 20604 20605 20606 20607 20608
          20609 20610 20611 20612 20613 20614
          20615 20616 20617 20618 20619 20620
          20621 20622 20623 20624 20625 20626
          20627 20628 20629 20630 20631 20632
          20633 20634 20635 20636 20637 20638
          20639 20640 20641 20642 20643 20644
          20645 20646 20647 20648 20649 20650
          20651 20652 20653 20654 20655 20656
          20657 20658 20659 20660 20661 20662
          20663 20664 20665 20666 20667 20668
          20669 20670 20671 20672 20673 20674
          20675 20676 20677 20678 20679 20680
          20681 20682 20683 20684 20685 20686
          20687 20688 20689 20690 20691 20692
          20693 20694 20695 20696 20697 20698
          20699 20700 20701 20702 20703 20704
          20705 20706 20707 20708 3304 6041
          6245 6257 3334 6261 6273 6285
          3338 6289 15863 15864 3274 15869
          15866 5813 15879 15883 15881 3275
          16377 15961 16381 15965 16378 16382
          16061 16062 16064 5841 16067 5842
          16077 16079 16081 5844 16095 16096
          16098 1390 16101 5847 16111 16113
          16115 3280 16597 16165 16598 16601
          16169 16602 16625 16193 5917 16603
          16627 16197 16195 5861 16616 16615
          16639 5919 16617 16641 16207 16211
          16209 1391 17304 17303 17328 17327
          16977 17331 16981 17332 17310 17334
          17311 17335 17338 17339 17359 17383
          17384 17387 17388 17394 17621 17623
          17624 17622 17627 17628 17626 17625
          17630 17639 17638 17642 17641 17640
          17644 17727 17726 17730 17729 17728
          17732 17741 17740 17744 17743 17742
          17746 17825 17826 17829 17831 17832
          17834 17842 17844 17846 17848 17859
          17860 17863 17865 17866 17868 17876
          17878 17880 17882 17938 17940 17942
          17944 17952 17954 17956 17958 17966
          17968 17970 17972 17980 17982 17984
          17986 17589 17590 17592 6055 17595
          6056 17605 17607 17609 6058 17699
          17701 17703 6071 17713 17715 17717
          6073 18559 18558 18563 18562 18723
          18722 18727 18726 18751 18750 18755
          18754 18867 18531 18868 18871 18535
          18872 18874 18875 18878 18879 18895
          18896 18899 18900 18902 18903 18906
          18907 18923 18924 18927 18928 18930
          6027 17396 18933 18932 18934 6243
          18936 18951 18952 18955 18956 18958
          18961 18960 18962 6247 18964 19077
          19078 19081 19082 19084 19085 19088
          19089 19105 19106 19109 19110 19112
          19113 19116 19117 19133 19134 19137
          19138 19140 19143 19142 19144 6271
          19146 19161 19162 19165 19166 19168
          19171 19170 19172 6275 19174 17409
          18945 18947 18949 18973 18975 18977
          19155 19157 19159 19183 19185 19187
        </DataArray>
        <DataArray type="Float64" Name="bounds" format="ascii" RangeMin="0" RangeMax="0">
          0 0 0 0 0 0
          0 0 0 0 0 0
          0 0 0 0 0 0
          0 0 0 0 0 0
          0 0 0 0 0 0
          0 0 0 0 0 0
          0 0 0 0 0 0
          0 0 0 0 0 0
          0 0 0 0 0 0
          0 0 0 0 0 0
          0 0 0 0 0 0
          0 0 0 0 0 0
          0 0 0 0 0 0
          0 0 0 0 0 0
          0 0 0 0 0 0
          0 0 0 0 0 0
          0 0 0 0 0 0
          0 0 0 0 0 0
          0 0 0 0 0 0
          0 0 0 0 0 0
          0 0 0 0 0 0
          0 0 0 0 0 0
          0 0 0 0 0 0
          0 0 0 0 0 0
          0 0 0 0 0 0
          0 0 0 0 0 0
          0 0 0 0 0 0
          0 0 0 0 0 0
          0 0 0 0 0 0
          0 0 0 0 0 0
          0 0 0 0 0 0
          0 0 0 0 0 0
          0 0 0 0 0 0
          0 0 0 0 0 0
          0 0 0 0 0 0
          0 0 0 0 0 0
          0 0 0 0 0 0
          0 0 0 0 0 0
          0 0 0 0 0 0
          0 0 0 0 0 0
          0 0 0 0 0 0
          0 0 0 0 0 0
          0 0 0 0 0 0
          0 0 0 0 0 0
          0 0 0 0 0 0
          0 0 0 0 0 0
          0 0 0 0 0 0
          0 0 0 0 0 0
          0 0 0 0 0 0
          0 0 0 0 0 0
          0 0 0 0 0 0
          0 0 0 0 0 0
          0 0 0 0 0 0
          0 0 0 0 0 0
          0 0 0 0 0 0
          0 0 0 0 0 0
          0 0 0 0 0 0
          0 0 0 0 0 0
          0 0 0 0 0 0
          0 0 0 0 0 0
          0 0 0 0 0 0
          0 0 0 0 0 0
          0 0 0 0 0 0
          0 0 0 0 0 0
          0 0 0 0 0 0
          0 0 0 0 0 0
          0 0 0 0 0 0
          0 0 0 0 0 0
          0 0 0 0 0 0
          0 0 0 0 0 0
          0 0 0 0 0 0
          0 0 0 0 0 0
          0 0 0 0 0 0
          0 0 0 0 0 0
          0 0 0 0 0 0
          0 0 0 0 0 0
          0 0 0 0 0 0
          0 0 0 0 0 0
          0 0 0 0 0 0
          0 0 0 0 0 0
          0 0 0 0 0 0
          0 0 0 0 0 0
          0 0 0 0 0 0
          0 0 0 0 0 0
          0 0 0 0 0 0
          0 0 0 0 0 0
          0 0 0 0 0 0
          0 0 0 0 0 0
          0 0 0 0 0 0
          0 0 0 0 0 0
          0 0 0 0 0 0
          0 0 0 0 0 0
          0 0 0 0 0 0
          0 0 0 0 0 0
          0 0 0 0 0 0
          0 0 0 0 0 0
          0 0 0 0 0 0
          0 0 0 0 0 0
          0 0 0 0 0 0
          0 0 0 0 0 0
          0 0 0 0 0 0
          0 0 0 0 0 0
          0 0 0 0 0 0
          0 0 0 0 0 0
          0 0 0 0 0 0
          0 0 0 0 0 0
          0 0 0 0 0 0
          0 0 0 0 0 0
          0 0 0 0 0 0
          0 0 0 0 0 0
          0 0 0 0 0 0
          0 0 0 0 0 0
          0 0 0 0 0 0
          0 0 0 0 0 0
          0 0 0 0 0 0
          0 0 0 0 0 0
          0 0 0 0 0 0
          0 0 0 0 0 0
          0 0 0 0 0 0
          0 0 0 0 0 0
          0 0 0 0 0 0
          0 0 0 0 0 0
          0 0 0 0 0 0
          0 0 0 0 0 0
          0 0 0 0 0 0
          0 0 0 0 0 0
          0 0 0 0 0 0
          0 0 0 0 0 0
          0 0 0 0 0 0
          0 0 0 0 0 0
          0 0 0 0 0 0
          0 0 0 0 0 0
          0 0 0 0 0 0
          0 0 0 0 0 0
          0 0 0 0 0 0
          0 0 0 0 0 0
          0 0 0 0 0 0
          0 0 0 0 0 0
          0 0 0 0 0 0
          0 0 0 0 0 0
          0 0 0 0 0 0
          0 0 0 0 0 0
          0 0 0 0 0 0
          0 0 0 0 0 0
          0 0 0 0 0 0
          0 0 0 0 0 0
          0 0 0 0 0 0
          0 0 0 0 0 0
          0 0 0 0 0 0
          0 0 0 0 0 0
          0 0 0 0 0 0
          0 0 0 0 0 0
          0 0 0 0 0 0
          0 0 0 0 0 0
          0 0 0 0 0 0
          0 0 0 0 0 0
          0 0 0 0 0 0
          0 0 0 0 0 0
          0 0 0 0 0 0
          0 0 0 0 0 0
          0 0 0 0 0 0
          0 0 0 0 0 0
          0 0 0 0 0 0
          0 0 0 0 0 0
          0 0 0 0 0 0
          0 0 0 0 0 0
          0 0 0 0 0 0
          0 0 0 0 0 0
          0 0 0 0 0 0
          0 0 0 0 0 0
          0 0 0 0 0 0
          0 0 0 0 0 0
          0 0 0 0 0 0
          0 0 0 0 0 0
          0 0 0 0 0 0
          0 0 0 0 0 0
          0 0 0 0 0 0
          0 0 0 0 0 0
          0 0 0 0 0 0
          0 0 0 0 0 0
          0 0 0 0 0 0
          0 0 0 0 0 0
          0 0 0 0 0 0
          0 0 0 0 0 0
          0 0 0 0 0 0
          0 0 0 0 0 0
          0 0 0 0 0 0
          0 0 0 0 0 0
          0 0 0 0 0 0
          0 0 0 0 0 0
          0 0 0 0 0 0
          0 0 0 0 0 0
          0 0 0 0 0 0
          0 0 0 0 0 0
          0 0 0 0 0 0
          0 0 0 0 0 0
          0 0 0 0 0 0
          0 0 0 0 0 0
          0 0 0 0 0 0
          0 0 0 0 0 0
          0 0 0 0 0 0
          0 0 0 0 0 0
          0 0 0 0 0 0
          0 0 0 0 0 0
          0 0 0 0 0 0
          0 0 0 0 0 0
          0 0 0 0 0 0
          0 0 0 0 0 0
          0 0 0 0 0 0
          0 0 0 0 0 0
          0 0 0 0 0 0
          0 0 0 0 0 0
          0 0 0 0 0 0
          0 0 0 0 0 0
          0 0 0 0 0 0
          0 0 0 0 0 0
          0 0 0 0 0 0
          0 0 0 0 0 0
          0 0 0 0 0 0
          0 0 0 0 0 0
          0 0 0 0 0 0
          0 0 0 0 0 0
          0 0 0 0 0 0
          0 0 0 0 0 0
          0 0 0 0 0 0
          0 0 0 0 0 0
          0 0 0 0 0 0
          0 0 0 0 0 0
          0 0 0 0 0 0
          0 0 0 0 0 0
          0 0 0 0 0 0
          0 0 0 0 0 0
          0 0 0 0 0 0
          0 0 0 0 0 0
          0 0 0 0 0 0
          0 0 0 0 0 0
          0 0 0 0 0 0
          0 0 0 0 0 0
          0 0 0 0 0 0
          0 0 0 0 0 0
          0 0 0 0 0 0
          0 0 0 0 0 0
          0 0 0 0 0 0
          0 0 0 0 0 0
          0 0 0 0 0 0
          0 0 0 0 0 0
          0 0 0 0 0 0
          0 0 0 0 0 0
          0 0 0 0 0 0
          0 0 0 0 0 0
          0 0 0 0 0 0
          0 0 0 0 0 0
          0 0 0 0 0 0
          0 0 0 0 0 0
          0 0 0 0 0 0
          0 0 0 0 0 0
          0 0 0 0 0 0
          0 0 0 0 0 0
          0 0 0 0 0 0
          0 0 0 0 0 0
          0 0 0 0 0 0
          0 0 0 0 0 0
          0 0 0 0 0 0
          0 0 0 0 0 0
          0 0 0 0 0 0
          0 0 0 0 0 0
          0 0 0 0 0 0
          0 0 0 0 0 0
          0 0 0 0 0 0
          0 0 0 0 0 0
          0 0 0 0 0 0
          0 0 0 0 0 0
          0 0 0 0 0 0
          0 0 0 0 0 0
          0 0 0 0 0 0
          0 0 0 0 0 0
          0 0 0 0 0 0
          0 0 0 0 0 0
          0 0 0 0 0 0
          0 0 0 0 0 0
          0 0 0 0 0 0
          0 0 0 0 0 0
          0 0 0 0 0 0
          0 0 0 0 0 0
          0 0 0 0 0 0
          0 0 0 0 0 0
          0 0 0 0 0 0
          0 0 0 0 0 0
          0 0 0 0 0 0
          0 0 0 0 0 0
          0 0 0 0 0 0
          0 0 0 0 0 0
          0 0 0 0 0 0
          0 0 0 0 0 0
          0 0 0 0 0 0
          0 0 0 0 0 0
          0 0 0 0 0 0
          0 0 0 0 0 0
          0 0 0 0 0 0
          0 0 0 0 0 0
          0 0 0 0 0 0
          0 0 0 0 0 0
          0 0 0 0 0 0
          0 0 0 0 0 0
          0 0 0 0 0 0
          0 0 0 0 0 0
          0 0 0 0 0 0
          0 0 0 0 0 0
          0 0 0 0 0 0
          0 0 0 0 0 0
          0 0 0 0 0 0
          0 0 0 0 0 0
          0 0 0 0 0 0
          0 0 0 0 0 0
          0 0 0 0 0 0
          0 0 0 0 0 0
          0 0 0 0 0 0
          0 0 0 0 0 0
          0 0 0 0 0 0
          0 0 0 0 0 0
          0 0 0 0 0 0
          0 0 0 0 0 0
          0 0 0 0 0 0
        </DataArray>
        <DataArray type="Float64" Name="gradient_error" format="ascii" RangeMin="1.8478696549354984e-12" RangeMax="4.631538848678227e-8">
          1.0430765455617403e-9 7.643783213033119e-10 3.72448320579698e-11 3.560711263693972e-8 2.5975697545288375e-9 5.029271008422505e-11
          1.831204967424263e-11 7.930314963135628e-12 2.2830632958900488e-11 8.892132236205754e-12 6.073396914000043e-9 2.2285801272511334e-9
          8.686930816298838e-9 3.2669676464310192e-9 2.843314173865913e-10 3.33705043329859e-10 3.4666821066346093e-8 2.016830997364579e-8
          2.4035047041611363e-9 2.1592262714498195e-8 1.069938515987016e-8 4.1019143347664955e-9 9.652090662271267e-10 3.587393337990357e-10
          4.2046713163175493e-10 4.663168276879327e-11 1.1445954634082866e-8 4.420732016343166e-9 3.8751102902125733e-10 4.541010350892971e-10
          3.0705563254539056e-11 2.349960155502976e-11 1.665011303192032e-11 1.3381423944507383e-11 3.130331200993938e-11 2.1217496315167918e-11
          1.4814350971529218e-11 7.488459040369206e-12 5.959547963905644e-12 3.938506204574177e-11 2.661619374070879e-11 2.143289198704458e-11
          1.687758127026334e-11 9.174711666054836e-12 8.930669535451663e-12 4.251436582522631e-11 1.9833623646161527e-11 1.725139734041892e-11
          1.0081610362168211e-11 7.2268958058882095e-12 7.692166985245798e-12 1.256274902600569e-11 1.0602928332028942e-11 1.4261420164171942e-11
          1.2251435738262623e-11 7.228990410676404e-12 1.6092771214504725e-11 1.3656038640525643e-11 7.965958378910726e-12 1.6977916173004154e-11
          1.4259559366149112e-11 8.187729154412264e-12 1.3357161030129263e-8 1.1921247700968385e-8 4.950720584737547e-9 5.705929016865515e-9
          1.5805473948827382e-8 1.431458974645681e-8 7.404981609887852e-9 6.068960436470727e-9 6.979175605048912e-9 2.7512015292942464e-9
          1.8184425604892035e-8 1.6585528843348644e-8 7.155735976600018e-9 8.218021377472991e-9 2.4822307752683215e-9 1.9441940340231563e-9
          6.415770539702627e-10 4.986271847497259e-10 8.811843883112535e-10 2.388646939371885e-10 2.9470473926640653e-9 2.3124650150809138e-9
          5.941684339750836e-10 1.0495059617990653e-9 9.011179279343371e-10 2.8087999348868037e-10 2.7390091435823632e-9 1.0723798326478257e-9
          8.456645890502455e-10 3.0363682638652104e-10 8.995010084775563e-11 9.913287923232728e-11 3.148416143024661e-11 3.6108531440986315e-10
          1.0678653412231983e-10 1.1752844675893521e-10 3.722265201459829e-8 7.412561407677412e-9 3.542650567441082e-8 3.866069965245974e-8
          2.1225810164670054e-8 3.9134705283183014e-8 7.833525749474827e-9 2.547862602976602e-9 7.975205305579118e-9 2.0391062841955362e-8
          1.8606356097027997e-8 9.81782477508267e-9 8.121907173064958e-9 9.322002230142872e-9 3.732276499597061e-9 2.2122939298311226e-8
          2.0176649719903228e-8 8.880322673802584e-9 1.0189069886008333e-8 3.3658723601369694e-9 2.645300435166266e-9 8.758659988718224e-10
          6.809863368117817e-10 1.2022615765782083e-9 3.256294765176412e-10 3.6993408983380867e-9 2.910867134601796e-9 7.506037469315463e-10
          1.324521906193508e-9 3.133572327886649e-9 1.2281252721981564e-9 9.69049254254646e-10 3.818266198023563e-10 3.4487890223842425e-9
          1.352877082481373e-9 1.0682768443584076e-9 4.1328887535072647e-10 1.2204818943833827e-10 1.3423139034835127e-10 4.2456957343503896e-11
          4.5513330710352547e-10 1.342748746764452e-10 1.4762082759691092e-10 2.323763324541767e-8 2.1172499052685403e-8 1.1255894783921754e-8
          9.363957027504903e-9 1.0739946759028332e-8 4.3391458583093595e-9 2.3645920994292795e-8 2.1513102879636266e-8 9.530121022081938e-9
          1.0927388609811848e-8 3.9140579970486186e-9 3.082118011910259e-9 1.0230629002608407e-9 7.956740926495609e-10 1.4035103956184669e-9
          3.8013803804134937e-10 3.9881363718365635e-9 3.1412296718112996e-9 8.112564387353118e-10 1.4307927691550339e-9 3.6509179192168153e-9
          1.4333891948492258e-9 1.132411146264998e-9 4.4546689511262187e-10 3.720194808206323e-9 1.4611588135312016e-9 1.1545115981363431e-9
          4.821962116063884e-10 1.421896963043814e-10 1.5629028977915033e-10 4.934722167493555e-11 4.915466706227436e-10 1.449241089635519e-10
          1.5928927891796085e-10 3.051026351335947e-11 1.3765514019477938e-10 1.0906991364161121e-10 2.627085404289713e-11 2.57794038996433e-11
          5.7077614308209736e-11 2.2828292419835484e-11 1.6399101760348684e-10 1.296776850181614e-10 2.548906520164768e-11 6.782775907761e-11
          2.1426887319687144e-11 2.4421111740721866e-11 1.0062298489049073e-11 1.4929496554143182e-11 1.2976979539640632e-11 1.3466080626571683e-11
          1.2567553511972555e-11 2.180438374633826e-11 1.9150982759246522e-11 1.0453067318162744e-11 1.133091937394421e-11 1.0008807658150257e-11
          1.3378748306254575e-11 1.5308638293323156e-11 2.3871007013147186e-11 1.4494001153532607e-11 9.04788408382735e-12 6.373229260310948e-12
          2.8303821997034142e-11 1.7174344498659594e-11 1.0677338396324495e-11 5.725575608523642e-12 5.348900297449997e-12 6.333220938956076e-12
          1.878618787920682e-10 1.485075182240438e-10 3.5798287663103304e-11 2.91302302840455e-11 7.757049411685722e-11 2.4157469608105068e-11
          2.0699453649462935e-10 1.6360187874156292e-10 3.2045046871026915e-11 8.537405295127507e-11 1.2791638988356189e-11 1.1278332561143708e-11
          1.6483851873324984e-11 1.4964253552743287e-11 1.7214075591607188e-11 1.1914885117183575e-11 1.3982212932503598e-11 1.2294247633567123e-11
          1.6259019251785823e-11 1.8781929329500502e-11 3.2290311803773053e-11 1.9448860208542387e-11 1.2142986071859787e-11 8.410669999804104e-12
          3.5489642543614787e-11 2.140691634899585e-11 1.3319795718143904e-11 2.1939611769011677e-10 1.7337679604597166e-10 4.170922666222746e-11
          3.3968654973486844e-11 9.033573868404235e-11 2.3591096721027056e-11 2.2369046640777262e-10 1.767510959344423e-10 3.464307229701663e-11
          9.195230680310321e-11 1.4773060630683328e-11 1.293085987671295e-11 1.897972126483383e-11 1.7027810914921684e-11 1.442246088719788e-11
          1.269584074375252e-11 1.5043341582349068e-11 1.3148900220734274e-11 1.726879064703383e-11 9.01617860637387e-12 3.758463582284959e-11
          1.780295200177312e-11 1.4110962567127898e-11 9.793057120873998e-12 3.8312305847204665e-11 1.3340493997668023e-11 1.4401047743692899e-11
          2.0368050662984093e-11 1.579872654253014e-11 9.48549076522491e-12 8.876051001128928e-12 9.77593572008698e-12 1.0153617001171093e-11
          5.635193228323808e-12 1.0431651199801113e-11 8.336448025622913e-12 1.0260445873827384e-11 6.461787515855048e-12 5.985621402600565e-12
          7.121702108981395e-12 6.030573230297831e-12 7.059680566520225e-12 6.501246101549318e-12 7.760340449955993e-12 7.439872907731323e-12
          6.791938673519279e-12 8.165961939235716e-12 6.898207850417793e-12 7.568400541754468e-12 6.8748795653163755e-12 8.30346581371757e-12
          1.4370465672991931e-11 6.941495826826048e-12 1.663749035606193e-11 8.172707731562923e-12 8.083173572128428e-12 3.6223030870854086e-12
          4.759505639169804e-12 1.8712407995466843e-11 9.046809924319875e-12 9.054967731488786e-12 5.496688017870645e-12 4.037748299343644e-12
          4.357505153398957e-12 5.35201597735648e-12 5.818192406556499e-12 4.550864320179752e-12 4.614551157293206e-12 6.1170646940805026e-12
          6.219974755711697e-12 1.5873194844865087e-8 1.6071669532698955e-8 1.2101503484147805e-8 1.196925796894477e-8 1.500019885080577e-8
          1.0717215087213565e-8 1.7464096324710564e-8 1.770580995646691e-8 1.324485390748327e-8 1.6587901958560718e-8 8.446063672338406e-9
          8.20621855784793e-9 5.41980507540002e-9 5.198197919759604e-9 7.118349905141027e-9 4.405523666151973e-9 9.409894338481462e-9