<?xml version="1.0"?>
<VTKFile type="UnstructuredGrid" version="0.1" byte_order="LittleEndian" header_type="UInt32" compressor="vtkZLibDataCompressor">
  <UnstructuredGrid>
    <Piece NumberOfPoints="1529" NumberOfCells="900">
      <PointData>
        <DataArray type="Int32" Name="libmesh_node_id" format="ascii" RangeMin="974" RangeMax="14200">
          1072 1073 1074 1075 1076 1077
          1078 1079 1112 1113 1114 1115
          1136 1137 1138 1139 1168 1169
          1170 1171 1172 1173 1174 1175
          1176 1177 1178 1179 1208 1209
          1210 1211 1212 1213 1232 1233
          1234 1235 1236 1237 1264 1265
          1266 1267 1268 1269 1270 1271
          1272 1273 1274 1275 1276 1277
          1304 1305 1306 1307 1308 1309
          1310 1328 1329 1330 1331 1332
          1333 1334 1358 1360 1361 1362
          1363 1364 1365 1366 1367 1368
          1369 1370 1371 1372 1373 1400
          1401 1402 1403 1404 1405 1406
          1424 1425 1426 1427 1428 1429
          1430 1452 1454 1455 1456 1457
          1458 1459 1460 1461 1462 1463
          1464 1465 1466 1467 1468 1469
          1496 1497 1498 1499 1500 1501
          1502 1520 1521 1522 1523 1524
          1525 1526 1536 1537 1538 1539
          1540 1541 1542 1543 1544 1545
          1546 1547 1548 1549 1550 1551
          1552 1553 1554 1555 1556 1557
          1558 1559 1560 1561 1562 1563
          1564 1565 1566 1567 1568 1625
          1626 1627 1628 1629 1630 1631
          1632 1633 1634 1635 1636 1637
          1638 1639 1640 1641 1642 1643
          1644 1645 1646 1647 1648 1649
          1650 1651 1652 1653 1654 1657
          1658 1660 1662 1683 1684 1685
          1686 1687 1688 1689 1690 1691
          1692 1693 1694 1695 1696 1697
          1698 1699 1700 1701 1702 1703
          1704 1705 1706 1707 1708 1709
          1710 1711 1712 1713 1714 1715
          1716 1717 1718 1719 1720 1721
          1722 1723 1724 1725 1726 1727
          1728 1729 1730 1731 1732 1733
          1734 1735 1736 1737 1738 1739
          1740 1741 1742 1743 1744 1745
          1746 1747 1748 1749 1750 1751
          1752 1753 1754 1755 1756 1757
          1765 1766 1771 1786 1787 1790
          1791 1793 1795 1916 1917 1918
          1919 1922 1926 1928 1964 1965
          1966 1967 1968 1969 1970 1971
          1972 1973 1984 1985 1986 1987
          1988 1989 1990 1991 1992 1993
          1994 1995 1996 1997 1998 1999
          2000 2001 2002 2003 2004 2005
          2006 2007 2010 2014 2015 2016
          2092 2093 2094 2095 2096 2097
          2098 2099 2100 2101 2102 2103
          2104 2105 2106 2107 2108 2109
          2110 2111 2112 2113 2114 2115
          2116 2117 2118 2119 2120 2121
          2122 2123 2124 2125 2126 2127
          2128 2129 2130 2131 2132 2133
          2134 2135 2136 2137 2138 2139
          2140 2141 2142 2143 2144 2145
          2146 2147 2148 2149 2150 2151
          2152 2153 2154 2155 2156 2157
          2158 2159 2160 2161 2162 2163
          2164 2165 2166 2167 2168 2169
          2170 2171 2172 2173 2174 2175
          2176 2177 2178 2179 2180 2181
          2182 2183 2184 2185 2186 2187
          2188 2189 2190 2191 2192 2193
          2194 2195 2196 2197 2198 2199
          2200 2201 2202 2203 2204 2205
          2206 2207 2208 2209 2210 2211
          2212 2213 2214 2215 2216 2217
          2218 2219 2220 2221 2222 2223
          2224 2225 2226 2227 2228 2229
          2230 2231 2232 2233 2234 2235
          2236 2237 2238 2239 2240 2241
          2242 2243 2244 2245 2246 2247
          2248 2249 2250 2251 2252 2253
          2254 2255 2256 2257 2258 2259
          2260 2261 2262 2263 2264 2265
          2266 2267 2268 2269 2270 2271
          2272 2273 2274 2275 2276 2277
          2278 2279 2280 2281 2282 2283
          2284 2285 2286 2287 2288 2289
          2293 2294 2295 2297 2298 2300
          2319 2324 2335 2336 2337 2338
          2339 2340 2341 2342 2343 2344
          2349 2350 2354 2433 2434 2435
          2436 2437 2438 2439 2440 2441
          2442 2443 2444 2447 2448 2450
          2452 2922 2923 2924 2925 2926
          2927 2928 2929 2930 2931 2932
          2933 2934 2935 2936 2937 2938
          2939 2940 2941 2952 2953 2954
          2955 2956 2957 2958 2959 2960
          2961 2962 2963 2964 2965 2966
          2967 2968 2969 2970 2971 2972
          2973 2974 2975 2976 2977 2978
          2979 2980 2981 2982 2983 2984
          2985 2986 2987 2988 2989 2990
          2991 2992 2993 2994 2995 2998
          2999 3000 3047 3048 3049 3050
          3051 3052 3053 3054 3055 3056
          3057 3058 3059 3060 3095 3096
          3097 3098 3099 3100 3101 3102
          3103 3104 3105 3106 3107 3108
          3109 3110 3111 3112 3113 3114
          3115 3116 3117 3118 3119 3120
          3121 3122 3123 3124 3125 3126
          3127 3128 3129 3130 3131 3132
          3133 3134 3135 3136 3137 3138
          3139 3140 3141 3142 3143 3144
          3145 3146 3147 3148 3149 3150
          3151 3152 3153 3154 3155 3156
          3157 3158 3159 3160 3161 3162
          3163 3164 3165 3166 3167 3168
          3169 3170 3171 3172 3173 3174
          3175 3176 3177 3178 3179 3180
          3181 3182 3183 3184 3185 3186
          3187 3188 3189 3190 3191 3192
          3193 3194 3195 3196 3197 3198
          3199 3200 3201 3202 3203 3204
          3205 3206 3207 3208 3209 3210
          3211 3212 3213 3214 3215 3216
          3221 3222 3310 3311 3312 3313
          3314 3315 3316 3317 3318 3319
          3320 3321 3322 3323 3324 3325
          3326 3327 3328 3329 5128 5129
          5130 5131 5132 5133 5134 5135
          5136 5137 5138 5139 5140 5141
          5142 5143 5144 5155 5156 5157
          5158 5159 5160 5161 5162 5163
          5164 5165 5166 5167 5168 5169
          5170 5171 5172 5173 5174 5185
          5186 5187 5188 5189 5190 5191
          5192 5193 5194 5195 5196 5197
          5198 5199 5200 5201 5202 5203
          5204 5205 5206 5207 5208 5233
          5234 5235 5236 5237 5238 5239
          5240 5241 5242 13545 13546 13547
          13548 13549 13550 13551 13552 13553
          13554 13635 13640 13642 13644 13645
          13646 13647 13648 13649 13650 13653
          13654 13655 13656 13658 13659 13660
          13661 13662 13663 13664 13665 13666
          13667 13668 13669 13670 13671 13672
          13673 13674 13675 13676 13677 13678
          13679 13680 13681 13682 13683 13684
          13685 13686 13687 13688 13689 13690
          13691 13692 13693 13694 13695 13696
          13697 13698 13699 13700 13701 13702
          13703 13704 13705 13706 13707 13708
          13783 13784 13785 13786 13787 13788
          13789 13790 13791 13792 13793 13794
          13795 13796 13797 13798 13799 13800
          13801 13802 13803 13804 13805 13806
          13807 13808 13809 13810 13811 13812
          13813 13814 13815 13816 13817 13818
          13819 13820 13821 13822 13823 13824
          13825 13826 13827 13828 13829 13830
          13831 13832 13833 13834 13835 13836
          13837 13838 13839 13840 13841 13842
          13843 13844 13845 13846 13847 13848
          13849 13850 13851 13852 13853 13854
          13855 13856 13857 13858 13859 13860
          13861 13862 13863 13864 13865 13866
          13867 13868 13869 13870 13871 13872
          13873 13874 13875 13876 13877 13878
          13879 13880 13881 13882 13883 13884
          13885 13886 13887 13888 13889 13890
          13891 13892 13893 13894 13895 13896
          13897 13898 13899 13900 13901 13902
          13903 13904 13905 13906 13907 13908
          13909 13910 13911 13912 13913 13914
          13915 13916 13917 13918 13919 13920
          13921 13922 13923 13924 13925 13926
          13927 13928 13929 13930 13931 13932
          13933 13934 13935 13936 13937 13938
          13939 13940 13941 13942 13943 13944
          13945 13946 13947 13948 13949 13950
          13951 13952 13953 13954 13955 13956
          13957 13958 13959 13960 13961 13962
          13963 13964 13965 13966 13967 13968
          13969 13970 13971 13972 13973 13974
          13975 13976 13977 13978 13979 13980
          13981 13982 13983 13984 13985 13986
          13987 13988 13989 13990 13991 13992
          13993 13994 13995 13996 13997 13998
          13999 14000 14001 14002 14003 14004
          14005 14006 14007 14008 14009 14010
          14011 14012 14013 14014 14015 14016
          14017 14018 14019 14020 14021 14022
          14023 14024 14025 14026 14027 14028
          14029 14030 14031 14032 14033 14034
          14035 14036 14037 14038 14039 14040
          14041 14042 14043 14044 14045 14046
          14047 14048 14049 14050 14051 14052
          14053 14054 14055 14056 14057 14058
          14059 14060 14061 14062 14063 14064
          14065 14066 14067 14068 14069 14070
          14071 14072 14073 14074 14075 14076
          14077 14078 14079 14080 14081 14082
          14083 14084 14085 14086 14087 14088
          14089 14090 14091 14092 14093 14094
          14095 14096 14097 14098 14099 14100
          14101 14102 14103 14104 14105 14106
          14107 14108 14109 14110 14111 14112
          14113 14114 14115 14116 14117 14118
          14119 14120 14121 14122 14123 14124
          14125 14126 14127 14128 14129 14130
          14131 14132 14133 14134 14135 14136
          14137 14138 14139 14140 14141 14142
          14143 14144 14145 14146 14147 14148
          14149 14150 14151 14152 14153 14154
          14155 14156 14157 14158 14159 14160
          14161 14162 14163 14164 14165 14166
          14167 14168 14169 14170 14171 14172
          14173 14174 14175 14176 14177 14178
          14179 14180 14181 14182 14183 14184
          14185 14186 14187 14188 14189 14190
          14191 14192 14193 14194 14195 14196
          14197 14198 14199 14200 974 976
          977 975 1070 1071 978 979
          980 981 982 983 984 985
          1080 1081 1016 1015 1111 1017
          1018 1019 1020 1116 1040 1039
          1135 1041 1042 1043 1044 1140
          1166 1167 1082 1083 1084 1085
          1180 1181 1207 1117 1118 1214
          1231 1141 1142 1238 1262 1263
          1182 1183 1278 1279 1303 1215
          1311 1327 1239 1335 1260 1261
          1356 1359 1357 1399 1375 1407
          1423 1431 1495 1519 1503 1527
          1576 1577 1655 1578 1656 1659
          1661 1572 1788 1767 1789 1792
          1794 1582 1920 1921 1923 1924
          1925 1927 1929 1569 1570 2008
          2009 2011 2012 2013 2017 1758
          1759 1762 2290 2291 2292 2296
          1760 2299 1761 2315 2316 2317
          2318 2320 2321 2322 2323 1769
          2314 2345 2329 2346 2347 2348
          2351 2334 2352 2353 1580 2445
          2446 2449 2451 2996 2997 3001
          2308 3217 2309 3218 3219 3220
          3223 1800 1801 3062 1802 3064
          3069 1805 1471 3072 13630 13634
          13631 13632 13636 13633 13621 13622
          1450 13641 13628 13639 13638 1453
          13643 13651 13652 13657 13775 13773
          13776 13774 13781 13780 13779
        </DataArray>
        <DataArray type="Float64" Name="bounds" format="ascii" RangeMin="0" RangeMax="0">
          0 0 0 0 0 0
          0 0 0 0 0 0
          0 0 0 0 0 0
          0 0 0 0 0 0
          0 0 0 0 0 0
          0 0 0 0 0 0
          0 0 0 0 0 0
          0 0 0 0 0 0
          0 0 0 0 0 0
          0 0 0 0 0 0
          0 0 0 0 0 0
          0 0 0 0 0 0
          0 0 0 0 0 0
          0 0 0 0 0 0
          0 0 0 0 0 0
          0 0 0 0 0 0
          0 0 0 0 0 0
          0 0 0 0 0 0
          0 0 0 0 0 0
          0 0 0 0 0 0
          0 0 0 0 0 0
          0 0 0 0 0 0
          0 0 0 0 0 0
          0 0 0 0 0 0
          0 0 0 0 0 0
          0 0 0 0 0 0
          0 0 0 0 0 0
          0 0 0 0 0 0
          0 0 0 0 0 0
          0 0 0 0 0 0
          0 0 0 0 0 0
          0 0 0 0 0 0
          0 0 0 0 0 0
          0 0 0 0 0 0
          0 0 0 0 0 0
          0 0 0 0 0 0
          0 0 0 0 0 0
          0 0 0 0 0 0
          0 0 0 0 0 0
          0 0 0 0 0 0
          0 0 0 0 0 0
          0 0 0 0 0 0
          0 0 0 0 0 0
          0 0 0 0 0 0
          0 0 0 0 0 0
          0 0 0 0 0 0
          0 0 0 0 0 0
          0 0 0 0 0 0
          0 0 0 0 0 0
          0 0 0 0 0 0
          0 0 0 0 0 0
          0 0 0 0 0 0
          0 0 0 0 0 0
          0 0 0 0 0 0
          0 0 0 0 0 0
          0 0 0 0 0 0
          0 0 0 0 0 0
          0 0 0 0 0 0
          0 0 0 0 0 0
          0 0 0 0 0 0
          0 0 0 0 0 0
          0 0 0 0 0 0
          0 0 0 0 0 0
          0 0 0 0 0 0
          0 0 0 0 0 0
          0 0 0 0 0 0
          0 0 0 0 0 0
          0 0 0 0 0 0
          0 0 0 0 0 0
          0 0 0 0 0 0
          0 0 0 0 0 0
          0 0 0 0 0 0
          0 0 0 0 0 0
          0 0 0 0 0 0
          0 0 0 0 0 0
          0 0 0 0 0 0
          0 0 0 0 0 0
          0 0 0 0 0 0
          0 0 0 0 0 0
          0 0 0 0 0 0
          0 0 0 0 0 0
          0 0 0 0 0 0
          0 0 0 0 0 0
          0 0 0 0 0 0
          0 0 0 0 0 0
          0 0 0 0 0 0
          0 0 0 0 0 0
          0 0 0 0 0 0
          0 0 0 0 0 0
          0 0 0 0 0 0
          0 0 0 0 0 0
          0 0 0 0 0 0
          0 0 0 0 0 0
          0 0 0 0 0 0
          0 0 0 0 0 0
          0 0 0 0 0 0
          0 0 0 0 0 0
          0 0 0 0 0 0
          0 0 0 0 0 0
          0 0 0 0 0 0
          0 0 0 0 0 0
          0 0 0 0 0 0
          0 0 0 0 0 0
          0 0 0 0 0 0
          0 0 0 0 0 0
          0 0 0 0 0 0
          0 0 0 0 0 0
          0 0 0 0 0 0
          0 0 0 0 0 0
          0 0 0 0 0 0
          0 0 0 0 0 0
          0 0 0 0 0 0
          0 0 0 0 0 0
          0 0 0 0 0 0
          0 0 0 0 0 0
          0 0 0 0 0 0
          0 0 0 0 0 0
          0 0 0 0 0 0
          0 0 0 0 0 0
          0 0 0 0 0 0
          0 0 0 0 0 0
          0 0 0 0 0 0
          0 0 0 0 0 0
          0 0 0 0 0 0
          0 0 0 0 0 0
          0 0 0 0 0 0
          0 0 0 0 0 0
          0 0 0 0 0 0
          0 0 0 0 0 0
          0 0 0 0 0 0
          0 0 0 0 0 0
          0 0 0 0 0 0
          0 0 0 0 0 0
          0 0 0 0 0 0
          0 0 0 0 0 0
          0 0 0 0 0 0
          0 0 0 0 0 0
          0 0 0 0 0 0
          0 0 0 0 0 0
          0 0 0 0 0 0
          0 0 0 0 0 0
          0 0 0 0 0 0
          0 0 0 0 0 0
          0 0 0 0 0 0
          0 0 0 0 0 0
          0 0 0 0 0 0
          0 0 0 0 0 0
          0 0 0 0 0 0
          0 0 0 0 0 0
          0 0 0 0 0 0
          0 0 0 0 0 0
          0 0 0 0 0 0
          0 0 0 0 0 0
          0 0 0 0 0 0
          0 0 0 0 0 0
          0 0 0 0 0 0
          0 0 0 0 0 0
          0 0 0 0 0 0
          0 0 0 0 0 0
          0 0 0 0 0 0
          0 0 0 0 0 0
          0 0 0 0 0 0
          0 0 0 0 0 0
          0 0 0 0 0 0
          0 0 0 0 0 0
          0 0 0 0 0 0
          0 0 0 0 0 0
          0 0 0 0 0 0
          0 0 0 0 0 0
          0 0 0 0 0 0
          0 0 0 0 0 0
          0 0 0 0 0 0
          0 0 0 0 0 0
          0 0 0 0 0 0
          0 0 0 0 0 0
          0 0 0 0 0 0
          0 0 0 0 0 0
          0 0 0 0 0 0
          0 0 0 0 0 0
          0 0 0 0 0 0
          0 0 0 0 0 0
          0 0 0 0 0 0
          0 0 0 0 0 0
          0 0 0 0 0 0
          0 0 0 0 0 0
          0 0 0 0 0 0
          0 0 0 0 0 0
          0 0 0 0 0 0
          0 0 0 0 0 0
          0 0 0 0 0 0
          0 0 0 0 0 0
          0 0 0 0 0 0
          0 0 0 0 0 0
          0 0 0 0 0 0
          0 0 0 0 0 0
          0 0 0 0 0 0
          0 0 0 0 0 0
          0 0 0 0 0 0
          0 0 0 0 0 0
          0 0 0 0 0 0
          0 0 0 0 0 0
          0 0 0 0 0 0
          0 0 0 0 0 0
          0 0 0 0 0 0
          0 0 0 0 0 0
          0 0 0 0 0 0
          0 0 0 0 0 0
          0 0 0 0 0 0
          0 0 0 0 0 0
          0 0 0 0 0 0
          0 0 0 0 0 0
          0 0 0 0 0 0
          0 0 0 0 0 0
          0 0 0 0 0 0
          0 0 0 0 0 0
          0 0 0 0 0 0
          0 0 0 0 0 0
          0 0 0 0 0 0
          0 0 0 0 0 0
          0 0 0 0 0 0
          0 0 0 0 0 0
          0 0 0 0 0 0
          0 0 0 0 0 0
          0 0 0 0 0 0
          0 0 0 0 0 0
          0 0 0 0 0 0
          0 0 0 0 0 0
          0 0 0 0 0 0
          0 0 0 0 0 0
          0 0 0 0 0 0
          0 0 0 0 0 0
          0 0 0 0 0 0
          0 0 0 0 0 0
          0 0 0 0 0 0
          0 0 0 0 0 0
          0 0 0 0 0 0
          0 0 0 0 0 0
          0 0 0 0 0 0
          0 0 0 0 0 0
          0 0 0 0 0 0
          0 0 0 0 0 0
          0 0 0 0 0 0
          0 0 0 0 0 0
          0 0 0 0 0 0
          0 0 0 0 0 0
          0 0 0 0 0 0
          0 0 0 0 0 0
          0 0 0 0 0 0
          0 0 0 0 0 0
          0 0 0 0 0 0
          0 0 0 0 0 0
          0 0 0 0 0 0
          0 0 0 0 0 0
          0 0 0 0 0 0
          0 0 0 0 0
        </DataArray>
        <DataArray type="Float64" Name="gradient_error" format="ascii" RangeMin="3.1734331983744503e-12" RangeMax="5.353091841776085e-7">
          3.6830987230173956e-9 2.3069027694227935e-9 1.6164191137875135e-9 1.0471230086521152e-9 7.505227453839708e-10 4.584325060439966e-10
          5.57042755190995e-10 3.077815599878271e-10 5.276408121556584e-10 2.666218674480201e-10 9.041682529196036e-11 3.530711797373134e-11
          1.2457480848312497e-10 5.541683137932347e-11 1.4491383879898256e-11 1.20938711628034e-11 1.6101484635584372e-8 1.026111370433292e-8
          6.727697946707867e-9 4.486606637543071e-9 2.7832595495213602e-9 1.7937676843978008e-9 2.0871308513603724e-9 1.1697247124976756e-9
          1.7647506141785374e-9 9.661268846068213e-10 1.0290977709778601e-9 5.922118487834127e-10 2.4527187808014993e-9 1.2280064500179795e-9
          4.296785132424878e-10 1.4960374694895557e-10 1.1258509701161477e-10 1.0811555564329013e-10 4.846947885215254e-10 2.104975716576811e-10
          5.5081207210734863e-11 4.688892026293196e-11 5.766703898812396e-11 6.090518469761511e-11 5.2670615517738713e-8 3.499281536315379e-8
          8.901448409887914e-9 7.805735548389987e-9 5.631966396857003e-9 2.9148901759887585e-9 3.636278761581813e-9 1.8687713880280053e-9
          5.902298740723759e-9 2.1345617984944526e-9 2.7375629472500376e-9 1.6208417468220603e-9 6.365647400315336e-10 5.158686372124156e-10
          9.917791896063882e-9 4.489450982373773e-9 1.5267888795765435e-9 8.305805242103154e-10 6.33736515294538e-10 4.157598826248232e-10
          2.5390415943329933e-10 1.5983905650706185e-9 6.604669271733448e-10 3.46411058371031e-10 3.6347421722225995e-10 2.0685107586725198e-10
          1.1170352968639005e-10 7.212280167353335e-11 3.532136351585279e-7 3.144925766560414e-7 1.461513055805177e-7 4.1611582335912906e-8
          1.1497539148651984e-7 3.480016767356077e-8 1.014588649851936e-7 4.509150294388477e-8 8.842785674290341e-8 1.658869714381738e-7
          6.932602355292582e-8 1.2259734403070839e-8 4.1214468654967536e-8 3.6666301554993062e-9 2.1677028833276408e-9 1.3477245736707684e-8
          7.230944280401763e-9 3.1324306406182076e-9 1.5501040993926138e-9 9.945224090669285e-10 7.612221097285712e-10 5.204402374248704e-10
          5.847460166209763e-9 4.7624769804380915e-9 3.2553034475969067e-9 1.7033575099725974e-9 8.150526377162225e-10 7.523523243916379e-10
          5.209352398035528e-10 4.155089289194255e-8 4.8543932940645685e-8 1.8067017867501088e-7 5.89317639877272e-8 1.7923235679240477e-7
          7.5430582871052e-8 1.732898293494289e-7 9.860303157329004e-8 1.6140885369087105e-7 1.3042202635905448e-7 1.4202926091058397e-7
          9.4500350159776e-8 1.1423842948938182e-7 1.899871330628574e-8 7.980292832705148e-8 3.8941793711978456e-8 3.913168575884557e-8
          1.7926650956981516e-8 1.105514791393318e-8 4.991440180140953e-9 4.565803457576677e-9 5.1836601240045526e-9 4.1517758432520246e-9
          1.7033162814495654e-9 9.26849246146206e-9 8.536890276249522e-9 5.904958465936096e-9 2.7543775444741177e-9 1.3075786022842914e-9
          1.3785191191071757e-9 9.591928546416822e-10 2.4400914691173773e-8 6.512850624175375e-8 1.446470197595653e-7 2.846759104211025e-7
          7.289986821796774e-8 1.3581489189699416e-7 2.2390323640016854e-7 4.7612368448068956e-8 7.162258304040396e-8 9.503406107679763e-8
          7.319571627078192e-8 8.881648305247141e-8 1.112859192997385e-7 6.632815191604336e-8 1.504166645311365e-8 1.321558270769219e-7
          2.2820067238382882e-7 4.066740911839846e-8 9.729300704389524e-8 7.371657259488768e-9 2.4146682311999476e-8 6.485616578844921e-8
          7.277548197874304e-8 3.0468766661288667e-9 5.323771020260058e-8 5.152359388760145e-8 2.5413341387863027e-8 3.7383140116476496e-8
          1.2686899972547867e-8 2.5638475716038224e-8 4.720281888204329e-8 5.481120908385355e-8 6.065559064032777e-8 1.6955399699596058e-7
          1.540475705553883e-7 9.595680923728262e-8 1.492393769331311e-7 2.690752248490788e-7 2.2560636953319766e-7 1.708252119035257e-7
          1.0647843697744996e-7 1.3063172870902504e-7 1.4674675743576807e-7 1.5024741691600987e-7 2.0309607802988954e-7 1.8156580899349232e-7
          1.291792253938966e-7 2.3027357963803496e-9 4.274104018201236e-9 1.2427632263065936e-8 2.026445589403686e-8 1.5521656038039723e-9
          5.122736122223563e-9 2.9720086775426726e-10 2.5038460392639883e-9 3.636570404225181e-9 1.3711636083224848e-9 2.255252872975152e-8
          3.625480776987248e-8 8.9155380016492e-9 4.71049121077371e-9 8.573846371294426e-10 6.736784636678786e-10 1.773501692901578e-10
          4.662111708938003e-10 5.041858423879914e-10 7.550721724974428e-10 1.2660206908739474e-7 1.4085858704271223e-7 1.932065527225417e-7
          1.8243547951600064e-7 9.171239229093534e-8 1.4220243783247183e-7 2.115802802860454e-7 8.92422912983657e-8 3.605963959627229e-8
          6.263315798515573e-8 1.5301898046261653e-7 1.873480480310348e-7 2.0863943966621992e-7 1.3714608644276357e-7 1.3614606296150682e-8
          8.581608702326e-8 1.726489527351984e-7 3.0554281335018515e-8 1.817242084742648e-7 7.330768191886481e-8 6.227927687154459e-8
          3.961084983286111e-8 4.0305636217348965e-8 6.049983206339842e-8 4.379952521908256e-8 4.39497688836736e-8 8.336295826074726e-8
          8.771323389941385e-8 6.366272008059376e-8 1.6776471019640923e-8 3.351584525940458e-8 3.736066298052152e-8 8.690192144226184e-8
          6.883276547353925e-8 5.7747006238568057e-8 4.8781715167159826e-8 4.8120629115831863e-8 5.417818788426584e-8 5.475410746508448e-8
          5.29470058281761e-8 7.80025638308129e-8 6.437004100793269e-8 6.487974162774813e-8 2.184949132938454e-8 4.205824707951833e-8
          4.790813826903613e-8 4.380643212705122e-8 5.960055325972651e-8 4.970976902237581e-8 6.19506226200317e-8 5.851900230080922e-8
          4.407628238611246e-8 7.057797037685485e-8 6.486214363896202e-8 5.6958113520762373e-8 6.482481825591228e-8 6.394687522144567e-8
          3.092184322355811e-8 5.528916817155825e-8 6.477556946073886e-8 5.087683037550274e-8 4.8561872626985865e-8 6.514603453952997e-8
          6.621556923842054e-8 7.182595444633388e-8 4.303870167510501e-8 5.9549225303129807e-8 2.14038622519304e-8 5.3467480335905294e-8
          6.136537091830362e-8 3.0826504213937834e-8 5.0062343184963384e-8 5.45305692588005e-8 4.48163912019024e-8 7.211218248210503e-8
          4.434453965032496e-8 6.202539767260822e-8 5.895248573234377e-8 3.6769646329488806e-8 5.18571496901835e-8 8.659097645417858e-9
          1.9204612137124322e-8 3.8832824066825855e-8 2.7087851363410072e-8 1.3700343213429413e-10 9.683109246295908e-11 9.38850659186208e-10
          2.7479867286070877e-9 2.6879721278488597e-9 5.6658752791624065e-11 2.6279575270906313e-9 7.4338827114987945e-9 1.1575530556270248e-8
          2.9259188843689504e-8 3.863136183758002e-8 4.317457865842307e-10 4.471025692726682e-9 4.773314898993846e-9 5.108449497588021e-8
          6.568719311888979e-8 8.510305598869133e-9 1.0445528030405545e-7 1.0719256387916043e-7 1.0864604036186583e-7 1.3529786817712936e-7
          1.0017195703486695e-7 7.998957229492519e-8 5.9603779067852634e-8 7.862978297322839e-8 8.258696726925701e-8 7.416402146671276e-8
          1.1381992670935397e-7 1.634031724750983e-7 6.088091459617785e-8 9.765578687860417e-8 9.555282198085388e-8 7.63246070360903e-8
          4.832422008418594e-8 6.83969889507656e-8 5.821556993447853e-8 8.846975781734527e-8 3.1426283727420954e-9 2.63343194248513e-9
          2.508655535253716e-9 3.457666869829057e-8 2.9076481994896745e-8 1.143706495891058e-9 1.1926443530426205e-8 1.5896548133099073e-8
          3.4495483079727496e-8 3.456972781658737e-8 3.248785311319252e-8 2.2126072308800746e-8 2.2949424639637376e-8 2.639433970415976e-8
          2.5367681506274246e-8 3.6419026303230256e-8 2.3914241285874714e-8 2.749087922554037e-8 3.4980267187579094e-8 3.253721865404671e-8
          3.0602937091281964e-8 3.386378375047279e-8 1.41462208117179e-8 1.982890251793457e-8 1.950713664142872e-8 2.0504949752965866e-8
          3.0164546423565496e-8 3.7766877466111035e-8 3.824474444089396e-8 2.517577470441766e-8 2.8837775416320116e-8 4.0089077788398935e-8
          2.66081248964953e-8 3.0352599687120216e-8 3.852833734976965e-8 3.5336310844287905e-8 3.6961107492260166e-8 1.5858236034943654e-8
          2.1547398257811735e-8 2.2774427500825796e-8 3.189785421945087e-8 4.1616595580631994e-8 4.205071479371514e-8 2.8192596743605476e-8
          3.208198066171833e-8 4.417004599987252e-8 2.995763705465691e-8 3.4010216514923135e-8 4.208047574507826e-8 3.88730403092455e-8
          4.097669722887372e-8 1.7822819676446536e-8 2.4124726775361047e-8 2.5637134288247856e-8 3.5342381952240824e-8 3.651614854900769e-8
          3.5909341455394956e-8 3.863475393236152e-8 3.6986675993433346e-8 3.797869098608098e-8 4.0164418206345335e-8 3.4698233814152963e-8
          3.909666230436983e-8 3.731330165112715e-8 3.760123970697363e-8 3.83859562267925e-8 3.678648427788265e-8 3.990192217867577e-8
          4.021276449536308e-8 3.934700796140354e-8 4.165206018354697e-8 4.081788071699745e-8 4.3427650149958784e-8 3.482917960581791e-8
          3.729389511578843e-8 3.890550211224157e-8 4.132445045047123e-8 4.3074069361537046e-8 3.9027900369232916e-8 4.6180218485207965e-8
          4.6472370019626143e-8 3.1929703000017e-8 3.6157701191487864e-8 4.8979372474540975e-8 3.41448873045734e-8 3.855456373363151e-8
          4.5957289752045186e-8 4.328647004092596e-8 4.58450511769152e-8 2.0329251319703997e-8 2.733822171718133e-8 2.9254713483573304e-8
          3.958201920370215e-8 5.162999078474535e-8 5.1714314036909557e-8 3.664858514082041e-8 4.124420158495799e-8 5.469845084924501e-8
          3.949866586073063e-8 4.427946505650618e-8 5.0445684735239056e-8 4.8675721823676377e-8 5.181273520395351e-8 2.3600408334600375e-8
          3.143086938757444e-8 3.3923287268656915e-8 4.4819913593467344e-8 4.23290409917474e-8 4.549118052162081e-8 4.3854388385211164e-8
          4.770232704196946e-8 3.726871561241409e-8 4.0301287544994505e-8 4.16761132692469e-8 4.521303801019506e-8 4.7566098498416575e-8
          4.2217020224290427e-8 4.5449306137566056e-8 5.009187637301763e-8 4.712019320588238e-8 5.268205356903999e-8 3.9201509441503776e-8
          4.309925212320652e-8 4.4581097616180816e-8 5.0127102060576245e-8 5.2913365536745276e-8 4.546784673749023e-8 5.818447295424558e-8
          5.7953457512263086e-8 4.276736839394588e-8 4.772776734905008e-8 6.150464895665878e-8 4.654885772786791e-8 5.167186919067953e-8
          5.563601023792524e-8 5.529533290860667e-8 5.917353485000932e-8 2.8041088236929728e-8 3.6807394170552837e-8 4.018821476074579e-8
          5.1376062392537775e-8 6.607716668709969e-8 6.537242449813987e-8 5.0970709730554565e-8 5.621568804586705e-8 6.956323473060136e-8
          5.6203767406727076e-8 6.149067390176239e-8 6.159606935183609e-8 6.350322732284547e-8 6.83374484396872e-8 3.446097963712466e-8
          4.421673286091538e-8 4.910847164426199e-8 5.972609188546903e-8 4.887219577598701e-8 5.548897976448523e-8 5.069014548353413e-8
          5.8507900237038185e-8 4.114652007135945e-8 4.6126436818617936e-8 4.770670778273395e-8 5.594234922298528e-8 5.923946917735764e-8
          4.9005583543224905e-8 5.25513900728811e-8 6.173525177620154e-8 5.44443445869766e-8 6.518530216702436e-8 4.300701542716338e-8
          4.9291074767763605e-8 5.087794913298522e-8 6.283009320984215e-8 6.67288280432823e-8 5.2815479244886745e-8 3.017726151941626e-8
          3.0055727800107153e-8 3.294753399962225e-8 3.2610765873320444e-8 3.021611912221173e-8 3.3210803643429605e-8 2.5304589117562448e-8
          2.671765437792004e-8 2.6858237496733963e-8 2.647180314894021e-8 3.5717806479828243e-8 3.5165803946533734e-8 3.6205488164647484e-8
          2.8130719638277623e-8 3.017205747673949e-8 3.338745330069354e-8 3.001775383974277e-8 3.3454822080607825e-8 2.4479716174529025e-8
          2.6117472333751518e-8 2.56270337467172e-8 3.660284912464759e-8 3.6891890321472874e-8 2.775522849297401e-8 3.9772689891212325e-8
          3.7623696849671987e-8 3.8096117528830806e-8 5.3914466578312207e-8 5.525055653546953e-8 5.280155841570348e-8 5.167485541538536e-8
          3.180939073046683e-8 4.574572361000321e-8 4.516660808848682e-8 7.545866920243069e-8 7.407204007023551e-8 6.830185309695237e-8
          7.373715429694259e-8 7.055265888952007e-8 5.6351690479656025e-8 6.886553080011608e-8 5.8244931072924836e-8 7.277691677367369e-8
          4.460937874363952e-8 5.2463642423775716e-8 5.4031195285486964e-8 7.093803160825419e-8 7.546396650284892e-8 5.685671960175824e-8
          4.571544594090038e-8 5.5534277193042903e-8 6.105213201866732e-8 2.9723270421472376e-8 3.338679960052562e-8 2.9261185447951736e-8
          3.31508307120096e-8 2.3188576018921506e-8 2.497532083292085e-8 2.414098615464432e-8 3.705032877957886e-8 3.704047597606746e-8
          2.6762065646920192e-8 2.8605473925410083e-8 3.271637755174985e-8 2.1210978599680523e-8 2.3108354840373288e-8 3.682728117808961e-8
          2.5005731081066052e-8 6.0430603321739006e-9 4.8664856601299165e-9 6.292764101151809e-9 2.9436339318686884e-8 1.8641205474817633e-8