<?xml version="1.0"?>
<VTKFile type="UnstructuredGrid" version="0.1" byte_order="LittleEndian" header_type="UInt32" compressor="vtkZLibDataCompressor">
  <UnstructuredGrid>
    <Piece NumberOfPoints="1457" NumberOfCells="865">
      <PointData>
        <DataArray type="Int32" Name="libmesh_node_id" format="ascii" RangeMin="1182" RangeMax="6278">
          1182 1183 1184 1185 1186 1187
          1215 1216 1217 1239 1240 1241
          1278 1279 1280 1281 1282 1283
          1311 1312 1313 1335 1336 1337
          1374 1375 1376 1377 1379 1407
          1408 1409 1431 1432 1433 1470
          1471 1503 1504 1505 1527 1528
          1529 1569 1570 1571 1572 1573
          1574 1575 1576 1577 1578 1579
          1580 1581 1582 1583 1584 1587
          1590 1591 1598 1604 1605 1655
          1656 1659 1661 1663 1664 1665
          1666 1667 1668 1669 1670 1671
          1672 1673 1674 1675 1676 1677
          1678 1679 1680 1682 1758 1759
          1760 1761 1762 1763 1764 1767
          1768 1769 1770 1772 1773 1774
          1775 1776 1777 1778 1779 1780
          1781 1782 1783 1784 1785 1788
          1789 1792 1794 1796 1797 1798
          1799 1800 1801 1802 1803 1804
          1805 1838 1884 1888 1920 1921
          1923 1924 1925 1927 1929 1930
          1931 1932 1933 1934 1935 1936
          1937 1938 1939 1940 1941 1942
          1943 1944 1945 1946 1947 1948
          1949 2008 2009 2011 2012 2013
          2017 2018 2019 2020 2021 2022
          2023 2024 2025 2026 2027 2028
          2029 2032 2035 2038 2039 2042
          2045 2055 2057 2290 2291 2292
          2296 2299 2301 2302 2303 2304
          2305 2306 2307 2308 2309 2310
          2311 2312 2313 2314 2315 2316
          2317 2318 2320 2321 2322 2323
          2325 2326 2327 2328 2329 2330
          2331 2332 2333 2334 2345 2346
          2347 2348 2351 2352 2353 2355
          2356 2357 2358 2359 2360 2361
          2362 2363 2364 2365 2366 2367
          2368 2369 2370 2371 2372 2373
          2374 2375 2376 2377 2378 2379
          2380 2381 2382 2383 2384 2385
          2386 2387 2388 2389 2390 2391
          2392 2393 2394 2395 2396 2397
          2398 2399 2400 2401 2402 2403
          2404 2405 2406 2407 2408 2409
          2410 2411 2412 2413 2414 2415
          2416 2417 2418 2419 2420 2421
          2422 2423 2424 2425 2426 2427
          2428 2429 2430 2431 2432 2445
          2446 2449 2451 2453 2454 2455
          2456 2457 2458 2459 2460 2461
          2462 2463 2464 2465 2466 2467
          2468 2469 2470 2471 2472 2473
          2474 2475 2476 2480 2481 2483
          2484 2486 2501 2502 2505 2506
          2508 2510 2521 2522 2525 2527
          2528 2530 2541 2543 2545 2547
          2637 2638 2641 2642 2644 2646
          2996 2997 3001 3002 3003 3004
          3005 3006 3007 3008 3009 3010
          3011 3012 3013 3014 3015 3016
          3017 3018 3020 3021 3022 3023
          3025 3026 3027 3028 3029 3061
          3062 3063 3064 3065 3066 3067
          3068 3069 3070 3071 3072 3073
          3074 3075 3076 3077 3079 3080
          3081 3082 3084 3085 3087 3088
          3089 3090 3091 3093 3094 3217
          3218 3219 3220 3223 3224 3225
          3226 3227 3354 3355 3356 3357
          3358 3359 3360 3361 3362 3363
          3364 3365 3366 3367 3368 3369
          3370 3371 3372 3373 3374 3375
          3376 3377 3378 3379 3380 3381
          3382 3383 3384 3385 3386 3387
          3388 3389 3390 3391 3392 3393
          3394 3395 3396 3397 3398 3399
          3400 3401 3402 3403 3404 3405
          3406 3407 3408 3409 3410 3411
          3412 3413 3414 3415 3416 3417
          3418 3419 3420 3421 3422 3423
          3424 3425 3426 3427 3428 3429
          3430 3431 3432 3433 3434 3435
          3436 3437 3438 3439 3440 3441
          3442 3443 3444 3445 3446 3447
          3448 3449 3450 3451 3452 3453
          3454 3455 3456 3457 3458 3459
          3460 3461 3462 3463 3464 3465
          3466 3467 3468 3469 3470 3471
          3472 3473 3474 3475 3476 3477
          3478 3479 3480 3481 3482 3483
          3484 3485 3486 3487 3488 3489
          3490 3491 3492 3493 3494 3495
          3496 3497 3498 3499 3500 3501
          3502 3503 3504 3505 3506 3507
          3508 3509 3510 3511 3512 3513
          3514 3515 3516 3517 3518 3519
          3520 3521 3522 3523 3524 3525
          3526 3527 3528 3529 3530 3531
          3532 3533 3534 3535 3536 3537
          3538 3539 3540 3541 3542 3543
          3544 3545 3546 3547 3548 3549
          3550 3551 3552 3553 3554 3555
          3556 3557 3558 3563 3564 3565
          3583 3584 3585 3586 3587 3588
          3589 3590 3591 3592 3603 3604
          3605 3606 3607 3608 3609 3617
          3618 3619 3620 3621 3622 3623
          3624 3625 3626 3637 3638 3639
          3640 3641 3642 3643 3719 3720
          3721 3724 3725 3726 3727 3728
          3729 3730 3731 3734 3738 5520
          5521 5522 5523 5524 5525 5526
          5527 5528 5529 5530 5531 5532
          5533 5534 5535 5536 5537 5538
          5539 5540 5541 5542 5543 5544
          5545 5546 5547 5548 5549 5550
          5551 5552 5553 5554 5555 5556
          5557 5558 5559 5560 5561 5562
          5563 5564 5565 5566 5567 5568
          5569 5570 5571 5572 5573 5574
          5575 5576 5577 5578 5579 5580
          5581 5582 5583 5584 5585 5586
          5587 5588 5589 5590 5591 5592
          5593 5594 5595 5596 5597 5598
          5599 5600 5601 5602 5603 5604
          5605 5606 5607 5608 5609 5610
          5611 5612 5613 5614 5615 5616
          5617 5618 5619 5620 5621 5622
          5623 5624 5625 5626 5627 5628
          5629 5630 5631 5632 5633 5634
          5635 5636 5637 5638 5639 5640
          5641 5642 5643 5644 5645 5646
          5647 5648 5649 5650 5651 5652
          5653 5654 5655 5656 5657 5658
          5659 5660 5661 5662 5663 5664
          5665 5666 5667 5668 5669 5670
          5671 5672 5673 5674 5675 5676
          5677 5678 5679 5680 5681 5682
          5683 5684 5685 5686 5687 5688
          5689 5690 5691 5692 5693 5694
          5695 5696 5697 5698 5699 5700
          5701 5702 5703 5704 5705 5706
          5707 5708 5709 5710 5711 5712
          5713 5714 5715 5716 5717 5718
          5719 5720 5721 5722 5723 5724
          5725 5726 5727 5728 5729 5730
          5731 5732 5733 5734 5735 5736
          5737 5738 5739 5740 5741 5742
          5743 5744 5745 5746 5747 5748
          5749 5750 5751 5752 5753 5754
          5755 5756 5757 5758 5759 5760
          5761 5762 5763 5764 5765 5766
          5767 5768 5769 5770 5771 5772
          5773 5774 5775 5776 5777 5778
          5779 5780 5781 5782 5783 5784
          5785 5786 5787 5788 5789 5790
          5791 5792 5793 5794 5795 5796
          5797 5798 5799 5800 5801 5802
          5803 5804 5805 5806 5807 5808
          5809 5810 5811 5812 5813 5814
          5815 5816 5817 5818 5819 5820
          5821 5822 5823 5824 5825 5826
          5827 5828 5829 5830 5831 5832
          5833 5834 5835 5836 5837 5838
          5839 5840 5841 5842 5843 5844
          5845 5846 5847 5848 5849 5850
          5851 5852 5853 5854 5855 5856
          5857 5858 5859 5860 5861 5862
          5863 5864 5865 5866 5867 5868
          5869 5870 5871 5872 5873 5874
          5875 5876 5877 5878 5879 5880
          5881 5882 5883 5884 5885 5886
          5887 5888 5889 5890 5891 5892
          5893 5894 5895 5896 5897 5898
          5899 5900 5901 5902 5903 5904
          5905 5906 5907 5908 5909 5910
          5911 5912 5913 5914 5915 5916
          5917 5918 5919 5920 5921 5922
          5923 5924 5925 5926 5927 5928
          5929 5930 5931 5932 5933 5934
          5935 5936 5937 5938 5939 5940
          5941 5942 5943 5944 5945 5946
          5947 5948 5949 5950 5951 5952
          5953 5954 5955 5956 5957 5958
          5959 5960 5961 5962 5963 5964
          5965 5966 5967 5968 5969 5970
          5971 5972 5973 5974 5975 5976
          5977 5978 5979 5980 5981 5982
          5983 5984 5985 5986 5987 5988
          5989 5990 5991 5992 5993 5994
          5995 5996 5998 6004 6005 6008
          6010 6011 6013 6024 6026 6032
          6033 6034 6035 6036 6037 6038
          6040 6048 6049 6050 6051 6052
          6053 6054 6055 6056 6057 6058
          6059 6060 6061 6062 6063 6064
          6065 6066 6067 6068 6069 6070
          6071 6072 6073 6074 6075 6076
          6077 6078 6079 6080 6081 6082
          6083 6084 6085 6086 6087 6088
          6089 6090 6091 6092 6093 6094
          6095 6096 6097 6098 6099 6100
          6101 6102 6103 6104 6105 6106
          6107 6108 6109 6110 6111 6112
          6113 6114 6115 6116 6117 6120
          6122 6123 6125 6136 6138 6140
          6142 6150 6151 6154 6156 6157
          6159 6170 6172 6174 6176 6184
          6185 6186 6187 6188 6189 6190
          6191 6192 6193 6194 6195 6196
          6197 6198 6199 6200 6201 6202
          6203 6204 6205 6206 6207 6208
          6209 6210 6211 6212 6213 6214
          6215 6216 6217 6218 6219 6220
          6221 6222 6223 6224 6225 6226
          6227 6228 6229 6230 6231 6232
          6234 6236 6238 6248 6250 6258
          6260 6262 6264 6272 6274 6276
          6278 1592 1813 1834 1814 1835
          1839 1836 1837 1840 1841 1843
          1844 1848 1845 1849 2030 2031
          2033 2034 2036 2037 1806 1807
          2040 2041 2043 2044 2046 2047
          2477 2478 2479 2482 1808 2485
          1809 2503 2504 2507 2509 2526
          2542 2544 2546 1819 2639 2640
          2643 2645 1586 3019 1827 1589
          1846 2056 3024 1882 1886 1596
          1850 3078 1853 1473 3083 1887
          3086 3092 3559 3560 3593 3594
          3562 3597 3600 3602 3566 3610
          3568 3612 3614 3616 3644 3646
          3722 3732 3723 3733 3735 3650
          3736 3737 5997 6006 6007 6009
          3599 6012 6118 6119 6121 3627
          6124 3628 6025 6137 6139 6141
          3631 6152 6153 6155 3633 6158
          3634 6171 6173 6175 3636 6039
          6233 6235 6237 6259 6261 6263
          3648 6249 6273 6275 6277
        </DataArray>
        <DataArray type="Float64" Name="bounds" format="ascii" RangeMin="0" RangeMax="0">
          0 0 0 0 0 0
          0 0 0 0 0 0
          0 0 0 0 0 0
          0 0 0 0 0 0
          0 0 0 0 0 0
          0 0 0 0 0 0
          0 0 0 0 0 0
          0 0 0 0 0 0
          0 0 0 0 0 0
          0 0 0 0 0 0
          0 0 0 0 0 0
          0 0 0 0 0 0
          0 0 0 0 0 0
          0 0 0 0 0 0
          0 0 0 0 0 0
          0 0 0 0 0 0
          0 0 0 0 0 0
          0 0 0 0 0 0
          0 0 0 0 0 0
          0 0 0 0 0 0
          0 0 0 0 0 0
          0 0 0 0 0 0
          0 0 0 0 0 0
          0 0 0 0 0 0
          0 0 0 0 0 0
          0 0 0 0 0 0
          0 0 0 0 0 0
          0 0 0 0 0 0
          0 0 0 0 0 0
          0 0 0 0 0 0
          0 0 0 0 0 0
          0 0 0 0 0 0
          0 0 0 0 0 0
          0 0 0 0 0 0
          0 0 0 0 0 0
          0 0 0 0 0 0
          0 0 0 0 0 0
          0 0 0 0 0 0
          0 0 0 0 0 0
          0 0 0 0 0 0
          0 0 0 0 0 0
          0 0 0 0 0 0
          0 0 0 0 0 0
          0 0 0 0 0 0
          0 0 0 0 0 0
          0 0 0 0 0 0
          0 0 0 0 0 0
          0 0 0 0 0 0
          0 0 0 0 0 0
          0 0 0 0 0 0
          0 0 0 0 0 0
          0 0 0 0 0 0
          0 0 0 0 0 0
          0 0 0 0 0 0
          0 0 0 0 0 0
          0 0 0 0 0 0
          0 0 0 0 0 0
          0 0 0 0 0 0
          0 0 0 0 0 0
          0 0 0 0 0 0
          0 0 0 0 0 0
          0 0 0 0 0 0
          0 0 0 0 0 0
          0 0 0 0 0 0
          0 0 0 0 0 0
          0 0 0 0 0 0
          0 0 0 0 0 0
          0 0 0 0 0 0
          0 0 0 0 0 0
          0 0 0 0 0 0
          0 0 0 0 0 0
          0 0 0 0 0 0
          0 0 0 0 0 0
          0 0 0 0 0 0
          0 0 0 0 0 0
          0 0 0 0 0 0
          0 0 0 0 0 0
          0 0 0 0 0 0
          0 0 0 0 0 0
          0 0 0 0 0 0
          0 0 0 0 0 0
          0 0 0 0 0 0
          0 0 0 0 0 0
          0 0 0 0 0 0
          0 0 0 0 0 0
          0 0 0 0 0 0
          0 0 0 0 0 0
          0 0 0 0 0 0
          0 0 0 0 0 0
          0 0 0 0 0 0
          0 0 0 0 0 0
          0 0 0 0 0 0
          0 0 0 0 0 0
          0 0 0 0 0 0
          0 0 0 0 0 0
          0 0 0 0 0 0
          0 0 0 0 0 0
          0 0 0 0 0 0
          0 0 0 0 0 0
          0 0 0 0 0 0
          0 0 0 0 0 0
          0 0 0 0 0 0
          0 0 0 0 0 0
          0 0 0 0 0 0
          0 0 0 0 0 0
          0 0 0 0 0 0
          0 0 0 0 0 0
          0 0 0 0 0 0
          0 0 0 0 0 0
          0 0 0 0 0 0
          0 0 0 0 0 0
          0 0 0 0 0 0
          0 0 0 0 0 0
          0 0 0 0 0 0
          0 0 0 0 0 0
          0 0 0 0 0 0
          0 0 0 0 0 0
          0 0 0 0 0 0
          0 0 0 0 0 0
          0 0 0 0 0 0
          0 0 0 0 0 0
          0 0 0 0 0 0
          0 0 0 0 0 0
          0 0 0 0 0 0
          0 0 0 0 0 0
          0 0 0 0 0 0
          0 0 0 0 0 0
          0 0 0 0 0 0
          0 0 0 0 0 0
          0 0 0 0 0 0
          0 0 0 0 0 0
          0 0 0 0 0 0
          0 0 0 0 0 0
          0 0 0 0 0 0
          0 0 0 0 0 0
          0 0 0 0 0 0
          0 0 0 0 0 0
          0 0 0 0 0 0
          0 0 0 0 0 0
          0 0 0 0 0 0
          0 0 0 0 0 0
          0 0 0 0 0 0
          0 0 0 0 0 0
          0 0 0 0 0 0
          0 0 0 0 0 0
          0 0 0 0 0 0
          0 0 0 0 0 0
          0 0 0 0 0 0
          0 0 0 0 0 0
          0 0 0 0 0 0
          0 0 0 0 0 0
          0 0 0 0 0 0
          0 0 0 0 0 0
          0 0 0 0 0 0
          0 0 0 0 0 0
          0 0 0 0 0 0
          0 0 0 0 0 0
          0 0 0 0 0 0
          0 0 0 0 0 0
          0 0 0 0 0 0
          0 0 0 0 0 0
          0 0 0 0 0 0
          0 0 0 0 0 0
          0 0 0 0 0 0
          0 0 0 0 0 0
          0 0 0 0 0 0
          0 0 0 0 0 0
          0 0 0 0 0 0
          0 0 0 0 0 0
          0 0 0 0 0 0
          0 0 0 0 0 0
          0 0 0 0 0 0
          0 0 0 0 0 0
          0 0 0 0 0 0
          0 0 0 0 0 0
          0 0 0 0 0 0
          0 0 0 0 0 0
          0 0 0 0 0 0
          0 0 0 0 0 0
          0 0 0 0 0 0
          0 0 0 0 0 0
          0 0 0 0 0 0
          0 0 0 0 0 0
          0 0 0 0 0 0
          0 0 0 0 0 0
          0 0 0 0 0 0
          0 0 0 0 0 0
          0 0 0 0 0 0
          0 0 0 0 0 0
          0 0 0 0 0 0
          0 0 0 0 0 0
          0 0 0 0 0 0
          0 0 0 0 0 0
          0 0 0 0 0 0
          0 0 0 0 0 0
          0 0 0 0 0 0
          0 0 0 0 0 0
          0 0 0 0 0 0
          0 0 0 0 0 0
          0 0 0 0 0 0
          0 0 0 0 0 0
          0 0 0 0 0 0
          0 0 0 0 0 0
          0 0 0 0 0 0
          0 0 0 0 0 0
          0 0 0 0 0 0
          0 0 0 0 0 0
          0 0 0 0 0 0
          0 0 0 0 0 0
          0 0 0 0 0 0
          0 0 0 0 0 0
          0 0 0 0 0 0
          0 0 0 0 0 0
          0 0 0 0 0 0
          0 0 0 0 0 0
          0 0 0 0 0 0
          0 0 0 0 0 0
          0 0 0 0 0 0
          0 0 0 0 0 0
          0 0 0 0 0 0
          0 0 0 0 0 0
          0 0 0 0 0 0
          0 0 0 0 0 0
          0 0 0 0 0 0
          0 0 0 0 0 0
          0 0 0 0 0 0
          0 0 0 0 0 0
          0 0 0 0 0 0
          0 0 0 0 0 0
          0 0 0 0 0 0
          0 0 0 0 0 0
          0 0 0 0 0 0
          0 0 0 0 0 0
          0 0 0 0 0 0
          0 0 0 0 0 0
          0 0 0 0 0 0
          0 0 0 0 0 0
          0 0 0 0 0 0
          0 0 0 0 0 0
          0 0 0 0 0 0
          0 0 0 0 0 0
          0 0 0 0 0 0
          0 0 0 0 0
        </DataArray>
        <DataArray type="Float64" Name="gradient_error" format="ascii" RangeMin="2.3321004153251093e-13" RangeMax="1.0614075413157916e-7">
          5.952199361098396e-11 3.742118232209988e-11 1.323092471312001e-11 1.07635453288156e-11 2.4310621685976237e-12 2.445179520977211e-12
          1.0692794474165999e-11 4.4224527166352136e-12 1.3462534574446546e-12 6.065217915116198e-12 5.487394887592325e-13 2.3321004153251093e-13
          1.0402859636684455e-10 1.0593715881725154e-10 1.415203636462406e-11 1.835222810343276e-11 2.4561601356291513e-12 4.9804414253806385e-12
          8.406739137864512e-11 1.3167043297481654e-11 4.577441683940949e-12 1.697018903426726e-11 3.649850502334243e-12 1.5941495651910516e-12
          9.35139868001893e-10 2.365986137965523e-10 4.212854915319916e-11 2.3997361790978843e-11 4.0935962041421656e-12 1.568899012359086e-10
          1.8821173052428324e-11 4.842538034990214e-12 1.5227269161007177e-10 1.8959440315970177e-11 3.7729350886400725e-12 3.654017881701366e-10
          1.0299170169226007e-8 1.737764124221209e-10 1.8436512246993704e-11 2.637289473670043e-12 2.80484247793995e-10 3.145116053757601e-11
          4.7351109964837414e-12 1.8462768359850203e-9 8.123649179556459e-10 3.7470872198067e-8 3.6365967622207436e-8 5.029442420404803e-10
          1.952368251406457e-8 2.048367079149671e-8 7.029488433011619e-10 4.9900742813801165e-9 1.9405652785913756e-9 2.353020693902163e-10
          6.307926842143629e-8 6.926418762724171e-8 2.103429754538534e-8 2.3006781705024498e-10 2.3151953073538568e-10 5.1948936343026176e-11
          7.372860075799903e-11 5.379712442123251e-10 6.2111888021412895e-12 5.784560995152467e-12 8.84943315333523e-12 2.454924659205193e-10
          1.5081776713349618e-10 5.666598412925127e-11 5.7413650201887716e-11 5.222369579687555e-11 3.2752505960075826e-11 9.257433878037913e-12
          6.493381540360551e-12 8.97814875184962e-12 1.1131378650766873e-11 5.575217683323477e-12 1.8889067837176366e-11 4.3278457547424195e-12
          1.3284608549684128e-11 4.5778975118394756e-12 2.798784841473258e-12 1.8858954910550063e-12 1.1840479656325908e-12 2.970479590057467e-12
          2.172037974940346e-12 6.622559108802309e-13 1.0021290652497145e-12 1.3735963598232246e-12 4.584557808355445e-8 3.7354352230690996e-8
          8.061121919668618e-8 7.190191558869495e-8 2.991427076566899e-8 6.806500847569688e-8 7.929393890536748e-8 5.882083143626558e-8
          2.6764015385338428e-8 7.691686402332012e-8 5.3461220285902533e-8 2.848746754247003e-8 2.2209378030642908e-8 5.076434447100467e-8
          8.706133315455017e-8 1.4870427528126846e-8 5.356208031588427e-8 6.361160656472044e-8 2.8186563971134798e-8 5.4053992562745555e-8
          4.748423727872726e-8 1.2794724759380533e-10 6.388127107480049e-8 4.1691650402276515e-8 6.670099052576805e-8 3.0150252500719235e-8
          4.3259519708339224e-8 1.4541244420364389e-8 3.2206471701713975e-8 2.3511522203436173e-8 3.409746652122839e-8 1.7310419021276176e-8
          2.4950502316931045e-8 4.0360828635777095e-9 1.0270399012068597e-8 6.708889721134358e-9 2.5212500563396406e-8 1.828199141546185e-8
          1.5283896845675646e-8 1.3496942150286117e-9 9.918883258925243e-12 7.895586640707046e-12 4.630227830211257e-10 3.228652248588911e-10
          6.756104599639325e-11 3.1846784252977937e-10 1.790196305337886e-10 1.827076666966565e-10 3.957141853779782e-11 4.5235142443750214e-11
          2.875201358515985e-11 1.2935666530079517e-10 7.768404414867402e-11 7.587051207402848e-12 2.557630226405007e-11 2.1515908875949983e-11
          1.2268884726569491e-11 2.601142299655284e-11 1.7455515487849896e-11 2.260117180167637e-12 2.563862210010424e-12 6.025565438462407e-12
          5.985612840068504e-12 8.73034753411416e-13 1.4848520919630745e-12 1.388944695286205e-12 2.867607239853211e-12 5.9456602416746e-12
          1.2930372986093357e-12 2.7877766352709573e-8 2.3253251575019282e-8 2.4431631904021893e-9 2.0727718727466516e-8 1.7195553896432667e-8
          8.323102823800773e-9 2.1986569864439286e-9 1.8817447143230653e-9 1.3782272276247813e-8 1.1436366606559147e-8 1.205856021049087e-9
          7.907961914520049e-9 6.660250539283177e-9 9.20593663698274e-10 5.2897251945174475e-9 3.1841238338642295e-9 6.461400078754685e-10
          6.523571206175344e-10 3.120981216822106e-10 5.150220314128814e-10 8.958801628087149e-11 1.3943759525064893e-10 5.414999222073637e-11
          1.8266663080242486e-10 1.4752160895598592e-11 8.263669294093514e-12 3.683634650535433e-8 5.644175901415311e-8 5.3763056113646246e-8
          4.6131412943749356e-8 7.884017232835408e-8 3.797538527504911e-8 3.5661935038881043e-8 5.7484847564049585e-8 5.4550350025179386e-8
          3.4029637785296925e-8 5.829522312727016e-8 5.509530897502543e-8 2.954097834840558e-8 4.628903110826648e-8 4.616502721235906e-8
          8.588482473797387e-8 8.371842061508234e-8 7.701445854889241e-8 7.558109978670634e-8 6.230864426139549e-8 6.759044886723478e-8
          5.748675571482684e-8 6.853937857012623e-8 7.964675128351995e-8 4.4428373297656366e-8 5.501623757573353e-8 5.000596444538891e-8
          5.230804334998057e-8 6.029461196074258e-8 3.3415389712201574e-8 4.468723625950847e-8 7.678771764111263e-8 7.384680180673867e-8
          5.135630487427357e-10 2.5995838221180044e-8 5.820970822279758e-9 6.554605696354061e-8 6.009168368350133e-8 7.701422063177462e-8
          6.18433825083159e-8 8.165480882259502e-8 5.690153674803062e-8 8.049729422365334e-8 8.621791556661863e-8 3.428261345495136e-8
          3.191697684823812e-8 5.873068299593008e-8 5.5251742830208545e-8 2.9293619770864722e-8 5.8660489148711627e-8 5.4899796602555624e-8
          2.58443164821369e-8 4.5658666111190126e-8 4.468197854529016e-8 4.882609374754571e-8 6.978494168798655e-8 7.333254370282422e-8
          8.313672062333048e-8 2.835802691307165e-8 2.6154559475775587e-8 5.7946606532720616e-8 5.392184109787327e-8 2.256043945357567e-8
          5.641501655237387e-8 5.216320586642863e-8 2.0664860137863865e-8 4.312556475012701e-8 4.090967830006667e-8 5.240196942348826e-8
          6.229870571051449e-8 4.9777007119710976e-8 7.618744054880024e-8 1.4553245447360656e-8 1.671722687273718e-8 2.9071089420396297e-8
          3.0963503468818326e-8 1.2284653260630859e-8 2.6756995524584198e-8 1.1727862657473115e-8 2.1788125003564513e-8 2.370215390345596e-8
          1.9606029629518436e-8 6.55342515380971e-8 6.469383012175583e-8 6.559436478937717e-8 4.453859225219839e-8 7.733174882874183e-9
          3.537316154059549e-8 8.572917064597485e-9 3.706356298054913e-8 7.965401418706698e-8 8.608321971388299e-8 1.4967043132263684e-10
          3.6449838247525455e-9 8.907479616179161e-10 5.836478169838091e-8 9.421243261510001e-9 2.4307688961577552e-8 1.0434061228339433e-8
          1.0662613955816955e-8 7.850491419712481e-8 5.4840096364472425e-8 2.0086329852303902e-10 6.520868896739367e-10 6.733577867570733e-10
          6.969683004275455e-8 6.341470759523624e-8 8.658906187537661e-8 9.16701794925125e-8 4.589311058725369e-8 5.807424208255593e-8
          5.897483058710225e-8 9.250058253261128e-8 9.91624788064128e-8 6.498480906004309e-8 9.681016190717072e-8 8.624007361091837e-8
          5.95172452252172e-8 5.958711431667911e-8 1.0614075413157916e-7 8.292830129735419e-8 6.815079574696476e-8 2.7731679389971994e-8
          3.2052976807299725e-8 2.1860323035342998e-8 3.637427422462745e-8 2.661754011585639e-8 3.112703461802354e-8 2.5239531077604364e-8
          2.9902961255223683e-8 1.846263746761985e-8 2.0390783809191337e-8 1.86999123528211e-8 3.563652912019068e-8 3.4566391432843003e-8
          2.2318930150762826e-8 2.3580527678518663e-8 2.8345545903128424e-8 2.1637129522726645e-8 2.64177925571858e-8 1.4994435614926482e-8
          1.6806009561622256e-8 1.4754175935440528e-8 3.3110564127738184e-8 3.119845559164495e-8 1.861758350831803e-8 2.038443180725294e-8
          1.862979920266775e-8 5.386297577464216e-8 4.946227920560316e-8 1.4399792432486367e-8 3.7984999367102136e-8 5.3980915103248474e-8
          4.974973240463464e-8 6.343859432165891e-8 9.973751151049245e-9 2.4054824730067358e-8 8.023084035208323e-9 1.720123336249461e-8
          6.47041907753579e-8 4.089203190416366e-8 6.8191435989948564e-9 1.2014819179110107e-8 4.351015851809618e-8 5.36308938077802e-10
          9.790770231248946e-10 1.1418469523877898e-8 7.405770220865205e-8 5.894870829196072e-8 5.7416769999538966e-8 6.974906007256639e-8
          1.9437944663065055e-8 2.4119523640277923e-8 1.1077461335997941e-8 1.260583431882845e-8 2.880110261749079e-8 1.4134207301658958e-8
          2.1575847945185531e-10 2.1386998596508473e-9 1.2945831370989657e-9 2.4260045074778917e-10 1.1953177886100217e-9 2.6667694291049446e-10
          7.904398638788089e-10 2.088460163012323e-10 9.016461250556345e-10 6.251712240754643e-10 2.4952905175335073e-10 6.86492154356692e-10
          1.9063488713047722e-10 5.422636320863592e-10 1.2758827404053854e-10 4.2285226887398315e-10 2.6863722497460763e-10 1.1322497750159053e-10
          3.28884538179873e-10 4.676985185478977e-11 5.040386761875773e-11 1.515846885302876e-10 6.900596713094596e-11 1.179456229844808e-11
          2.583133661759386e-12 5.341940909259612e-12 8.06937175231131e-12 2.106881468150142e-11 3.8436199867306535e-12 1.358343346528872e-10
          2.180368482059777e-10 1.689177673329739e-10 2.3999697550983056e-10 8.397285527339123e-11 1.0580725545992461e-10 2.3243346965777737e-11
          3.063826753493115e-11 4.648814149811394e-11 1.8885775410768347e-11 2.0200120001306063e-10 2.619571028136834e-10 1.2764165564645805e-10
          3.803318810408456e-11 4.4892715307894405e-11 5.2571124438019704e-11 1.7701912297384422e-11 6.395527701603606e-12 8.711147437891465e-12
          2.6353110010142133e-12 6.0249533568145e-11 1.1026767174179322e-11 5.009047408575346e-12 1.8635391377211535e-12 2.6150882794545967e-12
          5.168024713474879e-13 8.244511284405639e-13 6.482048765335306e-13 3.36663742118804e-12 1.1320997855336397e-12 2.203633178195302e-8
          3.43442760545299e-8 2.0495842380105436e-8 3.354545265908291e-8 2.6656245716228408e-8 1.871643589839761e-8 3.243415493536408e-8
          1.5295579074046318e-8 2.532378031283491e-8 1.3193494254603254e-8 7.617773111957847e-9 6.924215058872438e-9 7.139397429455635e-9
          7.354579800038832e-9 6.661021746953423e-9 8.528663729421245e-9 8.461375549239937e-9 9.789771080017914e-9 8.39408736905863e-9
          1.327875462233309e-8 1.3139091166029656e-8 1.299942770972622e-8 1.0625498334487172e-8 1.0588371053429461e-8 1.1743769400290001e-8
          1.0780677084943265e-8 1.0432867584429396e-8 1.0989290222316347e-8 1.1873895206755472e-8 1.0968470047117912e-8 6.003887295841311e-9
          7.0536983954363086e-9 5.385040174965257e-9 7.284973075476947e-9 8.118462772627436e-9 9.600618546989065e-9 3.445800485936231e-9
          5.646646906330991e-9 4.735356079729675e-9 7.842838176196241e-9 5.766011124962495e-9 6.771617739835912e-9 5.920797758493839e-9
          6.034078049905746e-9 9.19626354565258e-9 8.678328643747007e-9 3.283100951388231e-10 2.8224364624654577e-9 6.367044755888929e-10
          7.611447463093618e-9 1.0467007124614605e-8 1.0542325503801293e-8 1.0501146664799813e-8 1.0823420564180112e-8 1.1481132501813679e-8
          1.1024723184002486e-8 1.1777179926835757e-8 1.0657550906043877e-8 1.1088369796871886e-8 1.1080976320887059e-8 1.3769753440808687e-8
          1.3593773594498428e-8 1.4319754031587463e-8 1.3417793748188171e-8 1.513699943670863e-8 1.4974140570384615e-8 1.5646089104167978e-8
          1.4811281704060601e-8 1.652607972675638e-8 1.634134788224357e-8 1.705775001513845e-8 1.6156616037730752e-8 1.804973793200254e-8
          1.7798856271075762e-8 1.8581272431469762e-8 1.7100726671816804e-8 1.5596381523240444e-8 1.591805888297308e-8 1.6518529045708286e-8
          1.5182639032461537e-8 1.3560550490967286e-8 1.3474618067844315e-8 1.41948265589254e-8 1.414945529845314e-8 1.3388685644721345e-8
          1.410408403798088e-8 9.825158908199626e-9 1.1123050136619121e-8 9.020789704479586e-9 1.2463526908110851e-8 1.4911339884774842e-8
          1.4841387724030864e-8 1.5650302003561203e-8 1.556196724730382e-8 1.4771435563286886e-8 1.5473632491046432e-8 8.154672377674841e-9
          8.173229488829694e-9 8.592967139590422e-9 9.992832703006894e-9 1.2482589935764797e-8 1.3055011992556967e-8 1.2430935878692213e-8
          1.3682656747390918e-8 1.4373838859493705e-8 1.3726159907079336e-8 3.467014674098142e-9 4.903924537797352e-9 8.816234186425982e-10
          2.3796133844918976e-9 9.048421267174674e-9 6.7864836521963215e-9 1.7605525701718768e-10 4.864935576491106e-10 3.6875706042713783e-10
          6.0354924079147335e-9 7.589176596841919e-10 9.77573616935175e-10 6.546338634179927e-10 8.70814468469841e-10 4.451537557730082e-9
          4.5699935746553425e-9 1.3502510822712993e-10 2.9158596613400893e-10 2.4970317613530705e-10 1.043108146549634e-9 1.201892636849182e-8
          1.1280189960955464e-8 1.230054570948471e-8 1.2886709531342333e-8 1.1555262801218838e-8 9.513773526121426e-9 1.217015554027721e-8
          1.0604719849466899e-8 1.1163476814029055e-8 1.3614756500972347e-8 1.4397963448741238e-8 7.515270713077486e-9 7.931451878787704e-9
          1.3503353094865363e-8 1.6412467388108744e-8 1.631068910496192e-8 1.722126924771689e-8 1.710872562020216e-8 1.62089108218151e-8
          1.6974949251231493e-8 8.985998996956253e-9 9.01820834707178e-9 9.476492937742144e-9 1.0980616163725582e-8 1.8105762260643546e-8
          1.798478737586567e-8 1.9074767554889218e-8 1.893993027470794e-8 1.758981385965865e-8 1.847226796976637e-8 9.899425507701438e-9
          9.990301232449474e-9 1.0550243402138828e-8 1.007621697535287e-8 1.623040783312052e-8 1.5528331897921428e-8 1.5091384468490786e-8
          1.3885754310156448e-8 1.5293037901845576e-8 1.663046346200413e-8 1.742927277693996e-8 1.5945111695778764e-8 1.6719102608873827e-8
          1.3522733284100569e-8 1.4321794612768553e-8 1.698656551871693e-8 5.835096012075175e-10 7.747416579210359e-10 5.542476101373127e-10
          7.07811976819561e-10 4.681622075645037e-9 3.0264660776769945e-9 1.3760468544147736e-10 2.373369674644661e-10 2.745811379358586e-10
          7.566908305111686e-10 6.022562148161415e-10 7.053816816275938e-10 7.210520952158001e-10 7.855099745224271e-10 1.2340368039973663e-9
          1.192682660160214e-9 2.8790392855319275e-10 3.7808822668830524e-10 4.845833667649747e-10 6.114233662606167e-10 1.1716200468778397e-8