<?xml version="1.0"?>
<VTKFile type="UnstructuredGrid" version="0.1" byte_order="LittleEndian" header_type="UInt32" compressor="vtkZLibDataCompressor">
  <UnstructuredGrid>
    <Piece NumberOfPoints="833" NumberOfCells="548">
      <PointData>
        <DataArray type="Int32" Name="libmesh_node_id" format="ascii" RangeMin="988" RangeMax="7800">
          988 1205 1731 1753 1755 1756
          1759 1761 1810 1811 1812 1813
          1820 1821 1976 1977 1978 1979
          2662 2760 2764 2765 2767 2768
          2769 2770 2771 2791 2792 2797
          2799 2800 2801 2802 2803 2804
          2805 2806 2807 2808 3000 3001
          3002 3003 3004 3005 3006 3007
          3008 3009 3010 3011 3012 3013
          3028 3029 3035 3048 3049 3050
          3051 3052 3053 3054 3055 3056
          3057 3068 3072 3403 3404 3405
          3406 3407 3408 3409 3410 3411
          3412 3413 3414 3415 3416 3417
          3418 3419 3420 3421 3422 3423
          3424 3425 3426 3427 3428 3429
          5913 5914 5915 5916 5917 5918
          5919 5920 5921 5922 5930 5931
          5934 5935 5947 5948 5949 5950
          5951 5952 5953 5954 5955 5956
          5957 5958 5959 5960 5971 5972
          5973 5974 5975 5976 5977 5978
          5979 5980 5981 5982 5983 5984
          5985 5986 5987 5988 5989 5990
          5991 5992 5993 5994 5995 5996
          5997 5998 5999 6000 6001 6002
          6004 6005 6006 6008 6009 6010
          6011 6012 6013 6014 6087 6088
          6089 6090 6095 6125 6155 6156
          6157 6158 6159 6160 6161 6162
          6163 6164 6172 6173 6176 6177
          6189 6190 6191 6192 6193 6194
          6195 6196 6197 6198 6206 6207
          6210 6211 6213 6214 6215 6216
          6217 6218 6219 6220 6221 6222
          6223 6224 6225 6226 6227 6228
          6229 6230 6231 6232 6233 6234
          6236 6237 6238 6240 6241 6242
          6243 6244 6245 6246 6247 6248
          6249 6250 6251 6252 6253 6254
          6255 6256 6257 6258 6259 6260
          6261 6262 6263 6264 6265 6266
          6267 6268 6270 6271 6272 6274
          6275 6276 6277 6278 6279 6280
          7320 7321 7322 7323 7324 7325
          7326 7327 7328 7329 7330 7331
          7332 7333 7334 7335 7336 7337
          7338 7339 7340 7341 7342 7343
          7344 7345 7346 7347 7348 7349
          7350 7351 7352 7353 7354 7355
          7356 7357 7358 7359 7360 7361
          7362 7363 7364 7365 7366 7367
          7368 7369 7370 7371 7372 7373
          7374 7375 7376 7377 7378 7379
          7380 7381 7382 7383 7384 7385
          7386 7387 7388 7389 7390 7391
          7392 7393 7394 7395 7396 7397
          7398 7399 7400 7401 7402 7403
          7404 7405 7406 7407 7408 7409
          7410 7411 7412 7413 7415 7416
          7417 7418 7419 7420 7421 7422
          7423 7425 7426 7427 7430 7432
          7433 7435 7450 7452 7454 7456
          7467 7468 7469 7470 7471 7472
          7473 7474 7475 7476 7477 7478
          7479 7480 7481 7482 7483 7484
          7485 7486 7489 7490 7493 7495
          7497 7498 7499 7500 7501 7502
          7503 7504 7507 7508 7509 7510
          7511 7512 7513 7514 7516 7518
          7520 7522 7526 7528 7532 7535
          7575 7576 7577 7578 7579 7580
          7581 7582 7583 7584 7585 7586
          7587 7588 7589 7590 7591 7592
          7593 7594 7595 7596 7597 7598
          7599 7600 7601 7602 7603 7604
          7605 7606 7607 7608 7609 7610
          7611 7612 7613 7614 7615 7616
          7617 7618 7619 7620 7621 7622
          7623 7624 7625 7626 7627 7628
          7629 7630 7631 7632 7633 7634
          7635 7636 7637 7638 7639 7640
          7641 7642 7643 7644 7647 7649
          7650 7652 7663 7665 7667 7669
          7677 7678 7681 7683 7684 7686
          7697 7699 7701 7703 7711 7712
          7713 7714 7715 7716 7717 7718
          7720 7722 7724 7726 7730 7732
          7736 7739 7740 7741 7742 7743
          7744 7745 7746 7748 7750 7752
          7754 7758 7760 7764 1393 1890
          1891 1394 1078 1234 1235 1204
          1723 1724 1725 1980 1981 1982
          1983 1984 1728 1985 1814 1237
          1817 2652 2655 2656 2653 2660
          2661 2659 2658 2663 3021 3038
          3030 3022 3039 3031 3286 3284
          2781 2779 2654 3014 3015 1236
          3018 3285 3289 3032 1206 2752
          5885 5886 5877 5905 5906 2754
          5887 5888 2753 5908 2755 2758
          5911 2759 5900 5894 5924 5901
          5902 2756 5932 5926 2757 5933
          5928 5936 2761 1754 5341 5939
          5940 5942 2762 5945 2763 5963
          5964 5967 5969 2766 5943 5944
          5946 5968 5970 6003 6007 6079
          6080 6091 6092 6083 6093 6094
          6085 6096 2780 2782 6084 6118
          6117 6122 6121 6124 6127 6126
          6128 6129 2787 6130 6147 6148
          6150 2789 6153 2790 6166 6174
          6168 6175 6170 6178 2793 2794
          6181 6182 6184 2795 6187 2796
          6200 6208 6202 6209 6204 6212
          2798 1760 6235 6239 6269 6273
          6338 6337 6342 6341 6344 6345
          6348 6349 6366 6365 6370 6369
          6372 6373 6376 6377 3016 7414
          3017 7424 7428 7429 7431 3024
          7434 3025 7451 7453 7455 3027
          7487 6109 7488 6110 7491 7492
          7494 6115 3033 7496 7505 7506
          3034 7515 7517 7519 3036 7521
          6139 7524 7523 7525 6143 3037
          7527 7529 7530 7531 7533 7534
          1818 7536 7537 7538 7539 7540
          7541 7542 7543 7645 7646 7648
          3058 7651 3059 7664 7666 7668
          3062 7679 7680 7682 3064 7685
          3065 7698 7700 7702 3067 6347
          2817 7719 7721 7723 3069 7725
          6359 7728 7727 7729 6363 3070
          7731 7733 7734 7735 7737 7738
          3071 6375 2821 7747 7749 7751
          3073 7753 6387 7756 7755 7757
          6391 3074 7759 7761 7762 7763
          7765 7766 1823 7767 7768 7771
          7772 7795 7796 7799 7800
        </DataArray>
        <DataArray type="Float64" Name="bounds" format="ascii" RangeMin="0" RangeMax="0">
          0 0 0 0 0 0
          0 0 0 0 0 0
          0 0 0 0 0 0
          0 0 0 0 0 0
          0 0 0 0 0 0
          0 0 0 0 0 0
          0 0 0 0 0 0
          0 0 0 0 0 0
          0 0 0 0 0 0
          0 0 0 0 0 0
          0 0 0 0 0 0
          0 0 0 0 0 0
          0 0 0 0 0 0
          0 0 0 0 0 0
          0 0 0 0 0 0
          0 0 0 0 0 0
          0 0 0 0 0 0
          0 0 0 0 0 0
          0 0 0 0 0 0
          0 0 0 0 0 0
          0 0 0 0 0 0
          0 0 0 0 0 0
          0 0 0 0 0 0
          0 0 0 0 0 0
          0 0 0 0 0 0
          0 0 0 0 0 0
          0 0 0 0 0 0
          0 0 0 0 0 0
          0 0 0 0 0 0
          0 0 0 0 0 0
          0 0 0 0 0 0
          0 0 0 0 0 0
          0 0 0 0 0 0
          0 0 0 0 0 0
          0 0 0 0 0 0
          0 0 0 0 0 0
          0 0 0 0 0 0
          0 0 0 0 0 0
          0 0 0 0 0 0
          0 0 0 0 0 0
          0 0 0 0 0 0
          0 0 0 0 0 0
          0 0 0 0 0 0
          0 0 0 0 0 0
          0 0 0 0 0 0
          0 0 0 0 0 0
          0 0 0 0 0 0
          0 0 0 0 0 0
          0 0 0 0 0 0
          0 0 0 0 0 0
          0 0 0 0 0 0
          0 0 0 0 0 0
          0 0 0 0 0 0
          0 0 0 0 0 0
          0 0 0 0 0 0
          0 0 0 0 0 0
          0 0 0 0 0 0
          0 0 0 0 0 0
          0 0 0 0 0 0
          0 0 0 0 0 0
          0 0 0 0 0 0
          0 0 0 0 0 0
          0 0 0 0 0 0
          0 0 0 0 0 0
          0 0 0 0 0 0
          0 0 0 0 0 0
          0 0 0 0 0 0
          0 0 0 0 0 0
          0 0 0 0 0 0
          0 0 0 0 0 0
          0 0 0 0 0 0
          0 0 0 0 0 0
          0 0 0 0 0 0
          0 0 0 0 0 0
          0 0 0 0 0 0
          0 0 0 0 0 0
          0 0 0 0 0 0
          0 0 0 0 0 0
          0 0 0 0 0 0
          0 0 0 0 0 0
          0 0 0 0 0 0
          0 0 0 0 0 0
          0 0 0 0 0 0
          0 0 0 0 0 0
          0 0 0 0 0 0
          0 0 0 0 0 0
          0 0 0 0 0 0
          0 0 0 0 0 0
          0 0 0 0 0 0
          0 0 0 0 0 0
          0 0 0 0 0 0
          0 0 0 0 0 0
          0 0 0 0 0 0
          0 0 0 0 0 0
          0 0 0 0 0 0
          0 0 0 0 0 0
          0 0 0 0 0 0
          0 0 0 0 0 0
          0 0 0 0 0 0
          0 0 0 0 0 0
          0 0 0 0 0 0
          0 0 0 0 0 0
          0 0 0 0 0 0
          0 0 0 0 0 0
          0 0 0 0 0 0
          0 0 0 0 0 0
          0 0 0 0 0 0
          0 0 0 0 0 0
          0 0 0 0 0 0
          0 0 0 0 0 0
          0 0 0 0 0 0
          0 0 0 0 0 0
          0 0 0 0 0 0
          0 0 0 0 0 0
          0 0 0 0 0 0
          0 0 0 0 0 0
          0 0 0 0 0 0
          0 0 0 0 0 0
          0 0 0 0 0 0
          0 0 0 0 0 0
          0 0 0 0 0 0
          0 0 0 0 0 0
          0 0 0 0 0 0
          0 0 0 0 0 0
          0 0 0 0 0 0
          0 0 0 0 0 0
          0 0 0 0 0 0
          0 0 0 0 0 0
          0 0 0 0 0 0
          0 0 0 0 0 0
          0 0 0 0 0 0
          0 0 0 0 0 0
          0 0 0 0 0 0
          0 0 0 0 0 0
          0 0 0 0 0 0
          0 0 0 0 0 0
          0 0 0 0 0 0
          0 0 0 0 0 0
          0 0 0 0 0
        </DataArray>
        <DataArray type="Float64" Name="gradient_error" format="ascii" RangeMin="3.997079097751342e-13" RangeMax="1.1055836879457459e-9">
          1.6598629085248327e-10 1.0220994387351772e-11 8.609917975379209e-12 2.3120155442539561e-10 5.330002698628428e-11 3.768587226198764e-11
          6.152073251720643e-10 1.2646905264793882e-10 2.0581694118934407e-12 2.6069184435353273e-12 9.562806430116706e-12 6.7592549839796295e-12
          3.243656303259921e-11 2.3704242231202758e-11 6.385295769574632e-12 5.912843513634753e-12 3.8439681782576396e-12 4.106076534105138e-12
          9.81605900449445e-12 2.1221736209619907e-10 1.383513616150233e-11 1.2891314241815928e-11 1.0454417981408529e-11 1.1463546918450839e-10
          1.0510089313793925e-10 4.883810750731714e-11 8.122251328757485e-11 5.906054540157201e-10 5.431057474528726e-10 5.935415514029645e-10
          3.03769552045567e-10 2.781775851931289e-10 1.4467207597063466e-10 1.321047449232767e-10 2.1248820578517398e-10 1.0020886011960209e-10
          3.33683273202297e-10 3.1772765920267535e-10 1.5645269649301967e-10 2.621548660433094e-10 4.7759033455941224e-12 4.542365716576519e-12
          6.039331830386549e-12 5.629701186532728e-12 1.9278115168295765e-12 2.4985964107595747e-12 2.325177357009664e-12 3.9153195062757874e-12
          4.5722395506888545e-12 2.279089430842897e-12 2.328130074395568e-11 2.132884492094937e-11 8.761346202995244e-12 1.6454078028802252e-11
          2.9897027945967412e-12 3.2380559803464214e-12 1.0794346040929804e-11 6.408172286098434e-11 5.840372399890588e-11 2.648202934008609e-11
          2.410653168211302e-11 4.4105302674348835e-11 1.8156654283293804e-11 7.620113386535407e-11 7.126665248848984e-11 3.015401988355789e-11
          5.670732949966073e-11 2.7580997866431574e-11 3.689415967722614e-11 2.4966584246062066e-12 2.4399214802141572e-12 5.013194335914207e-12
          4.80742346529575e-12 1.2686892356539545e-12 2.2844200960619277e-12 2.1601468693020145e-12 2.255798418467105e-12 4.2338529370802126e-12
          2.1642910739447143e-12 5.864986235476681e-13 5.92971173998755e-13 9.3548623484763e-13 8.957548910414262e-13 4.175340118923459e-13
          5.064052872288256e-13 5.451942685244106e-13 5.994437244498419e-13 8.560235472352226e-13 5.839832498199957e-13 2.013910749900842e-12
          3.3925538529263153e-12 1.4701262486983721e-12 2.2219815326171063e-12 1.8994091986895826e-12 2.9190544263694976e-12 2.0228371284842716e-12
          1.680265021706697e-10 1.6480503306422043e-10 1.2042355721556605e-10 1.181002611923152e-10 1.5552892819750186e-10 1.1141293105884832e-10
          3.2021672322976643e-10 3.134898474109232e-10 2.2629422315383366e-10 2.94179342296712e-10 1.4128359141154982e-10 1.0115004118638968e-10
          2.6471167484352827e-10 1.907663354216155e-10 6.999977825739392e-12 6.873367878842716e-12 1.04056301525971e-11 1.0228011648249572e-11
          4.5529588695305414e-12 6.956922123242336e-12 6.846270807120833e-12 6.5271436442316016e-12 9.723743552119383e-12 6.527002746509095e-12
          2.052476623721671e-11 2.016395585598815e-11 1.3592361125914578e-11 1.912171244853858e-11 6.0100255557974495e-12 8.952988955593176e-12
          4.050965548505162e-12 6.030892518094166e-12 5.386411761800808e-12 7.998274805574848e-12 5.401172290057688e-12 1.7512945312986577e-11
          1.1808477854209848e-11 1.5502999946680324e-11 8.500077811984639e-11 8.335274573356093e-11 5.910619313762472e-11 5.7956420680381607e-11
          7.861085683437582e-11 5.464897583315721e-11 1.641392982174992e-10 1.6062822392307595e-10 1.1216904591109382e-10 1.505621254648175e-10
          4.049837973778496e-11 3.970906831117327e-11 2.7347638347411597e-11 2.6814151524599154e-11 3.743876425950303e-11 2.5279836775038208e-11
          7.878706342523933e-11 7.70848081062909e-11 5.2145307079598564e-11 7.220819054988588e-11 7.133850412106692e-11 4.9578617770902696e-11
          4.3312654670642495e-11 1.3523898420358877e-10 9.435001635174073e-11 3.395915627942047e-11 2.292868821417673e-11 2.9660335632492557e-11
          2.002417939560949e-11 6.479534729499403e-11 4.381313586898261e-11 5.575141064228146e-11 4.715974853679983e-12 6.9468750676567905e-12
          3.1957039347715173e-12 4.690000950882499e-12 8.95461144534955e-12 1.6858438181015908e-11 5.600872566232013e-10 5.478445219806439e-10
          4.08577248421584e-10 3.994885332522718e-10 5.12666253416842e-10 3.734091945497297e-10 7.987922589442326e-10 7.828671024243679e-10
          5.784391053070773e-10 7.364804833013061e-10 4.58923252731055e-10 3.336707552358652e-10 6.638985700185354e-10 4.881193461187896e-10
          8.515498651240269e-10 8.411114529202966e-10 6.411803753454511e-10 6.32430120268209e-10 8.080041811419918e-10 6.051953098953225e-10
          8.070987271131516e-10 8.026404507158569e-10 6.10495115124701e-10 7.848098375489032e-10 7.491808774071963e-10 5.580679184635987e-10
          7.44393990687697e-10 5.586874657498322e-10 2.925013644354944e-10 2.8590340374672406e-10 2.0563301719777888e-10 2.0094412342157652e-10
          2.669928116227645e-10 1.8751719556570836e-10 4.27797967948873e-10 4.1874032006773743e-10 2.971911060540152e-10 3.9250362783288815e-10
          1.4203804265162332e-10 1.3877218524999013e-10 9.643682453856452e-11 9.420549882526236e-11 1.2942698774431295e-10 8.78242955378626e-11
          2.1159418646554742e-10 2.069271293419337e-10 1.4143347301050613e-10 1.93463068829916e-10 2.382395672654431e-10 1.6713637237810832e-10
          1.423561751127057e-10 3.5186589828592666e-10 2.4884560243428477e-10 1.152610087614728e-10 7.816164538510821e-11 9.806807041868082e-11
          6.645104308134939e-11 1.7276184989907016e-10 1.178011227906749e-10 1.4721175666745468e-10 4.722225456373554e-10 4.6519451977897134e-10
          3.404149700840181e-10 3.349778531078866e-10 4.436337252030939e-10 3.184851877931774e-10 4.581900474608546e-10 4.538148358787058e-10
          3.2994145789201917e-10 4.3898113861734205e-10 2.4036765800023993e-10 2.3630003484636454e-10 1.6636967638758727e-10 1.634175011154124e-10
          2.2407273658989045e-10 1.5460786399590497e-10 2.378074110027443e-10 2.3479344562428677e-10 1.636716032432204e-10 2.252113769907391e-10
          4.070994610473487e-10 2.9100876893490013e-10 2.540300990588257e-10 4.1039103543226383e-10 2.952411983507714e-10 2.0398300639677537e-10
          1.402968594575486e-10 1.7733053419336289e-10 1.2153472436673924e-10 2.081620102166247e-10 1.4393973257361558e-10 1.837956838255884e-10
          3.0582736620620936e-12 3.015195904814702e-12 4.616732248439149e-12 4.544914495391942e-12 1.9922692923635655e-12 3.0371689607146093e-12
          2.9893800645018905e-12 2.8893888874216907e-12 4.336578061548091e-12 2.852932005767118e-12 9.202015980533511e-12 9.041163061273185e-12
          5.933814630120655e-12 8.57685260974492e-12 1.309230306936648e-12 1.2866354128861237e-12 1.967990297006849e-12 1.935509510885722e-12
          8.33754186991358e-13 1.262087116044447e-12 1.2403713887433733e-12 1.236997317008682e-12 1.8477424391487864e-12 1.1844621482777466e-12
          3.911773541977413e-12 3.8433408914210225e-12 2.4546527006387004e-12 3.644281170225155e-12 2.6899995333515642e-12 4.010914198940355e-12
          1.7848705862774268e-12 2.6422891747173797e-12 2.4288671078078385e-12 3.5946218082208765e-12 2.371452177929148e-12 7.859342426512154e-12
          5.160477342758103e-12 6.960409286195413e-12 1.1770180151126863e-12 1.7162206479172554e-12 7.831164182289612e-13 1.0938288074762108e-12
          1.0854555324755173e-12 1.5406491280474459e-12 1.0685400362226136e-12 3.340871010846373e-12 2.1159241189427055e-12 2.96286540443134e-12
          1.8201538983148407e-11 1.7846472877641574e-11 1.1941123527443656e-11 1.1708160363812044e-11 1.682553162022337e-11 1.1039051381719977e-11
          3.54997966185838e-11 3.4729549172670267e-11 2.277585876151388e-11 3.252395740827799e-11 7.722841655858086e-12 7.571949737801647e-12
          4.926350017527232e-12 4.829848200616818e-12 7.138725487163476e-12 4.552142544281072e-12 1.5035511028224334e-11 1.4709069706703e-11
          9.355234564892527e-12 1.3774867756342836e-11 1.5261425485411697e-11 1.0015401090027694e-11 1.3328932582557309e-11 8.750738855032393e-12
          2.917386517492324e-11 1.9131730300985805e-11 2.5090241393677983e-11 6.4826997979827974e-12 4.133413346188651e-12 5.67535119035584e-12
          3.618603371041091e-12 1.2356035515165696e-11 7.859098358586299e-12 1.0626581189101657e-11 5.501534429035313e-13 5.413029424495835e-13
          7.895865293488578e-13 7.769312734814576e-13 4.4127017434148234e-13 6.044073774487047e-13 5.959055135892578e-13 5.187257980646026e-13
          7.402668441053951e-13 5.657649616954423e-13 1.5739182997275785e-12 1.5460585360705902e-12 1.4637020735105148e-12 5.040237475422077e-13
          6.810334431872043e-13 3.997079097751342e-13 5.273404829868972e-13 5.030483409508462e-13 6.458092157776759e-13 5.105546923127206e-13
          1.3233779833558617e-12 1.3065385215074772e-12 3.1067350542888726e-12 3.0456640525780123e-12 2.8697256275306016e-12 5.987190281106526e-12
          5.857352662052489e-12 5.485639557055022e-12 2.599693380840071e-12 2.2648357069532602e-12 4.921283351578804e-12 4.233654771093981e-12
          2.1262457989839816e-12 3.121988778211555e-12 1.421424131113468e-12 2.0605073510635387e-12 1.823906385486758e-12 2.6348236710998583e-12
          1.7310627713106233e-12 5.9610377174588635e-12 3.915498289697349e-12 4.9363724320563095e-12 9.529427897545555e-13 1.3339992244243577e-12
          7.88817291451767e-13 1.045612059144376e-12 8.041719884240404e-13 1.1183127488056636e-12 8.7481786871044e-13 2.5380551629394036e-12
          1.8642707180049408e-12 2.0984411441555565e-12 1.0180825859070924e-12 1.399052669345948e-12 1.2343956485291256e-12 2.5751897663294136e-12
          6.824053136115895e-13 9.086636149537969e-13 5.739040706764758e-13 7.294654383887782e-13 6.355230799767831e-13 8.073870673516231e-13
          6.696771086560434e-13 1.663884327840082e-12 1.1221101798186194e-11 7.368768467108618e-12 9.11847059936728e-12 5.985836437639344e-12
          2.07189028987951e-11 1.3587505287474218e-11 1.6460429359676295e-11 4.784796102988912e-12 3.886166410367536e-12 8.775654254640242e-12
          6.972208591001902e-12 4.703717102755386e-12 8.268759958979366e-12 3.0470277779516314e-12 5.341789672906842e-12 1.3203604252127879e-12
          6.43792871393366e-11 6.288301893703043e-11 4.227077887015969e-11 4.128540153178101e-11 5.860586722037123e-11 3.8469587428247156e-11
          9.71408651655753e-11 9.49400682391826e-11 6.261594465826882e-11 8.860876383278575e-11 2.7303269685027678e-11 2.6665660869116517e-11
          1.7351071618794075e-11 1.694555881480299e-11 2.484402098687251e-11 1.578718436064124e-11 4.154731452021632e-11 4.058975113421483e-11
          2.5868040782436012e-11 3.784046680559698e-11 5.2134604685808596e-11 3.421184058637428e-11 4.4300242660156254e-11 2.9061281165485754e-11
          7.892348124456744e-11 5.197256852748885e-11 6.704662549932255e-11 2.2090834745588927e-11 1.403703864255328e-11 1.8762271117849974e-11
          1.1921979002699035e-11 3.3649617642229244e-11 2.14249805941628e-11 2.8533201579708562e-11 1.1295542091624689e-10 1.108702702749317e-10
          7.526488923166867e-11 7.382856871464789e-11 1.0468468462489687e-10 6.95889285262865e-11 1.1356232938289478e-10 1.118525963189245e-10
          7.497951595731541e-11 1.065967864650401e-10 4.924292871352985e-11 4.8276544689470733e-11 3.164727455419805e-11 3.101125665798711e-11
          4.543589016194851e-11 2.914828539605136e-11 5.0175632215072155e-11 4.932837073698541e-11 3.186445984137475e-11 4.6776529368927954e-11
          9.47304102190509e-11 6.282042889646879e-11 8.181107682021176e-11 5.4111178583652135e-11 9.76713319530659e-11 6.506549656643335e-11
          8.544632827609269e-11 4.09312874092309e-11 2.6211014427590758e-11 3.5177568937493994e-11 2.2483012399654975e-11 4.257201884984444e-11
          2.7367467886005235e-11 3.698092886853585e-11 1.084985203183499e-11 1.0596322585357198e-11 9.872194597892131e-12 1.6597834972458033e-11
          1.6211254933010412e-11 1.5102854674099926e-11 8.778271838625601e-12 7.456571389574976e-12 1.3417426813592905e-11 1.136605605197959e-11
          1.9984964533896096e-11 1.9575062412451667e-11 1.8378031876638562e-11 2.0594235749249822e-11 2.0217325443020106e-11 1.909731948493786e-11
          1.650007493011765e-11 1.4129725791936056e-11 1.7289947140943706e-11 1.493732139382248e-11 3.600201680988664e-11 2.361049241889726e-11
          2.8036369565435575e-11 1.8382467033507928e-11 5.4319633043753164e-11 3.5696407990191826e-11 4.200747199654713e-11 1.5241751514570415e-11
          1.1867025858557662e-11 2.307598270027968e-11 1.7819333959912443e-11 1.3752953250157064e-11 2.0388658450082407e-11 8.87981851053501e-12
          1.3168011002705025e-11 6.722337503684941e-11 4.4353198922201284e-11 5.249800275664629e-11 3.456521780048382e-11 7.101157172726937e-11
          4.696568705270117e-11 5.594287922305177e-11 2.8773925872091452e-11 2.2385524159397298e-11 3.053661840267706e-11 2.3929918975692477e-11
          2.5642042791490678e-11 2.7512232690808683e-11 1.6585687843667798e-11 1.781262017370099e-11 6.74348991597625e-11 1.487396084714627e-11
          1.332522179264742e-11 5.8021110546447615e-11 6.002625790706733e-11 1.0607528126191411e-11 9.393242221867599e-12 5.0049131463336955e-11
          1.8137698851276123e-11 1.1921110700815177e-11 1.1206621662173379e-11 2.4393221297373205e-12 1.7907898491679015e-12 2.2981169266681484e-12
          4.807841929610064e-12 5.562291539865968e-12 1.052781469963218e-11 2.540237688001654e-12 1.7894660165883448e-12 1.816867925825557e-12
          4.573755584042562e-12 1.0702388075800836e-11 1.0111698551764675e-11 9.842677055631243e-12 1.4880932034436278e-11 1.196852163945059e-11
          1.5676329464896744e-11 8.920247765126357e-12 1.749872248220938e-11 1.7643819802582618e-11 1.7802049528358656e-12 2.530260545198563e-12
          2.389552580683335e-12 1.5682071912590115e-12 1.596174232243649e-12 2.0351563584010845e-12 7.255151696793617e-12 1.4386194544822397e-11
          6.7228985824673875e-12 1.3899252540562381e-11 4.410204375064129e-12 1.3546683162816704e-12 1.2697229528413344e-12 1.3751375862890235e-12
          1.2846534637380252e-12 3.8190452511687465e-12 6.1366042736394426e-12 4.217489332272494e-12 7.301939495610102e-12 1.195073051870889e-10
          8.644640230798672e-11 8.495534704622845e-11 1.174588814403621e-10 2.308042709422136e-10 2.2641585160368287e-10 6.164678213331312e-11
          6.057486251125296e-11 8.063891726261791e-11 1.1152731967426861e-10 2.1377319520950248e-10 5.747469581442024e-11 4.358201867914236e-10
          4.2678667725278556e-10 4.008300524038172e-10 7.394734719314335e-11 1.0232357857469952e-10 1.94339883192558e-10 5.2678707254301146e-11
          6.554807595009319e-11 9.076587961163623e-11 1.2363612058157346e-10 1.7023295443542315e-10 4.666849502700818e-11 8.844887619574287e-11
          3.6114942362408024e-10 2.2856810222308802e-10 3.1235914512855913e-10 1.6450630660864183e-10 8.721671372388217e-12 1.5374206301557603e-11
          1.510144728126114e-11 1.4334103460057482e-11 3.0027892937264494e-11 2.950205571582407e-11 2.7981011695416233e-11 8.896579919112489e-12
          1.317081067405418e-11 1.174493129950037e-11 2.5630061836997876e-11 2.2690373359771e-11 4.3330644333231833e-11 4.257517962108647e-11
          4.03888800742314e-11 3.7005589987713696e-11 3.2769466915378134e-11 6.234609979767396e-11 1.1650784467497748e-10 6.938986917680693e-12
          1.019609069811757e-11 4.053100096113922e-12 5.8799594798313956e-12 8.61572784142371e-12 3.9708406361780955e-12 1.3279123455585763e-11
          1.9435456747724978e-11 1.1020209118101281e-11 1.6132366782510904e-11 7.42524623523976e-12 2.807366452854377e-11 3.648262797062871e-11
          5.253735354536236e-11 6.71445542221426e-11 9.639392445183263e-11 2.497580247545804e-11 1.370488836436122e-11 2.031094761822703e-11
          4.606207621350212e-11 3.112521893362358e-11 2.4732794752155982e-11 3.661505607469089e-11 7.529570662544615e-10 7.368471105156988e-10
          6.904840496034171e-10 1.0577459308215292e-9 1.0374499710930985e-9 9.781369211086909e-10 6.194388467730734e-10 3.9300439441895977e-10
          5.319286318186192e-10 2.8510215880448624e-10 8.847657060816499e-10 5.722649953166504e-10 7.659391265966615e-10 4.191892632288539e-10
          1.1055836879457459e-9 1.0937348521073415e-9 1.0551816847050493e-9 1.0339296190429648e-9 1.0306965249052195e-9 1.0142119949817014e-9
          9.843291298219383e-10 6.649093274937404e-10 8.797306523423107e-10 4.922060576120958e-10 9.701579581336956e-10 6.756493421553384e-10
          8.885938000562542e-10 5.029533056079465e-10 2.031991029850227e-10 3.0123277457945927e-10 3.570795216378233e-10 3.667612718755729e-10
          1.159809695294594e-10 1.6580495561952352e-10 1.7307657947225122e-10 2.460358796548916e-10 7.980609248232967e-11 5.403243476764746e-11
          1.1964174392057586e-10 8.129774450649306e-11 2.1091585071439976e-10 2.9788669509734257e-10 2.2089891002329262e-10 3.1093245342432966e-10
          1.4664197382065823e-10 1.0015638277801316e-10 1.5405962565919798e-10 1.0552365964941415e-10 1.4480353132026133e-12 1.1093255289604997e-12
          1.3524355076704778e-12 9.557967949572751e-13 1.9203150362843608e-12 1.8824368194074416e-12 1.7733704941505984e-12 3.689817508571713e-12
          3.610011197813764e-12 3.3813314994866546e-12 1.605454912749073e-12 1.3969023102303908e-12 3.0337708844260482e-12 2.610241996496699e-12
          1.5693722608126532e-12 2.391596914318782e-12 2.147517655158642e-12 3.2776256292940213e-12 1.459028572431135e-12 1.901890925228186e-12
          3.934796466434837e-12 5.962029139456171e-12 3.625655619818555e-12 3.429249648668362e-12 1.2233466517329851e-12 1.4422247930521215e-12
          1.836750163165843e-12 3.0491745323968237e-12 2.4743846155366613e-12 5.582353573908706e-12 4.436223614518982e-12 7.174278513062651e-12
          1.0797688124105587e-11 3.57564880120449e-12 5.460037390992261e-12 1.2610755513619757e-11 1.8952338343582365e-11 6.126145340210458e-12
          9.344402078027526e-12 1.9381840758407762e-12 2.307847768685113e-12 1.4688920511939692e-12 3.4004972436728247e-12 3.958070040237745e-12
          2.5197594868702452e-12 1.8999463629510664e-12 8.103573118027139e-13 1.1696088818474476e-12 1.0784178617839222e-12 1.5386379190250115e-12
          9.468556880973256e-13 3.4974290653486536e-12 2.1572204460116625e-12 6.676278703270817e-12 6.520495436048877e-12 6.075511214698039e-12
          1.0230943931491563e-11 9.991877511800351e-12 9.306753463961031e-12 5.403200415339548e-12 4.591100382529906e-12 8.265872939851505e-12
          7.000416230078879e-12 1.2403608038941027e-11 1.2144705848707718e-11 1.1390606555188379e-11 1.28454424524056e-11 1.2602780922077612e-11
          1.1885394235928311e-11 1.0212645198350447e-11 8.733047710984962e-12 1.0737104739986445e-11 9.255207468267728e-12 4.2097794845992853e-11
          6.294850164624512e-11 9.685779254952257e-12 7.543153400761034e-12 1.4676609957157905e-11 1.1329595240119536e-11 2.097773755653637e-11
          3.151128087702063e-11 9.921911595820797e-12 1.5132953415067362e-11 3.1073652028519524e-11 4.661152057984612e-11 1.4469010665157583e-11
          2.2060751265645076e-11 5.647165143849063e-12 6.408221872444704e-12 4.0781360673175354e-12 8.371542132851472e-12 9.344150344743991e-12
          5.942299364300486e-12 7.841546277320963e-11 8.341034894968558e-11 1.8357927205939384e-11 1.4262106185756226e-11 1.9522632260854794e-11
          1.526718424593852e-11 3.900847631794477e-11 5.838516768417812e-11 1.8165140354218952e-11 2.7665566513611127e-11 4.1808239807443973e-11
          6.250015158910858e-11 1.953733367042266e-11 2.973531011800637e-11 1.0556857510230944e-11 1.1740114960079359e-11 7.46915439471224e-12
          1.1347828132244033e-11 1.2634216770239926e-11 8.041747605166461e-12 6.0594921753614906e-12 3.732936496512185e-12 9.184841044998075e-12
          5.656405032021112e-12 1.1520227383730273e-11 7.111482065561117e-12 1.2274431198179416e-11 7.590446619973236e-12
        </DataArray>
        <DataArray type="Float64" Name="gradient_matprop_error" format="ascii" RangeMin="0" RangeMax="0">
          0 0 0 0 0 0
          0 0 0 0 0 0
          0 0 0 0 0 0
          0 0 0 0 0 0
          0 0 0 0 0 0
          0 0 0 0 0 0
          0 0 0 0 0 0
          0 0 0 0 0 0
          0 0 0 0 0 0
          0 0 0 0 0 0
          0 0 0 0 0 0
          0 0 0 0 0 0
          0 0 0 0 0 0
          0 0 0 0 0 0
          0 0 0 0 0 0
          0 0 0 0 0 0
          0 0 0 0 0 0
          0 0 0 0 0 0
          0 0 0 0 0 0
          0 0 0 0 0 0
          0 0 0 0 0 0
          0 0 0 0 0 0
          0 0 0 0 0 0
          0 0 0 0 0 0
          0 0 0 0 0 0
          0 0 0 0 0 0
          0 0 0 0 0 0
          0 0 0 0 0 0