<?xml version="1.0"?>
<VTKFile type="UnstructuredGrid" version="0.1" byte_order="LittleEndian" header_type="UInt32" compressor="vtkZLibDataCompressor">
  <UnstructuredGrid>
    <Piece NumberOfPoints="1002" NumberOfCells="559">
      <PointData>
        <DataArray type="Int32" Name="libmesh_node_id" format="ascii" RangeMin="34" RangeMax="8835">
          40 41 42 43 44 45
          46 47 48 49 50 51
          52 53 54 55 56 57
          58 59 60 61 62 63
          64 65 66 67 68 69
          70 71 72 73 74 75
          76 77 78 79 100 101
          102 103 104 105 106 107
          108 109 110 111 112 113
          114 115 116 117 118 119
          140 141 142 143 144 145
          146 147 148 149 150 151
          152 153 154 155 156 157
          158 159 178 180 181 182
          183 184 185 186 187 188
          189 190 191 192 193 194
          195 196 197 198 199 210
          211 212 213 214 215 216
          217 218 219 230 231 232
          233 234 235 236 237 238
          239 258 260 261 262 263
          264 265 266 267 268 269
          270 271 272 273 274 275
          276 277 278 279 290 291
          292 293 294 295 296 297
          298 299 310 311 312 313
          314 315 316 317 318 319
          338 340 341 342 343 344
          345 346 347 348 349 350
          351 352 353 354 355 356
          357 358 359 370 371 372
          373 374 375 376 377 378
          379 390 391 392 393 394
          395 396 397 398 399 418
          420 421 422 423 424 425
          426 427 428 429 430 431
          432 433 434 435 436 437
          438 439 450 451 452 453
          454 455 456 457 458 459
          470 471 472 473 474 475
          476 477 478 479 498 499
          500 501 502 503 504 505
          506 507 508 509 510 511
          512 513 514 515 516 517
          518 519 530 531 532 533
          534 535 536 537 538 539
          550 551 552 553 554 555
          556 557 558 559 578 579
          580 581 582 583 584 585
          586 587 588 589 590 591
          592 593 594 595 596 597
          598 599 610 611 612 613
          614 615 616 617 618 619
          630 631 632 633 634 635
          636 637 638 639 658 659
          660 661 662 663 664 665
          666 667 668 669 670 671
          672 673 674 675 676 677
          678 679 689 690 691 692
          693 694 695 696 697 698
          699 709 710 711 712 713
          714 715 716 717 718 719
          740 741 742 743 748 749
          750 751 752 753 754 755
          756 757 758 759 770 771
          772 773 774 775 776 777
          778 779 790 791 792 793
          794 795 796 797 798 799
          820 821 822 823 828 829
          830 831 832 833 834 835
          836 837 838 839 850 851
          854 855 856 857 858 859
          870 871 872 873 874 875
          876 877 878 879 900 901
          908 909 911 912 913 914
          915 916 917 918 919 930
          931 934 935 936 937 938
          939 950 951 952 953 954
          955 956 957 958 959 980
          981 992 993 994 995 996
          997 998 999 1010 1011 1012
          1013 1014 1015 1016 1017 1018
          1019 1030 1031 1032 1033 1034
          1035 1036 1037 1038 1039 1073
          1074 1077 1080 1081 1094 1107
          1108 1109 1110 1114 1115 1116
          1117 1118 1119 1120 1121 1122
          1123 1124 1216 1262 1263 1264
          1265 1266 1267 1268 1269 1270
          1271 1272 1273 1274 1275 1276
          1277 1278 1279 1280 1281 1282
          1283 1284 1285 1286 1287 1290
          1291 1292 1293 1294 1295 1298
          1299 1301 1304 1305 1306 1309
          1310 1311 1312 1313 1314 1315
          1316 1317 1318 1319 1382 1388
          1389 1392 1395 1858 1859 1860
          1861 1864 1865 1867 1868 1869
          1870 1871 1872 1873 1874 1875
          1876 1877 1888 1889 1892 1895
          3213 3214 3217 3218 3219 3220
          3221 3222 3223 3224 3242 3244
          3245 3247 3249 3250 3251 3252
          3254 3256 3257 3258 8341 8342
          8343 8344 8345 8346 8347 8348
          8349 8350 8467 8468 8469 8564
          8565 8566 8567 8568 8569 8570
          8571 8572 8573 8574 8575 8576
          8577 8578 8579 8590 8591 8592
          8593 8594 8595 8596 8597 8598
          8599 8600 8601 8602 8603 8604
          8605 8606 8607 8608 8609 8610
          8611 8612 8613 8614 8615 8616
          8617 8618 8619 8620 8621 8622
          8623 8624 8625 8626 8627 8628
          8629 8630 8631 8632 8633 8634
          8635 8636 8637 8638 8639 8640
          8641 8642 8643 8644 8645 8646
          8647 8648 8649 8650 8651 8652
          8653 8654 8655 8656 8657 8658
          8659 8660 8661 8795 8796 8797
          8798 8799 8800 8801 8802 8803
          8806 8807 8809 8812 8814 8815
          8816 8817 8818 8819 8822 8823
          8824 8825 8826 8827 8828 8829
          8830 8831 8832 8833 8834 8835
          36 37 38 39 98 99
          138 139 34 35 176 179
          177 209 229 256 259 257
          289 309 336 339 337 369
          389 416 419 417 449 469
          496 497 448 529 528 549
          576 577 609 608 629 656
          657 688 628 708 736 738
          739 737 744 745 746 747
          769 768 789 788 818 819
          824 825 826 827 849 852
          853 869 910 899 929 903
          905 932 907 933 949 991
          1009 1029 1088 1079 1090 1095
          1082 1091 1093 1096 1102 1101
          1104 1103 1105 1106 1112 1111
          1113 1068 987 1086 989 1214
          1218 1215 1217 1220 1219 1224
          1228 1225 1229 1255 1256 1257
          1261 906 1063 1042 1046 1052
          1092 1288 1289 1296 1297 1099
          1050 1300 1051 1302 1303 1308
          1307 1100 1378 1379 1380 1383
          1384 1381 1385 1387 1386 1390
          1391 1393 1394 1396 1397 1862
          1863 1250 1251 1254 1866 1260
          902 1040 1041 1087 1890 1891
          1893 1894 1896 1897 3211 3212
          3215 3216 1193 1076 1207 1226
          1665 1657 1666 3246 3243 1667
          3248 1782 1790 1794 1792 1737
          1738 3253 1739 3255 1800 1804
          1802 8462 8465 8464 8466 8556
          8456 8557 8560 979 8562 983
          1043 1322 1323 1326 1329 982
          1332 1056 8581 8583 8586 8588
          8676 8677 8678 8679 8680 8681
          8461 8785 8786 8787 8790 8463
          8793 8791 8792 8804 8805 8794
          8808 8810 8811 8813 8820 8821
          8773 8774 8777 8752 8459 8779
        </DataArray>
        <DataArray type="Float64" Name="bounds" format="ascii" RangeMin="0" RangeMax="0">
          0 0 0 0 0 0
          0 0 0 0 0 0
          0 0 0 0 0 0
          0 0 0 0 0 0
          0 0 0 0 0 0
          0 0 0 0 0 0
          0 0 0 0 0 0
          0 0 0 0 0 0
          0 0 0 0 0 0
          0 0 0 0 0 0
          0 0 0 0 0 0
          0 0 0 0 0 0
          0 0 0 0 0 0
          0 0 0 0 0 0
          0 0 0 0 0 0
          0 0 0 0 0 0
          0 0 0 0 0 0
          0 0 0 0 0 0
          0 0 0 0 0 0
          0 0 0 0 0 0
          0 0 0 0 0 0
          0 0 0 0 0 0
          0 0 0 0 0 0
          0 0 0 0 0 0
          0 0 0 0 0 0
          0 0 0 0 0 0
          0 0 0 0 0 0
          0 0 0 0 0 0
          0 0 0 0 0 0
          0 0 0 0 0 0
          0 0 0 0 0 0
          0 0 0 0 0 0
          0 0 0 0 0 0
          0 0 0 0 0 0
          0 0 0 0 0 0
          0 0 0 0 0 0
          0 0 0 0 0 0
          0 0 0 0 0 0
          0 0 0 0 0 0
          0 0 0 0 0 0
          0 0 0 0 0 0
          0 0 0 0 0 0
          0 0 0 0 0 0
          0 0 0 0 0 0
          0 0 0 0 0 0
          0 0 0 0 0 0
          0 0 0 0 0 0
          0 0 0 0 0 0
          0 0 0 0 0 0
          0 0 0 0 0 0
          0 0 0 0 0 0
          0 0 0 0 0 0
          0 0 0 0 0 0
          0 0 0 0 0 0
          0 0 0 0 0 0
          0 0 0 0 0 0
          0 0 0 0 0 0
          0 0 0 0 0 0
          0 0 0 0 0 0
          0 0 0 0 0 0
          0 0 0 0 0 0
          0 0 0 0 0 0
          0 0 0 0 0 0
          0 0 0 0 0 0
          0 0 0 0 0 0
          0 0 0 0 0 0
          0 0 0 0 0 0
          0 0 0 0 0 0
          0 0 0 0 0 0
          0 0 0 0 0 0
          0 0 0 0 0 0
          0 0 0 0 0 0
          0 0 0 0 0 0
          0 0 0 0 0 0
          0 0 0 0 0 0
          0 0 0 0 0 0
          0 0 0 0 0 0
          0 0 0 0 0 0
          0 0 0 0 0 0
          0 0 0 0 0 0
          0 0 0 0 0 0
          0 0 0 0 0 0
          0 0 0 0 0 0
          0 0 0 0 0 0
          0 0 0 0 0 0
          0 0 0 0 0 0
          0 0 0 0 0 0
          0 0 0 0 0 0
          0 0 0 0 0 0
          0 0 0 0 0 0
          0 0 0 0 0 0
          0 0 0 0 0 0
          0 0 0 0 0 0
          0 0 0 0 0 0
          0 0 0 0 0 0
          0 0 0 0 0 0
          0 0 0 0 0 0
          0 0 0 0 0 0
          0 0 0 0 0 0
          0 0 0 0 0 0
          0 0 0 0 0 0
          0 0 0 0 0 0
          0 0 0 0 0 0
          0 0 0 0 0 0
          0 0 0 0 0 0
          0 0 0 0 0 0
          0 0 0 0 0 0
          0 0 0 0 0 0
          0 0 0 0 0 0
          0 0 0 0 0 0
          0 0 0 0 0 0
          0 0 0 0 0 0
          0 0 0 0 0 0
          0 0 0 0 0 0
          0 0 0 0 0 0
          0 0 0 0 0 0
          0 0 0 0 0 0
          0 0 0 0 0 0
          0 0 0 0 0 0
          0 0 0 0 0 0
          0 0 0 0 0 0
          0 0 0 0 0 0
          0 0 0 0 0 0
          0 0 0 0 0 0
          0 0 0 0 0 0
          0 0 0 0 0 0
          0 0 0 0 0 0
          0 0 0 0 0 0
          0 0 0 0 0 0
          0 0 0 0 0 0
          0 0 0 0 0 0
          0 0 0 0 0 0
          0 0 0 0 0 0
          0 0 0 0 0 0
          0 0 0 0 0 0
          0 0 0 0 0 0
          0 0 0 0 0 0
          0 0 0 0 0 0
          0 0 0 0 0 0
          0 0 0 0 0 0
          0 0 0 0 0 0
          0 0 0 0 0 0
          0 0 0 0 0 0
          0 0 0 0 0 0
          0 0 0 0 0 0
          0 0 0 0 0 0
          0 0 0 0 0 0
          0 0 0 0 0 0
          0 0 0 0 0 0
          0 0 0 0 0 0
          0 0 0 0 0 0
          0 0 0 0 0 0
          0 0 0 0 0 0
          0 0 0 0 0 0
          0 0 0 0 0 0
          0 0 0 0 0 0
          0 0 0 0 0 0
          0 0 0 0 0 0
          0 0 0 0 0 0
          0 0 0 0 0 0
          0 0 0 0 0 0
          0 0 0 0 0 0
          0 0 0 0 0 0
          0 0 0 0 0 0
          0 0 0 0 0 0
          0 0 0 0 0 0
          0 0 0 0 0 0
        </DataArray>
        <DataArray type="Float64" Name="gradient_error" format="ascii" RangeMin="3.997443209154061e-13" RangeMax="3.131119243773089e-7">
          1.5936662033636943e-12 1.5988514446883114e-12 1.6264425059920854e-12 1.614373488425741e-12 1.6026542102818268e-12 1.6031561916246186e-12
          1.6061719651402623e-12 1.6046943886259584e-12 1.6048957506376457e-12 1.6042288246657858e-12 1.6007295139554525e-12 1.6020928376085074e-12
          1.6037599740030398e-12 1.6036414133329224e-12 1.603000882600828e-12 1.6032770901111117e-12 1.6033553213747952e-12 1.6034230866028598e-12
          1.6038909991695875e-12 1.6037568786468931e-12 1.6035257928639138e-12 1.6035289354476019e-12 1.6035533200653503e-12 1.6035443922393319e-12
          1.6035353544649679e-12 1.6035345372655807e-12 1.6035268182708786e-12 1.603527982637832e-12 1.603533119261066e-12 1.6035328385870799e-12
          1.6035295612911516e-12 1.603530217115777e-12 1.603532096716381e-12 1.603532085670883e-12 1.6035314615033204e-12 1.6035316428517017e-12
          1.6035319004009566e-12 1.6035319425740859e-12 1.6035318752387519e-12 1.6035319495836265e-12 1.6037137239217935e-12 1.6031018352501507e-12
          1.6035625833390585e-12 1.6034592734549085e-12 1.603528160768665e-12 1.6035415432016178e-12 1.6035249991052009e-12 1.6035507669585019e-12
          1.6035167984751687e-12 1.6035667385069045e-12 1.6035326712976291e-12 1.6035323204440411e-12 1.6035329803594755e-12 1.6035303756828438e-12
          1.6035323377099497e-12 1.603531440697698e-12 1.6035320764418708e-12 1.6035319819584627e-12 1.6035320291153975e-12 1.603532092610181e-12
          1.6033907618306583e-12 1.6038991996409043e-12 1.6034669937107066e-12 1.6037017347981623e-12 1.6034944228434046e-12 1.603626925141674e-12
          1.6035271455475967e-12 1.6035482362956088e-12 1.6035427451194125e-12 1.6035107188896107e-12 1.6035332645639687e-12 1.6035291764747694e-12
          1.6035322406527577e-12 1.603531604360902e-12 1.6035321175068058e-12 1.6035320084549942e-12 1.603532078258357e-12 1.6035321397168422e-12
          1.60353207348358e-12 1.6035321612918609e-12 1.746461362471179e-12 1.5519111032315045e-12 1.5808823134823012e-12 1.596643120197086e-12
          1.6009235414741125e-12 1.6139240709268316e-12 1.6089321805002354e-12 1.6058833179156204e-12 1.6046743678432075e-12 1.6022557302765811e-12
          1.6027146213858631e-12 1.6034104222855157e-12 1.6034550815950404e-12 1.603537798831477e-12 1.6035377124215822e-12 1.6035378106001315e-12
          1.6035365974545123e-12 1.6035324924152586e-12 1.6035324825328872e-12 1.6035310854591317e-12 1.6035314192051718e-12 1.6058782700805532e-12
          1.6039736531316014e-12 1.6035191353012856e-12 1.603453306414794e-12 1.6033890661588256e-12 1.6035222869800077e-12 1.6035364551788306e-12
          1.6035343304743956e-12 1.603532530947079e-12 1.6035321056358086e-12 1.6019030164280093e-12 1.6027433435120632e-12 1.6030979805289325e-12
          1.603441195058794e-12 1.6036046198225057e-12 1.60354483305545e-12 1.603535284345974e-12 1.603533276639898e-12 1.603532589243642e-12
          1.6035324583204053e-12 2.9695760363506375e-12 2.140179584514283e-12 1.862065710538247e-12 1.7071609077640867e-12 1.6521819128593945e-12
          1.566857280211538e-12 1.5843365005592275e-12 1.5949881926279798e-12 1.599484939195925e-12 1.6083318090210259e-12 1.6066863141364096e-12
          1.6041480041911806e-12 1.6039425965480701e-12 1.603551168545741e-12 1.6035415578124522e-12 1.6035086924839659e-12 1.6035148824806298e-12
          1.603519909499228e-12 1.6035240914107057e-12 1.6035241215362811e-12 1.6035273449292595e-12 1.5990055416965156e-12 1.60263246016274e-12
          1.6038244585709952e-12 1.6040530767426393e-12 1.6041721128091895e-12 1.6036140452594008e-12 1.6035284291200497e-12 1.6035271210176511e-12
          1.6035322598695114e-12 1.6035337279929168e-12 1.6140592468308207e-12 1.6080620023707787e-12 1.6058331962350738e-12 1.604124467721408e-12
          1.6033034063665854e-12 1.603490901613842e-12 1.6035249111609364e-12 1.603533169558009e-12 1.6035362464168399e-12 1.6035368876635956e-12
          9.187460719000397e-12 4.316329420684598e-12 3.118020742004693e-12 2.344041462623686e-12 2.015843290657353e-12 1.7802131223218573e-12
          1.7019384575949634e-12 1.662566592536307e-12 1.6344489202705437e-12 1.586074807717446e-12 1.591823547914693e-12 1.6005217728878692e-12
          1.6014570118924213e-12 1.6031819552585089e-12 1.6032984675104395e-12 1.603529609425343e-12 1.603539884244044e-12 1.6035356617525605e-12
          1.6035410264456432e-12 1.6035276434248526e-12 1.6035345538293684e-12 1.758881306960288e-12 1.6395037605448819e-12 1.6094138615097922e-12
          1.6037790968471263e-12 1.60087810575909e-12 1.6030401803341753e-12 1.6035048815398698e-12 1.6035597917693487e-12 1.6035523410299037e-12
          1.6035486149518804e-12 1.5980505505957885e-12 1.5913624023987438e-12 1.5951639301515153e-12 1.6012269456894716e-12 1.604183923406239e-12
          1.6036881097713765e-12 1.6035947833173689e-12 1.6035694244759523e-12 1.603558290921082e-12 1.603555765669877e-12 3.6460793099969587e-11
          1.572684060521259e-11 9.770095736052078e-12 5.847323624094224e-12 3.9880559165228684e-12 1.858969655570416e-12 1.7738909950739977e-12
          1.8303705910988334e-12 1.7444659913973235e-12 1.6694144204930176e-12 1.6496543578949604e-12 1.6170975614801173e-12 1.6132483526639597e-12
          1.6056295539591902e-12 1.6050726583600342e-12 1.6035461233675491e-12 1.6035648342486388e-12 1.603286425224746e-12 1.603379845390214e-12
          1.6032716260441825e-12 1.6033699971864175e-12 3.000745198609529e-12 1.9726124005601525e-12 1.6912042739852254e-12 1.6453131770313973e-12
          1.6163788161635255e-12 1.6064627241928817e-12 1.6040598472544024e-12 1.6036066174097183e-12 1.6035642568647092e-12 1.60356522826785e-12
          2.1881395303274908e-12 1.816436592168791e-12 1.6935962133928718e-12 1.6320649623669817e-12 1.6028633370301477e-12 1.603526304537962e-12
          1.6036039317479268e-12 1.6036296896897084e-12 1.6036552481737362e-12 1.6036620882070476e-12 1.524264767850776e-10 9.464791817510708e-11
          6.142570229614808e-11 3.920757862085977e-11 2.2994580463838143e-11 1.4985480418021723e-11 6.0074213436134215e-12 4.707259918074503e-12
          3.6259617163638986e-12 2.8846490217351416e-12 1.4424120623024804e-12 1.4904572812471375e-12 1.5488439733363822e-12 1.5639104373937465e-12
          1.5908677013115005e-12 1.5943256436860022e-12 1.6011114914647335e-12 1.6019253767349239e-12 1.603056827855997e-12 1.6033777224691766e-12
          1.6033218436464725e-12 1.6035777032059152e-12 1.1061464883721886e-11 4.8892142246343296e-12 2.7022934928879934e-12 1.9260244755000905e-12
          1.5689726361879016e-12 1.5908304655419146e-12 1.6008676277381032e-12 1.6035344934865291e-12 1.604033424325017e-12 1.6041011977009083e-12
          5.1334748218723294e-12 2.802048077063355e-12 1.9974884932404026e-12 1.7087126238937964e-12 1.5994427721840087e-12 1.6026840296327182e-12
          1.6039516694157029e-12 1.6043297249679447e-12 1.6043682315676777e-12 1.6043688326364588e-12 6.553770135881326e-10 4.250908669153288e-10
          2.4363631253646286e-10 1.660867337390548e-10 9.509777454118999e-11 6.479832242881245e-11 2.436433468284711e-11 1.9117973381401943e-11
          1.2534198477773749e-11 9.12142056504818e-12 2.237988405440848e-12 2.0694007170058984e-12 1.8060755802668288e-12 1.756580459384886e-12
          1.6527610164122187e-12 1.641831777283453e-12 1.609709899195081e-12 1.6092439948811905e-12 1.5997981942871386e-12 1.6016804172345132e-12
          1.5981327873170489e-12 1.6003952404918089e-12 5.349340939208131e-11 2.171329598068994e-11 9.582003460237193e-12 4.319197993666166e-12
          1.782347273217127e-12 1.6661661084229931e-12 1.6214496579367204e-12 1.6084011978664031e-12 1.6053519669920006e-12 1.604821414135753e-12
          1.844966384251591e-11 8.927721644944999e-12 5.2923948405176124e-12 2.9297533350097154e-12 1.6638815178633048e-12 1.625246878343043e-12
          1.6119967777187534e-12 1.6080243051655061e-12 1.6071412938021139e-12 1.6069851346049371e-12 2.9192479751625795e-9 1.9944725872861513e-9
          9.767857119266025e-10 7.326404152020812e-10 4.0345715635536657e-10 2.9766726878687083e-10 1.1335692363739736e-10 9.370774735276568e-11
          5.147232760220347e-11 3.799526211392346e-11 2.8502499063250897e-12 2.571012520459865e-12 1.5727166085427755e-12 1.5244112468720097e-12
          1.4650089240402718e-12 1.5013203531205236e-12 1.5413438937591252e-12 1.5624827398868577e-12 1.5688092382938945e-12 1.583664550416708e-12
          1.57429407992728e-12 1.5879451996566035e-12 6.073048210160954e-10 2.762184468266771e-10 1.1110695089522418e-10 4.598662627203673e-11
          1.6013805149365374e-11 1.8558232219378096e-12 1.5134047060029817e-12 1.5705971441020942e-12 1.603024101383476e-12 1.6131039699658765e-12
          1.6151613731601154e-12 1.449124426224676e-10 6.394177517579409e-11 3.0336520572073307e-11 1.7914681475939465e-11 7.509413673087292e-12
          1.4198713092809786e-12 1.5507035268047195e-12 1.6035625060034135e-12 1.622426616752362e-12 1.6276880773922314e-12 1.6287264269343033e-12
          3.967875348844192e-9 3.376416561376376e-9 1.7417170895684567e-9 1.4288660686623817e-9 2.0652839771014582e-11 1.9026714349021044e-11
          3.818907119978102e-12 3.792265988967256e-12 1.4304833892023085e-12 1.5788198645451946e-12 1.5314756987239113e-12 1.5839490528864316e-12
          1.6219119712997588e-12 1.6481462358398599e-12 1.6387902582088159e-12 1.6607062756327083e-12 1.4772760775684982e-9 5.982086791395091e-10
          2.414140368906306e-10 8.233890219131609e-11 1.0218252490005756e-11 2.8837078088873674e-12 1.7524063355527927e-12 1.6845106578765455e-12
          1.6990854298915077e-12 1.7024913293931184e-12 1.6959438122843657e-10 8.040231052271107e-11 5.434151031838845e-11 2.412169500530741e-11
          3.035916052984006e-12 2.0017907598183262e-12 1.777656331217505e-12 1.7325989087041391e-12 1.7237903594030542e-12 1.722360365729636e-12
          7.131387667491008e-9 8.960682270465878e-9 4.737159467761388e-9 3.6217927570896015e-9 2.4745355169382603e-11 3.995412650619889e-11
          5.369155621046345e-12 8.290379121644915e-12 3.0697571468413943e-12 3.193507895926193e-12 1.987604145025941e-12 2.02862874833107e-12
          1.837486108654087e-12 1.848132800575077e-12 1.812466405151064e-12 1.8183955273679098e-12 6.924270467406717e-9 2.591977116638422e-9
          4.259657569323229e-11 8.685600632163643e-12 2.8944950876537205e-12 1.9959828130422736e-12 1.8303107928028422e-12 1.8027307371449929e-12
          7.392304619721521e-10 3.967913706698627e-10 1.5428696976773119e-10 7.326749192202728e-11 3.024685934996665e-11 6.240978450490464e-12
          2.4717315302964505e-12 1.9223122744483483e-12 1.8018420931096181e-12 1.7811368247052307e-12 4.25143257731488e-8 1.239914855944681e-7
          2.578846093280957e-11 7.928446372898651e-11 1.0909725024204328e-11 3.0348846523025436e-12 5.503687732426527e-12 2.180925356021847e-12
          2.1955024178546453e-12 1.5162920372602347e-12 1.5157384166324304e-12 1.4262122828167663e-12 1.4196744789031268e-12 8.373022696508632e-9
          3.12153881647457e-9 6.709634294548868e-11 1.2820034692201643e-11 5.720481957221475e-12 2.0457859071856566e-12 1.443173670231536e-12
          1.360005681533507e-12 1.441010192452452e-9 8.383388481605751e-10 3.860829211763209e-10 1.8413594466736568e-10 6.325947300936624e-11
          1.1029663369635876e-11 3.763610506889192e-12 1.8814923346838685e-12 1.371162544458446e-12 1.3068746880775271e-12 1.255144362434057e-7
          1.94387701113955e-7 1.6100182149990904e-12 6.899355830236755e-12 1.9876036423553965e-12 1.9948512670447303e-12 1.0603072434888769e-12
          1.0639720481689835e-12 9.491118867051346e-13 9.449098243498717e-13 8.481369773883797e-9 2.6913403661606533e-9 1.4268999848812747e-9
          3.051491600125403e-10 1.0617884404066742e-10 1.6333300957691142e-11 7.661377832751854e-12 1.8759224860853493e-12 1.0038809370321479e-12
          8.942188615638441e-13 1.6443059491648915e-9 9.97542604191607e-10 5.448414676219668e-10 2.5907016148307275e-10 7.098642939055961e-11
          1.212776361677421e-11 4.551564338779852e-12 1.7497460804366341e-12 9.40125021215205e-13 8.477299611330791e-13 1.0439374484436142e-10
          9.236769956022862e-11 2.6580915038987082e-11 3.332724523929841e-10 1.2233889748051433e-9 2.7032414638540142e-11 4.0962779705572504e-10
          6.071788027714316e-10 1.6891216280629598e-9 2.8464880086613624e-10 8.047298084871381e-10 4.989782557531472e-10 1.0091455670448237e-9
          1.2157344464395716e-10 2.466522579147129e-10 1.4265006364443233e-10 2.1551544573173537e-10 1.0297974115746318e-10 1.5193128783365003e-9
          3.717310711854686e-10 2.883808278190384e-10 4.845991169310679e-10 4.6803825274278364e-11 4.465082901018682e-11 5.4570254642669547e-11
          5.3730994859768876e-11 1.0727725669622322e-11 1.3915649927407445e-11 1.3125570710340051e-11 4.249783274609529e-11 5.289173507686821e-11
          1.233549149327266e-11 4.346706049391469e-8 1.0681810120434877e-7 1.1553934855741281e-7 1.5593251501222699e-7 1.7706079577702557e-7
          2.0080356123427486e-7 1.9881659502503947e-7 1.3960216109230704e-7 1.7958231487103458e-7 2.0569885072334023e-7 1.663610202306573e-7
          2.208386388222117e-7 1.8131240063855016e-7 1.7482398562761941e-7 8.269483133983312e-13 1.5636083272315496e-12 9.734317062643099e-13
          3.997443209154061e-13 1.4036327852874408e-12 2.300268341064768e-12 3.5158964264941135e-12 2.4075212496594756e-12 1.833833864310572e-12
          4.7315245119234585e-12 2.495492734009121e-8 2.009218863512271e-9 2.900748910654078e-9 3.763039672499687e-9 3.792278957795884e-9
          2.8079379971407377e-11 5.0092028073830903e-11 1.0634718475629868e-11 1.6604199405021077e-11 2.053791637178838e-11 3.6455474826951245e-11
          1.521973623909787e-11 7.210467617625443e-11 2.257368033441228e-11 5.2373033282114105e-11 1.4243858732850516e-10 8.309784954441951e-11
          7.275343550875981e-11 3.061154213589935e-11 5.0559490023035275e-11 7.342830754526367e-9 4.887900798493499e-9 4.364018575134652e-9
          2.524144028284869e-8 1.8260483576562567e-8 2.4329708424606325e-9 1.1279526870276448e-8 2.8665052336934567e-12 2.9700400865803102e-12
          4.097134598201314e-12 3.918509066668649e-12 2.1038545787509955e-12 2.4984763788212856e-12 2.5202715339364476e-12 3.0735749394671634e-12
          3.739883535135985e-12 2.54206668905161e-12 1.1167364962120373e-11 1.0032549190457083e-11 4.425556206642394e-12 8.897733418793794e-12
          9.332368987615686e-11 2.4411262585520043e-10 1.9635674765036486e-10 3.7933795855942844e-11 7.976028757604647e-11 2.5400464783031677e-11
          3.680047403867413e-11 3.7157633138915246e-11 5.7920496227652894e-11 3.421379864187828e-11 1.030183405284056e-9 1.118487117993029e-9
          6.712315288390028e-10 2.1040090927893967e-10 4.8433815429327e-10 7.330807530894951e-10 2.352417754494795e-10 7.849795150986077e-11
          4.847373685579205e-11 6.754290194302228e-11 9.048975445262302e-11 5.817034619224813e-11 5.768116887355798e-9 3.8443061851869004e-9
          5.571184463125429e-9 1.7854547587403103e-8 1.5839075852246248e-8 1.2243202568836663e-8 1.255419137906939e-8 1.920495483018003e-9
          8.647329285427076e-9 7.253835170735681e-9 9.731227163684762e-8 1.5113685182294238e-7 2.069375955735537e-7 6.626938576955343e-8
          1.1453120528219829e-7 5.224292929739429e-8 9.655478215494481e-8 1.4498110076489594e-8 2.064203846535092e-8 1.2225619905696203e-8
          1.6279302479484315e-7 1.4086663501249536e-7 2.6785966854212248e-8 3.8146876575947885e-8 7.668154895131812e-8 5.313874793806842e-9
          6.342681850732041e-9 1.1521622132668836e-7 7.371488907657241e-9 5.813939402687477e-8 5.614853004029753e-8 5.620663287192743e-8
          8.764257822304846e-8 8.727395144139316e-8 8.03839470518112e-8 8.117558502114405e-8 5.72799256260594e-8 8.597307740506555e-8
          7.856417822867911e-8 5.4157666053720286e-8 7.349394266222924e-8 7.470859181923965e-8 7.115527905229267e-8 1.6626166367375693e-7
          1.5796005735961452e-7 1.489905603806962e-7 1.6698015456024433e-7 1.498586477002842e-7 6.73005663720405e-8 6.06740144083259e-8
          8.374444386681154e-8 7.546267470032807e-8 6.306973819158423e-8 8.24016372770526e-8 7.355086459706199e-8 5.4047462444611316e-8
          6.718090553384459e-8 6.470009191707138e-8 1.8856532135726433e-7 1.7591324524620882e-7 1.631820967603432e-7 1.5965219212789008e-7
          1.8010542021312953e-7 1.9303679958408768e-7 1.7304065785532055e-7 2.04780271572635e-7 2.1668555787855707e-7 1.8904287637427525e-7
          1.7394934567970733e-7 2.0591607193184188e-7 1.440960219346567e-7 1.7477284851227118e-7 1.5424473211960939e-7 1.9925923746792433e-7
          1.9971289083349334e-7 2.348143412950466e-7 2.4497088950934325e-7 2.2486610695028675e-7 1.9268636123714714e-7 2.28366623518599e-7
          2.451162430715977e-7 1.2163626852836095e-7 1.1821853501361349e-7 1.405711017850053e-7 1.3461185227750907e-7 1.2439938098425552e-7
          1.462264006043156e-7 9.301349604681364e-8 1.0902462977650596e-7 1.0775413677835453e-7 1.0921150152942654e-7 1.5950593504164964e-7
          1.510051695414046e-7 1.6805342022437568e-7 1.2503576350619827e-7 1.2618958442670528e-7 1.5128692404899412e-7 8.93552168426876e-8
          1.0796907192105449e-7 1.7638426367128296e-7 1.265829269994214e-7 5.721143402482046e-8 5.6737795731567175e-8 8.722856794007418e-8
          8.117642490857611e-8 5.626415743831388e-8 7.512428187707803e-8 1.4611785547880185e-7 1.4029229600760017e-7 1.350869140089206e-7
          1.281114491131427e-7 1.413578133920833e-7 1.4832159719567937e-7 1.2251163266171113e-7 1.4254783459549613e-7 1.559960427649313e-7
          1.6043613846436328e-7 1.1010566008871644e-7 1.3702254760024724e-7 1.652341090732667e-7 1.1034623623808337e-7 1.2258257271177752e-7
          8.938128727288169e-8 1.0016505223322737e-7 1.0312612870322023e-7 1.2730761216730871e-7 1.3481890918547173e-7 1.1094881719357307e-7
          1.1440424555017871e-7 1.2857229982650923e-7 9.248122214639247e-8 1.057165736586583e-7 1.4274035410283973e-7 1.1895192517092414e-7
          1.6075732888779493e-12 1.6061190004414318e-12 1.6059881697470766e-12 1.6033810705704072e-12 1.603958790433487e-12 1.6025247544298662e-12
          1.6032528688620603e-12 1.6042755374659945e-12 1.5514935110917e-12 1.5767687428154174e-12 2.038547679030936e-12 1.6826856161890945e-12
          1.827702908589715e-12 1.6096745784398061e-12 1.6004392869726013e-12 3.7498491572196325e-12 2.274808706309019e-12 2.676789717622229e-12
          1.604289955831939e-12 1.628538535396477e-12 1.473177814530331e-11 5.822414633099129e-12 8.756953705542175e-12 2.0605180433447082e-12
          1.6636675394915574e-12 6.303624875619363e-11 2.1973461469510492e-11 3.6653674453057464e-11 5.29012678754431e-12 3.0941237360372206e-12
          2.8143924011504933e-10 1.6814977517338116e-10 7.200051109404388e-12 2.35679359945188e-11 3.5484894400400276e-11 1.0266512423901038e-11
          1.2948138116731546e-9 8.007189416222433e-10 1.1740963371029596e-10 1.861542577402361e-10 4.001454717806687e-11 6.171030701160638e-9
          3.966800734584039e-9 1.0029704833642428e-9 6.568444390914028e-11 2.433701987210467e-10 3.0597498520472007e-8 1.3591074368627487e-8
          9.817795750303723e-9 2.046748496955072e-8 5.806573848555515e-10 5.045719741592122e-10 2.539413472557331e-10 1.9724872831652891e-10
          3.2334203113846124e-9 5.529404419842872e-9 4.223234907892644e-10 7.213374210563124e-10 1.5289940458203132e-8 2.308392360769332e-8