<?xml version="1.0"?>
<VTKFile type="UnstructuredGrid" version="0.1" byte_order="LittleEndian" header_type="UInt32" compressor="vtkZLibDataCompressor">
  <UnstructuredGrid>
    <Piece NumberOfPoints="1366" NumberOfCells="983">
      <PointData>
        <DataArray type="Int32" Name="libmesh_node_id" format="ascii" RangeMin="2447" RangeMax="10707">
          2646 2656 2657 2658 2659 2666
          2667 2869 3372 3373 3374 3375
          3376 3377 3378 3379 3380 3381
          3382 3383 3384 3385 3400 3401
          3402 3403 3407 3408 3420 3421
          3422 3423 3424 3425 3426 3427
          3428 3429 4653 4654 4655 4658
          4661 4663 4664 4665 4666 4667
          4668 4669 4670 4671 4672 4673
          4674 4675 4676 4679 4680 4683
          4685 4687 4688 4689 4690 4691
          4692 4693 4694 4695 4696 4697
          4698 4699 4700 4704 4705 4707
          4708 4710 4725 4726 4729 4730
          4732 4734 4747 4748 4751 4753
          4755 4756 4757 4758 4759 4760
          4761 4762 4763 4764 4775 4776
          4779 4780 4782 4784 4797 4798
          4800 4803 4805 4806 4807 4808
          4809 4810 4811 4812 4813 4814
          4816 4818 4820 4822 4823 4824
          4825 4826 4827 4828 4831 4832
          4834 4837 4839 4840 4841 4842
          4843 4844 4845 4846 4847 4848
          4850 4852 4854 4856 4857 4858
          4859 4860 4861 4862 4863 4864
          4867 4869 4870 4872 4883 4885
          4887 4889 4897 4898 4901 4903
          4904 4906 4917 4919 4921 4923
          4932 4936 4938 4939 4942 4943
          4963 4967 4969 4970 4973 4974
          4990 4994 5024 5028 5934 5935
          5936 5939 5940 5941 5942 5943
          5944 5945 5946 5947 5948 5949
          8440 8441 8442 8445 8448 8462
          8463 8466 8468 8470 8471 8472
          8473 8474 8475 8476 8477 8478
          8479 8480 8481 8482 8483 8484
          8485 8486 8487 8488 8489 8490
          8491 8492 8493 8494 8495 8496
          8497 8498 8499 8500 8501 8502
          8503 8504 8505 8506 8507 8508
          8509 8510 8511 8512 8513 8514
          8515 8516 8517 8530 8531 8534
          8536 8550 8551 8554 8556 8558
          8559 8560 8561 8562 8563 8564
          8565 8566 8567 8568 8569 8570
          8571 8572 8573 8574 8575 8576
          8577 8578 8579 8580 8581 8582
          8583 8584 8585 8586 8587 8588
          8589 8590 8591 8592 8593 8594
          8595 8596 8597 8598 8599 8600
          8601 8602 8603 8604 8605 8606
          8607 8608 8609 8610 8611 8612
          8613 8614 8615 8619 8620 8622
          8623 8625 8626 8627 8628 8629
          8630 8631 8632 8633 8634 8635
          8636 8637 8640 8641 8643 8645
          8694 8695 8696 8697 8698 8699
          8700 8701 8702 8703 8704 8705
          8708 8709 8711 8713 8714 8715
          8716 8717 8718 8719 8720 8721
          8722 8723 8724 8725 8728 8729
          8731 8733 8786 8787 8790 8792
          8806 8807 8810 8812 8814 8815
          8816 8817 8818 8819 8820 8821
          8822 8823 8824 8825 8826 8827
          8828 8829 8830 8831 8832 8833
          8834 8835 8836 8837 8838 8839
          8840 8841 8842 8843 8844 8845
          8846 8847 8848 8849 8850 8851
          8852 8853 8874 8875 8876 8877
          8878 8879 8880 8881 8882 8883
          8884 8885 8888 8889 8891 8893
          8894 8895 8896 8897 8898 8899
          8900 8901 8902 8903 8904 8905
          8908 8909 8911 8913 8956 8957
          8959 8962 8972 8974 8976 8990
          8991 8993 8996 9006 9008 9010
          9012 9013 9014 9015 9016 9017
          9018 9019 9020 9021 9022 9023
          9024 9025 9026 9027 9028 9029
          9030 9031 9032 9033 9034 9035
          9036 9037 9038 9039 9040 9041
          9042 9043 9044 9045 9046 9047
          9048 9049 9050 9051 9052 9053
          9054 9055 9056 9057 9058 9059
          9060 9061 9062 9063 9064 9065
          9066 9067 9068 9069 9070 9071
          9072 9073 9074 9075 9076 9077
          9078 9079 9088 9090 9092 9102
          9104 9106 9116 9118 9120 9130
          9132 9134 9136 9137 9138 9139
          9140 9141 9142 9143 9144 9145
          9146 9147 9148 9149 9150 9151
          9152 9153 9154 9155 9156 9157
          9158 9159 9160 9161 9162 9163
          9164 9165 9166 9167 9168 9169
          9170 9171 9172 9173 9174 9175
          9176 9177 9178 9179 9180 9181
          9182 9183 9184 9185 9186 9187
          9188 9189 9190 9191 9204 9205
          9207 9210 9220 9222 9224 9238
          9239 9241 9244 9254 9256 9258
          9260 9261 9262 9263 9264 9265
          9266 9267 9268 9269 9270 9271
          9272 9273 9274 9275 9276 9277
          9278 9279 9280 9281 9282 9283
          9284 9285 9286 9287 9288 9289
          9290 9291 9292 9293 9294 9295
          9296 9297 9298 9299 9300 9301
          9302 9303 9304 9305 9306 9307
          9308 9309 9310 9311 9312 9313
          9314 9315 9316 9317 9318 9319
          9320 9321 9322 9323 9324 9325
          9326 9327 9336 9338 9340 9350
          9352 9354 9364 9366 9368 9378
          9380 9382 9384 9385 9386 9387
          9388 9389 9390 9391 9392 9393
          9394 9395 9396 9397 9398 9399
          9400 9401 9402 9403 9404 9405
          9406 9407 9408 9409 9410 9411
          9412 9413 9414 9415 9416 9417
          9418 9419 9420 9421 9422 9423
          9424 9425 9426 9427 9428 9429
          9430 9431 9432 9433 9434 9435
          9436 9437 9438 9439 9440 9441
          9442 9443 9444 9445 9446 9447
          9448 9449 9450 9451 9454 9456
          9457 9459 9460 9461 9462 9463
          9464 9465 9466 9467 9469 9471
          9473 9474 9475 9476 9477 9478
          9479 9480 9481 9482 9483 9484
          9485 9488 9490 9491 9493 9494
          9495 9496 9497 9498 9499 9500
          9501 9503 9505 9507 9576 9577
          9578 9579 9580 9581 9582 9583
          9585 9587 9589 9590 9591 9592
          9593 9594 9595 9596 9597 9599
          9601 9603 9604 9605 9606 9607
          9608 9609 9610 9611 9613 9615
          9617 9618 9619 9620 9621 9622
          9623 9624 9625 9627 9629 9631
          9688 9689 9690 9691 9692 9693
          9694 9695 9696 9697 9698 9699
          9702 9704 9705 9707 9708 9709
          9710 9711 9712 9713 9714 9715
          9717 9719 9721 9722 9723 9724
          9725 9726 9727 9728 9729 9730
          9731 9732 9733 9736 9738 9739
          9741 9742 9743 9744 9745 9746
          9747 9748 9749 9751 9753 9755
          9824 9825 9826 9827 9828 9829
          9830 9831 9833 9835 9837 9838
          9839 9840 9841 9842 9843 9844
          9845 9847 9849 9851 9852 9853
          9854 9855 9856 9857 9858 9859
          9861 9863 9865 9866 9867 9868
          9869 9870 9871 9872 9873 9875
          9877 9879 9944 9946 9948 9958
          9962 9972 9974 9976 9986 9992
          9993 9994 9995 9996 9997 9998
          9999 10000 10001 10002 10003 10004
          10005 10006 10007 10010 10011 10013
          10014 10017 10018 10020 10021 10022
          10023 10024 10025 10026 10027 10028
          10029 10030 10031 10032 10033 10034
          10035 10041 10042 10186 10188 10190
          10214 10216 10218 10234 10235 10236
          10237 10238 10239 10240 10241 10242
          10243 10244 10245 10246 10247 10262
          10263 10264 10265 10266 10267 10268
          10269 10270 10271 10272 10273 10274
          10275 10402 10403 10404 10405 10406
          10407 10408 10409 10411 10413 10415
          10416 10417 10420 10421 10430 10431
          10432 10433 10434 10435 10436 10437
          10439 10441 10443 10444 10445 10653
          10654 10655 10656 10657 10658 10659
          10660 10662 10664 10666 10681 10682
          10683 10684 10685 10686 10687 10688
          10690 10692 10694 2447 2874 2875
          2868 2876 2877 2870 2879 2880
          2452 2660 2882 2873 2663 2450
          2883 2453 3386 3387 3388 3389
          3393 3394 3404 3406 3405 3410
          3411 3414 3415 4701 4702 4703
          4706 4727 4728 4731 4777 4778
          4781 6004 4767 6005 4768 6006
          6007 4952 4773 4954 6011 6012
          6013 6014 5004 3417 5006 8616
          8617 8618 8621 3396 8624 4709
          8638 8639 8642 8644 3397 8706
          8707 8710 8712 4733 8726 8727
          8730 8732 3399 8886 8887 8890
          8892 4783 8906 8907 8910 8912
          9452 9453 9455 4865 9458 4866
          9468 9470 9472 4868 9486 9487
          9489 3430 9492 4871 9502 9504
          9506 3431 9584 9586 9588 4884
          9598 9600 9602 4886 9612 9614
          9616 4888 9626 9628 9630 3434
          9700 9701 9703 4899 9706 4900
          9716 9718 9720 4902 9734 9735
          9737 3436 9740 4905 9750 9752
          9754 3437 9832 9834 9836 4918
          9846 9848 9850 4920 9860 9862
          9864 4922 9874 9876 9878 3439
          10008 9960 10009 10012 4934 4940
          10015 10016 10019 4941 10036 9988
          10037 10038 9990 10039 10040 3440
          4944 10043 10044 10045 10046 10047
          3441 10110 8872 10111 10056 10112
          10113 10120 10121 10122 10123 10248
          10200 10249 10252 10204 10253 10255
          10256 10259 10260 10276 10228 10277
          10280 10232 10281 10283 10284 10287
          10288 10410 10412 10414 4991 10418
          10419 10422 4992 10423 10424 10425
          10426 10427 10428 10429 10438 10440
          10442 4995 10446 10447 10448 10449
          10450 4996 10451 10452 10453 10455
          10456 10457 10517 10518 10519 10520
          10527 10528 10529 10530 10661 10663
          10665 5025 10667 10668 10671 10672
          10674 10675 10678 10679 10689 10691
          10693 5029 10695 10696 10699 10700
          10702 10703 10706 10707
        </DataArray>
        <DataArray type="Float64" Name="bounds" format="ascii" RangeMin="0" RangeMax="0">
          0 0 0 0 0 0
          0 0 0 0 0 0
          0 0 0 0 0 0
          0 0 0 0 0 0
          0 0 0 0 0 0
          0 0 0 0 0 0
          0 0 0 0 0 0
          0 0 0 0 0 0
          0 0 0 0 0 0
          0 0 0 0 0 0
          0 0 0 0 0 0
          0 0 0 0 0 0
          0 0 0 0 0 0
          0 0 0 0 0 0
          0 0 0 0 0 0
          0 0 0 0 0 0
          0 0 0 0 0 0
          0 0 0 0 0 0
          0 0 0 0 0 0
          0 0 0 0 0 0
          0 0 0 0 0 0
          0 0 0 0 0 0
          0 0 0 0 0 0
          0 0 0 0 0 0
          0 0 0 0 0 0
          0 0 0 0 0 0
          0 0 0 0 0 0
          0 0 0 0 0 0
          0 0 0 0 0 0
          0 0 0 0 0 0
          0 0 0 0 0 0
          0 0 0 0 0 0
          0 0 0 0 0 0
          0 0 0 0 0 0
          0 0 0 0 0 0
          0 0 0 0 0 0
          0 0 0 0 0 0
          0 0 0 0 0 0
          0 0 0 0 0 0
          0 0 0 0 0 0
          0 0 0 0 0 0
          0 0 0 0 0 0
          0 0 0 0 0 0
          0 0 0 0 0 0
          0 0 0 0 0 0
          0 0 0 0 0 0
          0 0 0 0 0 0
          0 0 0 0 0 0
          0 0 0 0 0 0
          0 0 0 0 0 0
          0 0 0 0 0 0
          0 0 0 0 0 0
          0 0 0 0 0 0
          0 0 0 0 0 0
          0 0 0 0 0 0
          0 0 0 0 0 0
          0 0 0 0 0 0
          0 0 0 0 0 0
          0 0 0 0 0 0
          0 0 0 0 0 0
          0 0 0 0 0 0
          0 0 0 0 0 0
          0 0 0 0 0 0
          0 0 0 0 0 0
          0 0 0 0 0 0
          0 0 0 0 0 0
          0 0 0 0 0 0
          0 0 0 0 0 0
          0 0 0 0 0 0
          0 0 0 0 0 0
          0 0 0 0 0 0
          0 0 0 0 0 0
          0 0 0 0 0 0
          0 0 0 0 0 0
          0 0 0 0 0 0
          0 0 0 0 0 0
          0 0 0 0 0 0
          0 0 0 0 0 0
          0 0 0 0 0 0
          0 0 0 0 0 0
          0 0 0 0 0 0
          0 0 0 0 0 0
          0 0 0 0 0 0
          0 0 0 0 0 0
          0 0 0 0 0 0
          0 0 0 0 0 0
          0 0 0 0 0 0
          0 0 0 0 0 0
          0 0 0 0 0 0
          0 0 0 0 0 0
          0 0 0 0 0 0
          0 0 0 0 0 0
          0 0 0 0 0 0
          0 0 0 0 0 0
          0 0 0 0 0 0
          0 0 0 0 0 0
          0 0 0 0 0 0
          0 0 0 0 0 0
          0 0 0 0 0 0
          0 0 0 0 0 0
          0 0 0 0 0 0
          0 0 0 0 0 0
          0 0 0 0 0 0
          0 0 0 0 0 0
          0 0 0 0 0 0
          0 0 0 0 0 0
          0 0 0 0 0 0
          0 0 0 0 0 0
          0 0 0 0 0 0
          0 0 0 0 0 0
          0 0 0 0 0 0
          0 0 0 0 0 0
          0 0 0 0 0 0
          0 0 0 0 0 0
          0 0 0 0 0 0
          0 0 0 0 0 0
          0 0 0 0 0 0
          0 0 0 0 0 0
          0 0 0 0 0 0
          0 0 0 0 0 0
          0 0 0 0 0 0
          0 0 0 0 0 0
          0 0 0 0 0 0
          0 0 0 0 0 0
          0 0 0 0 0 0
          0 0 0 0 0 0
          0 0 0 0 0 0
          0 0 0 0 0 0
          0 0 0 0 0 0
          0 0 0 0 0 0
          0 0 0 0 0 0
          0 0 0 0 0 0
          0 0 0 0 0 0
          0 0 0 0 0 0
          0 0 0 0 0 0
          0 0 0 0 0 0
          0 0 0 0 0 0
          0 0 0 0 0 0
          0 0 0 0 0 0
          0 0 0 0 0 0
          0 0 0 0 0 0
          0 0 0 0 0 0
          0 0 0 0 0 0
          0 0 0 0 0 0
          0 0 0 0 0 0
          0 0 0 0 0 0
          0 0 0 0 0 0
          0 0 0 0 0 0
          0 0 0 0 0 0
          0 0 0 0 0 0
          0 0 0 0 0 0
          0 0 0 0 0 0
          0 0 0 0 0 0
          0 0 0 0 0 0
          0 0 0 0 0 0
          0 0 0 0 0 0
          0 0 0 0 0 0
          0 0 0 0 0 0
          0 0 0 0 0 0
          0 0 0 0 0 0
          0 0 0 0 0 0
          0 0 0 0 0 0
          0 0 0 0 0 0
          0 0 0 0 0 0
          0 0 0 0 0 0
          0 0 0 0 0 0
          0 0 0 0 0 0
          0 0 0 0 0 0
          0 0 0 0 0 0
          0 0 0 0 0 0
          0 0 0 0 0 0
          0 0 0 0 0 0
          0 0 0 0 0 0
          0 0 0 0 0 0
          0 0 0 0 0 0
          0 0 0 0 0 0
          0 0 0 0 0 0
          0 0 0 0 0 0
          0 0 0 0 0 0
          0 0 0 0 0 0
          0 0 0 0 0 0
          0 0 0 0 0 0
          0 0 0 0 0 0
          0 0 0 0 0 0
          0 0 0 0 0 0
          0 0 0 0 0 0
          0 0 0 0 0 0
          0 0 0 0 0 0
          0 0 0 0 0 0
          0 0 0 0 0 0
          0 0 0 0 0 0
          0 0 0 0 0 0
          0 0 0 0 0 0
          0 0 0 0 0 0
          0 0 0 0 0 0
          0 0 0 0 0 0
          0 0 0 0 0 0
          0 0 0 0 0 0
          0 0 0 0 0 0
          0 0 0 0 0 0
          0 0 0 0 0 0
          0 0 0 0 0 0
          0 0 0 0 0 0
          0 0 0 0 0 0
          0 0 0 0 0 0
          0 0 0 0 0 0
          0 0 0 0 0 0
          0 0 0 0 0 0
          0 0 0 0 0 0
          0 0 0 0 0 0
          0 0 0 0 0 0
          0 0 0 0 0 0
          0 0 0 0 0 0
          0 0 0 0 0 0
          0 0 0 0 0 0
          0 0 0 0 0 0
          0 0 0 0 0 0
          0 0 0 0 0 0
          0 0 0 0 0 0
          0 0 0 0 0 0
          0 0 0 0 0 0
          0 0 0 0 0 0
          0 0 0 0 0 0
          0 0 0 0 0 0
          0 0 0 0 0 0
          0 0 0 0 0 0
          0 0 0 0 0 0
          0 0 0 0
        </DataArray>
        <DataArray type="Float64" Name="gradient_error" format="ascii" RangeMin="2.940841313391739e-12" RangeMax="2.6325192094223222e-9">
          3.414988827472489e-10 1.1272541997247652e-10 8.675422108259746e-11 9.673570466150745e-11 3.6518770740228596e-11 1.1276039134033808e-9
          7.051456308176893e-10 2.1942135451729222e-11 9.240495149339917e-11 1.3000587290984873e-10 2.0534284712732003e-10 2.177401097046564e-10
          1.1969968207891765e-10 1.5621444637082555e-10 1.3323084574915404e-10 1.6969449411107744e-10 1.7479496362302517e-10 8.274325638573205e-11
          1.8605212942108614e-10 1.467740689121262e-10 7.567256026085857e-11 7.245164448906109e-11 1.2080954386334404e-10 8.114631160657733e-11
          5.5271794227859574e-11 3.726134365404685e-11 2.941885208984123e-11 1.9157385020168412e-11 1.4455194185688883e-9 1.1289379067651762e-9
          9.385393048133943e-10 7.191214906337787e-10 5.252972437359267e-10 3.128127698705632e-10 1.5659091797074383e-9 1.6649040050258885e-9
          1.1324110686676823e-9 1.052363915109197e-9 1.7912479626142413e-10 1.6146524369562515e-10 1.5323691319538306e-10 1.309539796323729e-10
          1.7531885234507308e-10 1.760693518665814e-10 1.6652576250127674e-10 1.1377343621544597e-10 1.0755920308450097e-10 1.1157366294455465e-10
          7.653805980439261e-11 7.250936869577659e-11 1.414659680417487e-10 9.122627717244548e-11 6.17088900876243e-11 1.359350814571801e-10
          1.2796241563276486e-10 9.096463925010531e-11 1.0677546331438561e-10 1.5746368534804257e-10 1.0060669004272034e-10 6.975731604324783e-11
          1.0926461769769547e-10 1.0890893264369534e-10 6.989746506045085e-11 7.362631560590614e-11 4.739107986451382e-11 7.611164075505687e-11
          4.851115898364803e-11 3.291545497418921e-11 7.905399959630767e-11 5.5768601426604266e-11 5.206144720231334e-11 7.76023875579051e-11
          7.374264503926525e-11 5.077861941718518e-11 4.816446802370314e-11 6.31377531967285e-11 4.10714699371028e-11 6.7012219924566e-11
          6.295963310386077e-11 5.224631355746126e-11 4.890223463905923e-11 3.158361273141337e-11 3.4280778951333734e-11 2.194064084881261e-11
          3.836060324579085e-11 2.500492282938175e-11 7.077236241882808e-11 4.451882319466281e-11 3.3399070713508175e-11 4.2949560474811955e-11
          4.884338991545606e-11 3.081700114746981e-11 3.300976155836256e-11 2.0847325611716524e-11 2.8353286134393625e-11 3.0554330975573447e-11
          2.095451469707427e-11 3.0606428516287685e-11 2.1323989743393045e-11 2.7647617911812612e-11 2.18934610446728e-11 1.3860965925981925e-11
          1.2762216821156406e-11 1.3956919215975492e-11 1.4521634966451946e-11 1.2891179150305088e-11 5.585655741625871e-10 5.255853201019135e-10
          4.3734757805774417e-10 1.3587741840496404e-9 4.3041744416710475e-10 4.040774145606693e-10 3.2163485908343207e-10 3.01268437784813e-10
          3.339843945869054e-10 2.4741571353686137e-10 1.1794257161711347e-9 1.1074084272361328e-9 8.787116912278606e-10 9.145807009941395e-10
          3.208794285823508e-10 2.0709562712473796e-10 8.252845951163043e-10 2.42501177701194e-10 1.7795975756014979e-10 1.5455841082573928e-10
          1.1220889209017982e-10 6.596660291378216e-10 5.107854487024129e-10 4.117282503365279e-10 2.6325192094223222e-9 2.47295447995183e-9
          2.0430443715585603e-9 1.6488758807529263e-9 2.1719131824120706e-9 2.038416947881366e-9 1.7676041463014617e-9 1.6682607252671175e-9
          1.6992451632850612e-9 1.4009005390432758e-9 1.3792764613283972e-9 1.4117612749742282e-9 1.142936989195265e-9 1.365858627200456e-9
          1.5109838439648403e-9 9.908664698154429e-10 1.4103719197460632e-9 1.2643515192441786e-9 1.0287686877327779e-9 8.122332371561954e-10
          6.447651543565941e-10 1.1907506214986775e-9 9.89055503051938e-10 8.750361866137798e-10 2.327310825880833e-10 2.1755845428460692e-10
          1.7768518272415052e-10 7.227050976939943e-10 6.742807347640025e-10 5.46314824220609e-10 1.2681016861324585e-10 7.926815644872075e-11
          3.8232674952260797e-10 2.302887937252168e-10 1.4354160261225906e-9 1.3525658224006403e-9 1.1234423101654931e-9 9.344066684152189e-10
          9.53915458771609e-10 9.382568250261718e-10 8.085881005170723e-10 4.948487241366491e-10 7.944545996050413e-10 5.494479265686535e-10
          1.178040527689732e-10 2.8891731723962884e-10 8.678375612542676e-11 6.23261221233536e-11 2.2166226892334887e-10 1.652708951168717e-10
          5.513490497345547e-10 6.392938195458811e-10 4.3954476618756304e-10 3.398421891579315e-10 5.157075149911787e-10 4.0337550120791646e-10
          4.3647977461394e-11 1.1977957946491474e-10 2.5476249804983457e-10 3.0575424048733596e-10 2.981036552433941e-11 6.081876407409753e-11
          5.402669478487975e-11 4.7234625495661973e-11 1.151147015267298e-11 1.3939973644166818e-11 2.3679239057387134e-11 2.3304649480610368e-11
          1.0826734742136298e-11 1.165063757597177e-11 1.376829715639491e-11 1.6368477135660655e-11 2.29300599038336e-11 1.588595673681805e-11
          7.18909833271169e-11 1.0322512283523262e-10 1.0169603252107443e-10 9.730055401333198e-11 1.8330634527674978e-10 6.400646599847603e-11
          9.048075844230487e-11 8.178085340035686e-11 1.6279325273456094e-10 6.128468268712122e-11 6.041119764520477e-11 8.741737929343008e-11
          8.614925306786755e-11 5.073550857686332e-11 7.37656788481956e-11 7.268873125475689e-11 5.788263358883007e-11 8.246868506463413e-11
          6.956413288336985e-11 1.5954970173278525e-10 1.5717655995639455e-10 1.3389558961766843e-10 1.502724081369764e-10 4.285420919201454e-11
          4.2229527727712465e-11 6.181623488198529e-11 6.090604368884506e-11 3.4947190200150256e-11 5.1484441771441e-11 5.07202222857176e-11
          4.0430110545137183e-11 5.826800665630455e-11 4.8507674422481235e-11 1.1505916055332111e-10 1.1331692314079727e-10 9.525858277477188e-11
          1.0825047600130372e-10 5.394725897600483e-11 7.671398936438929e-11 4.526968974718877e-11 6.46825018534105e-11 4.88632771163987e-11
          6.933033151708717e-11 5.842277490175301e-11 1.394437873831203e-10 1.186600191658296e-10 1.255984396263373e-10 3.764705513168484e-11
          5.415153187289785e-11 3.112767755068691e-11 4.50591519092812e-11 3.4065787679707114e-11 4.887871700672612e-11 4.064665180630052e-11
          1.0031303984112549e-10 8.4242353051768e-11 9.018350304662498e-11 5.104393563700717e-11 7.188245571190938e-11 6.143542384975915e-11
          1.2850061739808466e-10 3.655365146832211e-11 5.109879998428755e-11 4.134941588310888e-11 9.025358138335203e-11 4.3034109712551325e-11
          6.089147167740201e-11 3.6083293596147246e-11 5.127339915768385e-11 3.685198313692579e-11 5.1983665847160146e-11 4.37330799397136e-11
          1.0981958452353859e-10 9.324778025709527e-11 9.323596839591004e-11 2.997174453085416e-11 4.286331654650112e-11 2.4752469438011032e-11
          3.5618256617815006e-11 2.5635071061886002e-11 3.652536010624866e-11 3.032558142644721e-11 7.866963772512346e-11 6.594419465315451e-11
          6.66086301722239e-11 3.076553910931197e-11 4.3184989248436457e-11 2.5764676444203128e-11 3.629040066818446e-11 2.4991017727222832e-11
          3.489896848233999e-11 2.9291545464980514e-11 7.688141045034863e-11 6.508445374544629e-11 6.160277090111083e-11 2.1362013276400272e-11
          3.027516487852581e-11 1.7613220546544996e-11 2.511104845292015e-11 1.7317399372774038e-11 2.4406209502902547e-11 2.0220721365400753e-11
          5.475967301968588e-11 4.5788438862519e-11 4.373481395553385e-11 2.9230126206908574e-11 2.8798355242608836e-11 4.263562394505378e-11
          4.1999904851154866e-11 2.3601593898823808e-11 3.509230015436646e-11 3.456759471266194e-11 2.7558543149981664e-11 4.0159856737447046e-11
          3.304858132842728e-11 8.078400053858893e-11 7.954113476815038e-11 6.597445298133292e-11 7.592945683000185e-11 1.945012857576745e-11
          1.9162905819548403e-11 2.8677175118151844e-11 2.8246974120472514e-11 1.833670206705045e-11 2.7001308315603954e-11 5.522575246096232e-11
          5.436565058307153e-11 5.18675939580282e-11 2.5646754274377606e-11 3.7293158673691694e-11 2.1019858835459464e-11 3.068212526830676e-11
          2.3190168358137643e-11 3.36264922222175e-11 2.765554690222242e-11 7.027904567348908e-11 5.824556737583814e-11 6.308239434733398e-11
          1.7061313999292033e-11 2.5060655183564078e-11 1.5420826694893325e-11 2.2579336613913345e-11 4.796343445888453e-11 4.299831012037437e-11
          2.0384633188466958e-11 2.9449746328403526e-11 1.6702032144640147e-11 2.4208434973253665e-11 1.7415743791054864e-11 2.5056569670610585e-11
          2.0584769027174924e-11 5.4922181024734027e-11 4.54507547699924e-11 4.639822176797289e-11 1.3545741194312049e-11 1.9754451717300147e-11
          1.1562965136982926e-11 1.67867827428118e-11 3.737898730992335e-11 3.152178292185638e-11 1.4492319397866197e-11 2.0731773166875706e-11
          1.1866234240843874e-11 1.7020207086320953e-11 1.1729782406295925e-11 1.6679752153011146e-11 1.3683255435799463e-11 3.805052863373808e-11
          3.142626520418369e-11 3.030945371444533e-11 9.612910872150299e-12 1.3869818605743196e-11 7.773177029042208e-12 1.1141825609270165e-11
          2.5799659576862732e-11 2.050758325221751e-11 2.3541361938634693e-11 3.2577741786604715e-11 2.5051947467228212e-11 5.6556141883573365e-11
          1.4057650701833774e-11 1.8708037665171386e-11 1.458644359551981e-11 3.176613935340583e-11 1.977443743281679e-11 2.7455123651348604e-11
          1.653505016659455e-11 2.3015373580891288e-11 1.5322058883802852e-11 2.1076023089815825e-11 1.76327969838087e-11 4.799096620333098e-11
          4.0483101532905796e-11 3.6360994967719306e-11 1.3679037665158007e-11 1.9151886216496747e-11 1.1255562357883164e-11 1.5848572102131158e-11
          1.0566679467529055e-11 1.4648562991028005e-11 1.2105381031623952e-11 3.3951769481725144e-11 2.8307582414977547e-11 2.5618807537034337e-11
          1.1827554586927742e-11 1.5652206948710243e-11 9.861150403334732e-12 1.3051776937552006e-11 1.041357133215314e-11 1.316134062080369e-11
          1.0950027709510989e-11 2.6733438966931674e-11 2.2387653378914548e-11 2.153188537019326e-11 8.144068248774485e-12 1.0826788480643845e-11
          6.688764103508686e-12 8.93492027844094e-12 7.182587715087142e-12 9.079515959415832e-12 7.487881416663775e-12 1.8690521067588294e-11
          1.5533042318456828e-11 1.4933081726554632e-11 9.249916848222125e-12 1.3060292721830743e-11 7.56735350351464e-12 1.0704585343787723e-11
          7.130304726983302e-12 9.963700867422953e-12 8.156790530352339e-12 2.3462812351327068e-11 1.9332918643863663e-11 1.7648593417636044e-11
          6.125023472523592e-12 8.708209630180522e-12 4.71622001388701e-12 6.627170116562459e-12 1.5837630649292112e-11 1.1878706425910268e-11
          5.483987389623833e-12 7.341409340245694e-12 4.478175454379287e-12 6.002559701287284e-12 4.832721610515724e-12 6.144202917932218e-12
          5.020827568917343e-12 1.2832396347366552e-11 1.0541894877434922e-11 1.0235253057104132e-11 3.6215003787988917e-12 4.8697578388683486e-12
          3.1888810137712447e-12 4.0697122777823065e-12 8.608982721379275e-12 6.856595991145987e-12 3.273229131296448e-10 3.2242551446707133e-10
          3.0815715472637914e-10 5.501421914480347e-10 2.8573386254551023e-10 2.5700410040542366e-10 4.869433927926652e-10 9.185208715893907e-10
          9.046356096997582e-10 8.64151731575362e-10 1.4232865544599811e-9 8.00423375458006e-10 7.18547069926548e-10 1.2579012623433934e-9
          2.843158116216907e-10 2.7999764074151437e-10 2.451865914689114e-10 2.41409369211054e-10 2.674248413063253e-10 2.30418273989733e-10
          4.92147827197603e-10 4.845890005870026e-10 4.2368372545963384e-10 4.625645297181363e-10 2.0990385654364726e-10 2.066267799364275e-10
          1.7837997473469565e-10 1.7556050746192844e-10 1.9709673943007215e-10 1.6736623513418813e-10 3.7354721352298777e-10 3.6759626938484086e-10
          3.164217623264943e-10 3.5028368379359356e-10 2.476900970216748e-10 2.1318696128125057e-10 2.2244916882159146e-10 1.911871054468259e-10
          4.279502166791873e-10 3.733087993471457e-10 3.836124423503141e-10 1.8217381583488183e-10 1.5455006088252508e-10 1.6315437379214012e-10
          1.3824292602270502e-10 3.23158648938776e-10 2.775655079664203e-10 2.8857268723468905e-10 8.214708566565584e-10 8.088328916706625e-10
          7.295532534012839e-10 7.181077463567639e-10 7.719901827464593e-10 6.847539668864181e-10 1.3091347367453917e-9 1.2889541459322743e-9
          1.1610320453506255e-9 1.2302245443692605e-9 6.430953228275745e-10 6.327887673939e-10 5.623487225629863e-10 5.531360107091571e-10
          6.027746332691216e-10 5.263312105660268e-10 1.055969599896464e-9 1.0391754525927357e-9 9.232534026323563e-10 9.90210270073032e-10
          7.140201628378932e-10 6.323203097708727e-10 6.396171711625636e-10 5.651338669230762e-10 1.1379751525035229e-9 1.0230013651809611e-9
          1.0195926810200265e-9 5.556590888382602e-10 4.843309277420392e-10 4.954304951447242e-10 4.3079576855121816e-10 9.131518609959061e-10
          8.087134415655097e-10 8.142799008771461e-10 2.2420933686004804e-10 1.8970524420037748e-10 3.8063197915788613e-10 1.5568887935705906e-10
          1.23969927351877e-10 2.619556502266742e-10 6.247318478219629e-10 5.256126168319141e-10 9.813894137924059e-10 4.275853705866085e-10
          3.361597862061229e-10 6.703785638276489e-10 1.9370323741031696e-10 1.6618955471463275e-10 1.6354355388135878e-10 1.400333580536249e-10
          3.330501232858745e-10 2.8927192023530455e-10 2.799678792350328e-10 1.4159103405810542e-10 1.1979330490574375e-10 1.1908637741735751e-10
          1.0058482470495053e-10 2.49368000340274e-10 2.1334408324850374e-10 2.0850802323613958e-10 1.3390382656854416e-10 1.1440555571219095e-10
          1.0635933111790525e-10 9.066513351967529e-11 2.2783875192258005e-10 1.9676056268445867e-10 1.7952665171515426e-10 9.709895638773388e-11
          8.186655654834736e-11 7.679049679520294e-11 6.46230317902137e-11 1.687100577504968e-10 1.4362737405814604e-10 1.3214651660343822e-10
          5.545298062098894e-10 4.885087970456894e-10 4.6492382639865045e-10 4.081328463834813e-10 8.839654191395369e-10 7.904708747311286e-10
          7.406339981717955e-10 4.2697754338509243e-10 3.701872798663441e-10 3.554939022365599e-10 3.071940812341184e-10 7.013824605184463e-10
          6.17204793277674e-10 5.828853387043197e-10 3.7670849703523147e-10 3.294010332411559e-10 2.9489096355159823e-10 2.5679860277842823e-10
          5.988805316762511e-10 5.309037380918329e-10 4.668420498548659e-10 2.858411077803077e-10 2.46136946647534e-10 2.21978163364352e-10
          1.9046242456030372e-10 4.669048605264962e-10 4.0728406542473297e-10 3.6029681206627974e-10 2.1314548576572953e-9 2.0958505354530104e-9
          1.9935610436933217e-9 2.5920759589518135e-9 1.8372097110928446e-9 1.643753844647155e-9 2.2836262600340937e-9 2.161584636891484e-9
          2.155815971591911e-9 2.128286977443974e-9 1.5913342438653757e-9 2.054969363448003e-9 1.916435122152395e-9 1.691099340165435e-9