<?xml version="1.0"?>
<VTKFile type="UnstructuredGrid" version="0.1" byte_order="LittleEndian" header_type="UInt32" compressor="vtkZLibDataCompressor">
  <UnstructuredGrid>
    <Piece NumberOfPoints="1626" NumberOfCells="1027">
      <PointData>
        <DataArray type="Int32" Name="libmesh_node_id" format="ascii" RangeMin="2318" RangeMax="7566">
          2318 2320 2438 2443 2445 2596
          2599 2604 2605 2606 2608 2609
          2610 2611 2612 2613 2614 2616
          2617 2618 2619 2620 2621 2644
          2645 2652 2653 3057 3058 3061
          3063 3133 3160 3161 3162 3163
          3166 3167 3168 3169 3170 3171
          3172 3173 3176 3177 3178 3179
          3194 3195 3196 3197 3198 3199
          3200 3201 3202 3203 3204 3205
          3206 3207 3208 3209 3210 3211
          3212 3213 3214 3215 3216 3217
          3218 3219 3220 3221 3222 3223
          3224 3225 3226 3227 3228 3229
          3230 3231 3232 3233 3234 3235
          3236 3237 3238 3239 3240 3241
          3242 3243 3244 3245 3246 3247
          3248 3249 3250 3251 3252 3253
          3254 3255 3256 3257 3258 3259
          3260 3261 3262 3263 3264 3265
          3266 3267 3268 3269 3270 3271
          3272 3273 3274 3275 3292 3293
          3298 3300 3301 3302 3303 3319
          3323 3325 3327 3338 3339 3340
          3341 3342 3343 3344 3345 3346
          3347 3358 3359 3360 3362 3363
          3364 3978 3979 3980 3981 3982
          3983 3984 3985 3986 3987 3988
          3989 3990 3991 3992 3993 3994
          3995 3996 3997 3998 3999 4000
          4001 4002 4003 4004 4005 4006
          4007 4008 4009 4010 4011 4012
          4013 4014 4015 4016 4017 4018
          4019 4020 4021 4022 4023 4024
          4025 4026 4027 4028 4029 4030
          4031 4032 4033 4034 4035 4036
          4037 4038 4039 4040 4041 4042
          4043 4044 4045 4046 4047 4048
          4049 4050 4051 4052 4053 4054
          4055 4056 4057 4058 4059 4060
          4061 4062 4063 4064 4065 4066
          4067 4068 4069 4070 4071 4072
          4073 4074 4075 4076 4077 4078
          4079 4080 4081 4082 4083 4084
          4085 4086 4087 4088 4089 4090
          4091 4092 4093 4094 4095 4096
          4097 4098 4099 4100 4101 4102
          4103 4104 4105 4106 4107 4108
          4109 4110 4111 4112 4113 4114
          4115 4116 4117 4118 4119 4120
          4121 4122 4123 4124 4125 4126
          4127 4128 4129 4130 4131 4132
          4133 4134 4135 4136 4137 4138
          4139 4140 4141 4142 4143 4144
          4145 4146 4147 4148 4149 4150
          4151 4152 4153 4154 4155 4156
          4157 4158 4159 4160 4161 4162
          4163 4164 4165 4166 4167 4168
          4169 4170 4171 4172 4173 4174
          4175 4176 4177 4178 4179 4180
          4181 4182 4183 4184 4185 4186
          4187 4188 4189 4190 4191 4192
          4193 4194 4195 4196 4197 4198
          4199 4200 4201 4202 4203 4204
          4205 4206 4207 4208 4209 4210
          4211 4212 4213 4214 4215 4216
          4217 4218 4219 4220 4221 4222
          4223 4224 4225 4226 4227 4228
          4229 4230 4231 4232 4233 4234
          4235 4236 4237 4238 4239 4240
          4241 4242 4243 4244 4245 4246
          4247 4248 4249 4250 4251 4252
          4253 4254 4255 4256 4257 4258
          4259 4260 4261 4262 4263 4264
          4265 4266 4267 4268 4269 4270
          4271 4272 4273 4274 4275 4276
          4277 4278 4279 4280 4281 4282
          4283 4284 4285 4286 4287 4288
          4289 4290 4291 4292 4293 4294
          4295 4296 4297 4298 4299 4300
          4301 4302 4303 4304 4305 4306
          4307 4308 4309 4310 4311 4312
          4313 4314 4315 4316 4317 4318
          4319 4320 4321 4322 4323 4324
          4325 4330 4331 4332 4333 4334
          4335 4336 4437 4438 4439 4440
          4441 4442 4443 4444 4445 4446
          4447 4448 4449 4450 4451 4452
          4453 4454 4455 4456 4457 4458
          4459 4460 4461 4462 4463 4466
          4467 4468 4469 4470 4471 4472
          4473 4474 4475 4476 4477 4478
          4479 4480 4481 4482 4483 4484
          4485 4486 4487 4488 4489 4490
          4491 4492 4493 4494 4495 4496
          4497 4498 4499 4500 4501 4502
          4571 4572 4573 4580 4581 4582
          4583 4584 4585 4586 6305 6306
          6307 6308 6309 6310 6311 6312
          6313 6314 6315 6316 6317 6318
          6319 6320 6321 6322 6323 6324
          6325 6326 6327 6328 6329 6330
          6331 6332 6333 6334 6335 6336
          6337 6338 6339 6340 6341 6342
          6343 6344 6345 6346 6347 6348
          6349 6350 6351 6352 6353 6354
          6355 6356 6357 6358 6359 6360
          6361 6362 6363 6364 6365 6366
          6367 6368 6369 6370 6371 6372
          6373 6374 6375 6376 6377 6378
          6379 6380 6381 6382 6383 6384
          6385 6386 6387 6388 6389 6390
          6391 6392 6393 6394 6395 6396
          6397 6398 6399 6400 6401 6402
          6403 6404 6405 6406 6407 6408
          6409 6410 6411 6412 6413 6414
          6415 6416 6417 6418 6419 6420
          6421 6422 6423 6424 6425 6426
          6427 6428 6429 6430 6431 6432
          6433 6434 6435 6436 6437 6438
          6439 6440 6441 6442 6443 6444
          6445 6446 6447 6448 6449 6450
          6451 6452 6453 6454 6455 6456
          6457 6458 6459 6460 6461 6462
          6463 6464 6465 6466 6467 6468
          6469 6470 6471 6472 6473 6474
          6475 6476 6477 6478 6479 6480
          6481 6482 6483 6484 6485 6486
          6487 6488 6489 6490 6491 6492
          6493 6494 6495 6496 6497 6498
          6499 6500 6501 6502 6503 6504
          6505 6506 6507 6508 6509 6510
          6511 6512 6513 6514 6515 6516
          6517 6518 6519 6520 6521 6522
          6523 6524 6525 6526 6527 6528
          6529 6530 6531 6532 6533 6534
          6535 6536 6537 6538 6539 6540
          6541 6542 6543 6544 6545 6546
          6547 6548 6549 6550 6551 6552
          6553 6554 6555 6556 6557 6558
          6559 6560 6561 6562 6563 6564
          6565 6566 6567 6568 6569 6570
          6571 6572 6573 6574 6575 6576
          6577 6578 6579 6580 6581 6582
          6583 6584 6585 6586 6587 6588
          6589 6590 6591 6592 6593 6594
          6595 6596 6597 6598 6599 6600
          6601 6602 6603 6604 6605 6606
          6607 6608 6609 6610 6611 6612
          6613 6614 6615 6616 6617 6618
          6619 6620 6621 6622 6623 6624
          6625 6626 6627 6628 6629 6630
          6631 6632 6633 6634 6635 6636
          6637 6638 6639 6640 6641 6642
          6643 6644 6645 6646 6647 6648
          6649 6650 6651 6652 6653 6654
          6655 6656 6657 6658 6659 6660
          6661 6662 6663 6664 6665 6666
          6667 6668 6669 6670 6671 6672
          6673 6674 6675 6676 6677 6678
          6679 6680 6681 6682 6683 6684
          6685 6686 6687 6688 6689 6690
          6691 6692 6693 6694 6695 6696
          6697 6698 6699 6700 6701 6702
          6703 6704 6705 6706 6707 6708
          6709 6710 6711 6712 6713 6714
          6715 6716 6717 6718 6719 6720
          6721 6722 6723 6724 6725 6726
          6727 6728 6729 6730 6731 6732
          6733 6734 6735 6736 6737 6738
          6739 6740 6741 6742 6743 6744
          6745 6746 6747 6748 6749 6750
          6751 6752 6753 6754 6755 6756
          6757 6758 6759 6760 6761 6762
          6763 6764 6765 6766 6767 6768
          6769 6770 6771 6772 6773 6774
          6775 6776 6777 6778 6779 6780
          6781 6782 6783 6784 6785 6786
          6787 6788 6789 6790 6791 6792
          6793 6794 6795 6796 6797 6798
          6799 6800 6801 6802 6803 6804
          6805 6806 6807 6808 6809 6810
          6811 6812 6813 6814 6815 6816
          6817 6818 6819 6820 6821 6822
          6823 6824 6825 6826 6827 6828
          6829 6830 6831 6832 6833 6834
          6835 6836 6837 6838 6839 6840
          6841 6842 6843 6844 6845 6846
          6847 6848 6849 6850 6851 6852
          6853 6854 6855 6856 6857 6858
          6859 6860 6861 6862 6863 6864
          6865 6866 6867 6868 6869 6870
          6871 6872 6873 6874 6875 6876
          6877 6878 6879 6880 6881 6882
          6883 6884 6885 6886 6887 6888
          6889 6890 6891 6892 6893 6894
          6895 6896 6897 6898 6899 6900
          6901 6902 6903 6904 6905 6906
          6907 6908 6909 6910 6911 6912
          6913 6914 6915 6916 6917 6918
          6919 6920 6921 6922 6923 6924
          6925 6926 6927 6928 6929 6930
          6931 6932 6933 6934 6935 6936
          6937 6938 6939 6940 6941 6942
          6943 6944 6945 6946 6947 6948
          6949 6950 6951 6952 6953 6954
          6955 6956 6957 6958 6959 6960
          6961 6962 6963 6964 6965 6966
          6967 6968 6969 6970 6971 6972
          6973 6974 6975 6976 6977 6978
          6979 6980 6981 6982 6983 6984
          6985 6986 6987 6988 6989 6990
          6991 6992 6993 6994 6995 6996
          6997 6998 6999 7000 7001 7002
          7003 7004 7005 7006 7007 7008
          7009 7010 7011 7012 7013 7014
          7015 7016 7017 7018 7019 7020
          7021 7022 7023 7024 7025 7026
          7027 7028 7029 7030 7031 7032
          7033 7034 7035 7036 7037 7038
          7039 7040 7041 7042 7043 7044
          7045 7046 7047 7048 7049 7050
          7051 7052 7053 7054 7055 7056
          7057 7058 7059 7060 7363 7364
          7365 7366 7367 7368 7369 7370
          7371 7372 7373 7374 7375 7376
          7377 7378 7379 7380 7381 7382
          7383 7384 7385 7386 7387 7388
          7389 7390 7391 7392 7393 7394
          7395 7396 7397 7398 7399 7400
          7401 7402 7403 7404 7405 7406
          7407 7408 7409 7410 7411 7412
          7413 7414 7415 7416 7417 7418
          7419 7420 7421 7422 7423 7424
          7425 7426 7427 7428 7429 7430
          7431 7432 7433 7434 7435 7436
          7437 7438 7439 7440 7441 7442
          7443 7444 7445 7446 7447 7448
          7449 7450 7451 7452 7453 7454
          7455 7456 7457 7458 7459 7460
          7461 7462 7463 7464 7465 7466
          7467 7468 7469 7470 7471 7472
          7473 7474 7475 7476 7477 7478
          7479 7480 7481 7482 7483 7484
          7485 7486 7487 7488 7489 7490
          7491 7492 7493 7494 7495 7496
          7497 7498 7499 7500 7501 7502
          7503 7504 7505 7506 7507 7508
          7509 7510 7511 7512 7513 7514
          7515 7516 7517 7518 7519 7520
          7521 7522 7523 7524 7525 7526
          7527 7528 7529 7530 7531 7532
          7533 7534 7535 7536 7537 7538
          7539 7540 7541 7542 7543 7544
          7545 7546 7547 7548 7549 7550
          7551 7552 7553 7554 7555 7556
          7557 7558 7559 7560 7561 7562
          7563 7564 7565 7566 2436 2615
          2632 2624 2603 2633 2625 2439
          2634 2635 2444 2639 2630 2640
          2849 2856 2857 2850 2435 2598
          2859 2860 2862 2853 2863 3041
          2571 3043 3042 3055 3056 2572
          3044 3060 3059 3047 3048 2576
          3062 3053 2578 3064 3111 3114
          3115 3112 3119 3121 3120 3125
          3126 3134 3128 3129 3135 3122
          3164 2597 3165 3136 3174 2600
          3175 3180 3078 3184 3083 3181
          3185 3187 3191 3188 3192 3127
          3132 3152 3153 3156 3158 3190
        </DataArray>
        <DataArray type="Float64" Name="bounds" format="ascii" RangeMin="0" RangeMax="0">
          0 0 0 0 0 0
          0 0 0 0 0 0
          0 0 0 0 0 0
          0 0 0 0 0 0
          0 0 0 0 0 0
          0 0 0 0 0 0
          0 0 0 0 0 0
          0 0 0 0 0 0
          0 0 0 0 0 0
          0 0 0 0 0 0
          0 0 0 0 0 0
          0 0 0 0 0 0
          0 0 0 0 0 0
          0 0 0 0 0 0
          0 0 0 0 0 0
          0 0 0 0 0 0
          0 0 0 0 0 0
          0 0 0 0 0 0
          0 0 0 0 0 0
          0 0 0 0 0 0
          0 0 0 0 0 0
          0 0 0 0 0 0
          0 0 0 0 0 0
          0 0 0 0 0 0
          0 0 0 0 0 0
          0 0 0 0 0 0
          0 0 0 0 0 0
          0 0 0 0 0 0
          0 0 0 0 0 0
          0 0 0 0 0 0
          0 0 0 0 0 0
          0 0 0 0 0 0
          0 0 0 0 0 0
          0 0 0 0 0 0
          0 0 0 0 0 0
          0 0 0 0 0 0
          0 0 0 0 0 0
          0 0 0 0 0 0
          0 0 0 0 0 0
          0 0 0 0 0 0
          0 0 0 0 0 0
          0 0 0 0 0 0
          0 0 0 0 0 0
          0 0 0 0 0 0
          0 0 0 0 0 0
          0 0 0 0 0 0
          0 0 0 0 0 0
          0 0 0 0 0 0
          0 0 0 0 0 0
          0 0 0 0 0 0
          0 0 0 0 0 0
          0 0 0 0 0 0
          0 0 0 0 0 0
          0 0 0 0 0 0
          0 0 0 0 0 0
          0 0 0 0 0 0
          0 0 0 0 0 0
          0 0 0 0 0 0
          0 0 0 0 0 0
          0 0 0 0 0 0
          0 0 0 0 0 0
          0 0 0 0 0 0
          0 0 0 0 0 0
          0 0 0 0 0 0
          0 0 0 0 0 0
          0 0 0 0 0 0
          0 0 0 0 0 0
          0 0 0 0 0 0
          0 0 0 0 0 0
          0 0 0 0 0 0
          0 0 0 0 0 0
          0 0 0 0 0 0
          0 0 0 0 0 0
          0 0 0 0 0 0
          0 0 0 0 0 0
          0 0 0 0 0 0
          0 0 0 0 0 0
          0 0 0 0 0 0
          0 0 0 0 0 0
          0 0 0 0 0 0
          0 0 0 0 0 0
          0 0 0 0 0 0
          0 0 0 0 0 0
          0 0 0 0 0 0
          0 0 0 0 0 0
          0 0 0 0 0 0
          0 0 0 0 0 0
          0 0 0 0 0 0
          0 0 0 0 0 0
          0 0 0 0 0 0
          0 0 0 0 0 0
          0 0 0 0 0 0
          0 0 0 0 0 0
          0 0 0 0 0 0
          0 0 0 0 0 0
          0 0 0 0 0 0
          0 0 0 0 0 0
          0 0 0 0 0 0
          0 0 0 0 0 0
          0 0 0 0 0 0
          0 0 0 0 0 0
          0 0 0 0 0 0
          0 0 0 0 0 0
          0 0 0 0 0 0
          0 0 0 0 0 0
          0 0 0 0 0 0
          0 0 0 0 0 0
          0 0 0 0 0 0
          0 0 0 0 0 0
          0 0 0 0 0 0
          0 0 0 0 0 0
          0 0 0 0 0 0
          0 0 0 0 0 0
          0 0 0 0 0 0
          0 0 0 0 0 0
          0 0 0 0 0 0
          0 0 0 0 0 0
          0 0 0 0 0 0
          0 0 0 0 0 0
          0 0 0 0 0 0
          0 0 0 0 0 0
          0 0 0 0 0 0
          0 0 0 0 0 0
          0 0 0 0 0 0
          0 0 0 0 0 0
          0 0 0 0 0 0
          0 0 0 0 0 0
          0 0 0 0 0 0
          0 0 0 0 0 0
          0 0 0 0 0 0
          0 0 0 0 0 0
          0 0 0 0 0 0
          0 0 0 0 0 0
          0 0 0 0 0 0
          0 0 0 0 0 0
          0 0 0 0 0 0
          0 0 0 0 0 0
          0 0 0 0 0 0
          0 0 0 0 0 0
          0 0 0 0 0 0
          0 0 0 0 0 0
          0 0 0 0 0 0
          0 0 0 0 0 0
          0 0 0 0 0 0
          0 0 0 0 0 0
          0 0 0 0 0 0
          0 0 0 0 0 0
          0 0 0 0 0 0
          0 0 0 0 0 0
          0 0 0 0 0 0
          0 0 0 0 0 0
          0 0 0 0 0 0
          0 0 0 0 0 0
          0 0 0 0 0 0
          0 0 0 0 0 0
          0 0 0 0 0 0
          0 0 0 0 0 0
          0 0 0 0 0 0
          0 0 0 0 0 0
          0 0 0 0 0 0
          0 0 0 0 0 0
          0 0 0 0 0 0
          0 0 0 0 0 0
          0 0 0 0 0 0
          0 0 0 0 0 0
          0 0 0 0 0 0
          0 0 0 0 0 0
          0 0 0 0 0 0
          0 0 0 0 0 0
          0 0 0 0 0 0
          0 0 0 0 0 0
          0 0 0 0 0 0
          0 0 0 0 0 0
          0 0 0 0 0 0
          0 0 0 0 0 0
          0 0 0 0 0 0
          0 0 0 0 0 0
          0 0 0 0 0 0
          0 0 0 0 0 0
          0 0 0 0 0 0
          0 0 0 0 0 0
          0 0 0 0 0 0
          0 0 0 0 0 0
          0 0 0 0 0 0
          0 0 0 0 0 0
          0 0 0 0 0 0
          0 0 0 0 0 0
          0 0 0 0 0 0
          0 0 0 0 0 0
          0 0 0 0 0 0
          0 0 0 0 0 0
          0 0 0 0 0 0
          0 0 0 0 0 0
          0 0 0 0 0 0
          0 0 0 0 0 0
          0 0 0 0 0 0
          0 0 0 0 0 0
          0 0 0 0 0 0
          0 0 0 0 0 0
          0 0 0 0 0 0
          0 0 0 0 0 0
          0 0 0 0 0 0
          0 0 0 0 0 0
          0 0 0 0 0 0
          0 0 0 0 0 0
          0 0 0 0 0 0
          0 0 0 0 0 0
          0 0 0 0 0 0
          0 0 0 0 0 0
          0 0 0 0 0 0
          0 0 0 0 0 0
          0 0 0 0 0 0
          0 0 0 0 0 0
          0 0 0 0 0 0
          0 0 0 0 0 0
          0 0 0 0 0 0
          0 0 0 0 0 0
          0 0 0 0 0 0
          0 0 0 0 0 0
          0 0 0 0 0 0
          0 0 0 0 0 0
          0 0 0 0 0 0
          0 0 0 0 0 0
          0 0 0 0 0 0
          0 0 0 0 0 0
          0 0 0 0 0 0
          0 0 0 0 0 0
          0 0 0 0 0 0
          0 0 0 0 0 0
          0 0 0 0 0 0
          0 0 0 0 0 0
          0 0 0 0 0 0
          0 0 0 0 0 0
          0 0 0 0 0 0
          0 0 0 0 0 0
          0 0 0 0 0 0
          0 0 0 0 0 0
          0 0 0 0 0 0
          0 0 0 0 0 0
          0 0 0 0 0 0
          0 0 0 0 0 0
          0 0 0 0 0 0
          0 0 0 0 0 0
          0 0 0 0 0 0
          0 0 0 0 0 0
          0 0 0 0 0 0
          0 0 0 0 0 0
          0 0 0 0 0 0
          0 0 0 0 0 0
          0 0 0 0 0 0
          0 0 0 0 0 0
          0 0 0 0 0 0
          0 0 0 0 0 0
          0 0 0 0 0 0
          0 0 0 0 0 0
          0 0 0 0 0 0
          0 0 0 0 0 0
          0 0 0 0 0 0
          0 0 0 0 0 0
          0 0 0 0 0 0
          0 0 0 0 0 0
          0 0 0 0 0 0
          0 0 0 0 0 0
          0 0 0 0 0 0
          0 0 0 0 0 0
          0 0 0 0 0 0
          0 0 0 0 0 0
          0 0 0 0 0 0
          0 0 0 0 0 0
          0 0 0 0 0 0
          0 0 0 0 0 0
        </DataArray>
        <DataArray type="Float64" Name="gradient_error" format="ascii" RangeMin="1.9666077944722788e-10" RangeMax="6.479615098158708e-8">
          2.8246136722196654e-9 1.1312644939755653e-9 5.036169224302633e-9 4.951239880090156e-10 2.7211680810639882e-8 3.3880688447516276e-8
          3.3916890281712236e-8 1.9666077944722788e-10 4.131045794534009e-8 4.935067830042016e-8 9.885581915848444e-9 6.978786599361309e-9
          3.063645355328045e-8 3.167019955914486e-8 3.481339605758775e-9 2.34408252978792e-8 2.4113987756725248e-8 2.4478780081874985e-8
          1.31519366427096e-8 8.154692826057311e-10 3.562933827181015e-8 1.746760020807897e-8 4.2782160530934985e-8 1.0759829553511674e-8
          1.8898240598411048e-8 1.440534202851557e-9 3.425627381677263e-8 4.1677038445382856e-8 4.6504855341520067e-8 2.1673050490672526e-8
          2.0894222784067648e-8 3.426079939800716e-8 2.7609572495083157e-8 3.481061547814168e-8 6.906534255188801e-9 2.883168031450587e-8
          2.713536475000853e-10 5.137015251285657e-9 5.816851158019726e-9 3.765619526925102e-8 7.890849351174042e-9 2.8672629506305893e-8
          8.966318689352296e-9 2.099716748623018e-8 3.4517443294704646e-10 1.0219234560514182e-9 9.86253097391866e-10 4.529800469504595e-8
          1.3892393069789773e-8 1.2506893764164339e-8 3.2946767514813244e-8 2.95682171243773e-8 9.802768086664767e-9 2.9313261798173102e-8
          2.6141500047301545e-8 9.111758175827145e-9 2.1147171645115637e-8 1.8273024291763257e-8 3.2784158742870005e-8 2.927333243170031e-8
          2.713181271515935e-8 3.4187512725195455e-8 8.186910848266039e-9 7.283829121681912e-9 2.501431081876775e-8 2.2137685900561408e-8
          5.14760357303642e-9 2.0309977801138066e-8 1.7724936413325378e-8 5.2012739418426e-9 1.5157339987866422e-8 1.1839178312630424e-8
          2.7475213493115488e-8 2.4134045486685594e-8 2.04569921669108e-8 2.8170462120448636e-8 5.547907007561357e-9 1.191535264342617e-8
          4.288063357808878e-9 9.938975635057341e-9 3.993692122007326e-9 7.726028730562416e-9 6.301640983018155e-9 3.130065091147308e-8
          2.8717403408570198e-8 1.9620777568986487e-8 3.14236296971294e-9 8.001728397799392e-9 2.175269863393354e-9 6.150350829018845e-9
          2.262925450838465e-9 4.949837802221011e-9 2.917582324094387e-9 2.540182952566871e-8 2.180064220816845e-8 1.4859297367366922e-8
          1.005690362608626e-8 1.1053854254974719e-8 1.1124948773695275e-8 9.984434728617241e-9 4.452864951906397e-8 3.500479901404108e-8
          6.537390501842786e-10 1.1509780905322482e-9 1.41760390883049e-9 5.2988176206532666e-8 1.1919045634051661e-8 1.0396357353644885e-8
          1.2196168403989644e-8 1.2713151204201425e-8 2.4386993244084812e-8 2.2746065427219498e-8 9.82274992693962e-10 1.675024618825576e-9
          1.8874719608365517e-9 1.7063709799053434e-8 5.455732726262112e-8 4.323340442206867e-8 3.399886984326934e-8 3.1914229444180664e-8
          6.479615098158708e-8 4.5174010758578754e-8 4.021454988768321e-8 3.0358376965057016e-8 2.7038407673636245e-8 2.9252025489922415e-8
          1.849014782216497e-8 2.3499545702318115e-8 2.1539378956995912e-8 3.642220639871454e-8 1.5585113550740005e-8 1.326840648702042e-8
          8.569786365073888e-9 1.8787271178100435e-8 2.4799727153860656e-8 1.7933269436740374e-8 2.829750796232988e-8 4.448440736921783e-9
          1.833966787568475e-9 1.8204699271004396e-8 6.009453280071318e-9 1.1715024342213795e-8 2.193042929640693e-8 1.0379184331174489e-8
          2.3508488756820766e-8 3.79076119303387e-8 3.224952250583061e-8 1.309907825675319e-9 1.9816571247096194e-9 2.0253280373925386e-9
          3.514975027212566e-8 3.2982462963560235e-8 2.2397283265469883e-8 1.2603892826159382e-8 3.778192285758815e-8 3.080392250155864e-8
          1.6069657176654793e-8 6.3436900446157855e-9 7.268037892786529e-9 7.101388932011553e-9 8.427001327958043e-9 6.934739971236576e-9
          8.45420072086619e-9 6.003051344967399e-9 6.037079349324416e-9 6.071107353681432e-9 5.730468654033046e-9 6.241022439807266e-9
          6.470504516527101e-9 5.746965421698737e-9 6.74707362730515e-9 6.699986593246933e-9 8.04145072607672e-9 5.214006986828004e-9
          5.839620101042647e-9 5.06959265511698e-9 6.465233215257292e-9 8.526936863954664e-9 8.463271938798874e-9 8.599673007043138e-9
          1.0544524118069904e-8 1.0986696747885895e-8 1.0792692618090568e-8 1.1282009185964407e-8 1.0598688488295242e-8 1.1874054186255125e-8
          1.1759729632586873e-8 1.2215558283128425e-8 1.1645405078918622e-8 1.271639114865132e-8 1.262122324861716e-8 1.2912245231916043e-8
          1.2526055348583e-8 1.0702099976001817e-8 1.0960875607546562e-8 1.0705029523603804e-8 1.0449183439661044e-8 9.622838761468482e-9
          9.461231741255187e-9 1.0435140460806385e-8 9.243776722198125e-9 1.1248177469362955e-8 1.1030435841306276e-8 1.1863542154036165e-8
          1.1665688843385782e-8 1.0812694213249596e-8 1.1467835532735396e-8 8.729438357931504e-9 9.822754256629897e-9 9.262388228276188e-9
          1.0966591255118821e-8 8.983994409928691e-9 9.891243696089215e-9 8.780060096503025e-9 1.0636792435359372e-8 1.13679202381635e-8
          1.0220281854044982e-8 5.263033584907478e-9 6.0369852664924304e-9 5.562989507660725e-9 5.604028184586433e-9 7.862708944442886e-9
          7.661995295913645e-9 3.7978277635681217e-10 2.5070317210206916e-9 6.47189278202903e-10 6.484740465029482e-9 3.3272704410628706e-9
          4.6666596654374364e-9 9.381605360893055e-10 3.6512523396486404e-9 8.250086002652926e-9 8.788297812601853e-9 2.098208863652262e-10
          5.023495937179458e-10 4.0363896277807284e-10 5.522893650664268e-9 8.909682389575956e-9 9.666703440989593e-9 8.898362248756324e-9
          9.64989574777591e-9 8.835370369223222e-9 9.442163185889968e-9 9.016664401009623e-9 1.0390377637296504e-8 1.1080826835752943e-8
          1.027807184643404e-8 1.0923116969158616e-8 1.0143962839233634e-8 1.0793733433342385e-8 1.0335861838823095e-8 1.2522421071343072e-8
          1.2285657703283364e-8 1.318764571420323e-8 1.2908650644126045e-8 1.2048894335223657e-8 1.2629655574048863e-8 7.389315862285979e-9
          8.483147405906969e-9 7.665834001942924e-9 1.0609881650407912e-8 1.3851827184480892e-8 1.3526979495315937e-8 1.4494255911610292e-8
          1.4142581296112987e-8 1.3202131806150987e-8 1.3453763924877335e-8 8.41963556033139e-9 8.152876965076147e-9 8.699257886495607e-9
          1.0078914196416569e-8 1.2103306477620812e-8 1.2909366155175529e-8 1.1540424607488118e-8 1.1708699689164941e-8 1.0637920964929246e-8
          1.3822734879483329e-8 1.4069751557914241e-8 1.3149318206756563e-8 8.926271159936345e-10 2.415509578199669e-9 9.177007186996228e-10
          1.0908188338151525e-9 6.693067951139123e-9 4.4818870045023106e-9 2.5027720392446854e-10 3.6406130573258776e-10 4.335255796303866e-10
          3.5456566340056503e-9 1.0081865602314096e-9 1.1407974641334886e-9 1.1284932960405605e-9 1.2403987822532937e-9 4.765477814525659e-9
          5.048013047055468e-9 4.1993101885561693e-10 5.401811801833214e-10 6.439017387635772e-10 9.678673213089965e-10 1.0535404968067763e-8
          1.0032751638088112e-8 1.1659603069602938e-8 1.2523395428876544e-8 8.980702116038197e-9 7.155520945466414e-9 1.1778781531717758e-8
          1.0766302034996815e-8 1.1495014650008775e-8 1.3434805392361938e-8 1.4336084516200745e-8 7.698206613356843e-9 8.216562335035241e-9
          1.3720292577967314e-8 1.3363362063025928e-8 1.3051789923319122e-8 1.312526385378953e-8 1.208307614575568e-8 1.3645785609376956e-8
          1.3164830344733803e-8 1.3106222675119932e-8 1.1881226605235726e-8 1.0537238223299296e-8 1.0340979979731809e-8 9.648541938699546e-9
          1.0265754515105261e-8 1.0119338668719487e-8 9.45293089982972e-9 1.3418580497445916e-8 1.2927089744970919e-8 1.2625815869162322e-8
          1.1577798697492825e-8 1.2663125504430394e-8 1.2210190903211695e-8 1.1710918165654588e-8 1.0916417941184994e-8 9.860171445538e-9
          9.530965795369316e-9 9.000344488586273e-9 9.199438730647754e-9 8.957353096396671e-9 8.323297880918515e-9 1.510133138142063e-8
          1.4735692565799701e-8 1.5671930917512644e-8 1.52621108335666e-8 1.365510027705586e-8 1.404426993051977e-8 9.507819429982272e-9
          9.308150001284477e-9 9.888330183582278e-9 1.2252434064056745e-8 1.6184074589662388e-8 1.5711833006668775e-8 1.6589406888166552e-8
          1.6062173078268585e-8 1.4357183417883241e-8 1.4578436692748361e-8 1.0608019355828606e-8 1.0410338366117702e-8 1.0884524046138429e-8
          9.634719229395213e-9 1.182863623151013e-8 1.2041424677858314e-8 1.0717125659087309e-8 1.0846600244297642e-8 1.4380829574219684e-8
          1.3176106475316644e-8 1.3326570114892584e-8 1.2189131081590379e-8 1.2247710709923926e-8 1.0903486751089434e-8 1.0873487302721747e-8
          1.1754036467339661e-8 1.2100989679496352e-8 1.4450121835263167e-8 1.2866265967398662e-9 1.3747651420170787e-9 1.4814284454869868e-9
          1.5418611671497663e-9 5.331835843694135e-9 3.7047288155564656e-9 5.737049916033272e-10 7.478107672352908e-10 8.536926925107809e-10
          1.0476387045827892e-9 1.7004321736788616e-9 1.7358472033121682e-9 1.931012819406158e-9 1.9461668470636556e-9 1.996998638961524e-9
          2.16415244357961e-9 7.341746282048905e-10 9.607796626828958e-10 1.0679330073557536e-9 1.2833752178448084e-9 1.2211119683138042e-8
          1.0985828185814181e-8 1.5241313235813044e-8 1.615974597240389e-8 8.728153616932738e-9 9.244099732281567e-9 1.561519562131599e-8
          9.669479555181074e-9 1.0086787627228787e-8 1.7073057362384056e-8 1.6200898731108046e-8 9.761246247274176e-9 1.0141860816276742e-8
          1.7599913656590924e-8 1.683874245401702e-8 1.6269988142528407e-8 1.69021686814476e-8 1.6307164079458848e-8 1.4669231497353561e-8
          1.4604756278398262e-8 1.1572371900823121e-8 1.128033642737683e-8 1.1563085089257799e-8 1.0249274809668219e-8 1.678357623983519e-8
          1.615634612396566e-8 1.646089043465202e-8 1.5796374008707838e-8 1.4348642138980723e-8 1.3904138096526162e-8 1.2138888956637639e-8
          1.1699742506058293e-8 1.164191571955738e-8 1.0372211340863112e-8 1.2191484938659722e-8 1.1998833033375186e-8 1.0745740713652114e-8
          1.0500312987423948e-8 1.2367627198329701e-8 1.2508970491363368e-8 1.4264582823706877e-8 1.1654317181227447e-8 1.119424060879838e-8
          1.0140466092589583e-8 9.712062607308086e-9 1.2419152968051324e-8 1.4696676704358807e-8 1.4530398930788193e-8 2.1576057058519044e-9
          2.1632514486987034e-9 2.37100670435133e-9 2.380850938078295e-9 2.3467908066307432e-9 2.535153648502255e-9 8.978141143524796e-10
          1.1745360447621875e-9 1.2796754704318488e-9 1.549685521986672e-9 2.578080388415057e-9 2.5966345102227204e-9 2.7869457057892738e-9
          2.8147706944755436e-9 2.7248050990174694e-9 5.444444614658207e-9 1.070079851961786e-9 1.3811800885377339e-9 1.4750115919632575e-9
          1.789961321395778e-9 1.0418961524360383e-8 1.0741025195319153e-8 1.587517319171801e-8 1.638080781851664e-8 1.036219175801156e-8
          1.0638963646202711e-8 1.6599040617234684e-8 1.1002735698168468e-8 1.3727799424696028e-8 1.6591051647667202e-8 1.655731829857019e-8
          1.0957317617997993e-8 1.1216508873081234e-8 1.736532205128244e-8 1.0702210053385558e-8 1.1832836526728371e-8 1.0637614449700193e-8
          1.2963463000071183e-8 1.0858486805930548e-8 1.0980414428409403e-8 9.381084388072337e-9 1.0853420512988371e-8 1.0601008366069795e-8
          8.92278811739221e-9 1.1871876238456598e-8 1.1897823344477523e-8 1.0292419743402708e-8 9.851528008266042e-9 1.288526567098265e-8
          1.2815232260545641e-8 1.1203755098733076e-8 1.1833521327694142e-8 1.1685582017040262e-8 9.706062212199e-9 9.658415199375495e-9
          1.2813622142399913e-8 1.2770155668010727e-8 1.0489336307005788e-8 1.1255550355462452e-8 1.1191655199815633e-8 1.0571925088180494e-8
          1.0567561336570419e-8 9.266854800785219e-9 9.708713735004557e-9 6.655608783649966e-9 1.0150572669223894e-8 8.980888408910969e-9
          9.087607590566183e-9 7.954414188849917e-9 1.5894000323215987e-8 1.52003727271549e-8 1.5077682227338418e-8 1.4366455059331413e-8
          1.3277198255155956e-8 1.3001003196825942e-8 1.2061039135575086e-8 1.1329054382167587e-8 1.0814796021605393e-8 1.4779890579953856e-8
          1.4023104836978596e-8 1.3322304575255897e-8 1.2785651447894569e-8 1.2159477537439645e-8 1.2621504313533196e-8 1.0816639362717637e-8
          1.118700758328093e-8 1.0186909677721222e-8 1.243796627082607e-8 1.393805382930889e-8 1.0651015639089994e-8 1.0356052395078787e-8
          9.254379898961888e-9 9.019550982328563e-9 1.6786008588686887e-8 1.7996725137063984e-8 1.3662371984027597e-8 2.054860168216757e-8