<?xml version="1.0"?>
<VTKFile type="UnstructuredGrid" version="0.1" byte_order="LittleEndian" header_type="UInt32" compressor="vtkZLibDataCompressor">
  <UnstructuredGrid>
    <Piece NumberOfPoints="560" NumberOfCells="276">
      <PointData>
        <DataArray type="Int32" Name="libmesh_node_id" format="ascii" RangeMin="228" RangeMax="4238">
          332 335 339 340 458 459
          461 462 464 465 466 467
          470 471 536 544 594 595
          597 606 607 611 614 616
          617 620 621 623 625 859
          860 861 864 869 870 871
          872 873 874 875 876 877
          878 879 880 882 897 898
          902 905 906 909 911 913
          914 915 916 917 918 919
          920 921 922 955 960 971
          972 975 976 978 980 1244
          1245 1246 1247 1248 1251 1252
          1514 1515 1516 1517 1523 1525
          1526 1527 1528 1529 1530 1620
          1622 1624 1626 1627 1628 1629
          1630 1632 1660 1662 1663 1664
          1666 1667 1668 1669 1670 1671
          1672 1673 1674 1678 1679 1699
          1700 1703 1704 1706 1708 1777
          1779 1780 1783 1786 1790 1813
          1814 1817 1820 1824 1896 1897
          1898 1899 1900 1901 1902 1903
          1904 1905 1906 1907 1910 1911
          1913 1915 2042 2043 2044 2045
          2046 2047 2050 2053 2056 2057
          2058 2059 2060 2061 2062 2063
          2064 2065 2066 2070 2071 2090
          2091 2092 2093 2094 2095 2096
          2097 2098 2101 2102 2948 2949
          2950 2951 2952 2953 2954 2960
          2967 2968 2969 2970 2971 2975
          2981 2982 2983 2995 2996 3080
          3081 3082 3083 3088 3089 3093
          3347 3348 3349 3352 3356 3357
          3358 3359 3360 3361 3362 3365
          3366 3367 3368 3369 3370 3372
          3376 3380 3381 3382 3383 3384
          3385 3386 3387 3388 3389 3390
          3409 3410 3411 3412 3413 3414
          3419 3420 3422 3424 3439 3441
          3442 3443 3445 3448 3452 3590
          3594 3598 3599 3600 3601 3602
          3603 3604 3605 3606 3607 3608
          3610 3614 3618 3619 3620 3621
          3622 3623 3624 3625 3626 3627
          3628 3643 3645 3646 3647 3649
          3652 3656 3671 3673 3674 3675
          3677 3680 3684 4181 4182 4183
          4184 4185 4186 4187 4188 4189
          4190 4191 4192 4193 4194 4195
          4196 4197 4198 4199 4200 4201
          4202 4203 4204 4205 4206 4207
          4208 4209 4210 4211 4212 4213
          4214 4215 4216 4219 4220 4222
          4224 4225 4226 4227 4228 4229
          4230 4231 4232 4234 4236 4238
          333 336 539 271 546 598
          618 619 622 624 228 626
          627 596 628 629 634 601
          473 479 636 480 637 485
          643 463 881 924 930 926
          931 973 974 977 979 1249
          932 1250 1253 936 475 1631
          1661 1665 1681 1682 1520 1684
          1701 1680 1702 1705 1707 1614
          1761 896 1766 1781 1811 1815
          1908 1909 1912 1914 2048 2049
          2051 2052 2054 2055 923 2067
          2068 2069 2072 925 1675 1718
          2099 1787 2100 2103 956 2955
          2956 2957 2958 2959 2961 2962
          2963 2964 2966 2972 2973 2974
          2976 2977 2978 2980 2985 2986
          2989 2991 2992 2984 2994 2998
          3000 3002 2997 3004 3084 3085
          3086 3087 3090 3091 3092 3238
          3242 3350 3351 3353 3246 3354
          3355 1778 3363 3364 3268 3274
          3374 3371 3375 3377 3373 3378
          3379 1782 3405 3406 3407 3408
          3393 3397 3394 1784 3415 3416
          3417 3418 3421 3400 3404 3401
          1785 3423 3427 3428 3440 3431
          1788 3444 3434 3446 3435 3447
          3449 3450 3451 3589 3592 3593
          3595 3591 3596 3597 1812 3609
          3612 3613 3615 3611 3616 3617
          1816 3631 3632 3644 3635 1818
          3648 3650 3651 3653 3654 3655
          1821 3659 3660 3672 3663 1822
          3676 3678 3679 3681 3682 3683
          483 4217 4218 4221 4223 4233
          4235 4237
        </DataArray>
        <DataArray type="Float64" Name="bounds" format="ascii" RangeMin="0" RangeMax="0">
          0 0 0 0 0 0
          0 0 0 0 0 0
          0 0 0 0 0 0
          0 0 0 0 0 0
          0 0 0 0 0 0
          0 0 0 0 0 0
          0 0 0 0 0 0
          0 0 0 0 0 0
          0 0 0 0 0 0
          0 0 0 0 0 0
          0 0 0 0 0 0
          0 0 0 0 0 0
          0 0 0 0 0 0
          0 0 0 0 0 0
          0 0 0 0 0 0
          0 0 0 0 0 0
          0 0 0 0 0 0
          0 0 0 0 0 0
          0 0 0 0 0 0
          0 0 0 0 0 0
          0 0 0 0 0 0
          0 0 0 0 0 0
          0 0 0 0 0 0
          0 0 0 0 0 0
          0 0 0 0 0 0
          0 0 0 0 0 0
          0 0 0 0 0 0
          0 0 0 0 0 0
          0 0 0 0 0 0
          0 0 0 0 0 0
          0 0 0 0 0 0
          0 0 0 0 0 0
          0 0 0 0 0 0
          0 0 0 0 0 0
          0 0 0 0 0 0
          0 0 0 0 0 0
          0 0 0 0 0 0
          0 0 0 0 0 0
          0 0 0 0 0 0
          0 0 0 0 0 0
          0 0 0 0 0 0
          0 0 0 0 0 0
          0 0 0 0 0 0
          0 0 0 0 0 0
          0 0 0 0 0 0
          0 0 0 0 0 0
          0 0 0 0 0 0
          0 0 0 0 0 0
          0 0 0 0 0 0
          0 0 0 0 0 0
          0 0 0 0 0 0
          0 0 0 0 0 0
          0 0 0 0 0 0
          0 0 0 0 0 0
          0 0 0 0 0 0
          0 0 0 0 0 0
          0 0 0 0 0 0
          0 0 0 0 0 0
          0 0 0 0 0 0
          0 0 0 0 0 0
          0 0 0 0 0 0
          0 0 0 0 0 0
          0 0 0 0 0 0
          0 0 0 0 0 0
          0 0 0 0 0 0
          0 0 0 0 0 0
          0 0 0 0 0 0
          0 0 0 0 0 0
          0 0 0 0 0 0
          0 0 0 0 0 0
          0 0 0 0 0 0
          0 0 0 0 0 0
          0 0 0 0 0 0
          0 0 0 0 0 0
          0 0 0 0 0 0
          0 0 0 0 0 0
          0 0 0 0 0 0
          0 0 0 0 0 0
          0 0 0 0 0 0
          0 0 0 0 0 0
          0 0 0 0 0 0
          0 0 0 0 0 0
          0 0 0 0 0 0
          0 0 0 0 0 0
          0 0 0 0 0 0
          0 0 0 0 0 0
          0 0 0 0 0 0
          0 0 0 0 0 0
          0 0 0 0 0 0
          0 0 0 0 0 0
          0 0 0 0 0 0
          0 0 0 0 0 0
          0 0 0 0 0 0
          0 0
        </DataArray>
        <DataArray type="Float64" Name="gradient_error" format="ascii" RangeMin="7.742828228883644e-11" RangeMax="2.386493671507439e-7">
          4.010610137493026e-9 3.9954368745227534e-9 3.1118192135410007e-9 3.0998341884230222e-9 1.0907722735700877e-8 4.917280695004475e-8
          1.4239766708513122e-7 1.3681212058421227e-8 3.8721068361459056e-8 5.787374849566406e-8 4.832653302949994e-8 1.3321407986755354e-8
          1.0177357523746619e-7 1.405180374043804e-8 1.2633701829060157e-9 1.5007339087929087e-9 8.06525185766578e-9 7.89869727292118e-9
          2.44885086069823e-9 8.478035497518231e-9 1.237010199648563e-8 3.4744181744166784e-9 1.6262168495453027e-8 4.719457261450222e-9
          5.732268773200968e-9 1.7687296105850777e-9 1.6428649793877957e-9 6.745080284951713e-9 1.5170003481905134e-9 1.2525142292276957e-8
          1.7465457389655312e-7 1.359796636331834e-7 9.730475336981374e-8 6.915136026820946e-9 8.140408285673316e-9 1.2534964070274315e-7
          9.452503094166512e-8 2.8195468649138196e-9 5.383277771058212e-8 3.9340294163082365e-8 9.365680544525688e-9 6.370042118058709e-8
          1.8046030283777764e-8 2.179179049044027e-7 1.453312753392734e-7 9.004588425038891e-8 1.4027935823545595e-7 6.727255655764924e-8
          2.0487864752034214e-7 1.025294022362078e-7 1.469591064216444e-7 1.846090631021837e-8 1.91388810607081e-7 6.350689028777612e-8
          9.356709415107079e-8 1.7425816704406794e-8 3.660486457587462e-8 1.1028048699847404e-8 8.655077943051787e-9 3.917976656808632e-9
          1.2362729801436546e-7 4.9044797681645e-8 6.282107186256169e-9 2.145563269073608e-9 2.7252560243212513e-9 1.896872009364449e-9
          1.655557871509661e-9 1.81788476912565e-9 1.856612316034035e-9 2.0409979587048005e-9 1.7404634334198862e-9 1.8609265614458258e-9
          2.853691459640533e-9 1.9215212196323495e-9 1.1586020437194533e-9 1.8249652532310919e-9 7.125227038150778e-10 1.1877655217090968e-9
          6.336124496886805e-9 1.821298111498403e-8 1.5830931765672113e-8 1.0934369626131343e-8 5.6736080496710124e-8 4.396186961118009e-9
          6.4775088460173015e-9 4.535160856132111e-9 4.540860513161746e-8 2.5950806996859847e-8 2.7013482087868524e-8 9.431433868659206e-8
          5.5665559457915374e-8 1.7764588216217197e-7 7.958667748725621e-8 6.31697265589548e-8 4.35398957724019e-8 2.3856345346161047e-8
          1.5953653440980585e-7 8.249658649654188e-8 1.9206980024182972e-7 1.204580296612863e-7 6.72604240459154e-8 1.7965606421812387e-7
          1.3598919578642415e-7 9.462685216015906e-9 1.3393785710324023e-8 1.0322184530670916e-8 1.535985565012239e-8 4.035196591967187e-9
          3.411980485199214e-9 9.86485203480678e-9 8.558419796213155e-9 3.1895412766968e-9 6.04066609048611e-9 2.9100014645101845e-9
          4.005764234664565e-9 1.8384306051026777e-9 3.165355069519522e-9 1.0439804321179865e-8 5.462707395500018e-9 2.9588452099022134e-8
          9.92386529008707e-9 1.7890443710497229e-9 1.8201463987460055e-8 7.653485982419696e-10 9.423161273090372e-10 2.628253130490097e-8
          2.2955448936281827e-9 2.997340720208543e-8 1.0512524201371427e-9 1.26630404854037e-9 6.08999867869597e-9 7.837043380007293e-9
          1.832314450419308e-9 1.3151947015780994e-9 4.6720206829235416e-9 6.755333560435414e-9 2.0729436046842535e-9 8.988635324717434e-9
          1.4975876045903146e-9 7.7647029285039e-9 7.156744599965888e-10 4.4420539855719005e-10 4.835781817366333e-10 6.591337411394252e-10
          5.016025982201859e-10 7.340758709579957e-10 2.1320577124622804e-10 3.9962195355265834e-10 3.3121829062553595e-10 2.6281462769841357e-10
          1.8696003095443488e-10 1.4648830059097596e-10 7.977082993572388e-11 1.0601657022751705e-10 4.795090049240548e-10 1.0528791257124196e-9
          7.955812538797486e-10 5.382833820470776e-10 3.882101018803031e-9 5.6898778401545935e-9 4.03763056863441e-9 4.381392274183338e-10
          3.361570492677486e-10 7.438667909701744e-10 5.783775189809031e-10 2.341748711171633e-10 4.128882469916318e-10 2.7590377443678067e-9
          4.140874930835282e-9 1.161365237357878e-9 1.8370286262307076e-9 1.7148376570971397e-9 2.6564574152886466e-9 8.683610209579646e-10
          4.984686533132162e-10 7.667799298975652e-10 2.814854883119103e-10 3.322251202321611e-10 5.08105436790653e-10 6.765721561379933e-10
          6.352792602492054e-10 5.580577228418312e-10 1.4478102330160769e-9 3.8105766098342624e-10 3.5953501364327884e-10 3.1662211174280103e-10
          3.9367825746071654e-10 4.785337636941753e-10 4.349384460651059e-10 1.0405535125557253e-9 2.8336463309060013e-10 2.7149740899872965e-10
          2.7475843597905783e-9 2.6389642219671227e-9 2.3721657772210895e-9 1.9287309893740003e-9 1.3811016000859133e-9 7.42687857973283e-10
          9.43451004473506e-10 7.68173317224675e-10 2.1935544528741564e-9 4.742297709350099e-10 6.29136395953509e-10 1.2511154748083329e-9
          4.21247770789404e-9 2.4675506538334296e-9 7.57526928520525e-9 2.029387409354528e-9 3.6528927647229524e-9 1.0275544878683038e-9
          1.3032000775301617e-9 1.0356519011784805e-9 2.217229373067411e-9 8.098219845939658e-10 1.0670163123665832e-9 6.206448022059538e-10
          7.972730001277978e-10 4.48718334279498e-10 1.840836637270044e-9 1.2151694965936193e-9 1.3384746989203151e-9 7.162376474428729e-9
          6.018754525376467e-9 9.03975081980875e-9 3.5522388948699112e-9 2.8020201235394383e-9 5.0860871553174384e-9 2.975188491840778e-9
          2.007547705274883e-9 2.1612499709785185e-9 1.2556150230730634e-9 4.348118667647334e-9 3.048650547412992e-9 2.529964317857485e-9
          1.965268678507314e-10 2.779591635020308e-10 1.774446725382611e-10 8.073820065085269e-10 5.39429442102538e-10 5.003960633756778e-10
          8.256135701072693e-11 1.167209389562992e-10 3.552676820497152e-10 2.1368770455351642e-10 1.36034410258329e-9 8.295319425949667e-10
          5.540890931217585e-10 2.101188033261231e-9 1.0369128314514713e-9 3.623495573550414e-10 4.548324769325784e-10 1.4801093516219169e-8
          1.264947019816266e-8 1.597085155117097e-8 6.794148013802518e-9 3.578302602958392e-9 8.234795400943297e-9 5.885789473559767e-9
          4.23304309556071e-9 2.8828913389254423e-9 1.8299717320527507e-9 7.2440939669900875e-9 5.3465239829600325e-9 3.552452158729356e-9
          2.1486580691365127e-8 1.842950079375712e-8 1.944258388016971e-8 9.200297150668439e-9 4.910341821022071e-9 9.595989927217462e-9
          8.187562606672995e-9 6.152901256112209e-9 3.998239331336063e-9 2.6107102180761492e-9 8.555193240471345e-9 6.449491354132514e-9
          4.1721364173610955e-9 2.9574440975901273e-9 1.2333964684578598e-9 8.255285647999296e-10 3.774838785209869e-9 1.5650938576637362e-9
          5.421030554856818e-10 6.927472797822399e-10 4.370874618857959e-9 1.7930578828423947e-9 1.2087991144836768e-9 4.589678240221267e-9
          1.876183348891783e-9 7.979406297766196e-10 8.364462088137162e-10 1.2077024515839212e-9 1.4048233219470732e-9 1.1407800290572591e-9
          1.7180188482087084e-9 1.0348243764296643e-9 1.1906851899367147e-9 7.012983665023623e-10 7.987335706230597e-10 8.101763107484599e-10
          8.792136479248777e-10 5.064811266195492e-10 1.452175533355256e-9 9.745130923622867e-10 1.0256689228248373e-9 1.927339577819242e-9
          1.5471265988892275e-9 2.0205856515312923e-9 1.6323177249220694e-9 1.0992578790865797e-9 1.1562483042522873e-9 6.275455574935357e-10
          1.7068303865773916e-9 1.145658348192343e-9 1.209409747956195e-9 4.5344546278665057e-10 5.16318500451576e-10 2.962267064384358e-10
          3.3696039322632774e-10 3.2341663359085637e-10 3.2659192999272797e-10 2.0958738511034861e-10 6.314722794794955e-10 4.1292438033893454e-10
          3.5759911065080146e-10 1.8797382420281283e-10 2.1574350545873048e-10 1.3069668908751648e-10 1.3229483742474311e-10 2.663423328832599e-10
          1.456713145663741e-10 7.145427267733871e-10 4.686927605646718e-10 4.0240644245428383e-10 2.5841624145663055e-10 7.453324327042844e-10
          4.89230840465694e-10 4.1938189000156435e-10 3.0267783776084103e-10 1.6444590325014648e-10 3.161841964698105e-10 1.7144216312951448e-10
          1.3042402997049221e-8 1.758532513255879e-9 6.028288814590071e-10 6.922697362578335e-10 5.753268182496332e-10 2.3909522523941227e-9
          1.3973111493741723e-9 1.6965698336830563e-9 5.198944977473403e-10 1.9958285179919402e-9 1.013779082882349e-9 2.1854569574618907e-10
          2.0548895588680803e-10 7.970555223276334e-10 1.5493380900069242e-10 2.995000379997583e-10 4.520337509268981e-10 2.3655578905254e-9
          4.1864715068679474e-10 4.542784558788689e-10 3.245277305282716e-10 5.284408015188138e-10 3.6101650726021436e-10 8.178642471340571e-10
          3.9750528399215714e-10 1.2872884149904073e-7 7.680657258759989e-8 5.523185562574298e-10 1.1289656279996832e-9 7.979650771110917e-10
          1.7657413885358344e-9 5.216532917181413e-10 4.923120487037277e-10 7.961388587156348e-10 6.226647132112818e-10 2.813197462809384e-10
          4.807707211448241e-10 4.762139717063208e-10 2.804703345249464e-10 1.7915637800902934e-9 4.0548381134631476e-10 1.339272973062074e-7
          2.074056518875403e-7 2.386493671507439e-7 4.3548838193730884e-8 3.6299279950520765e-8 9.034635566768233e-8 2.1920419373403568e-8
          9.238479317936902e-10 6.063546744856044e-10 9.849677990884692e-10 1.2206412788115534e-9 1.0359586929817528e-9 1.485155793695562e-7
          7.360911807666527e-8 1.9284140418623211e-7 1.0317182211245974e-7 6.505354253886583e-8 1.0411666401427267e-7 1.214846063271556e-7
          2.8337339487302194e-10 1.704838989529452e-10 2.4867104691134746e-10 1.91726409850406e-10 2.4552287435665587e-10 2.1459387885228392e-10
          9.142379516065342e-11 9.796946707903187e-11 1.8366488334791196e-10 1.045151389974103e-10 2.1620322008502764e-10 1.2564686465339976e-10
          2.8285944827461676e-10 2.503432099985525e-10 2.1782697172248824e-10 3.0319657838980796e-10 2.6064504097360213e-10 5.111961616549508e-10
          2.1089278068027735e-10 3.114179662739149e-10 3.1230858619233813e-10 1.3853843258069986e-10 3.8736603588937704e-10 5.242091378094508e-10
          4.955375883569451e-10 1.632977502210466e-10 2.931718686330786e-10 2.8076297373167444e-10 4.3552722684496286e-10 2.468150327916764e-10
          1.1865013988352644e-9 1.1338706594001708e-9 1.0017615803373558e-9 3.7242880789343216e-10 1.3160751026871502e-10 2.044049973408272e-10
          3.406692010013781e-10 1.8353400792857192e-10 8.080406722539054e-10 6.873287560066452e-10 2.484726234002433e-9 2.3715914958013397e-9
          2.0823458280516176e-9 6.858304430873461e-9 6.385703136214362e-9 7.489418024155614e-9 5.324236320380805e-9 1.655191891636425e-9
          1.17605357814413e-9 4.070258518290296e-9 4.858006379820545e-9 2.8031186430603196e-9 5.743099156792958e-10 7.88547333735954e-10
          3.2852431666239466e-10 5.211640568123562e-10 3.9555749247957177e-10 1.7891323387339532e-9 1.1594356698638366e-9 6.480489842876529e-9
          5.613249946384931e-9 3.532707454736708e-9 2.4288876950120595e-9 1.3289929431207664e-9 1.065908917887867e-8 6.482265428498797e-9
          4.657803243949672e-9 2.4624463490224826e-9 4.747878257559659e-10 6.789915599630828e-10 2.0125570857802107e-8 1.8087661431268427e-8
          1.0758283526830939e-8 1.2294015536453195e-8 8.098319986102138e-9 4.175380612932692e-9 1.8288205011198067e-8 1.6299877491393255e-8
          1.2724927547752139e-8 6.4771643609166484e-9 2.937718174619093e-10 4.364710347898381e-10 1.8807916198659678e-10 2.852628990963886e-10
          8.948529724442795e-10 1.7049911462700303e-9 6.035394544702716e-10 1.1719882331886857e-9 1.2392765367475422e-10 1.8728173552525971e-10
          8.225689780926214e-11 1.219053139314921e-10 7.742828228883644e-11 4.008930537639274e-10 7.886026496217853e-10 2.6002113599675547e-10
          5.154739586710808e-10 2.2907050097645747e-10 2.965672801008242e-9 2.0747132497673955e-9 9.218435496139943e-10 4.6931468411378374e-9
          3.3331320911587726e-9 1.4379847547458084e-9 1.4123926607842466e-9 6.124067453465736e-10 9.30011408154687e-10 3.9645525640126004e-10
          2.3170043755565428e-10 9.626450388727394e-10 6.263280443827586e-10 2.584967647119679e-8 2.3026586019981976e-8 1.8104767043431225e-8
          9.132769127112015e-9 3.253462272115142e-8 2.9207473631543954e-8 2.331658902377228e-8 1.1646036288474918e-8 3.7686347363271175e-8
          3.387213950506101e-8 2.716121150206726e-8 1.347286608563696e-8 4.0045945367746315e-8 3.582471998467398e-8 2.8582665279511824e-8
          1.4149825257802446e-8 6.7167866584186825e-9 4.832455858293077e-9 2.0394937046207933e-9 8.667372394990446e-9 6.302401388700743e-9
          2.619550069285383e-9 1.373085393456614e-9 8.969401113629206e-10 3.480730453212688e-10 1.771453562731209e-9 1.1607375915253656e-9
          4.4510272845151123e-10 1.0089616660407567e-8 7.3869887531190755e-9 3.0454983641155346e-9 1.06117777483101e-8 7.787159367901849e-9
          3.2021893406393656e-9 2.065514155538537e-9 1.3560310368826152e-9 5.132355362797103e-10 2.1739158387518874e-9 1.4281342655781504e-9
          5.381428559761339e-10 1.1962297194019756e-10 1.3657659782103396e-10 8.387587543860628e-11 1.6813902783698197e-10 1.9134348419178664e-10
          1.0449863653664008e-10 1.999391364114796e-10
        </DataArray>
        <DataArray type="Float64" Name="gradient_matprop_error" format="ascii" RangeMin="0" RangeMax="0">
          0 0 0 0 0 0
          0 0 0 0 0 0
          0 0 0 0 0 0
          0 0 0 0 0 0
          0 0 0 0 0 0
          0 0 0 0 0 0
          0 0 0 0 0 0
          0 0 0 0 0 0
          0 0 0 0 0 0
          0 0 0 0 0 0
          0 0 0 0 0 0
          0 0 0 0 0 0
          0 0 0 0 0 0
          0 0 0 0 0 0
          0 0 0 0 0 0
          0 0 0 0 0 0
          0 0 0 0 0 0
          0 0 0 0 0 0
          0 0 0 0 0 0
          0 0 0 0 0 0
          0 0 0 0 0 0
          0 0 0 0 0 0
          0 0 0 0 0 0
          0 0 0 0 0 0
          0 0 0 0 0 0
          0 0 0 0 0 0
          0 0 0 0 0 0
          0 0 0 0 0 0
          0 0 0 0 0 0
          0 0 0 0 0 0
          0 0 0 0 0 0
          0 0 0 0 0 0
          0 0 0 0 0 0
          0 0 0 0 0 0
          0 0 0 0 0 0
          0 0 0 0 0 0
          0 0 0 0 0 0
          0 0 0 0 0 0
          0 0 0 0 0 0
          0 0 0 0 0 0
          0 0 0 0 0 0
          0 0 0 0 0 0
          0 0 0 0 0 0
          0 0 0 0 0 0
          0 0 0 0 0 0
          0 0 0 0 0 0
          0 0 0 0 0 0
          0 0 0 0 0 0
          0 0 0 0 0 0
          0 0 0 0 0 0
          0 0 0 0 0 0
          0 0 0 0 0 0
          0 0 0 0 0 0
          0 0 0 0 0 0
          0 0 0 0 0 0
          0 0 0 0 0 0
          0 0 0 0 0 0
          0 0 0 0 0 0
          0 0 0 0 0 0
          0 0 0 0 0 0
          0 0 0 0 0 0
          0 0 0 0 0 0
          0 0 0 0 0 0
          0 0 0 0 0 0
          0 0 0 0 0 0
          0 0 0 0 0 0
          0 0 0 0 0 0
          0 0 0 0 0 0
          0 0 0 0 0 0
          0 0 0 0 0 0
          0 0 0 0 0 0
          0 0 0 0 0 0
          0 0 0 0 0 0
          0 0 0 0 0 0
          0 0 0 0 0 0
          0 0 0 0 0 0
          0 0 0 0 0 0
          0 0 0 0 0 0
          0 0 0 0 0 0
          0 0 0 0 0 0
          0 0 0 0 0 0
          0 0 0 0 0 0
          0 0 0 0 0 0
          0 0 0 0 0 0
          0 0 0 0 0 0
          0 0 0 0 0 0
          0 0 0 0 0 0
          0 0 0 0 0 0
          0 0 0 0 0 0
          0 0 0 0 0 0
          0 0 0 0 0 0
          0 0 0 0 0 0
          0 0 0 0 0 0
          0 0
        </DataArray>
        <DataArray type="Float64" Name="initial_marker" format="ascii" RangeMin="0" RangeMax="2">
          0 0 0 0 0 0
          1 0 0.75 0 0 0
          2 0 0 0 0 0
          0 0 0 0 0 0
          0 0 0 0 0 0
          1 1 1 0 0 1
          1 0 1 0.75 0 1
          0.3333333333333333 2 2 1.3333333333333333 1.5 1.5
          2 0 0.5 0 1 0
          0.5 0 0.25 0 0 0
          1 0.5 0 1.5 2 0
          0 0 0 0 0 0
          0 0 0 0 0 0
          1 2 2 1.5 2 0
          0.5 0 2 1.6666666666666667 2 2
          2 2 2 2 2 1.3333333333333333
          2 2 2 2 2 2
          2 0.5 1 0 1 0.5
          0.5 2 2 0.3333333333333333 1.25 0
          0.25 0 0 1.5 0.3333333333333333 2
          0.75 0.5 1.5 0.5 1.5 2
          2 2 2 2 0.25 0.5
          0 0 0 0 0 0.5
          0 0 0 0 0 0
          0 0 0 0 0 0
          0 0 0 0 0 0
          0 0 0 0 0 0
          0 0 0 0 0 0
          0 0 0 0 0 0
          0 0 0 0 0 1
          1 1 2 0 0 0
          0 0.5 0 1.5 0 0
          2 2 2 2 2 1
          1.5 1 2 0 1 2
          2 2 2 2 2 1
          1 0 1.5 1 1 0
          0 0 1.5 1.5 1 2
          2 2 2 2 2 2
          2 2 2 2 2 2
          0 0 0 1.5 1.5 1
          0 0 1.5 1 2 2
          2 2 2 2 1.6666666666666667 2
          2 2 2 2 2 2
          2 2 2 2 2 2
          2 2 2 2 2 2
          2 2 2 2 2 2
          2 2 2 2 2 2
          1.75 2 2 2 2 2
          2 2 2 1 1 0
          1 1 1 1 1 0
          0 0 1 1 0 1
          0 1 1 1 0 0
          1 1 0 1 1 1
          1 0 0 0 1 1
          0 0.5 0.75 0 0 1
          0 1 1 0 0 1
          1 0 1 0 1 0
          0 0 0 0 0 0
          0 0 0 0 0 0
          0 0 0 0 0 0
          0 0 0 0 0 0
          0 2 2 0 0 0
          0 0 0 0 0 0
          0 0 0 0 0 2
          2 2 2 2 2 2
          0 1 0 0 1.5 2
          2 2 2 2 2 2
          0 0 0 0 0 0
          0 0 0 0 0 0
          0 0 0 0 0 0
          0 0.5 0 0 1 1
          1 0 1 1 1 1
          2 2 2 0.5 0 0.5
          0 0 1.5 1.3333333333333333 2 2
          2 2 2 2 2 2
          2 2 2 2 1 1.5
          1 1.5 1 2 2 2
          2 2 2 2 2 2
          2 2 1 1 2 2
          2 2 2 2 2 2
          2 2 1 1 1 1
          2 2 2 2 1 1
          0.5 0.75 0 2 2 1.75
          2 1.5 2 2 2 2
          2 2 2 2 2 2
          2 2 2 2 2 2
          2 2 2 2 2 2
          2 2 2 2 2 2
          2 2 2 2 2 2
          2 2 2 1.5 2 2
          2 2 2 2 2 2
          2 2 2 2 2 2
          2 0 0.5 0 1 1
          0 1
        </DataArray>
        <DataArray type="Float64" Name="markers_norefine" format="ascii" RangeMin="0" RangeMax="0">
          0 0 0 0 0 0
          0 0 0 0 0 0
          0 0 0 0 0 0
          0 0 0 0 0 0
          0 0 0 0 0 0
          0 0 0 0 0 0
          0 0 0 0 0 0
          0 0 0 0 0 0
          0 0 0 0 0 0
          0 0 0 0 0 0
          0 0 0 0 0 0
          0 0 0 0 0 0
          0 0 0 0 0 0
          0 0 0 0 0 0
          0 0 0 0 0 0
          0 0 0 0 0 0
          0 0 0 0 0 0
          0 0 0 0 0 0
          0 0 0 0 0 0
          0 0 0 0 0 0
          0 0 0 0 0 0
          0 0 0 0 0 0
          0 0 0 0 0 0
          0 0 0 0 0 0
          0 0 0 0 0 0
          0 0 0 0 0 0
          0 0 0 0 0 0
          0 0 0 0 0 0
          0 0 0 0 0 0
          0 0 0 0 0 0
          0 0 0 0 0 0
          0 0 0 0 0 0
          0 0 0 0 0 0
          0 0 0 0 0 0
          0 0 0 0 0 0
          0 0 0 0 0 0
          0 0 0 0 0 0
          0 0 0 0 0 0
          0 0 0 0 0 0
          0 0 0 0 0 0
          0 0 0 0 0 0
          0 0 0 0 0 0
          0 0 0 0 0 0
          0 0 0 0 0 0
          0 0 0 0 0 0
          0 0 0 0 0 0
          0 0 0 0 0 0
          0 0 0 0 0 0
          0 0 0 0 0 0
          0 0 0 0 0 0
          0 0 0 0 0 0
          0 0 0 0 0 0
          0 0 0 0 0 0
          0 0 0 0 0 0
          0 0 0 0 0 0
          0 0 0 0 0 0
          0 0 0 0 0 0
          0 0 0 0 0 0
          0 0 0 0 0 0
          0 0 0 0 0 0
          0 0 0 0 0 0
          0 0 0 0 0 0
          0 0 0 0 0 0
          0 0 0 0 0 0
          0 0 0 0 0 0
          0 0 0 0 0 0
          0 0 0 0 0 0
          0 0 0 0 0 0
          0 0 0 0 0 0
          0 0 0 0 0 0
          0 0 0 0 0 0
          0 0 0 0 0 0
          0 0 0 0 0 0
          0 0 0 0 0 0
          0 0 0 0 0 0
          0 0 0 0 0 0
          0 0 0 0 0 0
          0 0 0 0 0 0
          0 0 0 0 0 0
          0 0 0 0 0 0
          0 0 0 0 0 0
          0 0 0 0 0 0
          0 0 0 0 0 0
          0 0 0 0 0 0
          0 0 0 0 0 0
          0 0 0 0 0 0
          0 0 0 0 0 0
          0 0 0 0 0 0
          0 0 0 0 0 0
          0 0 0 0 0 0
          0 0 0 0 0 0
          0 0 0 0 0 0
          0 0 0 0 0 0
          0 0
        </DataArray>
        <DataArray type="Float64" Name="markers_mustrefine" format="ascii" RangeMin="0" RangeMax="2">
          0 0 0 0 0 0
          1 0 0.75 0 0 0
          2 0 0 0 0 0
          0 0 0 0 0 0
          0 0 0 0 0 0
          1 1 1 0 0 1
          1 0 1 0.75 0 1
          0.3333333333333333 2 2 1.3333333333333333 1.5 1.5
          2 0 0.5 0 1 0
          0.5 0 0.25 0 0 0
          1 0.5 0 1.5 2 0
          0 0 0 0 0 0
          0 0 0 0 0 0
          1 2 2 1.5 2 0
          0.5 0 2 1.6666666666666667 2 2
          2 2 2 2 2 1.3333333333333333
          2 2 2 2 2 2
          2 0.5 1 0 1 0.5
          0.5 2 2 0.3333333333333333 1.25 0
          0.25 0 0 1.5 0.3333333333333333 2
          0.75 0.5 1.5 0.5 1.5 2
          2 2 2 2 0.25 0.5
          0 0 0 0 0 0.5
          0 0 0 0 0 0
          0 0 0 0 0 0
          0 0 0 0 0 0
          0 0 0 0 0 0
          0 0 0 0 0 0
          0 0 0 0 0 0
          0 0 0 0 0 1
          1 1 2 0 0 0
          0 0.5 0 1.5 0 0
          2 2 2 2 2 1
          1.5 1 2 0 1 2
          2 2 2 2 2 1
          1 0 1.5 1 1 0
          0 0 1.5 1.5 1 2
          2 2 2 2 2 2
          2 2 2 2 2 2
          0 0 0 1.5 1.5 1
          0 0 1.5 1 2 2
          2 2 2 2 1.6666666666666667 2
          2 2 2 2 2 2
          2 2 2 2 2 2
          2 2 2 2 2 2
          2 2 2 2 2 2
          2 2 2 2 2 2
          1.75 2 2 2 2 2
          2 2 2 1 1 0
          1 1 1 1 1 0
          0 0 1 1 0 1
          0 1 1 1 0 0
          1 1 0 1 1 1
          1 0 0 0 1 1
          0 0.5 0.75 0 0 1
          0 1 1 0 0 1
          1 0 1 0 1 0
          0 0 0 0 0 0
          0 0 0 0 0 0
          0 0 0 0 0 0
          0 0 0 0 0 0
          0 2 2 0 0 0
          0 0 0 0 0 0
          0 0 0 0 0 2
          2 2 2 2 2 2
          0 1 0 0 1.5 2
          2 2 2 2 2 2
          0 0 0 0 0 0
          0 0 0 0 0 0
          0 0 0 0 0 0
          0 0.5 0 0 1 1
          1 0 1 1 1 1
          2 2 2 0.5 0 0.5
          0 0 1.5 1.3333333333333333 2 2
          2 2 2 2 2 2
          2 2 2 2 1 1.5
          1 1.5 1 2 2 2
          2 2 2 2 2 2
          2 2 1 1 2 2
          2 2 2 2 2 2
          2 2 1 1 1 1
          2 2 2 2 1 1
          0.5 0.75 0 2 2 1.75
          2 1.5 2 2 2 2
          2 2 2 2 2 2
          2 2 2 2 2 2
          2 2 2 2 2 2
          2 2 2 2 2 2
          2 2 2 2 2 2
          2 2 2 1.5 2 2
          2 2 2 2 2 2
          2 2 2 2 2 2
          2 0 0.5 0 1 1
          0 1
        </DataArray>
        <DataArray type="Float64" Name="gradient_marker" format="ascii" RangeMin="0" RangeMax="1">
          0.25 1 0.5 1 0.5 0.75
          0.75 0.5 0.125 1 0.75 0.625
          0.25 0.5 1 1 1 1
          0.75 1 1 1 1 1
          1 1 1 1 1 0
          0.5 0.5 0.5 0 0 0.5
          0.375 0 0.25 0.125 0 0.25
          0 1 0.625 0.3333333333333333 0.5 0.125
          1 0.5 0.5 0 0.5 0.25
          0.375 0 0.125 0 0 0
          0.5 0.25 0 0.875 1 0.5
          0.5 0.5 0.5 0.5 0.5 0
          0 0 0.5 0.5 0.5 0.5
          0 0 0 0 0 0
          0 0 0 0 0 0.25
          0 0.625 0.25 0.125 0 0
          0.5 0 0.5 0.25 0 0.5
          0.5 0 0 0 0 0
          0 0 0 0 0 0
          0 0 0 0 0 0
          0 0.75 0 1 1 0
          1 0 1 1 0 0
          0.625 0.75 0 0 0.5 0
          0.75 0 1 1 1 1
          1 1 0 0 0 0
          0.5 0.5 1 0.5 0 0
          0 0 0 0 0 0
          0 0 0 0 0 0
          0 0.5 0.5 0 0 0.5
          1 1 1 1 0 0
          0 0 0 0.5 0.5 0.5
          0 0 0 0 0.5 0.5
          0 0 0 0 0 0
          0 0 0 0.5 0.5 0.5
          0 0 0 0.5 0.5 0
          0 0 0 0.5 0.5 0.5
          0.5 1 0.5 1 0.5 0
          0.5 0.5 0 0 0 0.5
          1 0.5 1 0.5 1 0.5
          1 1 1 1 1 1
          1 1 1 1 1 1
          1 1 1 1 1 0
          0.5 0.5 0 0 0 0.5
          1 0.5 1 0.5 1 0.5