<?xml version="1.0"?>
<VTKFile type="UnstructuredGrid" version="0.1" byte_order="LittleEndian" header_type="UInt32" compressor="vtkZLibDataCompressor">
  <UnstructuredGrid>
    <Piece NumberOfPoints="516" NumberOfCells="276">
      <PointData>
        <DataArray type="Int32" Name="libmesh_node_id" format="ascii" RangeMin="214" RangeMax="4366">
          214 288 386 387 393 397
          398 400 401 405 406 407
          882 896 897 899 902 914
          915 916 917 918 919 920
          921 922 923 924 925 926
          927 1141 1690 1691 1692 1693
          1694 1695 1696 1697 1698 1699
          1700 1701 1702 1703 1792 1793
          1794 1795 1796 1797 1800 1809
          1810 1811 1812 1813 1814 1815
          1816 1817 1818 1831 1832 1834
          1837 1846 1847 1848 1849 1850
          1851 1852 1880 1881 1882 1883
          1884 1885 1886 1887 1888 1889
          1890 1891 1892 1893 1894 1895
          1896 1897 1898 1899 1900 1901
          1902 1903 1938 1939 1940 1941
          1942 1943 1944 1945 1946 1947
          1995 1996 1997 1998 1999 2000
          2001 2009 2010 2011 2012 2013
          2014 2015 2016 2017 2018 2019
          2020 2021 2022 2023 2024 2025
          2060 2061 2062 2063 2064 2065
          2066 2067 2068 2069 3243 3244
          3245 3246 3247 3248 3249 3250
          3251 3252 3253 3254 3255 3256
          3257 3258 3259 3260 3261 3262
          3263 3264 3265 3266 3856 3857
          3859 3862 3864 3865 3866 3867
          3868 3869 3870 3871 3872 3873
          3874 3875 3876 3877 3879 3881
          3883 3885 3886 3887 3888 3889
          3890 3891 3892 3893 3894 3905
          3906 3907 3908 3909 3910 3913
          3918 3922 3923 3924 3925 3926
          3927 3928 3984 3986 3987 3988
          3989 3990 3992 3993 3995 3996
          3997 3999 4000 4001 4002 4003
          4004 4005 4006 4007 4008 4009
          4010 4091 4092 4094 4097 4106
          4107 4108 4109 4110 4111 4112
          4125 4126 4128 4131 4140 4141
          4142 4143 4144 4145 4146 4204
          4205 4206 4208 4209 4210 4211
          4212 4213 4214 4215 4216 4217
          4218 4219 4220 4221 4222 4223
          4224 4225 4226 4228 4229 4230
          4232 4233 4234 4235 4236 4237
          4238 4239 4240 4241 4242 4243
          4244 4245 4246 4247 4316 4317
          4318 4319 4320 4321 4322 4323
          4324 4325 4326 4327 4328 4329
          4330 4331 4332 4333 4334 4335
          4336 4337 4338 4339 4340 4341
          4342 4343 4344 4345 4346 4347
          4348 4349 4350 4351 4352 4353
          4354 4355 4356 4357 4358 4359
          4360 4361 4362 4363 4364 4365
          4366 283 294 295 284 302
          303 290 395 399 396 385
          402 281 403 390 404 408
          878 879 1129 1127 883 1134
          1133 898 1137 1136 1139 1138
          1140 289 1142 875 1145 1146
          876 1148 1149 1151 1152 872
          1680 1681 1682 873 1685 1712
          1803 1805 1807 1905 576 1911
          581 1706 1707 1710 881 2051
          1842 2054 2056 903 2058 3216
          3217 3218 3221 880 3224 1688
          3235 3236 3239 3241 3798 3854
          3855 3799 3858 3801 3860 3861
          3863 3878 3814 3880 3816 3882
          3884 3895 3897 3898 3896 3900
          3899 1798 3911 3912 3903 3914
          1799 3916 3915 3917 3919 3920
          1801 3921 3285 3985 3937 3939
          3991 3941 3994 3961 3963 3998
          3965 4089 4090 4093 4095 4096
          4098 4084 4100 4102 1830 4104
          1833 4123 4124 4127 4129 4130
          4132 4118 4134 4136 1836 4138
          1838 4101 4203 4155 4157 4105
          4207 4159 1840 3982 4169 4171
          4173 4135 4227 4183 4185 4139
          4231 4187 1844 4197 4199 4201
        </DataArray>
        <DataArray type="Float64" Name="bounds" format="ascii" RangeMin="0" RangeMax="0">
          0 0 0 0 0 0
          0 0 0 0 0 0
          0 0 0 0 0 0
          0 0 0 0 0 0
          0 0 0 0 0 0
          0 0 0 0 0 0
          0 0 0 0 0 0
          0 0 0 0 0 0
          0 0 0 0 0 0
          0 0 0 0 0 0
          0 0 0 0 0 0
          0 0 0 0 0 0
          0 0 0 0 0 0
          0 0 0 0 0 0
          0 0 0 0 0 0
          0 0 0 0 0 0
          0 0 0 0 0 0
          0 0 0 0 0 0
          0 0 0 0 0 0
          0 0 0 0 0 0
          0 0 0 0 0 0
          0 0 0 0 0 0
          0 0 0 0 0 0
          0 0 0 0 0 0
          0 0 0 0 0 0
          0 0 0 0 0 0
          0 0 0 0 0 0
          0 0 0 0 0 0
          0 0 0 0 0 0
          0 0 0 0 0 0
          0 0 0 0 0 0
          0 0 0 0 0 0
          0 0 0 0 0 0
          0 0 0 0 0 0
          0 0 0 0 0 0
          0 0 0 0 0 0
          0 0 0 0 0 0
          0 0 0 0 0 0
          0 0 0 0 0 0
          0 0 0 0 0 0
          0 0 0 0 0 0
          0 0 0 0 0 0
          0 0 0 0 0 0
          0 0 0 0 0 0
          0 0 0 0 0 0
          0 0 0 0 0 0
          0 0 0 0 0 0
          0 0 0 0 0 0
          0 0 0 0 0 0
          0 0 0 0 0 0
          0 0 0 0 0 0
          0 0 0 0 0 0
          0 0 0 0 0 0
          0 0 0 0 0 0
          0 0 0 0 0 0
          0 0 0 0 0 0
          0 0 0 0 0 0
          0 0 0 0 0 0
          0 0 0 0 0 0
          0 0 0 0 0 0
          0 0 0 0 0 0
          0 0 0 0 0 0
          0 0 0 0 0 0
          0 0 0 0 0 0
          0 0 0 0 0 0
          0 0 0 0 0 0
          0 0 0 0 0 0
          0 0 0 0 0 0
          0 0 0 0 0 0
          0 0 0 0 0 0
          0 0 0 0 0 0
          0 0 0 0 0 0
          0 0 0 0 0 0
          0 0 0 0 0 0
          0 0 0 0 0 0
          0 0 0 0 0 0
          0 0 0 0 0 0
          0 0 0 0 0 0
          0 0 0 0 0 0
          0 0 0 0 0 0
          0 0 0 0 0 0
          0 0 0 0 0 0
          0 0 0 0 0 0
          0 0 0 0 0 0
          0 0 0 0 0 0
          0 0 0 0 0 0
        </DataArray>
        <DataArray type="Float64" Name="gradient_error" format="ascii" RangeMin="1.7309983492371889e-12" RangeMax="2.6644146265277267e-10">
          1.792046011128709e-11 6.638898009706949e-11 1.9498522277649273e-11 1.9358482482432465e-11 1.626215828599551e-11 1.0752738974960078e-11
          1.1767983599743152e-11 1.282288623355641e-11 1.1165500351819287e-11 2.1547740332900537e-11 9.661766053830107e-12 1.2497404168793519e-11
          1.31940536115771e-11 3.0876336922891166e-11 1.5643449670494417e-11 1.788506829507358e-11 2.3097005718393004e-11 1.1887802466383223e-11
          8.851787497973592e-12 1.547349727926539e-11 1.0140952118976448e-11 6.848148133164731e-12 1.8093371779259875e-11 1.321978885030338e-11
          6.204149558933351e-12 6.984295962283718e-12 5.8946732496299666e-12 2.3097609940220904e-11 1.4039382800464213e-11 1.7249959257538985e-11
          8.44176076711716e-12 1.7769063271938126e-11 1.677459510257358e-11 1.4209875249035174e-11 1.6622876568865248e-11 1.3779047671569333e-11
          5.910747456817747e-12 1.6426496994263815e-11 1.3725639321217212e-11 8.855203505097204e-12 1.1490630578188455e-11 8.385407223721265e-12
          2.1505704438196555e-11 1.6452736008127975e-11 1.4254807845853417e-11 1.3599193482903356e-11 6.352558764493211e-11 4.543542178977505e-11
          1.5736950273067215e-11 1.546515187450176e-11 1.9894771953408584e-11 1.331872364624999e-11 2.5109664482598787e-11 1.4573471996687425e-11
          1.9447235155222815e-11 9.078546914483755e-12 9.82618600359264e-12 1.2973146394734934e-11 2.7233626246294567e-11 8.494622114785477e-12
          2.061440679815513e-11 1.214585974536852e-11 2.2208052349953964e-11 5.482419914941556e-11 3.9122672682756106e-11 1.9618846882295216e-11
          4.731324788437988e-11 2.2292848207485258e-11 1.76189759528808e-11 1.7436325800667097e-11 1.489677344305469e-11 2.583041107695469e-11
          2.0092745262308423e-11 1.968967331021507e-11 1.2789613450025517e-11 1.0632485808974134e-11 9.601116799608233e-12 1.2032925396631918e-11
          4.970713870442134e-12 7.176690487010389e-12 6.479450296427773e-12 6.317570937958643e-12 1.0368122563850659e-11 4.65451297914111e-12
          9.964567578592587e-12 1.2063984320324148e-11 1.0887261931466316e-11 1.2574436670406515e-11 1.5908923318339973e-11 1.2513368252430903e-11
          1.9465358021234706e-11 1.6082380086047478e-11 1.2574615578280485e-11 9.640481947864524e-12 1.854512105338699e-11 1.4546878143487824e-11
          1.8378423031575736e-11 1.4366611878542491e-11 6.588572440358527e-12 7.709537666770361e-12 4.2855712820114905e-12 4.455361050676375e-12
          5.873643553632634e-12 7.005975952403559e-12 5.467581523439702e-12 8.830502893182194e-12 4.62515081934126e-12 8.138308351174483e-12
          4.977090892856716e-12 8.984006417469546e-12 3.5060225764827805e-12 4.824194940881557e-12 3.888930171015792e-12 5.853500557100768e-12
          3.9023570824911935e-12 3.193539812618818e-12 4.552249468604443e-12 1.9805938907911618e-12 2.6289071008371265e-12 2.227295917243102e-12
          2.867277565077071e-12 1.7309983492371889e-12 7.764846047359801e-12 3.984054428575485e-12 4.29644212291e-12 1.1061035431211578e-11
          5.174873319903957e-12 5.717519635641648e-12 3.768184894939113e-12 1.2503337892293623e-11 5.658858093540035e-12 6.3494142383743365e-12
          1.1197837281141304e-11 1.2386157680005177e-11 6.602564521202795e-12 6.373369379749269e-12 7.5779021038865e-12 7.885115063606207e-12
          5.250861086616848e-12 1.3574478078869049e-11 6.144174238295743e-12 8.192328023325916e-12 9.458989207280825e-12 8.856234527477533e-12
          1.5538948017254783e-11 1.4478970743498121e-11 6.228393598958486e-12 1.0150659821383128e-11 9.486034372718153e-12 7.306163840363319e-12
          1.1775561495163141e-11 7.749661610018195e-12 3.518706512007699e-11 3.255988859251992e-11 1.846741724415095e-11 2.588562581636613e-11
          5.484836189862582e-12 8.421119063370486e-12 3.946484614752469e-12 5.704068047048075e-12 4.610824546672765e-12 6.7101086061561495e-12
          4.7302217981129375e-12 1.7879251421770952e-11 1.0333680923696728e-11 1.2764248760255781e-11 3.3972021931688805e-11 3.1364218170844695e-11
          2.4728511445141784e-11 5.84096603237254e-11 1.0283451810515687e-11 9.555667851566398e-12 1.5150170068319356e-11 1.4041444700878359e-11
          6.100036841939586e-12 9.275058537900614e-12 8.625770175845618e-12 7.675884074508145e-12 1.1192716549636852e-11 6.9122097263524915e-12
          2.822318497103315e-11 2.606115179409823e-11 1.3140126818488815e-11 2.0486655126743295e-11 1.685105072949089e-11 1.19149093774597e-11
          3.030114557913207e-11 5.4667840566431325e-12 7.74098331861113e-12 3.638282510174876e-12 4.948904556403174e-12 4.409683856887086e-12
          6.0292528713859155e-12 4.049871473891985e-12 1.3813942252809029e-11 8.597351132693022e-12 9.403994437119822e-12 4.7813920584939156e-11
          4.4059359251685766e-11 2.0132999301948917e-11 1.8432928047413784e-11 3.4298730042856936e-11 1.6884654750126324e-11 2.829674793646198e-11
          2.874184359208186e-11 2.2806499814471634e-11 1.4013208061384126e-11 1.3265616287006498e-11 8.338922490097277e-12 3.458702265949945e-11
          1.7274550049778555e-11 1.980350433840419e-11 8.172437264760801e-12 5.805453626192402e-12 7.657161610604716e-12 5.8920548002992266e-12
          7.800009948855343e-12 5.572581046227926e-12 1.096701637486653e-11 1.2786169031149331e-11 1.4876249968958756e-11 1.9792357028127344e-11
          9.933338429964724e-12 2.176014282563872e-11 2.3631238012518426e-11 5.515744302494088e-12 6.9991799544959456e-12 3.7699557165436096e-12
          4.537625116552118e-12 3.926891032218258e-12 4.787464796640667e-12 3.2355707110562666e-12 1.0187637175779898e-11 6.3977441370975004e-12
          6.746625837853137e-12 4.3140062040446336e-11 3.9681702860635085e-11 3.075165674781528e-11 5.045235323962933e-11 4.7928240943994995e-11
          2.033816620391998e-11 2.6960203173799052e-11 1.4003259674229585e-11 6.057376777912704e-11 2.5709469388450693e-11 3.362645722669558e-11
          6.329393544552209e-11 5.825931852743297e-11 4.511502226194112e-11 6.111525804592367e-11 6.9870402457427e-11 2.9502982172756694e-11
          3.8456173398313996e-11 1.9851297871913826e-11 7.327600362949536e-11 3.089715313179096e-11 4.022248187530216e-11 2.9263121716010914e-11
          2.718192587258843e-11 1.6258329317799213e-11 3.6211133697570896e-11 3.349528662461196e-11 1.359723677868458e-11 8.519100881255798e-12
          8.926346272941212e-12 5.821147925889281e-12 1.671520633045697e-11 1.0396782892284336e-11 1.0899074229585796e-11 1.0531808867735864e-11
          1.191441494839768e-11 7.504222458611068e-12 8.200086659422322e-12 7.390448492011712e-12 7.798891994754483e-12 5.606649515090946e-12
          1.4350329942316829e-11 9.694222397042982e-12 8.822026131301114e-12 4.1143146151846857e-11 3.773088317592347e-11 2.241251128015533e-11
          4.292639286242255e-11 3.924835837470598e-11 1.8930800339626442e-11 1.1735854129690931e-11 1.2281722601443428e-11 7.919057505590368e-12
          1.9733002830646102e-11 1.2226150479690416e-11 1.2772776174954485e-11 1.5989157924427163e-11 1.0847766865071392e-11 9.783549588568793e-12
          7.199148966071471e-12 1.6574676993280165e-11 1.1203039796290396e-11 1.0130382412032613e-11 6.137464955994781e-12 5.714554544079821e-12
          8.168858996188025e-12 7.508962485040224e-12 3.718936973151716e-12 4.722957241323229e-12 4.685540745230586e-12 5.291644132164861e-12
          6.849065973892425e-12 4.648124249137945e-12 1.2562949963389396e-11 1.1487678214876357e-11 6.808438557470905e-12 9.864947741215583e-12
          1.7361253976367882e-11 1.598390839424458e-11 9.83501553638974e-12 9.157458210444015e-12 1.2484022747432725e-11 7.345898515707216e-12
          2.190455029239787e-11 2.022347011939445e-11 1.1434858186757752e-11 1.584196068403753e-11 7.1382262410313954e-12 8.340445886283181e-12
          4.743665292673497e-12 5.121755141750865e-12 5.5064221911426695e-12 6.3194090898221875e-12 4.031614136585587e-12 1.04760311010643e-11
          6.080721394128531e-12 7.810530780444568e-12 2.5205788544880647e-11 2.3255200200514423e-11 1.4178310374858298e-11 1.3122125808095095e-11
          1.816341201252057e-11 1.0258676216999043e-11 2.6399337567303792e-11 2.4359290946977017e-11 1.3724719065930362e-11 1.901677044781814e-11
          1.1947055709308161e-11 6.947436109790858e-12 8.871899249723384e-12 5.4434610269155206e-12 1.2484714748022689e-11 7.233274422152885e-12
          9.25513292705934e-12 9.857084712423086e-12 1.1353568661252978e-11 9.562318869972738e-12 2.589322440036532e-11 1.2345249437505168e-11
          1.0831967708910769e-11 1.0572337171013983e-11 6.724265628607745e-12 9.572107102770952e-12 1.531850679690156e-11 4.245070714459495e-11
          2.4222055705655087e-11 2.239303451999978e-10 2.0327215923470902e-11 8.30893196660008e-11 1.0262719330244561e-11 1.6304095319072258e-11
          4.048456214716567e-11 1.4173329800300308e-11 2.3127755666155132e-11 4.2286117856698324e-11 4.721803974893283e-11 2.3826613325189685e-11
          4.964185500762233e-11 3.6729460946238344e-11 2.1195803020567402e-11 4.891323289699064e-11 2.0717391917866614e-11 7.081009367617678e-11
          5.074962962557531e-11 9.482911540657988e-11 8.330678750387183e-11 1.60036462124528e-11 9.607106913073124e-12 7.593901672030269e-12
          1.2878126430349695e-11 3.8397577069144864e-12 3.6056894557195305e-12 5.580696430987412e-12 3.3716212045245738e-12 3.603590436021118e-11
          3.319536143967076e-11 3.5807972225757754e-11 2.9101975800687786e-11 2.989618697195745e-11 1.9614749799368473e-11 2.6476631305055404e-11
          3.5599399516934705e-11 4.135037285586674e-11 4.5113625830384056e-11 1.7772596486479342e-11 9.120075068525155e-11 1.6694447842009044e-11
          9.572132197261833e-11 1.348720162459462e-11 1.618329263742343e-11 1.55392146921194e-11 2.4249249094768955e-11 3.2816256057561276e-11
          3.5649657108252846e-11 3.6366281802179296e-11 1.7556080213495782e-11 4.017431705052434e-11 4.001745018474408e-11 1.7234806342749922e-11
          3.142069320288548e-11 2.918877680168323e-11 2.3520897926522158e-11 7.151221906104844e-11 6.598547500251838e-11 5.202277455055883e-11
          1.0383913319597582e-11 1.663158172353689e-11 1.215944864106233e-11 3.56226178898602e-11 1.5014074871381805e-10 7.287022787660008e-11
          6.705427473463093e-11 1.3778689429818817e-10 5.235473413698646e-11 1.0667715805538462e-10 1.383315688691653e-10 1.2680253285977267e-10
          9.76543873799015e-11 3.527983780808791e-11 7.079989544751541e-11 2.0914532275798932e-11 4.144608002182784e-11 6.407153146304723e-11
          3.687401553437302e-11 2.4095644769281193e-10 1.0932227128338891e-10 1.0028070627743022e-10 2.204767929889973e-10 7.72308209853586e-11
          1.6824214042140696e-10 1.7113502166783565e-10 7.388072556817726e-11 6.799439046621902e-11 1.5685663716152405e-10 5.265187026007898e-11
          1.2010016187393582e-10 5.044351318772829e-11 1.0782505555871653e-10 6.011048310144764e-11 1.6659586062625975e-10 7.711263442100462e-11
          4.2945150727401094e-11 9.032964258213611e-11 1.4029167297466218e-11 1.1270272782794261e-11 2.2053363863608516e-11 1.4893082350381247e-11
          1.9213207541611945e-11 3.775959557484762e-11 3.0425177335610393e-11 6.013922516575177e-11 3.322547887981784e-11 4.4557582302470675e-11
          8.84231996096181e-11 1.0419385758523735e-10 9.572902492825413e-11 7.373419754804536e-11 1.3312946065910036e-10 1.2227628591860492e-10
          9.392453535715023e-11 1.6992269954743064e-10 1.0786282352959172e-10 5.890122410663808e-11 2.1805434771194478e-10 1.3739697695954504e-10
          7.396586528811487e-11 1.5412106382487209e-10 1.416689441352136e-10 1.088125803207953e-10 1.6180782991959867e-10 1.48778221822653e-10
          1.1427444336021572e-10 2.5341038038147325e-10 1.5905733415027772e-10 8.489288881821306e-11 2.6644146265277267e-10 1.6703823362894048e-10
          8.889916352635344e-11 1.247890335309041e-10 6.024567971164685e-11 1.1960274655391925e-10 5.295193230218425e-11 1.5758925189035318e-10
          7.478337748414154e-11 1.487607808109669e-10 6.496691444980603e-11 1.994232301539669e-11 2.2836728797300374e-11 1.4175290984486034e-11
          2.7473355490374928e-11 1.8147213852429292e-10 8.517706642613492e-11 1.6984060594373668e-10 7.332302293968853e-11 1.9024487804359864e-10
          8.895562059116377e-11 1.7752489657932474e-10 7.633477280545797e-11 3.061946941346875e-11 1.7801487274069705e-11 3.1804220355864075e-11
        </DataArray>
        <DataArray type="Float64" Name="gradient_matprop_error" format="ascii" RangeMin="0" RangeMax="0">
          0 0 0 0 0 0
          0 0 0 0 0 0
          0 0 0 0 0 0
          0 0 0 0 0 0
          0 0 0 0 0 0
          0 0 0 0 0 0
          0 0 0 0 0 0
          0 0 0 0 0 0
          0 0 0 0 0 0
          0 0 0 0 0 0
          0 0 0 0 0 0
          0 0 0 0 0 0
          0 0 0 0 0 0
          0 0 0 0 0 0
          0 0 0 0 0 0
          0 0 0 0 0 0
          0 0 0 0 0 0
          0 0 0 0 0 0
          0 0 0 0 0 0
          0 0 0 0 0 0
          0 0 0 0 0 0
          0 0 0 0 0 0
          0 0 0 0 0 0
          0 0 0 0 0 0
          0 0 0 0 0 0
          0 0 0 0 0 0
          0 0 0 0 0 0
          0 0 0 0 0 0
          0 0 0 0 0 0
          0 0 0 0 0 0
          0 0 0 0 0 0
          0 0 0 0 0 0
          0 0 0 0 0 0
          0 0 0 0 0 0
          0 0 0 0 0 0
          0 0 0 0 0 0
          0 0 0 0 0 0
          0 0 0 0 0 0
          0 0 0 0 0 0
          0 0 0 0 0 0
          0 0 0 0 0 0
          0 0 0 0 0 0
          0 0 0 0 0 0
          0 0 0 0 0 0
          0 0 0 0 0 0
          0 0 0 0 0 0
          0 0 0 0 0 0
          0 0 0 0 0 0
          0 0 0 0 0 0
          0 0 0 0 0 0
          0 0 0 0 0 0
          0 0 0 0 0 0
          0 0 0 0 0 0
          0 0 0 0 0 0
          0 0 0 0 0 0
          0 0 0 0 0 0
          0 0 0 0 0 0
          0 0 0 0 0 0
          0 0 0 0 0 0
          0 0 0 0 0 0
          0 0 0 0 0 0
          0 0 0 0 0 0
          0 0 0 0 0 0
          0 0 0 0 0 0
          0 0 0 0 0 0
          0 0 0 0 0 0
          0 0 0 0 0 0
          0 0 0 0 0 0
          0 0 0 0 0 0
          0 0 0 0 0 0
          0 0 0 0 0 0
          0 0 0 0 0 0
          0 0 0 0 0 0
          0 0 0 0 0 0
          0 0 0 0 0 0
          0 0 0 0 0 0
          0 0 0 0 0 0
          0 0 0 0 0 0
          0 0 0 0 0 0
          0 0 0 0 0 0
          0 0 0 0 0 0
          0 0 0 0 0 0
          0 0 0 0 0 0
          0 0 0 0 0 0
          0 0 0 0 0 0
          0 0 0 0 0 0
        </DataArray>
        <DataArray type="Float64" Name="initial_marker" format="ascii" RangeMin="0" RangeMax="2">
          0 2 0 0 0 0
          0 0 0 0 0 0
          0 2 0.5 0 1.5 0
          0 0 0 0 0 0
          0 0 0 0 0 0
          0 0 0 0 0 0
          0 0 0 0 0 0
          1.5 0.75 0 0 2 2
          1 0.5 1 0 1.75 0
          0 0 0 0 0 0
          0.25 0 0 2 2 1.5
          2 0.75 0 0 0 1
          0 0 0 0 0 0
          0 0 0 0 0 0
          0 0 0 0 1 0.5
          0 0 0 0 1 0.5
          0 0 0 0 0 0
          0 0 0 0 0 0
          0 0 0 0 0 0
          0 0 0 0 0 0
          0 0 0 0 0 0
          0 0 0 0 0 0
          0 0 0 0 0 0
          0 0 0 0 0 0
          1 0.75 0 1 0.5 0
          0.5 0 2 1.75 1.6666666666666667 1.5
          0 0.25 0 0 0 0
          0 1 0.3333333333333333 0.3333333333333333 2 2
          1.75 2 1 1 1.5 1.25
          0 1 0.5 0.5 0.75 0
          2 1.75 1 1.5 1 0.3333333333333333
          1.75 0 0.25 0 0 0
          0 0 1 0.5 0.3333333333333333 2
          2 1.5 1.5 2 1.6666666666666667 2
          1.75 1.75 1.5 1 0.5 2
          1.6666666666666667 1.5 0 0 0 0
          0 0 0.3333333333333333 0.5 0.75 1
          0 1.25 1 0 0.25 0
          0 0 0 0 0.5 0
          0 2 2 2 2 2
          1.75 1.75 1.3333333333333333 2 2 2
          2 2 2 2 2 2
          2 2 2 2 2 1.5
          1.25 0.6666666666666666 1.75 1.5 0.75 0.5
          0 0 1.25 1 0.5 0
          0.25 0 0 0 0 0
          0.5 0 0 2 1.5 1.3333333333333333
          2 1.5 1.5 1 1 0
          1.5 1 1 0.5 0 0
          0 0.5 0 0 0 0
          0.5 0.5 0 0 0 0
          0.5 0 1 1 0 1
          1.5 1.5 1 1 1.25 0.5
          2 2 2 1.5 0.5 0.75
          0 0 0 0.5 0 1
          0 1 2 2 2 2
          1.5 1 2 2 2 1.5
          1 0 1 0 1 0
          1 0 0 0 0 0
          0 0 0 0 0 0
          0 0 0 0 0 0
          0 0 0 0 0 0
          0 0 0 0 0 0
          0 0 0 0 0 0
          0 0 0 0 0 0
          0 0.5 0.25 0 0 0
          0.75 0 1.25 0 0 0
          0 0 0 0 1 0
          0 0 0 0 0 1
          1.5 1.5 1.25 2 2 2
          0 0.75 0.3333333333333333 1.75 2 2
          2 2 2 2 2 2
          2 1.75 2 1 1.75 2
          1.75 2 2 2 2 2
          2 2 2 2 2 2
          2 2 2 2 2 2
          2 2 0.3333333333333333 0.25 1 0.5
          1 1.75 1.5 2 1.3333333333333333 1.75
          2 2 2 2 2 2
          2 2 2 2 2 2
          2 2 2 2 2 2
          2 2 2 2 2 2
          2 2 2 2 1.75 2
          2 2 2 0.3333333333333333 0.75 0
          1 2 2 2 2 2
          2 2 2 1 0 1
        </DataArray>
        <DataArray type="Float64" Name="markers_norefine" format="ascii" RangeMin="0" RangeMax="0">
          0 0 0 0 0 0
          0 0 0 0 0 0
          0 0 0 0 0 0
          0 0 0 0 0 0
          0 0 0 0 0 0
          0 0 0 0 0 0
          0 0 0 0 0 0
          0 0 0 0 0 0
          0 0 0 0 0 0
          0 0 0 0 0 0
          0 0 0 0 0 0
          0 0 0 0 0 0
          0 0 0 0 0 0
          0 0 0 0 0 0
          0 0 0 0 0 0
          0 0 0 0 0 0
          0 0 0 0 0 0
          0 0 0 0 0 0
          0 0 0 0 0 0
          0 0 0 0 0 0
          0 0 0 0 0 0
          0 0 0 0 0 0
          0 0 0 0 0 0
          0 0 0 0 0 0
          0 0 0 0 0 0
          0 0 0 0 0 0
          0 0 0 0 0 0
          0 0 0 0 0 0
          0 0 0 0 0 0
          0 0 0 0 0 0
          0 0 0 0 0 0
          0 0 0 0 0 0
          0 0 0 0 0 0
          0 0 0 0 0 0
          0 0 0 0 0 0
          0 0 0 0 0 0
          0 0 0 0 0 0
          0 0 0 0 0 0
          0 0 0 0 0 0
          0 0 0 0 0 0
          0 0 0 0 0 0
          0 0 0 0 0 0
          0 0 0 0 0 0
          0 0 0 0 0 0
          0 0 0 0 0 0
          0 0 0 0 0 0
          0 0 0 0 0 0
          0 0 0 0 0 0
          0 0 0 0 0 0
          0 0 0 0 0 0
          0 0 0 0 0 0
          0 0 0 0 0 0
          0 0 0 0 0 0
          0 0 0 0 0 0
          0 0 0 0 0 0
          0 0 0 0 0 0
          0 0 0 0 0 0
          0 0 0 0 0 0
          0 0 0 0 0 0
          0 0 0 0 0 0
          0 0 0 0 0 0
          0 0 0 0 0 0
          0 0 0 0 0 0
          0 0 0 0 0 0
          0 0 0 0 0 0
          0 0 0 0 0 0
          0 0 0 0 0 0
          0 0 0 0 0 0
          0 0 0 0 0 0
          0 0 0 0 0 0
          0 0 0 0 0 0
          0 0 0 0 0 0
          0 0 0 0 0 0
          0 0 0 0 0 0
          0 0 0 0 0 0
          0 0 0 0 0 0
          0 0 0 0 0 0
          0 0 0 0 0 0
          0 0 0 0 0 0
          0 0 0 0 0 0
          0 0 0 0 0 0
          0 0 0 0 0 0
          0 0 0 0 0 0
          0 0 0 0 0 0
          0 0 0 0 0 0
          0 0 0 0 0 0
        </DataArray>
        <DataArray type="Float64" Name="markers_mustrefine" format="ascii" RangeMin="0" RangeMax="2">
          0 2 0 0 0 0
          0 0 0 0 0 0
          0 2 0.5 0 1.5 0
          0 0 0 0 0 0
          0 0 0 0 0 0
          0 0 0 0 0 0
          0 0 0 0 0 0
          1.5 0.75 0 0 2 2
          1 0.5 1 0 1.75 0
          0 0 0 0 0 0
          0.25 0 0 2 2 1.5
          2 0.75 0 0 0 1
          0 0 0 0 0 0
          0 0 0 0 0 0
          0 0 0 0 1 0.5
          0 0 0 0 1 0.5
          0 0 0 0 0 0
          0 0 0 0 0 0
          0 0 0 0 0 0
          0 0 0 0 0 0
          0 0 0 0 0 0
          0 0 0 0 0 0
          0 0 0 0 0 0
          0 0 0 0 0 0
          1 0.75 0 1 0.5 0
          0.5 0 2 1.75 1.6666666666666667 1.5
          0 0.25 0 0 0 0
          0 1 0.3333333333333333 0.3333333333333333 2 2
          1.75 2 1 1 1.5 1.25
          0 1 0.5 0.5 0.75 0
          2 1.75 1 1.5 1 0.3333333333333333
          1.75 0 0.25 0 0 0
          0 0 1 0.5 0.3333333333333333 2
          2 1.5 1.5 2 1.6666666666666667 2
          1.75 1.75 1.5 1 0.5 2
          1.6666666666666667 1.5 0 0 0 0
          0 0 0.3333333333333333 0.5 0.75 1
          0 1.25 1 0 0.25 0
          0 0 0 0 0.5 0
          0 2 2 2 2 2
          1.75 1.75 1.3333333333333333 2 2 2
          2 2 2 2 2 2
          2 2 2 2 2 1.5
          1.25 0.6666666666666666 1.75 1.5 0.75 0.5
          0 0 1.25 1 0.5 0
          0.25 0 0 0 0 0
          0.5 0 0 2 1.5 1.3333333333333333
          2 1.5 1.5 1 1 0
          1.5 1 1 0.5 0 0
          0 0.5 0 0 0 0
          0.5 0.5 0 0 0 0
          0.5 0 1 1 0 1
          1.5 1.5 1 1 1.25 0.5
          2 2 2 1.5 0.5 0.75
          0 0 0 0.5 0 1
          0 1 2 2 2 2
          1.5 1 2 2 2 1.5
          1 0 1 0 1 0
          1 0 0 0 0 0
          0 0 0 0 0 0
          0 0 0 0 0 0
          0 0 0 0 0 0
          0 0 0 0 0 0
          0 0 0 0 0 0
          0 0 0 0 0 0
          0 0.5 0.25 0 0 0
          0.75 0 1.25 0 0 0
          0 0 0 0 1 0
          0 0 0 0 0 1
          1.5 1.5 1.25 2 2 2
          0 0.75 0.3333333333333333 1.75 2 2
          2 2 2 2 2 2
          2 1.75 2 1 1.75 2
          1.75 2 2 2 2 2
          2 2 2 2 2 2
          2 2 2 2 2 2
          2 2 0.3333333333333333 0.25 1 0.5
          1 1.75 1.5 2 1.3333333333333333 1.75
          2 2 2 2 2 2
          2 2 2 2 2 2
          2 2 2 2 2 2
          2 2 2 2 2 2
          2 2 2 2 1.75 2
          2 2 2 0.3333333333333333 0.75 0
          1 2 2 2 2 2
          2 2 2 1 0 1
        </DataArray>
        <DataArray type="Float64" Name="gradient_marker" format="ascii" RangeMin="1" RangeMax="1">
          1 1 1 1 1 1
          1 1 1 1 1 1
          1 1 1 1 1 1
          1 1 1 1 1 1
          1 1 1 1 1 1
          1 1 1 1 1 1
          1 1 1 1 1 1
          1 1 1 1 1 1
          1 1 1 1 1 1
          1 1 1 1 1 1
          1 1 1 1 1 1
          1 1 1 1 1 1
          1 1 1 1 1 1
          1 1 1 1 1 1
          1 1 1 1 1 1
          1 1 1 1 1 1
          1 1 1 1 1 1
          1 1 1 1 1 1
          1 1 1 1 1 1
          1 1 1 1 1 1
          1 1 1 1 1 1
          1 1 1 1 1 1
          1 1 1 1 1 1
          1 1 1 1 1 1
          1 1 1 1 1 1
          1 1 1 1 1 1
          1 1 1 1 1 1
          1 1 1 1 1 1
          1 1 1 1 1 1
          1 1 1 1 1 1
          1 1 1 1 1 1
          1 1 1 1 1 1
          1 1 1 1 1 1
          1 1 1 1 1 1
          1 1 1 1 1 1
          1 1 1 1 1 1
          1 1 1 1 1 1
          1 1 1 1 1 1
          1 1 1 1 1 1
          1 1 1 1 1 1
          1 1 1 1 1 1
          1 1 1 1 1 1
          1 1 1 1 1 1
          1 1 1 1 1 1
          1 1 1 1 1 1
          1 1 1 1 1 1
          1 1 1 1 1 1
          1 1 1 1 1 1
          1 1 1 1 1 1
          1 1 1 1 1 1
          1 1 1 1 1 1
          1 1 1 1 1 1
          1 1 1 1 1 1
          1 1 1 1 1 1
          1 1 1 1 1 1
          1 1 1 1 1 1
          1 1 1 1 1 1
          1 1 1 1 1 1
          1 1 1 1 1 1
          1 1 1 1 1 1
          1 1 1 1 1 1
          1 1 1 1 1 1
          1 1 1 1 1 1
          1 1 1 1 1 1
          1 1 1 1 1 1
          1 1 1 1 1 1
          1 1 1 1 1 1
          1 1 1 1 1 1
          1 1 1 1 1 1
          1 1 1 1 1 1
          1 1 1 1 1 1
          1 1 1 1 1 1
          1 1 1 1 1 1
          1 1 1 1 1 1
          1 1 1 1 1 1
          1 1 1 1 1 1
          1 1 1 1 1 1
          1 1 1 1 1 1
          1 1 1 1 1 1
          1 1 1 1 1 1
          1 1 1 1 1 1
          1 1 1 1 1 1
          1 1 1 1 1 1
          1 1 1 1 1 1
          1 1 1 1 1 1
          1 1 1 1 1 1
        </DataArray>
        <DataArray type="Float64" Name="gradient_matprop_marker" format="ascii" RangeMin="0" RangeMax="0">
          0 0 0 0 0 0
          0 0 0 0 0 0
          0 0 0 0 0 0
          0 0 0 0 0 0
          0 0 0 0 0 0
          0 0 0 0 0 0
          0 0 0 0 0 0
          0 0 0 0 0 0
          0 0 0 0 0 0
          0 0 0 0 0 0
          0 0 0 0 0 0
          0 0 0 0 0 0
          0 0 0 0 0 0
          0 0 0 0 0 0
          0 0 0 0 0 0
          0 0 0 0 0 0
          0 0 0 0 0 0
          0 0 0 0 0 0
          0 0 0 0 0 0
          0 0 0 0 0 0
          0 0 0 0 0 0
          0 0 0 0 0 0
          0 0 0 0 0 0
          0 0 0 0 0 0