<?xml version="1.0"?>
<VTKFile type="UnstructuredGrid" version="0.1" byte_order="LittleEndian" header_type="UInt32" compressor="vtkZLibDataCompressor">
  <UnstructuredGrid>
    <Piece NumberOfPoints="450" NumberOfCells="265">
      <PointData>
        <DataArray type="Int32" Name="libmesh_node_id" format="ascii" RangeMin="276" RangeMax="4315">
          373 379 384 389 392 394
          831 869 888 889 893 904
          905 906 907 908 909 910
          911 912 913 1556 1590 1600
          1601 1604 1606 1612 1614 1616
          1663 1664 1665 1673 1675 1734
          1735 1736 1737 1738 1739 1740
          1741 1742 1743 1744 1745 1746
          1747 1768 1769 1770 1771 1772
          1773 1774 1775 1776 1777 1778
          1779 1780 1781 1853 1854 1855
          1856 1857 1858 1859 1860 1861
          1862 1863 1864 1865 1866 1867
          1868 1869 1870 1871 1872 1873
          1874 1875 1876 1877 1878 1879
          2002 2003 2004 2005 2006 2007
          2008 2438 2746 2747 2748 2752
          2753 2754 2894 2895 2896 2898
          2900 2901 2902 2903 2904 2905
          2906 2907 2908 2909 2910 2911
          2912 3119 3120 3128 3129 3130
          3138 3139 3140 3155 3156 3157
          3165 3167 3175 3176 3177 3426
          3431 3432 3433 3435 3436 3437
          3438 3439 3440 3441 3442 3443
          3444 3445 3446 3447 3448 3449
          3450 3454 3459 3460 3461 3463
          3464 3465 3466 3467 3468 3469
          3470 3471 3472 3473 3474 3475
          3476 3477 3478 3479 3480 3481
          3482 3483 3484 3485 3486 3487
          3488 3489 3490 3491 3492 3493
          3494 3495 3496 3497 3498 3499
          3500 3501 3503 3504 3505 3506
          3507 3508 3509 3510 3511 3512
          3513 3514 3515 3516 3517 3518
          3519 3520 3521 3522 3523 3524
          3525 3526 3527 3528 3529 3530
          3531 3532 3533 3534 3535 3536
          3537 3677 3680 3681 3682 3683
          3684 3685 3686 3687 3688 3689
          3690 3691 3692 3693 3694 3695
          3696 3697 3698 3699 3700 3701
          3704 3705 3708 3709 3710 3711
          3712 3713 3714 3715 3716 3717
          3718 3719 3720 3721 3722 3723
          3724 3725 3726 3727 3728 3729
          3730 3731 3732 3733 3734 3735
          3736 3737 3738 3739 3740 3741
          3742 3743 3744 3745 3746 3747
          3748 3749 3750 3751 3752 3753
          3754 3755 3756 3757 3758 3759
          3760 3761 3762 3763 3764 3765
          3766 3767 3768 3769 3770 3771
          3772 3773 3774 3775 3776 3777
          3778 3779 3780 3781 3782 3783
          3784 3785 4248 4249 4250 4251
          4252 4253 4254 4255 4256 4257
          4258 4259 4260 4261 4262 4263
          4264 4265 4266 4267 4268 4269
          4270 4271 4272 4273 4274 4275
          4276 4277 4278 4279 4280 4281
          4282 4283 4284 4285 4286 4287
          4288 4289 4290 4291 4292 4293
          4294 4295 4296 4297 4298 4299
          4300 4301 4302 4303 4304 4305
          4306 4307 4308 4309 4310 4311
          4312 4313 4314 4315 376 574
          556 276 580 561 848 849
          852 854 1455 1456 1457 1553
          1554 1555 1557 1558 1559 1587
          1588 1589 1591 1592 1593 1598
          1599 1602 1603 1605 1607 1611
          1613 1615 1617 3113 2744 3425
          3429 2750 3453 3457 2892 3676
        </DataArray>
        <DataArray type="Float64" Name="bounds" format="ascii" RangeMin="0" RangeMax="0">
          0 0 0 0 0 0
          0 0 0 0 0 0
          0 0 0 0 0 0
          0 0 0 0 0 0
          0 0 0 0 0 0
          0 0 0 0 0 0
          0 0 0 0 0 0
          0 0 0 0 0 0
          0 0 0 0 0 0
          0 0 0 0 0 0
          0 0 0 0 0 0
          0 0 0 0 0 0
          0 0 0 0 0 0
          0 0 0 0 0 0
          0 0 0 0 0 0
          0 0 0 0 0 0
          0 0 0 0 0 0
          0 0 0 0 0 0
          0 0 0 0 0 0
          0 0 0 0 0 0
          0 0 0 0 0 0
          0 0 0 0 0 0
          0 0 0 0 0 0
          0 0 0 0 0 0
          0 0 0 0 0 0
          0 0 0 0 0 0
          0 0 0 0 0 0
          0 0 0 0 0 0
          0 0 0 0 0 0
          0 0 0 0 0 0
          0 0 0 0 0 0
          0 0 0 0 0 0
          0 0 0 0 0 0
          0 0 0 0 0 0
          0 0 0 0 0 0
          0 0 0 0 0 0
          0 0 0 0 0 0
          0 0 0 0 0 0
          0 0 0 0 0 0
          0 0 0 0 0 0
          0 0 0 0 0 0
          0 0 0 0 0 0
          0 0 0 0 0 0
          0 0 0 0 0 0
          0 0 0 0 0 0
          0 0 0 0 0 0
          0 0 0 0 0 0
          0 0 0 0 0 0
          0 0 0 0 0 0
          0 0 0 0 0 0
          0 0 0 0 0 0
          0 0 0 0 0 0
          0 0 0 0 0 0
          0 0 0 0 0 0
          0 0 0 0 0 0
          0 0 0 0 0 0
          0 0 0 0 0 0
          0 0 0 0 0 0
          0 0 0 0 0 0
          0 0 0 0 0 0
          0 0 0 0 0 0
          0 0 0 0 0 0
          0 0 0 0 0 0
          0 0 0 0 0 0
          0 0 0 0 0 0
          0 0 0 0 0 0
          0 0 0 0 0 0
          0 0 0 0 0 0
          0 0 0 0 0 0
          0 0 0 0 0 0
          0 0 0 0 0 0
          0 0 0 0 0 0
          0 0 0 0 0 0
          0 0 0 0 0 0
          0 0 0 0 0 0
        </DataArray>
        <DataArray type="Float64" Name="gradient_error" format="ascii" RangeMin="3.4031179993064175e-11" RangeMax="1.8219080917751785e-7">
          5.673649351488685e-9 2.2004458233098507e-8 1.0468245853069269e-10 3.1363022843604886e-10 1.7142463555078737e-10 4.396243449061724e-10
          1.4557180720345229e-8 3.5490052121798455e-10 7.468761960663462e-10 1.9656769697938987e-10 8.019437782314527e-10 5.178221829706791e-10
          8.652042816533846e-10 1.3503617327122318e-10 1.9537643206510305e-10 8.207274892669396e-10 1.3378837326254458e-9 3.229223989162747e-10
          1.093689665409073e-9 2.309772555712605e-10 1.597488785210144e-9 8.767930869717722e-9 1.986467593675987e-8 1.941439996487446e-9
          2.8158656982563037e-9 1.639757246678392e-9 4.005030828057389e-9 5.268909869266402e-9 3.128121979592054e-9 5.788100109488375e-9
          9.215705330714505e-10 3.9396010555935287e-10 8.517599045906677e-10 1.8511782712334418e-10 1.716283722701787e-10 2.439916322640231e-9
          1.1140470470504915e-9 1.156747502073524e-9 7.035882421522196e-10 5.024974947738591e-9 2.422261924419991e-9 1.2820904686936141e-9
          4.762147677840366e-10 1.823904220857631e-10 2.9591824677446453e-10 1.1652597313041206e-10 1.0593340823073034e-9 4.0669159844807833e-10
          3.621999627361631e-10 7.857690943208682e-9 3.902068284340472e-9 1.6187811141498475e-9 6.985299948748966e-10 9.123665658448445e-9
          4.5807241845648184e-9 1.840420620521676e-9 1.734307906588251e-9 6.672136934033361e-10 3.334229034285507e-10 2.0486727042162417e-10
          2.047551248361856e-9 7.885896797382255e-10 3.315764564481138e-10 9.653748404339284e-10 1.086227677160357e-9 3.958245791714289e-10
          6.833818166773455e-10 5.536867331897973e-10 6.973046969369272e-10 2.7997729191729105e-10 8.824509918128172e-10 5.888314782018788e-10
          9.92526909387219e-10 8.6633970407089e-10 3.5078067757983717e-10 1.3100798567158848e-9 5.319085380098946e-10 9.510983467366408e-10
          3.888923332770417e-10 1.430618547660505e-9 3.026531422620719e-10 1.9633175111654638e-10 1.8102560277198355e-10 1.6166360926102193e-10
          1.6137386721065276e-10 2.02913063132179e-10 7.649246207002384e-11 1.512944184744866e-10 1.1104202548176643e-10 2.2552012441509405e-10
          1.6488573290225217e-10 2.9511270007347443e-10 7.993667290391122e-11 1.2087732676862297e-10 9.42147548867462e-11 1.2902776678395968e-10
          5.911786195086654e-11 9.694181113899122e-10 1.4769512144381848e-9 1.1696997688202442e-9 2.197084670728357e-9 3.158809233395457e-9
          1.7023658795663456e-9 4.157492873189109e-9 5.166520909455227e-9 2.7825845880320667e-9 6.004704113787665e-9 1.494586853099555e-8
          6.563298741840901e-9 3.5326243171146765e-9 6.792935520885521e-9 6.243086364543125e-10 7.346420108793658e-10 6.042374544196113e-10
          9.411346384183294e-10 1.1351168319826165e-9 9.196314144110003e-10 1.2959265025279423e-9 1.4019948953620884e-9 1.1379309878456202e-9
          1.4450765581012856e-9 7.477123293918232e-10 6.012984930827311e-10 7.83740900651713e-10 4.865751387317115e-10 5.820267052946722e-10
          3.094197568676366e-10 1.9978923857806478e-10 2.0469356572994928e-10 4.94739939121454e-10 3.1918527870744807e-10 2.5590459573001415e-10
          1.9946695435970034e-10 1.180986973381528e-10 1.2736913070371346e-10 9.183792254598248e-11 8.546626953881754e-11 1.5442294041048738e-9
          1.3587852110668032e-9 1.0271679743718678e-9 6.829544200840303e-10 2.312956972966512e-9 1.6537400418548581e-9 1.2181731957457281e-9
          7.86338398243248e-10 9.049676763830132e-10 5.174495740164661e-10 1.8343773352919857e-9 1.2133832279158162e-9 1.113635949435857e-9
          5.069594226828631e-10 3.2985818384805646e-10 3.261887526052959e-10 2.1057971230602573e-10 7.90768623796461e-10 5.169082991886392e-10
          5.00998739518936e-10 3.617223839352458e-9 3.657542705758012e-9 2.4959807152962803e-9 1.7021705348114063e-9 5.340935379319616e-9
          3.514285546688971e-9 2.6461571098765835e-9 1.7679418659038461e-9 1.3502605286506613e-9 9.620094881377847e-10 3.522482650449892e-9
          2.4073858241201865e-9 1.7909702172983297e-9 1.1648634151774965e-9 7.673003552026934e-10 7.314916585319655e-10 4.694165663920737e-10
          1.6064967086197344e-9 1.0671836060813712e-9 8.145924636888657e-10 9.085889268862044e-10 5.905346337047121e-10 4.487435767231863e-10
          2.8817503130126266e-10 1.5630454248321842e-9 1.02187493436813e-9 7.372564001361056e-10 3.7141434022692703e-10 2.2603861674449277e-10
          1.7987764910461517e-10 1.0935279987287103e-10 6.449243490518695e-10 3.927446628501754e-10 2.9920956693768146e-10 2.1321687173182527e-10
          1.356646449192608e-10 1.3527649606067022e-10 8.679954354692868e-11 3.354354208676515e-10 2.146619379854952e-10 2.0496073621402334e-10
          6.358978465361177e-11 8.451914049836501e-11 5.169388988901795e-11 4.423581835272742e-11 5.471956307468335e-11 3.4031179993064175e-11
          1.3429052215722593e-10 8.208403073214172e-11 8.150427659545138e-11 2.499876996474787e-9 1.6451665814018686e-9 1.1353513658620721e-9
          7.365197753653113e-10 3.6883675701263186e-9 2.4434657534991203e-9 1.6268795116368022e-9 1.0412532414237102e-9 6.339433976860468e-10
          4.634754996847885e-10 2.825518518523772e-10 1.5515415946946678e-9 9.449826183702224e-10 6.675298845870121e-10 5.005535800346737e-10
          3.208959995410011e-10 3.013654939484304e-10 1.9199834541226044e-10 7.006737457061675e-10 4.5047373868256356e-10 3.3940078803488743e-10
          2.004425140237484e-10 1.2217547874080385e-10 1.1884251087139682e-10 7.240158324397989e-11 2.810171034628341e-10 1.705343785654992e-10
          1.6468580125253814e-10 6.520014814055573e-9 1.1307736546582448e-8 9.868676844307615e-9 7.176385710658516e-9 4.599942920036191e-9
          3.1965184340972116e-9 1.2069504267180366e-8 8.855319931650733e-9 5.5833909867670185e-9 4.4085453497339066e-9 3.0593393053791523e-9
          2.224886726142201e-9 1.3735431090077797e-9 5.1653190643563765e-9 3.6371399131438214e-9 2.5907867758412337e-9 2.064300693085587e-9
          1.3821794441477457e-9 8.937389216460404e-10 5.821994800160814e-10 2.4718163176154802e-9 1.6634608123859587e-9 1.0673469366117293e-9
          1.2591872827814784e-8 8.788027855620226e-9 1.309793589421271e-8 1.3617110026776927e-8 1.0035863194431255e-8 6.273939422068333e-9
          4.400401591725174e-9 1.41760522285469e-8 1.046068369880896e-8 6.522786889635488e-9 5.682048038921855e-9 4.043248406744618e-9
          2.8373449110345405e-9 1.7822748892021441e-9 5.882489531294827e-9 4.189371408343273e-9 2.9314882257755567e-9 2.7573764486582336e-9
          1.8593704617312404e-9 1.1802094441810762e-9 7.747802005792401e-10 2.8596907914021134e-9 1.9294367359021e-9 1.2204431393428438e-9
          5.00018347297606e-9 3.3324443698643808e-9 2.1594135333963013e-9 1.410787366592248e-9 6.216519733388465e-9 4.162932101984197e-9
          2.647061702803138e-9 2.1235253177770264e-9 1.29468133023402e-9 8.901530738226077e-10 5.421805001829013e-10 2.6611192295633563e-9
          1.6244881095054867e-9 1.0954676184605688e-9 9.130524842243602e-10 5.889133341720385e-10 3.750351819830883e-10 2.8438846909793364e-10
          1.1018123397564878e-9 7.118802078601574e-10 4.512260364210403e-10 3.6750099962573674e-10 2.2274475762796297e-10 2.1428939418207754e-10
          1.283758580519566e-10 4.45691192809588e-10 2.706587565865342e-10 2.046277471176344e-10 7.082936957220037e-9 4.758768214762757e-9
          2.9921322652971073e-9 1.9641969397889655e-9 7.397185490010659e-9 4.9759789354755514e-9 3.1170095477064156e-9 3.0482691129085133e-9
          1.8627740131916707e-9 1.2416168564472532e-9 7.562534612475768e-10 3.1896067249874826e-9 1.9499400536923713e-9 1.2946879427017197e-9
          1.2314066029003367e-9 7.956091730920224e-10 5.018757727423584e-10 3.1792651376217316e-10 1.277524275999313e-9 8.253049605458475e-10
          5.201446622262433e-10 5.003693301240046e-10 3.0493128348743473e-10 1.9690107544490557e-10 1.435146631679618e-10 5.200765470308019e-10
          3.174895504884758e-10 2.0640401131716395e-10 5.176233271358144e-10 6.032408207443225e-10 4.1093801781731645e-10 4.718396306092792e-10
          4.1875878738694316e-10 4.757738526367844e-10 3.473102508539576e-10 7.760483654969989e-10 5.472765072436426e-10 5.892164393232851e-10
          9.470282545752243e-10 6.146127267217029e-10 6.96395756319746e-10 3.888701005237736e-10 1.0871458865295712e-9 7.148514473776477e-10
          7.859919765121899e-10 3.505734991579668e-10 3.883049307339143e-10 2.2728864340034094e-10 2.494902634820816e-10 2.527132587298213e-10
          2.519179783834365e-10 1.6302743021682827e-10 4.524631366990735e-10 2.897371506718303e-10 2.644629817313523e-10 1.179751708560781e-9
          7.794180701890619e-10 8.514018838998621e-10 4.570717644686493e-10 1.2160297365717014e-9 8.038145599013914e-10 8.779673666548922e-10
          4.947031193058714e-10 3.1804394050556973e-10 2.868055330517311e-10 1.8317506357974226e-10 5.105163275234576e-10 3.283054632313011e-10
          2.9580780067780917e-10 1.4423683985150471e-10 1.5778386484209388e-10 1.1513805463867063e-10 1.2291128791227968e-10 1.084206669418644e-10
          1.0857878337068996e-10 9.035856025554097e-11 1.8369838016852067e-10 1.2568061944233946e-10 1.1338179209306325e-10 2.0311071612890954e-10
          1.281951549317651e-10 1.1886520172720473e-10 8.00972306245836e-11 2.1015556175346087e-10 1.3321164129296536e-10 1.1970371906779846e-10
          7.735935148887422e-11 7.942226236027845e-11 6.069906098559421e-11 6.066638609679895e-11 5.821622579135629e-11 5.434219030235111e-11
          4.421051277072761e-11 8.14851732316827e-11 6.063371120800368e-11 5.046815481334594e-11 3.1109492392290985e-9 2.8036597006811664e-10
          1.9970129836480054e-9 3.478336627410343e-9 3.09611716787591e-10 2.2756515111519685e-9 3.3029228609810477e-9 2.7649376476119385e-9
          3.1174540724756353e-9 3.2145388334191592e-9 2.8364724542421755e-8 1.264065029050075e-8 1.2794980429924051e-8 6.214009864531509e-8
          2.891272916389165e-8 1.963035693850858e-8 1.1268587852550738e-7 5.3245766680385486e-8 3.2244953835741465e-8 1.6178525490379579e-7
          7.769191923087101e-8 4.3465994147444856e-8 1.8219080917751785e-7 8.814265550995614e-8 4.804604887461027e-8 4.4475877228651635e-9
          6.2230850784184496e-9 2.874537909279094e-9 4.0686465516689044e-9 9.553829770902196e-9 6.360647603956352e-9 1.2373111583570172e-8
          8.320702232497779e-9 1.3637146059307684e-8 9.182864451141566e-9 1.4577783298300064e-9 2.9160300372846077e-9 2.3861053530396624e-9
          3.687866747152547e-9 6.48160347402529e-9 5.378757136821214e-9 7.317053032946386e-9 1.1252075261047161e-8 9.443578472584844e-9
        </DataArray>
        <DataArray type="Float64" Name="gradient_matprop_error" format="ascii" RangeMin="0" RangeMax="0">
          0 0 0 0 0 0
          0 0 0 0 0 0
          0 0 0 0 0 0
          0 0 0 0 0 0
          0 0 0 0 0 0
          0 0 0 0 0 0
          0 0 0 0 0 0
          0 0 0 0 0 0
          0 0 0 0 0 0
          0 0 0 0 0 0
          0 0 0 0 0 0
          0 0 0 0 0 0
          0 0 0 0 0 0
          0 0 0 0 0 0
          0 0 0 0 0 0
          0 0 0 0 0 0
          0 0 0 0 0 0
          0 0 0 0 0 0
          0 0 0 0 0 0
          0 0 0 0 0 0
          0 0 0 0 0 0
          0 0 0 0 0 0
          0 0 0 0 0 0
          0 0 0 0 0 0
          0 0 0 0 0 0
          0 0 0 0 0 0
          0 0 0 0 0 0
          0 0 0 0 0 0
          0 0 0 0 0 0
          0 0 0 0 0 0
          0 0 0 0 0 0
          0 0 0 0 0 0
          0 0 0 0 0 0
          0 0 0 0 0 0
          0 0 0 0 0 0
          0 0 0 0 0 0
          0 0 0 0 0 0
          0 0 0 0 0 0
          0 0 0 0 0 0
          0 0 0 0 0 0
          0 0 0 0 0 0
          0 0 0 0 0 0
          0 0 0 0 0 0
          0 0 0 0 0 0
          0 0 0 0 0 0
          0 0 0 0 0 0
          0 0 0 0 0 0
          0 0 0 0 0 0
          0 0 0 0 0 0
          0 0 0 0 0 0
          0 0 0 0 0 0
          0 0 0 0 0 0
          0 0 0 0 0 0
          0 0 0 0 0 0
          0 0 0 0 0 0
          0 0 0 0 0 0
          0 0 0 0 0 0
          0 0 0 0 0 0
          0 0 0 0 0 0
          0 0 0 0 0 0
          0 0 0 0 0 0
          0 0 0 0 0 0
          0 0 0 0 0 0
          0 0 0 0 0 0
          0 0 0 0 0 0
          0 0 0 0 0 0
          0 0 0 0 0 0
          0 0 0 0 0 0
          0 0 0 0 0 0
          0 0 0 0 0 0
          0 0 0 0 0 0
          0 0 0 0 0 0
          0 0 0 0 0 0
          0 0 0 0 0 0
          0 0 0 0 0 0
        </DataArray>
        <DataArray type="Float64" Name="initial_marker" format="ascii" RangeMin="0" RangeMax="2">
          0.5 2 0 0 1 0
          2 0 1.5 1 2 0
          0 0 0 0 0 0
          0 0 0 1.25 2 0
          0.25 0 0.5 0.5 0 0.5
          2 2 0 1.5 0 2
          2 1 1 2 2 1.75
          2 2 0.5 0 2 2
          1 2 2 2 2 2
          2 2 2 2 1.5 1
          2 2 2 0 0 0
          0 0 0 0 0 0
          0 0 0 0 0 0
          0 0 0 0 0 0
          0 0 0 0 0 0
          0 0 0 0 0 0
          0 1 1.5 1 2 2
          1.5 2 2 2 2 2
          2 2 2 0 0.5 0
          1 1 0 1 1 0
          1 2 2 1 1 0
          1 1 0 2 2 1.75
          2 2 0.75 0.6666666666666666 0 2
          2 2 2 2 2 1.5
          1.5 1 1 2 2 1.3333333333333333
          1.5 1.5 1 1 2 2
          2 2 2 2 2 2
          2 2 2 1.5 1.6666666666666667 2
          2 2 2 2 2 2
          2 2 2 2 2 2
          2 2 2 2 2 2
          2 1.75 2 2 2 1.25
          1 0.5 0 1.75 1.5 1.5
          1 1 0.75 0 0 0
          1.25 1 0.5 2 2 2
          2 2 2 2 2 2
          2 2 2 2 2 2
          2 2 2 2 2 1.6666666666666667
          1.75 1.5 1.5 1 2 2
          2 2 2 2 2 2
          2 2 2 2 2 2
          2 2 2 2 2 2
          2 2 2 2 2 2
          2 2 2 2 2 2
          2 2 2 2 2 2
          2 2 2 2 2 2
          2 2 2 2 2 2
          2 2 2 2 2 2
          2 2 2 2 2 2
          2 2 2 2 1.75 1.6666666666666667
          2 2 2 2 2 2
          2 2 2 1.3333333333333333 2 2
          2 2 2 2 2 2
          2 2 2 2 2 2
          2 2 2 1.75 2 2
          2 2 2 1.25 1.3333333333333333 2
          2 1.5 0 0.5 0 0.5
          0 0 0 1 1 0
          1 1 0 0 1 1
          0 1 1 1 1 0
          0 0 1 1 0 1
          1 0 0 1 1 0
          1 1 0 0 1 1
          0 0.5 0.75 0 0.5 0
          0 0 1 0.6666666666666666 0 1
          0.75 0 0 1 1 0
          0 0.25 0 0 0 0
          0 0.5 0 0 0 0
          0 0 0 0 0 0
          0 0 2 2 1.3333333333333333 2
          2 1.5 2 2 2 2
          2 2 2 2 2 0
          0.5 0 0 1 0 1
          0 1 0 2 2 2
          2 2 2 2 2 2
        </DataArray>
        <DataArray type="Float64" Name="markers_norefine" format="ascii" RangeMin="0" RangeMax="0">
          0 0 0 0 0 0
          0 0 0 0 0 0
          0 0 0 0 0 0
          0 0 0 0 0 0
          0 0 0 0 0 0
          0 0 0 0 0 0
          0 0 0 0 0 0
          0 0 0 0 0 0
          0 0 0 0 0 0
          0 0 0 0 0 0
          0 0 0 0 0 0
          0 0 0 0 0 0
          0 0 0 0 0 0
          0 0 0 0 0 0
          0 0 0 0 0 0
          0 0 0 0 0 0
          0 0 0 0 0 0
          0 0 0 0 0 0
          0 0 0 0 0 0
          0 0 0 0 0 0
          0 0 0 0 0 0
          0 0 0 0 0 0
          0 0 0 0 0 0
          0 0 0 0 0 0
          0 0 0 0 0 0
          0 0 0 0 0 0
          0 0 0 0 0 0
          0 0 0 0 0 0
          0 0 0 0 0 0
          0 0 0 0 0 0
          0 0 0 0 0 0
          0 0 0 0 0 0
          0 0 0 0 0 0
          0 0 0 0 0 0
          0 0 0 0 0 0
          0 0 0 0 0 0
          0 0 0 0 0 0
          0 0 0 0 0 0
          0 0 0 0 0 0
          0 0 0 0 0 0
          0 0 0 0 0 0
          0 0 0 0 0 0
          0 0 0 0 0 0
          0 0 0 0 0 0
          0 0 0 0 0 0
          0 0 0 0 0 0
          0 0 0 0 0 0
          0 0 0 0 0 0
          0 0 0 0 0 0
          0 0 0 0 0 0
          0 0 0 0 0 0
          0 0 0 0 0 0
          0 0 0 0 0 0
          0 0 0 0 0 0
          0 0 0 0 0 0
          0 0 0 0 0 0
          0 0 0 0 0 0
          0 0 0 0 0 0
          0 0 0 0 0 0
          0 0 0 0 0 0
          0 0 0 0 0 0
          0 0 0 0 0 0
          0 0 0 0 0 0
          0 0 0 0 0 0
          0 0 0 0 0 0
          0 0 0 0 0 0
          0 0 0 0 0 0
          0 0 0 0 0 0
          0 0 0 0 0 0
          0 0 0 0 0 0
          0 0 0 0 0 0
          0 0 0 0 0 0
          0 0 0 0 0 0
          0 0 0 0 0 0
          0 0 0 0 0 0
        </DataArray>
        <DataArray type="Float64" Name="markers_mustrefine" format="ascii" RangeMin="0" RangeMax="2">
          0.5 2 0 0 1 0
          2 0 1.5 1 2 0
          0 0 0 0 0 0
          0 0 0 1.25 2 0
          0.25 0 0.5 0.5 0 0.5
          2 2 0 1.5 0 2
          2 1 1 2 2 1.75
          2 2 0.5 0 2 2
          1 2 2 2 2 2
          2 2 2 2 1.5 1
          2 2 2 0 0 0
          0 0 0 0 0 0
          0 0 0 0 0 0
          0 0 0 0 0 0
          0 0 0 0 0 0
          0 0 0 0 0 0
          0 1 1.5 1 2 2
          1.5 2 2 2 2 2
          2 2 2 0 0.5 0
          1 1 0 1 1 0
          1 2 2 1 1 0
          1 1 0 2 2 1.75
          2 2 0.75 0.6666666666666666 0 2
          2 2 2 2 2 1.5
          1.5 1 1 2 2 1.3333333333333333
          1.5 1.5 1 1 2 2
          2 2 2 2 2 2
          2 2 2 1.5 1.6666666666666667 2
          2 2 2 2 2 2
          2 2 2 2 2 2
          2 2 2 2 2 2
          2 1.75 2 2 2 1.25
          1 0.5 0 1.75 1.5 1.5
          1 1 0.75 0 0 0
          1.25 1 0.5 2 2 2
          2 2 2 2 2 2
          2 2 2 2 2 2
          2 2 2 2 2 1.6666666666666667
          1.75 1.5 1.5 1 2 2
          2 2 2 2 2 2
          2 2 2 2 2 2
          2 2 2 2 2 2
          2 2 2 2 2 2
          2 2 2 2 2 2
          2 2 2 2 2 2
          2 2 2 2 2 2
          2 2 2 2 2 2
          2 2 2 2 2 2
          2 2 2 2 2 2
          2 2 2 2 1.75 1.6666666666666667
          2 2 2 2 2 2
          2 2 2 1.3333333333333333 2 2
          2 2 2 2 2 2
          2 2 2 2 2 2
          2 2 2 1.75 2 2
          2 2 2 1.25 1.3333333333333333 2
          2 1.5 0 0.5 0 0.5
          0 0 0 1 1 0
          1 1 0 0 1 1
          0 1 1 1 1 0
          0 0 1 1 0 1
          1 0 0 1 1 0
          1 1 0 0 1 1
          0 0.5 0.75 0 0.5 0
          0 0 1 0.6666666666666666 0 1
          0.75 0 0 1 1 0
          0 0.25 0 0 0 0
          0 0.5 0 0 0 0
          0 0 0 0 0 0
          0 0 2 2 1.3333333333333333 2
          2 1.5 2 2 2 2
          2 2 2 2 2 0
          0.5 0 0 1 0 1
          0 1 0 2 2 2
          2 2 2 2 2 2
        </DataArray>
        <DataArray type="Float64" Name="gradient_marker" format="ascii" RangeMin="0" RangeMax="1">
          0.5 0.5 1 1 1 1
          0.5 1 1 1 1 1
          1 1 1 1 1 1
          1 1 1 0.5 0.5 0.6666666666666666
          0.5 0.5 0.5 0.5 0.5 0.5
          1 1 1 1 1 1
          1 1 1 1 1 1
          1 1 1 1 1 1
          1 1 1 1 1 1
          1 1 1 1 1 1
          1 1 1 1 1 1
          1 1 1 1 1 1
          1 1 1 1 1 1
          1 1 1 1 1 1
          1 1 1 1 1 1
          1 1 1 1 1 1
          1 1 1 1 1 1
          1 1 1 1 1 1
          1 1 1 1 1 1
          1 1 1 1 1 1
          1 1 1 1 1 1
          1 1 1 1 1 1
          1 1 1 1 1 1
          1 1 1 1 1 1
          1 1 1 1 1 1
          1 1 1 1 1 1
          1 1 1 1 1 1
          1 1 1 1 1 1
          1 1 1 1 1 1
          1 1 1 1 1 1
          1 1 1 1 1 1
          1 1 1 1 1 1
          1 1 1 1 1 1
          1 1 1 1 1 1
          1 1 1 1 1 1
          1 1 1 1 1 1
          1 1 1 1 1 1
          1 1 1 1 1 1
          1 1 1 1 1 1
          1 1 1 1 1 1
          1 1 1 1 1 1
          1 1 1 1 1 1
          1 1 1 1 1 1
          1 1 1 1 1 1
          1 1 1 1 1 1
          1 1 1 1 1 1
          1 1 1 1 1 1
          1 1 1 1 1 1
          1 1 1 1 1 1
          1 1 1 1 1 1
          1 1 1 1 1 1
          1 1 1 1 1 1
          1 1 1 1 1 1
          1 1 1 1 1 1
          1 1 1 1 1 1
          1 1 1 1 1 1
          1 1 1 1 1 1
          1 1 1 1 1 1
          1 1 1 1 1 1
          1 1 1 1 1 1
          1 1 1 1 1 1
          1 1 1 1 1 1
          1 1 1 1 1 1
          1 1 1 1 1 1
          1 1 1 1 1 1
          1 1 1 1 1 1
          1 1 1 1 1 1
          1 1 1 1 0.75 1
          1 0.75 1 1 0.5 0.5
          0.5 0.5 0 0.5 0 0.125
          0.5 0 0.375 0.625 0 0.5
          0.75 0 0.5 0.75 0 0
          0 0 0 0 0 0
          0 0 0 1 1 1
          1 1 1 1 1 1
        </DataArray>
        <DataArray type="Float64" Name="gradient_matprop_marker" format="ascii" RangeMin="0" RangeMax="0">
          0 0 0 0 0 0
          0 0 0 0 0 0
          0 0 0 0 0 0
          0 0 0 0 0 0
          0 0 0 0 0 0
          0 0 0 0 0 0
          0 0 0 0 0 0
          0 0 0 0 0 0
          0 0 0 0 0 0
          0 0 0 0 0 0
          0 0 0 0 0 0
          0 0 0 0 0 0
          0 0 0 0 0 0
          0 0 0 0 0 0
          0 0 0 0 0 0
          0 0 0 0 0 0
          0 0 0 0 0 0
          0 0 0 0 0 0
          0 0 0 0 0 0
          0 0 0 0 0 0
          0 0 0 0 0 0
          0 0 0 0 0 0
          0 0 0 0 0 0
          0 0 0 0 0 0
          0 0 0 0 0 0
          0 0 0 0 0 0
          0 0 0 0 0 0
          0 0 0 0 0 0
          0 0 0 0 0 0
          0 0 0 0 0 0
          0 0 0 0 0 0
          0 0 0 0 0 0
          0 0 0 0 0 0
          0 0 0 0 0 0
          0 0 0 0 0 0
          0 0 0 0 0 0
          0 0 0 0 0 0
          0 0 0 0 0 0
          0 0 0 0 0 0
          0 0 0 0 0 0
          0 0 0 0 0 0
          0 0 0 0 0 0
          0 0 0 0 0 0
          0 0 0 0 0 0
          0 0 0 0 0 0
          0 0 0 0 0 0
          0 0 0 0 0 0
          0 0 0 0 0 0
          0 0 0 0 0 0
          0 0 0 0 0 0
          0 0 0 0 0 0
          0 0 0 0 0 0
          0 0 0 0 0 0
          0 0 0 0 0 0
          0 0 0 0 0 0
          0 0 0 0 0 0
          0 0 0 0 0 0
          0 0 0 0 0 0
          0 0 0 0 0 0
          0 0 0 0 0 0
          0 0 0 0 0 0
          0 0 0 0 0 0
          0 0 0 0 0 0
          0 0 0 0 0 0
          0 0 0 0 0 0
          0 0 0 0 0 0
          0 0 0 0 0 0
          0 0 0 0 0 0
          0 0 0 0 0 0
          0 0 0 0 0 0
          0 0 0 0 0 0
          0 0 0 0 0 0
          0 0 0 0 0 0
          0 0 0 0 0 0
          0 0 0 0 0 0
        </DataArray>
        <DataArray type="Float64" Name="combo" format="ascii" RangeMin="0" RangeMax="1">
          0.5 0.5 1 1 1 1
          0.5 1 1 1 1 1
          1 1 1 1 1 1
          1 1 1 0.5 0.5 0.6666666666666666
          0.5 0.5 0.5 0.5 0.5 0.5
          1 1 1 1 1 1
          1 1 1 1 1 1
          1 1 1 1 1 1
          1 1 1 1 1 1
          1 1 1 1 1 1
          1 1 1 1 1 1
          1 1 1 1 1 1
          1 1 1 1 1 1
          1 1 1 1 1 1
          1 1 1 1 1 1
          1 1 1 1 1 1
          1 1 1 1 1 1
          1 1 1 1 1 1
          1 1 1 1 1 1
          1 1 1 1 1 1
          1 1 1 1 1 1
          1 1 1 1 1 1
          1 1 1 1 1 1
          1 1 1 1 1 1
          1 1 1 1 1 1
          1 1 1 1 1 1
          1 1 1 1 1 1
          1 1 1 1 1 1
          1 1 1 1 1 1
          1 1 1 1 1 1
          1 1 1 1 1 1
          1 1 1 1 1 1
          1 1 1 1 1 1
          1 1 1 1 1 1
          1 1 1 1 1 1
          1 1 1 1 1 1
          1 1 1 1 1 1
          1 1 1 1 1 1
          1 1 1 1 1 1
          1 1 1 1 1 1
          1 1 1 1 1 1
          1 1 1 1 1 1
          1 1 1 1 1 1
          1 1 1 1 1 1
          1 1 1 1 1 1
          1 1 1 1 1 1
          1 1 1 1 1 1
          1 1 1 1 1 1
          1 1 1 1 1 1
          1 1 1 1 1 1
          1 1 1 1 1 1
          1 1 1 1 1 1
          1 1 1 1 1 1
          1 1 1 1 1 1
          1 1 1 1 1 1
          1 1 1 1 1 1
          1 1 1 1 1 1
          1 1 1 1 1 1
          1 1 1 1 1 1
          1 1 1 1 1 1
          1 1 1 1 1 1
          1 1 1 1 1 1
          1 1 1 1 1 1
          1 1 1 1 1 1
          1 1 1 1 1 1
          1 1 1 1 1 1
          1 1 1 1 1 1
          1 1 1 1 0.75 1
          1 0.75 1 1 0.5 0.5
          0.5 0.5 0 0.5 0 0.125
          0.5 0 0.375 0.625 0 0.5
          0.75 0 0.5 0.75 0 0
          0 0 0 0 0 0
          0 0 0 1 1 1
          1 1 1 1 1 1
        </DataArray>
        <DataArray type="Float64" Name="dHdT" format="ascii" RangeMin="25.81158597859784" RangeMax="32.035723713657376">
          25.97676316520888 26.75676568119641 25.815450313786407 25.812309059301427 25.832349585950492 25.812869690367286
          26.407202960186396 25.834588770295007 25.89534061205133 25.824888476959927 25.95566190082075 25.81779622788039
          25.822450032839573 25.81300445237222 25.81404030297353 25.815639491502647 25.81813822475601 25.81343482608239
          25.82607075639983 25.814544480442734 25.819568718866435 26.14822292164928 26.652213894888362 25.876312948573343
          25.91143728673881 25.863549519306694 25.96299935532151 26.011825512089146 25.90046006628705 26.03194865281375
          25.981926605193404 25.881647258989766 25.86864138269413 25.839114885420443 25.820799235322085 26.25831857620159
          26.00722302234643 25.92075378674482 25.85851537332657 26.73693526372103 26.236430167491125 26.012167422120907