<?xml version="1.0"?>
<VTKFile type="UnstructuredGrid" version="0.1" byte_order="LittleEndian" header_type="UInt32" compressor="vtkZLibDataCompressor">
  <UnstructuredGrid>
    <Piece NumberOfPoints="1017" NumberOfCells="564">
      <PointData>
        <DataArray type="Int32" Name="libmesh_node_id" format="ascii" RangeMin="684" RangeMax="9067">
          760 761 762 763 764 765
          766 767 768 769 770 771
          772 773 774 775 776 777
          778 779 780 781 798 799
          800 801 802 803 804 805
          806 807 808 817 818 819
          820 821 822 823 824 825
          826 827 836 837 838 839
          840 841 842 843 844 845
          846 847 848 849 850 851
          852 853 854 855 856 857
          858 860 874 875 876 877
          878 879 880 881 882 883
          884 893 894 895 896 897
          898 899 900 901 902 903
          912 913 914 915 916 917
          918 919 920 921 922 923
          924 925 926 927 928 929
          930 931 932 933 934 950
          951 952 953 954 955 956
          957 958 959 960 969 970
          971 972 973 974 975 976
          977 978 979 988 989 990
          991 992 993 994 998 999
          1000 1002 1003 1004 1006 1007
          1077 1078 1079 1080 1081 1082
          1083 1085 1087 1088 1089 1091
          1092 1093 1095 1238 1239 1240
          1241 1242 1243 1244 1245 1246
          1247 1248 1249 1250 1251 1252
          1253 1254 1255 1258 1259 1260
          1262 1263 1265 1282 1283 1284
          1285 1286 1287 1288 1289 1290
          1291 1292 1293 1294 1295 1296
          1297 1298 1299 1302 1303 1304
          1306 1307 1309 1310 1311 1312
          1317 1390 1391 1392 1393 1394
          1395 1396 1397 1398 1399 1400
          1401 1402 1403 1404 1405 1406
          1407 1408 1409 1410 1411 1412
          1413 1414 1415 1416 1417 1419
          1420 1421 1422 1423 1424 1425
          1426 1429 1430 1431 1433 1434
          1436 1850 1851 1852 1853 1854
          1855 1856 1857 1858 1859 1860
          1861 1862 1863 1864 1865 1866
          1867 1870 1871 1872 1874 1875
          1878 1904 1905 1906 1907 1908
          1909 1910 1914 1915 1916 3262
          3263 3264 3265 3266 3267 3268
          3269 3270 3271 3272 3273 3274
          3275 3276 3277 3278 8488 8489
          8490 8491 8492 8493 8494 8495
          8496 8497 8498 8499 8500 8501
          8502 8503 8504 8505 8506 8507
          8508 8509 8510 8511 8512 8513
          8514 8515 8516 8517 8518 8519
          8520 8521 8522 8523 8524 8525
          8526 8527 8528 8529 8530 8531
          8532 8533 8534 8535 8536 8537
          8538 8539 8540 8541 8542 8543
          8544 8545 8546 8547 8548 8549
          8550 8551 8552 8553 8554 8555
          8556 8557 8558 8559 8560 8561
          8562 8563 8564 8565 8566 8567
          8568 8569 8570 8571 8572 8573
          8574 8575 8576 8577 8578 8579
          8580 8581 8582 8583 8584 8585
          8586 8587 8588 8589 8590 8591
          8592 8593 8594 8595 8596 8597
          8598 8599 8600 8601 8602 8603
          8604 8605 8606 8607 8608 8609
          8610 8611 8612 8613 8614 8615
          8616 8617 8618 8619 8620 8621
          8622 8623 8624 8625 8626 8627
          8628 8629 8630 8631 8632 8633
          8634 8635 8636 8637 8638 8639
          8640 8641 8642 8643 8644 8645
          8646 8647 8648 8649 8650 8651
          8652 8653 8654 8655 8656 8657
          8658 8659 8660 8661 8662 8663
          8664 8665 8666 8667 8668 8669
          8670 8671 8672 8673 8674 8675
          8676 8677 8678 8679 8680 8681
          8682 8683 8684 8685 8686 8687
          8688 8689 8690 8691 8692 8693
          8694 8695 8696 8697 8698 8699
          8700 8701 8702 8703 8704 8705
          8706 8707 8708 8709 8710 8711
          8712 8713 8714 8715 8716 8717
          8718 8719 8720 8721 8722 8723
          8724 8725 8726 8727 8728 8729
          8730 8731 8732 8733 8734 8735
          8736 8737 8738 8739 8740 8741
          8742 8743 8744 8745 8746 8747
          8748 8749 8750 8751 8752 8753
          8754 8755 8756 8757 8758 8759
          8760 8761 8762 8763 8764 8765
          8766 8767 8768 8769 8770 8771
          8772 8773 8774 8775 8776 8777
          8778 8779 8780 8781 8782 8783
          8784 8785 8786 8787 8788 8789
          8790 8791 8792 8793 8794 8795
          8796 8797 8798 8799 8800 8801
          8802 8803 8804 8805 8806 8807
          8808 8809 8810 8811 8812 8813
          8814 8815 8816 8817 8818 8819
          8820 8821 8822 8823 8824 8825
          8826 8827 8828 8829 8830 8831
          8832 8833 8834 8835 8836 8837
          8838 8839 8840 8841 8842 8843
          8844 8845 8846 8847 8848 8849
          8850 8851 8852 8853 8854 8855
          8856 8857 8858 8859 8860 8861
          8862 8863 8864 8865 8866 8867
          8868 8869 8870 8871 8872 8873
          8874 8875 8876 8877 8878 8879
          8880 8881 8882 8883 8884 8885
          8886 8887 8888 8889 8890 8891
          8892 8893 8894 8895 8896 8897
          8898 8899 8900 8901 8902 8903
          8904 8905 8906 8907 8908 8909
          8910 8911 8912 8913 8914 8915
          8916 8917 8918 8919 8920 8921
          8922 8923 8924 8925 8926 8927
          8928 8929 8930 8931 8932 8933
          8934 8935 8936 8937 8938 8939
          8940 8941 8942 8943 8944 8945
          8946 8947 8948 8949 8950 8951
          8952 8953 8954 8955 8956 8957
          8958 8959 8960 8961 8962 8963
          8964 8965 8966 8967 8968 8969
          8970 8971 8972 8973 8974 8975
          8976 8977 8978 8979 8980 8981
          8982 8983 8984 8985 8986 8987
          8988 8989 8990 8991 8992 8993
          8994 8995 8996 8997 8998 8999
          9000 9001 9002 9003 9004 9005
          9006 9007 9008 9009 9010 9011
          9012 9013 9014 9015 9016 9017
          9018 9019 9020 9021 9022 9023
          9024 9025 9026 9027 9028 9029
          9030 9031 9032 9033 9034 9035
          9036 9037 9038 9039 9040 9041
          9042 9043 9044 9045 9046 9047
          9048 9049 9050 9051 9052 9053
          9054 9055 9056 9057 9058 9059
          9060 9061 9062 9063 9064 9065
          9066 9067 684 685 686 687
          688 689 690 691 692 693
          694 695 696 697 698 699
          700 701 702 703 704 705
          706 707 782 783 722 723
          724 725 726 727 728 729
          730 731 732 733 809 741
          742 743 744 745 746 747
          748 749 750 751 752 828
          859 885 904 961 980 995
          997 1001 1207 1208 1209 1210
          1008 1212 1213 1011 1215 1216
          1014 1256 1257 1261 935 1264
          1300 1090 1301 1305 1005 1308
          1313 1314 1315 1316 1318 1319
          1320 1321 1322 1323 1086 1418
          1094 1427 1428 1432 1435 1437
          1438 1439 1440 1444 1445 1447
          1448 1450 1206 1868 1869 1873
          996 1084 1876 1877 1879 1911
          1912 1913 1917 1920 1921 1926
          1935 1937 1942
        </DataArray>
        <DataArray type="Float64" Name="bounds" format="ascii" RangeMin="0" RangeMax="0">
          0 0 0 0 0 0
          0 0 0 0 0 0
          0 0 0 0 0 0
          0 0 0 0 0 0
          0 0 0 0 0 0
          0 0 0 0 0 0
          0 0 0 0 0 0
          0 0 0 0 0 0
          0 0 0 0 0 0
          0 0 0 0 0 0
          0 0 0 0 0 0
          0 0 0 0 0 0
          0 0 0 0 0 0
          0 0 0 0 0 0
          0 0 0 0 0 0
          0 0 0 0 0 0
          0 0 0 0 0 0
          0 0 0 0 0 0
          0 0 0 0 0 0
          0 0 0 0 0 0
          0 0 0 0 0 0
          0 0 0 0 0 0
          0 0 0 0 0 0
          0 0 0 0 0 0
          0 0 0 0 0 0
          0 0 0 0 0 0
          0 0 0 0 0 0
          0 0 0 0 0 0
          0 0 0 0 0 0
          0 0 0 0 0 0
          0 0 0 0 0 0
          0 0 0 0 0 0
          0 0 0 0 0 0
          0 0 0 0 0 0
          0 0 0 0 0 0
          0 0 0 0 0 0
          0 0 0 0 0 0
          0 0 0 0 0 0
          0 0 0 0 0 0
          0 0 0 0 0 0
          0 0 0 0 0 0
          0 0 0 0 0 0
          0 0 0 0 0 0
          0 0 0 0 0 0
          0 0 0 0 0 0
          0 0 0 0 0 0
          0 0 0 0 0 0
          0 0 0 0 0 0
          0 0 0 0 0 0
          0 0 0 0 0 0
          0 0 0 0 0 0
          0 0 0 0 0 0
          0 0 0 0 0 0
          0 0 0 0 0 0
          0 0 0 0 0 0
          0 0 0 0 0 0
          0 0 0 0 0 0
          0 0 0 0 0 0
          0 0 0 0 0 0
          0 0 0 0 0 0
          0 0 0 0 0 0
          0 0 0 0 0 0
          0 0 0 0 0 0
          0 0 0 0 0 0
          0 0 0 0 0 0
          0 0 0 0 0 0
          0 0 0 0 0 0
          0 0 0 0 0 0
          0 0 0 0 0 0
          0 0 0 0 0 0
          0 0 0 0 0 0
          0 0 0 0 0 0
          0 0 0 0 0 0
          0 0 0 0 0 0
          0 0 0 0 0 0
          0 0 0 0 0 0
          0 0 0 0 0 0
          0 0 0 0 0 0
          0 0 0 0 0 0
          0 0 0 0 0 0
          0 0 0 0 0 0
          0 0 0 0 0 0
          0 0 0 0 0 0
          0 0 0 0 0 0
          0 0 0 0 0 0
          0 0 0 0 0 0
          0 0 0 0 0 0
          0 0 0 0 0 0
          0 0 0 0 0 0
          0 0 0 0 0 0
          0 0 0 0 0 0
          0 0 0 0 0 0
          0 0 0 0 0 0
          0 0 0 0 0 0
          0 0 0 0 0 0
          0 0 0 0 0 0
          0 0 0 0 0 0
          0 0 0 0 0 0
          0 0 0 0 0 0
          0 0 0 0 0 0
          0 0 0 0 0 0
          0 0 0 0 0 0
          0 0 0 0 0 0
          0 0 0 0 0 0
          0 0 0 0 0 0
          0 0 0 0 0 0
          0 0 0 0 0 0
          0 0 0 0 0 0
          0 0 0 0 0 0
          0 0 0 0 0 0
          0 0 0 0 0 0
          0 0 0 0 0 0
          0 0 0 0 0 0
          0 0 0 0 0 0
          0 0 0 0 0 0
          0 0 0 0 0 0
          0 0 0 0 0 0
          0 0 0 0 0 0
          0 0 0 0 0 0
          0 0 0 0 0 0
          0 0 0 0 0 0
          0 0 0 0 0 0
          0 0 0 0 0 0
          0 0 0 0 0 0
          0 0 0 0 0 0
          0 0 0 0 0 0
          0 0 0 0 0 0
          0 0 0 0 0 0
          0 0 0 0 0 0
          0 0 0 0 0 0
          0 0 0 0 0 0
          0 0 0 0 0 0
          0 0 0 0 0 0
          0 0 0 0 0 0
          0 0 0 0 0 0
          0 0 0 0 0 0
          0 0 0 0 0 0
          0 0 0 0 0 0
          0 0 0 0 0 0
          0 0 0 0 0 0
          0 0 0 0 0 0
          0 0 0 0 0 0
          0 0 0 0 0 0
          0 0 0 0 0 0
          0 0 0 0 0 0
          0 0 0 0 0 0
          0 0 0 0 0 0
          0 0 0 0 0 0
          0 0 0 0 0 0
          0 0 0 0 0 0
          0 0 0 0 0 0
          0 0 0 0 0 0
          0 0 0 0 0 0
          0 0 0 0 0 0
          0 0 0 0 0 0
          0 0 0 0 0 0
          0 0 0 0 0 0
          0 0 0 0 0 0
          0 0 0 0 0 0
          0 0 0 0 0 0
          0 0 0 0 0 0
          0 0 0 0 0 0
          0 0 0 0 0 0
          0 0 0 0 0 0
          0 0 0 0 0 0
          0 0 0 0 0 0
          0 0 0 0 0 0
          0 0 0 0 0 0
          0 0 0 0 0 0
          0 0 0
        </DataArray>
        <DataArray type="Float64" Name="gradient_error" format="ascii" RangeMin="7.155730739309521e-11" RangeMax="6.494451380823548e-7">
          4.2721157464920387e-8 4.427029623608688e-8 1.1757076827231064e-7 1.2023866528590713e-7 5.091041820054653e-8 1.1210016515081524e-7
          6.531095280588483e-8 1.0773944697544125e-7 2.0229524181189434e-7 1.6633569351788506e-7 3.025835182483446e-7 2.0674857152644392e-7
          2.4499395437538935e-7 1.634962733731634e-7 1.216689326690939e-7 8.6095893379115e-8 1.6310944867664458e-8 2.116730741323086e-8
          7.837390568049849e-9 7.878539086222183e-9 5.54078861464118e-9 3.28901779437461e-9 1.0632912999759005e-7 1.1049067098728394e-7
          9.614944524028732e-8 8.382160022847022e-8 7.08160855798474e-8 5.675397686554678e-8 4.20950212665805e-8 2.741846848111409e-8
          1.4165692324185665e-8 5.648206872978885e-9 2.057282289948379e-9 2.052525819453461e-8 2.263294799735325e-8 1.5507523642562472e-8
          9.920104536713352e-9 5.256769750904908e-9 2.5943289265503376e-9 2.1914501622235696e-9 2.0432224255583786e-9 1.1029807045735226e-9
          4.831405870329784e-10 2.876341539108154e-10 2.437014947405017e-7 2.52532275450445e-7 2.4807772768151476e-7 2.481148129372349e-7
          2.686681618649118e-7 2.460472472449697e-7 2.8597333596476046e-7 2.413223063611567e-7 4.23042692020969e-7 2.956963674868946e-7
          5.453639632141435e-7 3.3968150486921275e-7 5.185058666036883e-7 3.037090246788002e-7 2.908954118582164e-7 2.311115549485552e-7
          6.699173913062724e-8 1.6588610991946475e-7 4.720152770355692e-8 1.3481468736543808e-7 2.051300860584481e-7 1.0010044253481849e-7
          2.0389507451175862e-8 1.6616536354412648e-9 1.6867619359305825e-7 1.7683809754057073e-7 1.4937597882680088e-7 1.2615784057019805e-7
          1.0203901261645414e-7 7.763283181694902e-8 5.418061601870156e-8 3.334908810282513e-8 1.6873582520737657e-8 6.868613111055792e-9
          2.41294316408642e-9 1.102390439976649e-7 1.183084634559132e-7 9.084371083559315e-8 6.804340379864188e-8 4.600980526507696e-8
          2.735893203014601e-8 1.4102015363153423e-8 6.0120252872889795e-9 2.7061400529627007e-9 1.8152504058743367e-9 8.826080159873243e-10
          2.2209999523063126e-7 2.4226874899721705e-7 3.1820765930733814e-7 3.0093164023833316e-7 2.825987685910848e-7 3.5176651945142457e-7
          3.3416371704219103e-7 3.914193840583911e-7 4.005158326683348e-7 4.370371077379275e-7 4.953778664211256e-7 4.889636977477093e-7
          4.922021364219589e-8 3.822795075871824e-7 6.400918408568705e-8 2.3832365380449704e-7 9.28486885355152e-8 2.3238632017653863e-7
          1.4426095596092687e-7 2.0818596920137901e-7 2.4064131442252425e-7 1.5829712348975689e-7 3.90945880301778e-8 1.6551778734967863e-7
          1.7308379559904313e-7 1.4817762106911137e-7 1.2672862608788935e-7 1.0343292479429036e-7 7.939431031782625e-8 5.5790324336696076e-8
          3.452816776396058e-8 1.815777564769376e-8 6.450787058298951e-9 3.5167625907369496e-9 1.8166468801062763e-7 1.9391717445195756e-7
          1.5216734844881918e-7 1.1722458369816753e-7 8.265224873351094e-8 5.1032970991095545e-8 2.539367967040054e-8 9.252999584268646e-9
          3.948803537162562e-9 2.945405777233785e-9 1.328890862752207e-9 1.9961314547615798e-7 1.6610752048383681e-7 1.8706582420344592e-7
          3.5932741271027753e-7 3.9364690614817124e-7 2.849558077283413e-7 2.9249220389332064e-7 9.96256787404729e-8 1.1919621048769581e-7
          1.6085565835585585e-7 1.703971399493273e-7 2.6773523409863006e-7 3.0065535187285503e-7 1.2332244747602257e-7 5.2525368936239665e-9
          1.7890097954518593e-7 1.5832929340766647e-7 2.8586017602373063e-7 2.9802404147394195e-7 1.5586169370797816e-7 1.4528249446995295e-7
          2.9203517968992744e-7 7.585471187330155e-8 1.5524525061637663e-7 1.934642577842426e-7 2.6779427122528887e-7 3.0790641995153144e-8
          5.727871877785581e-8 2.0129917800430954e-7 1.9398750628199565e-7 5.118132481818712e-8 1.2151762796097083e-7 1.2904126001081223e-7
          1.797809962725295e-7 2.0154297962374585e-7 2.272688718679732e-7 2.2579662768450418e-7 1.5502203518883638e-7 1.953645930901275e-7
          2.2324523175309763e-7 1.8521653190908717e-7 2.4902344739839295e-7 2.0870427895758162e-7 1.8676482513840973e-7 1.361100707567241e-8
          2.400041879135089e-8 3.874543836485627e-8 5.8116636637818595e-8 1.341453305577409e-9 3.578736081951027e-9 3.803081991534728e-9
          6.387986965404013e-8 9.22328544842863e-8 5.816018858324645e-9 3.891425752643672e-7 3.573932251920309e-7 2.499099789716027e-7
          2.9571334882270575e-7 3.347259603498513e-7 3.4256328015356443e-7 3.0594561258532145e-7 2.5889680059053687e-7 2.953754806257031e-7
          2.727904686973757e-7 2.8030934543533534e-7 3.277333351150978e-7 2.85723213922289e-7 3.318541606608693e-7 1.3058475847569116e-7
          1.3703859724311157e-7 1.7431115123707004e-7 1.763740688859726e-7 6.93099341409982e-8 9.103782011324008e-8 1.0255651462851308e-7
          2.1803754399844892e-7 2.1570954052883365e-7 1.1276570608548197e-7 1.2003852363572892e-9 2.3927090338941853e-9 4.858356063624086e-9
          9.387824212705208e-10 5.480797371143878e-8 5.5019288612410363e-8 4.881345532956763e-8 4.3421055122328766e-8 4.419485671701003e-8
          4.746029929408374e-8 4.4872518962933543e-8 6.365644984350118e-8 4.712232594311729e-8 5.257849932214151e-8 5.682816879852352e-8
          5.490800210920005e-8 5.149615867659605e-8 6.125169705888161e-8 3.358173972258127e-8 3.990130997575713e-8 4.093158259629946e-8
          4.069544636520839e-8 5.298783541987657e-8 6.873669007239085e-8 6.848001261143954e-8 5.1610762128797826e-8 5.778203805617937e-8
          7.563960745488814e-8 5.739982749905111e-8 6.416555995265462e-8 6.644691974479844e-8 6.72134730850057e-8 3.4319172495385796e-8
          4.519505151188611e-8 5.103624430334145e-8 6.307074733352153e-8 5.9675577557139e-8 5.8345281555623694e-8 6.847301604418605e-8
          6.321480464264075e-8 5.4680650775169374e-8 6.647239990192164e-8 6.196088786868402e-8 6.9883048905965e-8 6.431140873651168e-8
          6.969553367327335e-8 9.263957828138606e-9 6.208003356645305e-9 5.264142721579017e-9 3.125352821919001e-8 3.284114398098327e-8
          2.332052658056154e-8 2.2507062041606603e-8 3.152048885152001e-9 1.3799909180139809e-8 1.376059586402319e-8 3.832807661328001e-8
          3.572683508688479e-8 5.0500767737850425e-8 8.2880345412854e-8 7.629801867019524e-8 6.64184814439249e-8 7.142868980124908e-8
          1.547051860279132e-8 3.312559356048957e-8 5.6538944217654555e-8 5.997703418964414e-8 3.274790165895849e-9 8.120613970355532e-9
          1.2966437774815215e-8 5.337792573605929e-8 5.0902605513820786e-8 5.2082902906179814e-8 5.9510705437875156e-8 6.097447705931557e-8
          5.874680306811363e-8 5.706457393926705e-8 4.513334117499366e-8 5.333549091405034e-8 5.2120653857584495e-8 3.7772523872584835e-8
          3.893565013617992e-8 4.5030347902227866e-8 4.4867546852755677e-8 3.370565068676465e-8 3.990884305326673e-8 4.011222843100131e-8
          5.642585442531321e-8 5.319851137063614e-8 5.820079632814217e-8 5.574607258278645e-8 5.4425974766961313e-8 5.731133030904171e-8
          5.4823810615919115e-8 5.997573823097112e-8 5.8293633794936766e-8 6.019668585112212e-8 5.6608292465931516e-8 5.584683472026772e-8
          5.6175969043888396e-8 1.0906243424764993e-7 1.0847659410154463e-7 9.817039163690791e-8 9.881968837868355e-8 5.5155611316047686e-8
          1.0693517976020513e-7 9.647163571145969e-8 5.5085376974603925e-8 8.786418917227118e-8 8.857694250971716e-8 8.600809166271427e-8
          2.4623510778684416e-7 2.3065485575196102e-7 2.2866772927112287e-7 2.3557865784079491e-7 2.1089689776173489e-7 5.6848807139149484e-8
          5.4686989267332993e-8 1.0480520402721474e-7 9.416715285068986e-8 5.485296754390378e-8 1.0219937088255507e-7 9.138914455728829e-8
          5.252517139551651e-8 8.352910167416497e-8 8.057891823202152e-8 2.603728462391987e-7 2.417672439591089e-7 2.482729192863705e-7
          2.1785334959947087e-7 6.117593898208703e-8 5.590520995715656e-8 9.904658752151412e-8 8.804193080000989e-8 5.823015621941354e-8
          9.537432188498256e-8 8.40970169810406e-8 5.063448093222609e-8 7.703727407850563e-8 7.281971207709861e-8 2.7720189120650615e-7
          2.547211959098636e-7 2.6100562446251635e-7 2.255071549120417e-7 7.270341376197481e-8 6.228368078004228e-8 9.136456421919037e-8
          7.960074774203025e-8 6.479199024698073e-8 8.930572043579235e-8 7.72251631810151e-8 5.1863947798109754e-8 6.783693126487013e-8
          6.514460592623786e-8 2.9521852512631253e-7 2.6716253898826056e-7 3.387847630883305e-7 2.3079151723415772e-7 6.366421624296385e-9
          4.131063649756402e-9 5.999178717511626e-9 1.8151123458235432e-8 1.8233440398119746e-8 1.4321185476924294e-8 1.2960197233214666e-8
          1.8957056752164187e-9 1.0408930555728842e-8 7.7692710081939e-9 2.7407315306527196e-7 2.799925773580205e-7 2.9958790221562056e-7
          2.940180870807309e-7 2.949401565929278e-7 3.13674351280707e-7 2.8092881450934516e-7 2.773141277105991e-7 2.900375235185247e-7
          2.2785983487951032e-7 2.783600414808671e-7 2.7216412333269474e-7 2.93979046986696e-7 3.0583378306105714e-7 3.1451318491931894e-7
          3.321307866510866e-7 3.369453864183151e-7 3.531395235143775e-7 3.018182653865514e-7 3.148371024452347e-7 2.610422782755205e-7
          3.14374401818002e-7 3.3765853002668676e-7 3.3412302235030337e-7 3.621820252567826e-7 3.7648581822264984e-7 3.9057352809819496e-7
          4.0241342365979424e-7 3.2870569599993524e-7 3.4337466171449723e-7 3.0687750416149404e-7 3.637078962684356e-7 3.927794761372232e-7
          3.708706932442005e-7 4.2263079519695643e-7 4.3132481503866364e-7 4.576278622120448e-7 4.62715943148896e-7 3.588729250678991e-7
          3.749440355952398e-7 3.648502548176937e-7 4.2524236680482426e-7 4.62083909722821e-7 4.134635316503769e-7 5.455155803887804e-7
          4.867820940988503e-7 4.94570117046652e-7 4.957936138135423e-7 5.091084556602702e-7 5.352185897733469e-7 5.317167626996539e-7
          3.2008091403451667e-7 3.9113666645340596e-7 4.075223770751185e-7 4.436246537045237e-7 5.048051335282344e-7 5.543250697390374e-7
          4.6219241887229546e-7 6.022001591549909e-7 5.297764939752883e-7 4.5144173040342623e-7 5.053147378418446e-7 5.455319621009571e-7
          3.598397256808529e-7 3.934507527981743e-7 3.30855870245812e-7 4.2343299556733265e-7 3.5505473416855623e-7 2.932964511372166e-7
          4.809534832282859e-7 2.406496049360938e-7 5.160101208888532e-7 6.494451380823548e-7 5.591699606591967e-7 3.7970930712323867e-7
          3.322380981883672e-7 2.952139495385116e-7 2.536527356907624e-7 2.6992675841055457e-7 3.2784955668960763e-7 2.7918118035612535e-7
          2.7591085339688905e-7 5.5562241797737376e-8 1.0210312733337947e-7 1.1555052538788473e-7 2.366240610610151e-7 6.98826627755493e-8
          1.5792688693430746e-7 1.2642669083812117e-7 2.0647325754424813e-7 1.5243151866444477e-7 1.4218910406848543e-7 2.1398832636205909e-7
          2.178765774892739e-7 2.691358500448471e-7 2.591211648392269e-7 7.701487582238919e-8 1.3174196719246542e-7 1.5192439212464378e-7
          2.3714967103980446e-7 5.7031194700226155e-8 1.4134600761927868e-7 1.5989350051540878e-7 2.2097936101079368e-7 1.9105670070955345e-7
          2.444049356499914e-7 1.1442050252302038e-7 1.770508062219684e-7 2.2306645775165766e-7 1.5440237485670227e-7 1.544675091606113e-7
          1.8576613221121455e-7 1.8520511602731485e-7 1.5418995655519154e-7 1.871191933594035e-7 1.0626326386235557e-7 1.288578624769595e-7
          1.2974499772962128e-7 1.2657188565024407e-7 2.1712988956572688e-7 2.1594272289401838e-7 2.2004843016361546e-7 1.5145246109156344e-7
          1.5395681928140487e-7 1.8884393467268267e-7 1.5355777015539716e-7 1.9052954536018955e-7 1.0067687312243534e-7 1.237997269551166e-7
          1.2071854644034954e-7 2.237310500639605e-7 2.2750132056498195e-7 1.4692258078779785e-7 1.5268228724382134e-7 1.9180737707892334e-7
          1.5121405311038846e-7 1.9252607689572874e-7 9.332411097795944e-8 1.169929733464931e-7 1.125561495838564e-7 2.309324669140253e-7
          2.33838100681069e-7 1.4066183571502676e-7 1.4901796847307048e-7 1.9252480782500056e-7 1.459908262752812e-7 1.9165437052604502e-7
          8.387449094408514e-8 1.0732260039457377e-7 1.0122469394735757e-7 2.3603164717693067e-7 2.373179147768088e-7 1.307707098450624e-7
          1.420150081083016e-7 1.8974148224450208e-7 1.3696134222425534e-7 1.8658336413288422e-7 7.191679595649003e-8 9.422674216262459e-8
          8.63369097414923e-8 2.3746795638070252e-7 2.362053860415131e-7 1.1653668836875917e-7 1.3079463963176118e-7 1.8220773361686431e-7
          1.2322436743695013e-7 1.7657155537748116e-7 5.723036756748397e-8 7.74845049312635e-8 6.766894587595996e-8 2.336208276019675e-7
          2.299187433180122e-7 9.773864229504303e-8 1.1394902015518701e-7 1.6907215312169128e-7 1.0354402882908159e-7 1.59433437262255e-7
          4.1093710167197214e-8 5.721191121212859e-8 4.6372973249773296e-8 2.2419528608819546e-7 2.1532284569542844e-7 7.333011225705999e-8
          9.228740892793718e-8 1.4768656638655188e-7 7.96351582109374e-8 1.3347881017014835e-7 2.4718467334012808e-8 3.534171666834374e-8
          2.4808226544379365e-8 2.0308572384516661e-7 1.873224621293593e-7 4.5964966002674676e-8 6.577637915849063e-8 1.1676141504706473e-7
          5.1442133509768314e-8 9.80162808473334e-8 1.1127527253255159e-8 1.5498050421694582e-8 8.203505122119724e-9 1.6774645093563888e-7
          1.4459042818489852e-7 1.9868573590134006e-8 3.7216419770532166e-8 7.821176610796091e-8 3.3700592226127237e-9 4.416914104520989e-9
          1.1920711244538964e-7 5.463768986429254e-9 1.405821661982639e-7 1.4179603991131972e-7 1.756539223973281e-7 1.7298271061898964e-7
          8.901460633514863e-8 1.1095748350052745e-7 1.1656236019116498e-7 2.1072567859639227e-7 2.0416938132665954e-7 1.3290036066590624e-7
          6.853732591581455e-8 6.545530291533084e-8 6.515845777100648e-8 1.0132221107095724e-7 1.0092147072365507e-7 9.263552387529533e-8
          9.353422588346719e-8 6.71144589441569e-8 9.964814076908725e-8 9.07290964516226e-8 6.237327991484714e-8 8.43495770269356e-8
          8.574624069597716e-8 8.181005213415795e-8 1.904365273538986e-7 1.8084394430943952e-7 1.7164578566026424e-7 1.900437492505097e-7
          1.7089105296148708e-7 7.957854081637749e-8 7.119980570442501e-8 9.757594842953572e-8 8.759479336111623e-8 7.397710363343128e-8
          9.63539145431352e-8 8.56855090257658e-8 6.282107059247253e-8 7.761363829269677e-8 7.50171035083964e-8 2.1340750845255379e-7
          1.991573122048855e-7 1.8428611296472804e-7 1.8408604956337815e-7 2.0539432965597196e-7 2.204392748206972e-7 1.9964527931034842e-7
          2.3063420004141775e-7 2.446487305458305e-7 2.153978035556308e-7 1.9985666606861707e-7 2.3259695890310725e-7 1.6322122013564238e-7
          1.990064058577752e-7 1.7790898129609621e-7 2.2355369654972973e-7 2.2762196473854296e-7 2.608146550725536e-7 2.7315804937933297e-7
          2.5173603113706963e-7 2.1038764928269356e-7 2.519912553667024e-7 2.732459958235078e-7 1.3701060619435812e-7 1.3374482148857207e-7
          1.584748966629942e-7 1.5262211115834175e-7 1.3963462311571076e-7 1.6400111855257615e-7 1.0385077603421583e-7 1.2163840620014918e-7
          1.2073539923676802e-7 1.214715803491808e-7 1.7993918713163027e-7 1.714994008281114e-7 1.883676139894415e-7 1.3942603636608255e-7
          1.4133852101465968e-7 1.6894947691727e-7 9.963293504956978e-8 1.199283352465131e-7 1.9656043281988037e-7 1.4022373544345641e-7
          1.7083735923434023e-8 1.4955756185541416e-8 2.163296382712489e-8 4.5770891038835794e-8 4.357974102478865e-8 3.3156218582443544e-8
          3.593955257295463e-8 8.591133365355502e-9 3.8114605314308784e-8 2.694089397141117e-8 1.2827776447648805e-8 2.2732696140098434e-8
          2.6108214107073468e-8 1.5767182628513564e-8 1.116853725364074e-8 8.186553171494698e-9 2.9230575461399412e-8 1.9463462345321984e-8
          5.204569089348656e-9 9.696349229244555e-9 8.421552979684338e-8 8.357056752010165e-8 7.643122520679547e-8 7.053894179602477e-8
          7.002004250768244e-8 7.575612716751966e-8 7.283830146935807e-8 9.471784637888473e-8 7.197361214729256e-8 8.135777215565234e-8
          8.29256052433599e-8 8.149221182735686e-8 7.513766114269139e-8 9.24120152153607e-8 5.5824555218521516e-8 6.794168681493766e-8
          6.924537773192068e-8 6.799769793241994e-8 8.005881841135381e-8 1.0250002641840778e-7 1.0227030819279805e-7 7.71700921611312e-8
          8.65867585226334e-8 1.0976058659630813e-7 8.276785898092988e-8 9.228722594615033e-8 9.79190645901954e-8 9.761325520182552e-8
          1.0370468152545866e-7 5.184015790385461e-8 7.090320885246878e-8 7.481386529599251e-8 9.730744581345561e-8 1.1830780188358956e-7
          1.1791628666822907e-7 8.881187276945654e-8 9.888627661593137e-8 1.149691730973533e-7 9.452649517929512e-8 1.0549297266622068e-7
          1.1191314815878211e-7 1.102036821179369e-7 1.1703028428636067e-7 5.931594365532353e-8 7.985626656363367e-8 8.575863634393775e-8
          1.0849421607709168e-7 7.635852297193541e-8 7.353396542844264e-8 7.718156891519324e-8 9.153031314300621e-8 9.200308429342089e-8
          8.66237918694146e-8 8.581723511512295e-8 6.877399954504089e-8 9.32257042465409e-8 8.80459966105815e-8 7.070940788494984e-8
          8.124449944540834e-8 8.010415708723968e-8 8.28662889746221e-8 1.1851682439766685e-7 1.1562571315177983e-7 1.234773313512753e-7
          1.1432979483649461e-7 6.798776170967665e-8 6.74768927415739e-8 9.497897636174133e-8 8.944502635184537e-8 6.707569121124203e-8
          9.690162547972953e-8 9.092930833811844e-8 6.696602377347118e-8 8.391107634194944e-8 8.495699119650736e-8 1.3415150497081945e-7
          1.3063655679249587e-7 1.3795429695837033e-7 1.2800783405458317e-7 9.979058767925293e-8 1.1214066316069228e-7 1.0655321421525251e-7
          1.2010330914234368e-7 1.2441657837585134e-7 1.3259176004109839e-7 7.019517217807853e-8 9.27435183282115e-8 1.005699492582589e-7
          1.2322825999989416e-7 1.1533691191233273e-7 1.295915986533456e-7 1.2548689034800999e-7 1.4025472938324332e-7 1.414323391196258e-7
          1.5098645917016148e-7 8.434100489683261e-8 1.0932324368381634e-7 1.193837903147409e-7 1.412809916125907e-7 1.0540657370328099e-7
          1.0139104964385497e-7 1.1297012962357608e-7 1.0804500340577019e-7 1.0952306109558873e-7 1.1812447356848252e-7 9.329296670886371e-8
          1.0159784113758114e-7 9.848888839196526e-8 1.0471883112420314e-7 1.2053368554387118e-7 1.1469895716768538e-7 1.2672588604137632e-7
          1.0990271556629854e-7 1.1365097589144625e-7 1.2346574169726324e-7 1.1780658069504517e-7 1.2900937934949872e-7 9.752166684748758e-8
          1.0791309054963336e-7 1.1106840877715119e-7 1.332805075030802e-7 1.402121780039523e-7 1.1830451425177914e-7 6.713342025288914e-8
          6.660714435046962e-8 9.861543374966678e-8 9.220449341529955e-8 6.605816073715831e-8 1.0001570290665268e-7 9.315717742287625e-8