<?xml version="1.0"?>
<VTKFile type="UnstructuredGrid" version="0.1" byte_order="LittleEndian" header_type="UInt32" compressor="vtkZLibDataCompressor">
  <UnstructuredGrid>
    <Piece NumberOfPoints="928" NumberOfCells="558">
      <PointData>
        <DataArray type="Int32" Name="libmesh_node_id" format="ascii" RangeMin="860" RangeMax="6513">
          862 939 1021 1022 1024 1027
          1028 1029 1032 1034 1133 1142
          1145 1146 1147 1151 1156 1157
          1158 1161 1164 1166 1167 1168
          1169 1170 1171 1172 1173 1174
          1175 1340 1341 1344 1347 1349
          1350 1351 1354 1355 1356 1357
          1358 1359 1598 1600 1601 1602
          1604 1606 1636 1638 1640 1670
          1671 1672 1673 1674 1675 1676
          1677 1678 1679 1680 1681 1682
          1683 1684 1685 1686 1689 1710
          1711 1712 1713 1714 1715 1716
          1738 1739 1740 1741 1742 1743
          1744 1745 1746 1747 1748 1749
          1750 1751 1752 1753 1754 1755
          1756 1757 1758 1759 1760 1762
          1763 2238 2239 2240 2241 2401
          2402 2405 2406 2407 2408 2409
          2419 2420 2423 2424 2425 2426
          2523 2524 2527 2528 2529 2530
          2532 2537 2538 2539 2542 2547
          2548 2549 2689 2691 2692 2693
          2694 2695 2698 2699 2700 2701
          2702 2703 2704 2705 2706 2707
          2708 2709 2710 2711 2712 2713
          2714 2715 2716 2717 2718 2719
          2720 2721 2722 2723 2724 2725
          2726 2727 2728 2729 2730 2731
          2732 2733 2734 2735 2736 2737
          2738 2739 2740 2741 2742 2743
          2744 2745 2746 2747 2748 2749
          2750 2768 2770 2772 2773 2774
          2778 2780 2782 2816 2817 2818
          2819 2820 2821 2822 2823 2824
          2825 2826 2827 2828 2829 2830
          2831 2832 2833 2834 2835 2836
          2837 2838 2839 2840 2842 2844
          3248 3249 3250 3251 3252 3253
          3254 3255 3256 3257 3258 3259
          3260 3261 3279 3280 3281 3282
          3283 3284 3285 3286 3287 3288
          3289 3290 3291 3292 3293 3294
          3295 3313 3314 3315 3316 3317
          3318 3319 3320 3321 3322 3323
          3324 3325 3326 3327 3328 3329
          3334 3335 3336 3337 3338 3339
          3340 3341 3342 3343 3344 3345
          3346 3347 3348 3349 3350 3351
          3352 3353 3354 3355 3356 3357
          3358 3359 3360 3361 3362 3363
          3364 3365 3366 3367 3368 3369
          3370 3371 3372 3373 3374 4604
          4610 4611 4615 5612 5616 5620
          5621 5622 5623 5624 5625 5626
          5627 5628 5629 5630 5631 5632
          5633 5634 5636 5640 5644 5645
          5646 5647 5648 5649 5650 5651
          5652 5653 5654 5669 5670 5671
          5672 5673 5674 5675 5676 5677
          5678 5679 5680 5681 5682 5683
          5684 5685 5686 5687 5688 5695
          5702 5703 5704 5705 5706 5707
          5708 5709 5710 5711 5712 5713
          5714 5715 5716 5717 5718 5719
          5720 5721 5722 5723 5724 5725
          5726 5727 5728 5729 5730 5731
          5732 5733 5734 5735 5736 5737
          5738 5739 5740 5741 5742 5743
          5744 5745 5746 5747 5748 5749
          5750 5751 5752 5753 5754 5755
          5756 5757 5758 5759 5760 5761
          5762 5763 5764 5765 5766 5767
          5768 5769 5770 5771 5772 5773
          5774 5775 5776 5777 5778 5779
          5780 5781 5782 5783 5784 5785
          5786 5787 5788 5789 5790 5791
          5792 5793 5794 5795 5796 5797
          5798 5799 5800 5801 5802 5803
          5804 5805 5806 5807 5808 5809
          5810 5811 5814 5815 5816 5817
          5818 5819 5820 5821 5822 5823
          5824 5825 5826 5827 5828 5829
          5830 5831 5832 5833 5834 5835
          5836 5837 5838 5839 5840 5841
          5842 5843 5844 5845 5846 5847
          5848 5851 5852 5853 5854 5855
          5858 5859 5860 5861 5862 5863
          5864 5865 5866 5867 5868 5869
          5870 5871 5872 5873 5874 5875
          5876 5877 5878 5879 5880 5881
          5882 5883 5884 5885 5886 5887
          5888 5889 5890 5891 5892 5893
          5894 5895 5896 5897 5898 5899
          5900 5901 5902 5903 5904 5905
          5906 5907 5908 5909 5910 5911
          5912 5913 5914 5915 5916 5917
          5918 5919 5920 5921 5922 5923
          5924 5925 5926 5927 5928 5929
          5930 5931 5932 5933 5934 5935
          5936 5937 5938 5939 5940 5941
          5942 5943 5944 5945 5946 5947
          5948 5949 5950 5951 5952 5953
          5954 5955 5956 5957 5958 5959
          5960 5961 5962 5963 5964 5965
          5966 5967 5968 5969 5970 5971
          5972 5973 5974 5975 5976 5977
          5978 5979 5980 5981 5982 5983
          5984 5985 5986 5987 5988 5989
          5990 5991 5992 5993 5994 5995
          5996 5997 5998 5999 6000 6234
          6238 6246 6248 6250 6252 6262
          6266 6274 6276 6278 6280 6456
          6457 6458 6459 6460 6461 6462
          6463 6464 6465 6466 6467 6468
          6469 6470 6471 6472 6473 6474
          6475 6476 6477 6478 6479 6480
          6481 6482 6483 6484 6485 6486
          6487 6488 6489 6490 6491 6492
          6493 6494 6495 6496 6497 6498
          6499 6500 6501 6502 6503 6504
          6505 6506 6507 6508 6509 6510
          6511 6512 6513 861 1063 1064
          1016 1065 1066 863 1067 1030
          1068 937 1073 1074 1075 1131
          1152 1132 1154 1153 1155 1159
          1160 1162 1165 1212 1220 1221
          1213 860 1011 1223 1224 1025
          1226 1217 1227 1317 1318 1342
          1343 1319 1345 1346 1348 1323
          1125 1128 1352 1353 1139 1578
          1589 1566 1579 1599 1590 1580
          1603 1594 1584 1130 1605 1607
          1622 1623 1635 1637 1639 1641
          1649 1650 1651 1728 1631 1729
          1733 1137 1736 2399 2403 2411
          2417 2413 2404 2418 2415 2421
          2422 2459 2234 2460 2525 2461
          2526 2464 2531 2533 2534 2535
          2536 2540 2541 2340 2575 2579
          2374 2609 1136 2613 3242 3243
          3247 1013 4602 4606 4603 4607
          4608 4609 4612 4605 4613 4614
          5611 5614 5615 5617 5613 5618
          5619 2690 5635 5638 5639 5641
          5637 5642 5643 4625 5657 5658
          5661 2696 4635 5664 5665 5668
          2697 5689 5691 5693 5690 5692
          5694 5696 5698 5700 5697 5699
          5701 4818 5026 5030 5812 5813
          5034 5031 2610 5050 5054 5055
          5058 1699 5849 5850 5075 5079
          5076 2616 5856 5857 5082 5086
          5083 2617 5103 5104 5107 2620
          5110 5111 5114 1149
        </DataArray>
        <DataArray type="Float64" Name="bounds" format="ascii" RangeMin="0" RangeMax="0">
          0 0 0 0 0 0
          0 0 0 0 0 0
          0 0 0 0 0 0
          0 0 0 0 0 0
          0 0 0 0 0 0
          0 0 0 0 0 0
          0 0 0 0 0 0
          0 0 0 0 0 0
          0 0 0 0 0 0
          0 0 0 0 0 0
          0 0 0 0 0 0
          0 0 0 0 0 0
          0 0 0 0 0 0
          0 0 0 0 0 0
          0 0 0 0 0 0
          0 0 0 0 0 0
          0 0 0 0 0 0
          0 0 0 0 0 0
          0 0 0 0 0 0
          0 0 0 0 0 0
          0 0 0 0 0 0
          0 0 0 0 0 0
          0 0 0 0 0 0
          0 0 0 0 0 0
          0 0 0 0 0 0
          0 0 0 0 0 0
          0 0 0 0 0 0
          0 0 0 0 0 0
          0 0 0 0 0 0
          0 0 0 0 0 0
          0 0 0 0 0 0
          0 0 0 0 0 0
          0 0 0 0 0 0
          0 0 0 0 0 0
          0 0 0 0 0 0
          0 0 0 0 0 0
          0 0 0 0 0 0
          0 0 0 0 0 0
          0 0 0 0 0 0
          0 0 0 0 0 0
          0 0 0 0 0 0
          0 0 0 0 0 0
          0 0 0 0 0 0
          0 0 0 0 0 0
          0 0 0 0 0 0
          0 0 0 0 0 0
          0 0 0 0 0 0
          0 0 0 0 0 0
          0 0 0 0 0 0
          0 0 0 0 0 0
          0 0 0 0 0 0
          0 0 0 0 0 0
          0 0 0 0 0 0
          0 0 0 0 0 0
          0 0 0 0 0 0
          0 0 0 0 0 0
          0 0 0 0 0 0
          0 0 0 0 0 0
          0 0 0 0 0 0
          0 0 0 0 0 0
          0 0 0 0 0 0
          0 0 0 0 0 0
          0 0 0 0 0 0
          0 0 0 0 0 0
          0 0 0 0 0 0
          0 0 0 0 0 0
          0 0 0 0 0 0
          0 0 0 0 0 0
          0 0 0 0 0 0
          0 0 0 0 0 0
          0 0 0 0 0 0
          0 0 0 0 0 0
          0 0 0 0 0 0
          0 0 0 0 0 0
          0 0 0 0 0 0
          0 0 0 0 0 0
          0 0 0 0 0 0
          0 0 0 0 0 0
          0 0 0 0 0 0
          0 0 0 0 0 0
          0 0 0 0 0 0
          0 0 0 0 0 0
          0 0 0 0 0 0
          0 0 0 0 0 0
          0 0 0 0 0 0
          0 0 0 0 0 0
          0 0 0 0 0 0
          0 0 0 0 0 0
          0 0 0 0 0 0
          0 0 0 0 0 0
          0 0 0 0 0 0
          0 0 0 0 0 0
          0 0 0 0 0 0
          0 0 0 0 0 0
          0 0 0 0 0 0
          0 0 0 0 0 0
          0 0 0 0 0 0
          0 0 0 0 0 0
          0 0 0 0 0 0
          0 0 0 0 0 0
          0 0 0 0 0 0
          0 0 0 0 0 0
          0 0 0 0 0 0
          0 0 0 0 0 0
          0 0 0 0 0 0
          0 0 0 0 0 0
          0 0 0 0 0 0
          0 0 0 0 0 0
          0 0 0 0 0 0
          0 0 0 0 0 0
          0 0 0 0 0 0
          0 0 0 0 0 0
          0 0 0 0 0 0
          0 0 0 0 0 0
          0 0 0 0 0 0
          0 0 0 0 0 0
          0 0 0 0 0 0
          0 0 0 0 0 0
          0 0 0 0 0 0
          0 0 0 0 0 0
          0 0 0 0 0 0
          0 0 0 0 0 0
          0 0 0 0 0 0
          0 0 0 0 0 0
          0 0 0 0 0 0
          0 0 0 0 0 0
          0 0 0 0 0 0
          0 0 0 0 0 0
          0 0 0 0 0 0
          0 0 0 0 0 0
          0 0 0 0 0 0
          0 0 0 0 0 0
          0 0 0 0 0 0
          0 0 0 0 0 0
          0 0 0 0 0 0
          0 0 0 0 0 0
          0 0 0 0 0 0
          0 0 0 0 0 0
          0 0 0 0 0 0
          0 0 0 0 0 0
          0 0 0 0 0 0
          0 0 0 0 0 0
          0 0 0 0 0 0
          0 0 0 0 0 0
          0 0 0 0 0 0
          0 0 0 0 0 0
          0 0 0 0 0 0
          0 0 0 0 0 0
          0 0 0 0 0 0
          0 0 0 0 0 0
          0 0 0 0 0 0
          0 0 0 0 0 0
          0 0 0 0 0 0
          0 0 0 0 0 0
          0 0 0 0
        </DataArray>
        <DataArray type="Float64" Name="gradient_error" format="ascii" RangeMin="1.2722502264549397e-11" RangeMax="6.954140177025154e-8">
          3.5590420239106986e-11 5.562611339639964e-10 1.0467927542775629e-10 1.6023274326836263e-10 5.022491576611163e-9 1.2841667374985307e-10
          4.083762774883833e-10 1.7273415956486293e-9 2.7428226106152993e-8 4.1063409609254594e-9 1.278403796985409e-8 2.028653388520639e-10
          4.67090944010436e-10 3.3760594299911924e-10 6.243972637265715e-11 1.4234571407172863e-10 4.262175291835632e-9 5.97432990230459e-9
          3.05898378455713e-9 3.4627208754307585e-9 4.320771139309878e-9 3.4286270488227157e-10 7.234673118120429e-10 1.21273657841834e-10
          1.5583318976267404e-10 4.57380118102002e-10 1.0884851399306422e-9 2.489611888098078e-10 1.119313948038659e-9 2.056136974973961e-10
          1.4872413109391318e-9 2.461104536010835e-10 3.7695040831270855e-10 1.5444985549379391e-10 4.858504948133818e-10 1.0824163012608726e-9
          8.833193605266017e-11 8.861904614947168e-11 4.806731062468542e-11 2.0029245920256114e-10 1.7214503489062194e-10 7.957862780030303e-11
          3.595737118096464e-10 1.3258950503601906e-10 5.042390251702286e-9 2.9014709388496064e-9 6.5785594349332136e-9 3.926602781035251e-9
          3.4976171445806556e-9 2.552704463262216e-8 3.6390170326519784e-8 2.1203061103080135e-8 3.3397815125062757e-8 1.416802626228728e-9
          9.385438526807178e-10 5.597475690714035e-10 3.602717080973663e-10 9.044640492445775e-10 9.218231313901929e-10 3.229956652228507e-10
          7.102684569001758e-10 2.647215525963458e-10 9.236751441112937e-10 1.9167833886398779e-10 1.2356971857450103e-10 6.473092481067715e-11
          5.112682134985278e-11 9.825254309969886e-11 1.0637924569185159e-10 5.3306678226714725e-11 1.1468768743626473e-10 8.736960257409402e-10
          4.3863516779455817e-10 3.9911482216553464e-10 1.5151975840427655e-10 1.5723060850520635e-9 9.013371944850165e-10 3.2260024921025916e-10
          1.0189464532967571e-8 1.297284503991522e-8 3.792417440764193e-9 6.181691907136954e-9 5.063685953850158e-9 5.618669712450849e-9
          3.3039417515971673e-9 1.575622554686287e-8 7.550737111794282e-9 6.17365347105154e-9 1.0332652112694702e-9 1.0534789666663829e-9
          3.581187989267891e-10 3.96484349915176e-10 1.1086239044927015e-9 1.6066162137333282e-9 6.164420996722329e-10 1.2804920853656623e-9
          5.042931830245503e-10 1.8582262975723078e-9 1.194079255876636e-10 1.357248400975439e-10 5.978320948489097e-11 1.2176221646998313e-10
          2.087809844735974e-10 1.8007744653961605e-9 2.3702235651319636e-9 1.6623624476635791e-9 5.664880557122162e-9 1.0929810850704097e-8
          6.989105948047211e-9 2.0363290530121587e-8 2.2925371908036553e-9 4.144759678095822e-9 2.3525857565422438e-9 6.058553616264881e-9
          2.2375544663107215e-8 1.6621267638945503e-8 2.4387798796092844e-8 8.056575974478367e-9 4.520185417398799e-9 9.060368329943319e-9
          1.3421965117331603e-9 1.6739846389210869e-9 9.117212761406366e-10 1.3487156938898573e-9 8.171420790169471e-10 3.2738638369214425e-9
          2.335188279508529e-9 2.6866325384042255e-10 4.833344835674897e-10 2.957480681243896e-10 4.261919587231749e-10 9.491345330130613e-11
          1.7852107807227184e-10 1.0418018778639118e-10 6.0095649003231455e-9 3.8293127921859055e-9 4.586196674165366e-10 9.958591699389224e-9
          1.6149725578765956e-9 5.8851464228340435e-9 3.0536062440805354e-10 2.031000295129881e-10 1.2283685268082188e-9 8.985212971925599e-10
          6.274467411587322e-10 1.5685162177613178e-9 2.394568177802172e-9 6.483184799657792e-10 4.6174813452491776e-10 1.2129370660336395e-9
          1.6155393222757116e-9 6.722251842174029e-10 3.337764113120958e-9 4.3370180393762784e-10 2.0058773588166374e-9 3.783515914294501e-10
          2.778263682622116e-10 2.328714285718097e-10 1.7651116666578455e-10 3.970183969057831e-10 3.8990016991858904e-10 2.4196724193911417e-10
          2.926919025634185e-10 1.96182052086694e-10 2.395091347148404e-10 1.4342786758085431e-8 2.5891929778479907e-9 7.958479729378557e-9
          1.3479849274601384e-9 1.62478193733152e-8 3.043254377596132e-9 8.887231091360315e-9 2.0896568035941864e-9 1.6099703853302702e-9
          1.0227621671181504e-9 7.453325418336529e-10 2.5024053785411445e-9 1.9636577999856434e-9 1.2170707123785495e-9 4.459183890747712e-9
          6.398033718195482e-10 2.4744143671405774e-9 2.8569667833818216e-10 5.01891439400492e-9 7.341868656089623e-10 2.7657044315537014e-9
          4.523515678838815e-10 3.126391250395412e-10 1.8743602858032278e-10 1.2348833276882757e-10 5.279311800915071e-10 3.690039229695184e-10
          2.1427441476361825e-10 1.4129736340992706e-10 8.240581032583336e-11 1.4760787176115197e-10 1.4753573090942105e-10 8.699110502906585e-11
          5.899534326408552e-11 5.44199565067881e-11 4.84022923428936e-11 1.6131018674623972e-9 1.9968085474195983e-9 1.613893765128398e-9
          2.1618328089198987e-9 1.1437444418116777e-9 1.267516446632916e-9 5.178242040119013e-10 3.963424980532005e-10 9.612724810920499e-10
          1.217697256997085e-9 6.476260887353795e-10 1.374341012058288e-9 4.32425745370853e-10 1.316472941652871e-9 3.0172687314688417e-10
          2.363446888923655e-10 1.8487707401364824e-10 1.456739535772672e-10 2.927765436545473e-10 3.8191713354696375e-10 2.338756945028944e-10
          2.59987643854529e-10 1.611136981430106e-10 4.175398090931055e-10 1.3941199550788562e-10 1.1129310701385742e-10 1.0504675274676776e-10
          3.3771914689519007e-10 9.93776738703012e-10 1.5885864083871e-10 4.353917209633064e-10 2.1152766718795011e-10 8.090217296632222e-10
          3.8620762015749074e-10 5.797975511672486e-11 1.6591066294531008e-10 3.1853602442081796e-11 8.139463417659148e-11 4.570841087912686e-11
          1.35369839080489e-10 5.301597440249125e-11 9.152997565886554e-10 1.386482262610919e-9 9.952100199671692e-10 5.839879311311625e-10
          9.169041590159476e-10 1.6700170285502618e-10 2.9647202838056633e-10 4.1143059979541516e-10 6.368361394432348e-10 1.8472003111987525e-10
          5.73364606313021e-11 9.905003878754837e-11 3.334562122622158e-11 5.2482076234940244e-11 4.7630263239074556e-11 6.460005179617726e-11
          3.8222300271904266e-11 7.600310661111918e-10 1.0599548525216032e-9 8.165510864095157e-10 5.708829369509099e-10 8.429440794251971e-10
          3.0255390905055873e-10 4.934263868876e-10 4.348419253814521e-10 6.372597967469579e-10 3.586598681293114e-10 1.803926639521394e-10
          2.905598529563709e-10 1.0773792624621588e-10 1.7539326964094823e-10 1.4407694199258468e-10 2.103880156385507e-10 1.269787164175028e-10
          3.222946695687872e-11 5.869117042249298e-11 3.736148464238015e-11 6.273956363957829e-11 1.04258280932936e-10 3.693052389370253e-11
          6.074406693274695e-11 4.935632252302329e-11 7.40997927895429e-11 4.3060416685648606e-11 2.1305904181368974e-11 3.3674995841483786e-11
          1.6166352955846956e-11 2.3792118867781833e-11 1.647462068214276e-11 2.4283199813051037e-11 1.8112521101763805e-11 8.125544280909664e-10
          1.1034869385482315e-9 8.54004412271677e-10 6.58958677203828e-10 8.948179004186171e-10 3.9740378877312186e-10 5.367389221668338e-10
          4.829703510488278e-10 6.432968704458142e-10 3.433015381346e-10 2.339499216813517e-10 3.127382809951941e-10 1.403592968003973e-10
          1.9028823866767949e-10 1.6797921408257012e-10 2.036189216954214e-10 1.207972329550139e-10 8.26417435401908e-11 1.1426467327894034e-10
          4.866389835030877e-11 6.796366819574199e-11 5.751476757745315e-11 7.13054745672621e-11 4.2795777807455394e-11 3.5107899068214725e-10
          2.608528266372615e-10 3.083560222049312e-10 4.90354337484562e-10 7.601501860624367e-10 6.754833188107024e-10 9.839422266656722e-10
          5.142943517396007e-10 6.093862556917501e-10 4.775744350956784e-10 8.614329083851806e-10 4.397624001212687e-10 5.341804077320642e-10
          3.2447055478588927e-10 4.1169343073277535e-10 3.4005695197175717e-10 4.1333262997122817e-10 3.1070859360453525e-10 7.684500708671046e-10
          6.146273371078094e-10 5.888183637518372e-10 1.5015418812999744e-9 1.379037367655529e-9 1.8534291942225699e-9 1.1651904425474926e-9
          8.958653809300258e-10 1.5114027799433484e-9 1.0595737666278977e-9 8.787041392644947e-10 8.021671459475613e-10 6.472762724042465e-10
          1.4017848883217638e-9 1.2022805558310547e-9 1.0467934365980523e-9 2.568264604547003e-10 3.3088715334109913e-10 2.0750173115860785e-10
          2.698590057118428e-10 1.9257497935577524e-10 2.461298781294575e-10 1.988301253308748e-10 5.066982920875104e-10 4.203256283787599e-10
          3.7221587943654047e-10 1.6752039342542966e-10 2.19727469317943e-10 1.3444250171700808e-10 1.7759501536895084e-10 1.2372151240652017e-10
          1.606617547176509e-10 1.290658584697138e-10 3.471566170025079e-10 2.840501816678344e-10 2.500296596515004e-10 1.4117368674707944e-9
          1.0575740031445121e-9 7.417377448692558e-10 6.263465816351519e-10 5.37787827744571e-10 4.4862077018070227e-10 1.0355173414873089e-9
          8.892986184878128e-10 7.405736768159192e-10 5.250821827450428e-10 4.353536247788979e-10 3.7228096120439634e-10 3.059399652859172e-10
          7.566362334327334e-10 6.358427087514551e-10 5.275678216518769e-10 3.02308102795732e-10 3.5976737719541027e-10 3.121006910915268e-10
          5.022236895049064e-10 2.5696588219056047e-10 3.098176268451911e-10 1.8494710298186513e-10 2.2912407379872405e-10 2.2408835806873245e-10
          2.6622497722661787e-10 1.932722360568162e-10 4.3802788418361164e-10 3.345062775041713e-10 3.4745580219806855e-10 6.696477194537429e-10
          4.873402357932656e-10 8.451142462151283e-10 5.929354297901844e-10 4.67510946837824e-10 4.2662689527805643e-10 3.2848934757921274e-10
          7.626841297047135e-10 6.219063335726575e-10 5.47570789065959e-10 2.9465072323923753e-10 3.395846435094286e-10 2.9717600153105627e-10
          4.2781024885148874e-10 2.581967280305216e-10 2.983827934075853e-10 1.942692672475506e-10 2.2802115622475448e-10 2.2434871302037202e-10
          2.544773529141737e-10 1.8737939493552403e-10 3.797804590864291e-10 2.980636644189229e-10 2.8928743939132883e-10 1.4269377881488292e-10
          1.7873942793408792e-10 1.1355259642935421e-10 1.430377355468947e-10 1.2294476496306984e-10 1.4963596009060278e-10 1.191042878105665e-10
          2.670682895315794e-10 2.1660932736673184e-10 2.0578576711995172e-10 9.01053953295257e-11 1.1454088685437792e-10 7.145352513217852e-11
          9.14079573039842e-11 7.689102858422762e-11 9.480910965061913e-11 7.535242187469321e-11 1.7585130099351425e-10 1.4183657479831196e-10
          1.3354801990925277e-10 3.818815398687866e-10 3.1462045275476614e-10 2.6392082286632825e-10 2.1481974609022042e-10 5.176459202773112e-10
          4.3267842695494844e-10 3.5502988193002505e-10 2.5851535481769895e-10 2.1065737607107189e-10 1.7477383541213543e-10 1.4125841799706564e-10
          3.596296102973863e-10 2.959914321756352e-10 2.405981667783817e-10 1.5094102046607238e-10 1.7966040790317433e-10 1.2105768689875398e-10
          1.4464090096386438e-10 1.2696898612013495e-10 1.4684951615138583e-10 1.1736128198219602e-10 2.3937609617830263e-10 1.9451430522784791e-10
          1.718825059041525e-10 9.664400436484971e-11 1.1639876846205656e-10 7.697788128853068e-11 9.325635538378044e-11 8.041023880362943e-11
          9.38328686031004e-11 7.475980983754385e-11 1.5824017906576196e-10 1.2792129187339908e-10 1.1138075312980247e-10 3.315111051506692e-9
          2.554208792070111e-9 3.923488132584146e-9 2.395363885552984e-9 2.115804553511088e-9 3.758681912148637e-9 3.4433944637193234e-9
          2.868333468607871e-9 1.9145096819976483e-9 1.4343231683851833e-9 2.2409764227547013e-9 1.7874572093681136e-9 1.558769169102794e-9
          1.3179598215349485e-9 1.1191347689004203e-9 2.122807626113559e-9 1.8945472406429166e-9 1.5557390551931037e-9 4.415867229678154e-9
          3.3784595943653547e-9 4.6699475437170955e-9 4.237170976077378e-9 3.89675886800882e-9 3.2192651892617794e-9 2.924854559305477e-9
          4.4443536431921036e-9 4.0529082661861905e-9 3.369287846229219e-9 2.475994712331646e-9 1.8461721723079083e-9 2.588243611231013e-9
          2.3640502990021456e-9 2.1362103743563647e-9 1.7261108456845957e-9 1.512602945684027e-9 2.464675794734318e-9 2.2233734049634065e-9
          1.7963822232189234e-9 1.8836093240440733e-9 1.6651023081927188e-9 3.144261090541378e-9 2.845774722846614e-9 2.3359562005542717e-9
          1.4550500593156734e-9 1.2540025874949718e-9 2.545518633821367e-9 2.24612370341887e-9 1.8470909665331902e-9 1.3664405819734097e-9
          1.1911966234986243e-9 9.65112058676111e-10 8.289728820796764e-10 1.6829142518433385e-9 1.484214988326359e-9 1.177975434813329e-9
          1.027339593781655e-9 8.743348120168463e-10 7.054290957561306e-10 5.929552451321788e-10 1.2939552311450742e-9 1.1126499813067328e-9
          8.787977257373964e-10 3.5748293469975717e-9 3.25261366279663e-9 2.657835270840795e-9 2.3941949481472655e-9 3.722181302302512e-9
          3.39102327828093e-9 2.771860722548523e-9 2.9270955324047978e-9 2.600307353153967e-9 2.130910261199327e-9 1.8702810120846205e-9
          3.056929436515389e-9 2.7213552801282174e-9 2.2322052380072996e-9 1.9119652764440457e-9 1.6982587259362902e-9 1.3326106959057362e-9
          1.164870213358854e-9 1.9949752819646046e-9 1.776141672019347e-9 1.3891759594243978e-9 1.4905911380326572e-9 1.2901595427032887e-9
          1.0071226916917979e-9 8.591466755295184e-10 1.5624642111685354e-9 1.3553577445669155e-9 1.054477080251884e-9 1.0363638782436344e-9
          7.495183597379124e-10 1.1955164234671116e-9 9.450695078617237e-10 7.870694271284259e-10 6.712044589151148e-10 5.420088357236838e-10
          1.1037663360318492e-9 9.388410955799684e-10 7.786995981617722e-10 5.163099272656567e-10 3.7163117284955214e-10 5.891774896210667e-10
          4.6188468831517807e-10 3.6839632775915053e-10 3.2257191833492226e-10 2.4453254369243776e-10 5.316872305742542e-10 4.3069903881793247e-10
          3.730799040352859e-10 1.3075494940207063e-9 9.416012680509526e-10 1.358640116656963e-9 1.2162301293924036e-9 1.0475290784960635e-9
          8.548615967084999e-10 7.091047685221435e-10 1.2621828057480962e-9 1.087012536226615e-9 8.858422222430286e-10 6.397163778222213e-10
          4.646709188650737e-10 6.625956970102649e-10 5.803903349284198e-10 4.746923101493056e-10 4.058064682221653e-10 3.128983105897334e-10
          6.001835259504778e-10 4.904249145451598e-10 4.1896880236059767e-10 6.657837078415515e-10 5.634498811825771e-10 4.504964634191858e-10
          3.755562947773468e-10 8.039848926057293e-10 6.870871335753595e-10 5.379729829260057e-10 4.732518889717284e-10 3.931439851496023e-10
          3.115482318642178e-10 2.56092809553945e-10 5.819604289315557e-10 4.871356796856424e-10 3.7796193203683705e-10 2.9984182081934076e-10
          2.462542084653597e-10 1.9485674448763051e-10 1.5764236917166074e-10 3.5396960575006853e-10 2.930472118477066e-10 2.3011121987384746e-10
          2.0189254968706338e-10 1.6435674444794624e-10 1.2774942354515944e-10 1.0289366986859047e-10 2.416878809726029e-10 1.9773131105629107e-10
          1.5268735663278802e-10 9.038208923355882e-10 7.772220082093586e-10 6.004862283360945e-10 5.07677578355214e-10 9.40359152315906e-10
          8.103577831637595e-10 6.232862264602956e-10 6.618687737531133e-10 5.567644829974486e-10 4.261239575818345e-10 3.5383879560550655e-10
          6.913657330193984e-10 5.825667045928564e-10 4.438134175805644e-10 3.9248429599592745e-10 3.2646385881898767e-10 2.5329741906241324e-10
          2.0717317941969423e-10 4.063406251140705e-10 3.3853721544656064e-10 2.616271515874821e-10 2.702692678430202e-10 2.2176414196867435e-10
          1.6931169133882808e-10 1.3734420433996558e-10 2.806210475427009e-10 2.304713964528912e-10 1.7530413600898095e-10 1.0643773830271937e-9
          1.3818292253526671e-9 7.332579730097641e-10 4.91559287571349e-10 9.423571434338953e-10 6.230877840515709e-10 1.6164885452312866e-9
          1.701135867492195e-9 1.0996559810658224e-9 7.221886733285414e-10 1.1577233526263915e-9 7.590869524900643e-10 2.3134879069840976e-10
          2.5508385149367405e-10 2.2530620013007524e-10 2.9247266767076334e-10 2.019468218944512e-10 2.205013973562968e-10 1.4964307819378975e-10
          1.630254162723261e-10 1.7736418799638414e-10 1.8790055516182326e-10 1.3170942571541424e-10 2.5191835332413907e-10 1.8709256056460756e-10
          2.096714354653241e-10 3.161981576392898e-10 2.7682944308812667e-10 3.262698922259913e-10 2.7310361444353786e-10 2.0373764929881067e-10
          2.2775776901724808e-10 1.577234907543378e-10 2.8142649505693994e-10 2.0969793181926872e-10 2.3460958943111037e-10 1.1469526195583535e-10
          1.264614303146978e-10 9.177526986568786e-11 1.013415320782582e-10 9.714824141065992e-11 1.0191474805338429e-10 8.135017585610581e-11
          1.4691430129678703e-10 1.1826292893207913e-10 1.1335720047537207e-10 7.306773623820388e-11 8.100855601365368e-11 5.8080778033119224e-11
          6.455658826681364e-11 6.131167334978728e-11 6.446814973091241e-11 5.112591561674934e-11 9.503779863873266e-11 7.604214169022578e-11
          7.22382974696562e-11 1.6051839296974822e-10 1.2976123892473688e-10 1.2361209774404717e-10 9.941968467395841e-11 1.6543578201948272e-10
          1.33904414276144e-10 1.2719104923345884e-10 1.0458627308328247e-10 8.384313914811385e-11 7.9366027845778e-11 6.31212681673416e-11
          1.0804632467820305e-10 8.663439341628419e-11 8.188008686428115e-11 1.7151662688290941e-9 5.564357742387902e-10 1.6398498591388641e-9
          6.7705971631418465e-9 1.1297585651952487e-9 3.753425867238935e-9 1.006660872039467e-10 1.3541404723283213e-10 3.191009372330949e-10
          2.889355163881917e-10 1.842328068199995e-8 1.7030813561517072e-9 5.867001875339006e-9 4.4245698554355134e-10 1.4382288876669232e-8
          1.2261155570617543e-8 3.677663368568881e-8 1.6520713179723005e-8 2.2491740789063594e-8 3.061580729093303e-8 8.664567494829858e-9
          1.7693432203398178e-8 1.0970073630388394e-8 1.2617683212683949e-8 1.612454548372993e-9 8.73093427659455e-11 7.734682725633441e-11
          1.5318376788424178e-9 1.6616536354412648e-9 1.8587820706610333e-9 1.3015604137588397e-11 1.2869053201068898e-11 3.6862353928868365e-11
          6.738431174672333e-11 1.4512208093118422e-9 1.2722502264549397e-11 9.387824212705208e-10 1.3963632626831943e-8 6.4343797443155745e-9
          5.4501844558439525e-9 1.1808125898734957e-8 2.4418153635802976e-9 2.0610360721664603e-9 2.8222604575575653e-9 6.270138484752109e-9
          1.0960331401964824e-8 4.090981161504261e-9 7.770859611171975e-10 6.498909489631796e-10 1.0881509373463823e-9 7.28323235818151e-9
          7.875827614811326e-9 3.457889393030995e-8 2.560482869668675e-8 1.4354855117531313e-8 2.024360312204859e-8 1.1920046263005828e-8
          9.639140535651482e-9 1.388442500446263e-8 5.596622206698507e-8 2.8240622096929772e-8 5.397908216006268e-8 2.7050746833838424e-8
          5.704557798872846e-8 4.0193395780805246e-8 6.954140177025154e-8 4.464283236659571e-8 5.6796865550679746e-8 5.6385383627567635e-8
          2.1903455875333962e-9 1.5890587279375031e-9 6.583577520403036e-10 1.440967802259132e-8 5.526022122734122e-8 1.801414168626804e-8
          8.521339966426201e-9 6.827919459920347e-8 2.161860534994476e-8 2.7293692317304955e-8 2.55796926489587e-8 3.07234926941473e-8
          2.9070536717031797e-8 2.4156855121956723e-8 2.01421628311055e-8 2.68448622181386e-8 3.415329307098965e-8 3.25613807851049e-8
          3.0211246815634763e-8 1.881796274159994e-9 3.2690195674654606e-9 2.049425846475118e-9 6.916621730963045e-10 6.127077275175833e-10
          7.572650803006728e-10 4.180410872646992e-9 6.43088197176624e-10 4.01509070927019e-10 4.478722662277237e-10 2.4219522404806057e-10