<?xml version="1.0"?>
<VTKFile type="UnstructuredGrid" version="0.1" byte_order="LittleEndian" header_type="UInt32" compressor="vtkZLibDataCompressor">
  <UnstructuredGrid>
    <Piece NumberOfPoints="932" NumberOfCells="556">
      <PointData>
        <DataArray type="Int32" Name="libmesh_node_id" format="ascii" RangeMin="862" RangeMax="8487">
          940 942 1035 1037 1038 1040
          1041 1045 1046 1047 1048 1049
          1050 1051 1052 1053 1054 1055
          1056 1057 1058 1059 1060 1061
          1062 1176 1177 1180 1181 1182
          1183 1185 1188 1190 1191 1192
          1193 1194 1195 1196 1197 1198
          1199 1200 1201 1202 1203 1360
          1361 1362 1363 1364 1365 1366
          1367 1368 1369 1372 1373 1376
          1378 1380 1381 1382 1383 1384
          1385 1386 1387 1388 1389 1796
          1797 1798 1799 1800 1801 1804
          1805 1816 1817 1818 1819 1820
          1821 1822 1823 1824 1825 1826
          1827 1828 1829 1830 1831 1832
          1833 1834 1835 1836 1837 1838
          1839 1840 1841 1842 1843 1844
          1845 1846 1847 1848 1849 1880
          1881 1882 1883 1884 1885 1886
          1887 1888 1889 1890 1891 1892
          1893 1894 1895 1896 1897 1898
          1899 1900 1901 1902 1903 1962
          1963 1964 1965 1966 1967 1968
          1969 1970 1971 1979 1980 1981
          1982 1983 1984 1985 1986 1987
          1988 1989 1990 1991 1992 1993
          1994 1995 1996 1997 1998 1999
          2000 2001 2002 2003 2004 2005
          2006 2007 2008 2009 2051 2053
          2057 2058 2983 2984 2985 2986
          2987 2988 2989 2990 2991 2992
          2993 2994 2995 2996 2999 3000
          3003 3005 3007 3008 3009 3010
          3011 3012 3013 3014 3015 3016
          3027 3028 3029 3030 3031 3032
          3033 3034 3035 3036 3038 3040
          3042 3044 3045 3046 3047 3048
          3049 3050 3121 3122 3125 3127
          3129 3130 3131 3132 3133 3134
          3135 3136 3137 3138 3140 3142
          3144 3146 3147 3148 3149 3150
          3151 3152 3155 3156 3159 3161
          3163 3164 3165 3166 3167 3168
          3169 3170 3171 3172 3173 3174
          3175 3176 3177 3178 3179 3180
          3181 3182 3183 3184 3185 3186
          3187 3188 3189 3190 3191 3192
          3193 3194 3195 3196 3197 3198
          3199 3200 3201 3202 3203 3204
          3205 3206 3207 3208 3209 3210
          3211 3212 3213 3214 3215 3216
          3217 3218 3219 3220 3221 3222
          3223 3224 3225 3226 3227 3228
          3229 3230 3231 3232 3233 3234
          3235 3236 3237 3296 3297 3298
          3299 3300 3301 3302 3396 3397
          3398 3399 3400 3401 3402 3403
          3404 3405 3406 3407 3408 3409
          3410 3411 3412 3413 3414 3415
          3416 3417 3418 3419 3420 3421
          3422 3427 3428 3429 3432 3433
          3434 3435 3436 3437 3438 3439
          3440 3441 3442 3445 3446 3449
          3450 3451 3452 3453 3454 3455
          3456 7265 7275 7279 7280 7282
          7285 7287 7288 7289 7290 7291
          7292 7293 7294 7295 7296 7297
          7298 7299 7300 7302 7304 7306
          7308 7309 7310 7311 7312 7313
          7314 7315 7316 7317 7356 7368
          7380 7382 7384 7394 7395 7397
          7398 7399 7401 7402 7403 7404
          7405 7406 7407 7408 7409 7410
          7411 7412 7413 7414 7415 7416
          7417 7418 7419 7420 7421 7422
          7423 7424 7425 7426 7427 7428
          7429 7430 7431 7432 7503 7504
          7506 7509 7511 7512 7513 7514
          7515 7516 7517 7518 7519 7520
          7522 7524 7526 7528 7529 7530
          7531 7532 7533 7534 7537 7538
          7540 7543 7545 7546 7547 7548
          7549 7550 7551 7552 7553 7554
          7556 7558 7560 7562 7563 7564
          7565 7566 7567 7568 7579 7591
          7593 7595 7607 7619 7621 7623
          7626 7627 7628 7630 7631 7632
          7633 7634 7635 7636 7637 7638
          7639 7640 7641 7642 7643 7644
          7645 7646 7647 7648 7649 7650
          7651 7652 7654 7655 7656 7658
          7659 7660 7661 7662 7663 7664
          7665 7666 7667 7668 7669 7670
          7671 7672 7673 7674 7675 7676
          7677 7678 7679 7680 8067 8068
          8071 8073 8093 8095 8096 8097
          8098 8099 8100 8101 8102 8103
          8104 8113 8115 8117 8127 8129
          8131 8141 8143 8145 8155 8157
          8159 8161 8162 8163 8164 8165
          8166 8167 8168 8169 8170 8171
          8172 8173 8174 8175 8176 8177
          8178 8179 8180 8181 8182 8183
          8184 8185 8186 8187 8188 8189
          8190 8191 8192 8193 8194 8195
          8196 8197 8198 8199 8200 8201
          8202 8203 8204 8205 8206 8207
          8208 8209 8210 8211 8212 8213
          8214 8215 8216 8217 8218 8246
          8247 8248 8249 8250 8251 8252
          8253 8254 8255 8256 8257 8258
          8259 8260 8261 8262 8263 8264
          8265 8266 8267 8268 8269 8270
          8271 8272 8273 8274 8275 8276
          8277 8278 8279 8280 8281 8282
          8283 8284 8285 8286 8287 8288
          8289 8290 8291 8292 8293 8294
          8295 8296 8297 8298 8299 8300
          8301 8302 8303 8304 8305 8306
          8307 8308 8309 8310 8311 8312
          8313 8314 8315 8316 8317 8318
          8319 8320 8321 8322 8323 8324
          8325 8326 8327 8328 8329 8330
          8331 8332 8333 8334 8335 8336
          8337 8338 8339 8340 8341 8342
          8343 8344 8345 8346 8347 8348
          8349 8350 8351 8352 8353 8354
          8355 8356 8357 8358 8359 8360
          8361 8362 8363 8364 8365 8366
          8367 8368 8369 8370 8371 8372
          8373 8374 8375 8376 8377 8378
          8379 8380 8381 8382 8383 8384
          8385 8386 8387 8388 8389 8390
          8391 8392 8393 8394 8395 8396
          8397 8398 8399 8400 8401 8402
          8403 8404 8405 8406 8407 8408
          8409 8410 8411 8412 8413 8414
          8415 8416 8417 8418 8419 8420
          8421 8422 8423 8424 8425 8426
          8427 8428 8429 8430 8431 8432
          8433 8434 8435 8436 8437 8438
          8439 8440 8441 8442 8443 8444
          8445 8446 8447 8448 8449 8450
          8451 8452 8453 8454 8455 8456
          8457 8458 8459 8460 8461 8462
          8463 8464 8465 8466 8467 8468
          8469 8470 8471 8472 8473 8474
          8475 8476 8477 8478 8479 8480
          8481 8482 8483 8484 8485 8486
          8487 866 868 869 867 944
          945 943 1036 1039 865 1042
          1044 1043 864 941 1223 1230
          1231 1224 862 1025 1233 1234
          1275 1273 1280 1279 1354 1355
          1356 1359
        </DataArray>
        <DataArray type="Float64" Name="bounds" format="ascii" RangeMin="0" RangeMax="0">
          0 0 0 0 0 0
          0 0 0 0 0 0
          0 0 0 0 0 0
          0 0 0 0 0 0
          0 0 0 0 0 0
          0 0 0 0 0 0
          0 0 0 0 0 0
          0 0 0 0 0 0
          0 0 0 0 0 0
          0 0 0 0 0 0
          0 0 0 0 0 0
          0 0 0 0 0 0
          0 0 0 0 0 0
          0 0 0 0 0 0
          0 0 0 0 0 0
          0 0 0 0 0 0
          0 0 0 0 0 0
          0 0 0 0 0 0
          0 0 0 0 0 0
          0 0 0 0 0 0
          0 0 0 0 0 0
          0 0 0 0 0 0
          0 0 0 0 0 0
          0 0 0 0 0 0
          0 0 0 0 0 0
          0 0 0 0 0 0
          0 0 0 0 0 0
          0 0 0 0 0 0
          0 0 0 0 0 0
          0 0 0 0 0 0
          0 0 0 0 0 0
          0 0 0 0 0 0
          0 0 0 0 0 0
          0 0 0 0 0 0
          0 0 0 0 0 0
          0 0 0 0 0 0
          0 0 0 0 0 0
          0 0 0 0 0 0
          0 0 0 0 0 0
          0 0 0 0 0 0
          0 0 0 0 0 0
          0 0 0 0 0 0
          0 0 0 0 0 0
          0 0 0 0 0 0
          0 0 0 0 0 0
          0 0 0 0 0 0
          0 0 0 0 0 0
          0 0 0 0 0 0
          0 0 0 0 0 0
          0 0 0 0 0 0
          0 0 0 0 0 0
          0 0 0 0 0 0
          0 0 0 0 0 0
          0 0 0 0 0 0
          0 0 0 0 0 0
          0 0 0 0 0 0
          0 0 0 0 0 0
          0 0 0 0 0 0
          0 0 0 0 0 0
          0 0 0 0 0 0
          0 0 0 0 0 0
          0 0 0 0 0 0
          0 0 0 0 0 0
          0 0 0 0 0 0
          0 0 0 0 0 0
          0 0 0 0 0 0
          0 0 0 0 0 0
          0 0 0 0 0 0
          0 0 0 0 0 0
          0 0 0 0 0 0
          0 0 0 0 0 0
          0 0 0 0 0 0
          0 0 0 0 0 0
          0 0 0 0 0 0
          0 0 0 0 0 0
          0 0 0 0 0 0
          0 0 0 0 0 0
          0 0 0 0 0 0
          0 0 0 0 0 0
          0 0 0 0 0 0
          0 0 0 0 0 0
          0 0 0 0 0 0
          0 0 0 0 0 0
          0 0 0 0 0 0
          0 0 0 0 0 0
          0 0 0 0 0 0
          0 0 0 0 0 0
          0 0 0 0 0 0
          0 0 0 0 0 0
          0 0 0 0 0 0
          0 0 0 0 0 0
          0 0 0 0 0 0
          0 0 0 0 0 0
          0 0 0 0 0 0
          0 0 0 0 0 0
          0 0 0 0 0 0
          0 0 0 0 0 0
          0 0 0 0 0 0
          0 0 0 0 0 0
          0 0 0 0 0 0
          0 0 0 0 0 0
          0 0 0 0 0 0
          0 0 0 0 0 0
          0 0 0 0 0 0
          0 0 0 0 0 0
          0 0 0 0 0 0
          0 0 0 0 0 0
          0 0 0 0 0 0
          0 0 0 0 0 0
          0 0 0 0 0 0
          0 0 0 0 0 0
          0 0 0 0 0 0
          0 0 0 0 0 0
          0 0 0 0 0 0
          0 0 0 0 0 0
          0 0 0 0 0 0
          0 0 0 0 0 0
          0 0 0 0 0 0
          0 0 0 0 0 0
          0 0 0 0 0 0
          0 0 0 0 0 0
          0 0 0 0 0 0
          0 0 0 0 0 0
          0 0 0 0 0 0
          0 0 0 0 0 0
          0 0 0 0 0 0
          0 0 0 0 0 0
          0 0 0 0 0 0
          0 0 0 0 0 0
          0 0 0 0 0 0
          0 0 0 0 0 0
          0 0 0 0 0 0
          0 0 0 0 0 0
          0 0 0 0 0 0
          0 0 0 0 0 0
          0 0 0 0 0 0
          0 0 0 0 0 0
          0 0 0 0 0 0
          0 0 0 0 0 0
          0 0 0 0 0 0
          0 0 0 0 0 0
          0 0 0 0 0 0
          0 0 0 0 0 0
          0 0 0 0 0 0
          0 0 0 0 0 0
          0 0 0 0 0 0
          0 0 0 0 0 0
          0 0 0 0 0 0
          0 0 0 0 0 0
          0 0 0 0 0 0
          0 0 0 0 0 0
          0 0 0 0 0 0
          0 0 0 0 0 0
          0 0 0 0 0 0
          0 0 0 0 0 0
          0 0
        </DataArray>
        <DataArray type="Float64" Name="gradient_error" format="ascii" RangeMin="4.9179115722179755e-14" RangeMax="2.0029245920256114e-10">
          1.3779834866924445e-13 1.1944353614052427e-12 7.0621386899085885e-12 6.685786547249206e-12 2.3378445114491805e-11 5.445331795093583e-13
          3.8093316910697376e-12 5.037246327158138e-12 2.4913376940234e-12 2.0076433442713454e-12 8.269304019347292e-11 6.354044267043682e-13
          1.38510114193541e-12 4.017081039699395e-13 1.835204732932479e-12 8.709425649833014e-13 2.7447900202658663e-13 1.2197956523535213e-12
          2.134797857166452e-12 3.2562209525588903e-12 2.165112302680456e-12 1.4192360201249983e-13 2.2739396275777243e-12 1.5686487397237415e-12
          4.377644047951329e-12 4.347887252898182e-11 3.536163464881962e-11 6.0451523433140454e-12 1.1303116666757113e-12 8.778646288609414e-13
          3.697804401963821e-11 5.061387385797226e-12 1.0794976247034463e-12 1.236036983551187e-12 1.3167646423117437e-12 2.2012108616450137e-13
          4.865418254733464e-13 6.458330370025404e-13 1.8632234128243057e-13 3.79726349391784e-13 1.9099449649796386e-12 1.7896443765837218e-12
          8.870458295262356e-13 5.030466077865702e-13 5.633606720699943e-13 2.989868905014825e-13 1.7685617729011113e-12 2.263040249997309e-11
          2.024680612724213e-11 4.7473644528330424e-11 4.021031806281594e-11 6.77983130571096e-12 9.601405326910568e-12 8.751667307245601e-12
          1.7863209754511165e-11 3.294699159730145e-11 7.901929287580636e-12 1.2763814474521294e-11 1.2919904504643912e-11 1.80737791832029e-11
          1.3070069732349705e-11 3.548641274084445e-12 4.0393229515274955e-12 2.5816118742282936e-12 2.7459341926723097e-12 4.164465190903177e-12
          5.135058140176376e-12 3.9755217231123385e-12 4.530004628970545e-12 2.910256511116325e-12 6.105651089449575e-12 9.172747462080224e-13
          1.3936371173148128e-12 9.533674993120737e-13 3.3775461242663874e-12 2.6232848904890665e-12 6.910664087462e-13 3.517153011110947e-12
          8.818368054773147e-12 4.0870557139320985e-12 2.4749060664432263e-12 1.613770642045046e-12 1.5088103617438825e-12 3.7297073230058165e-12
          4.070327169636515e-12 2.1946420685843274e-12 1.9843168923578496e-12 1.0764640487578398e-12 4.743098985442746e-12 4.11516581231725e-13
          4.4358589979553835e-13 3.9282895114552015e-13 3.9876044890186116e-13 2.587697319062568e-13 2.763462853888133e-13 3.045543436613302e-13
          4.1686327526246715e-13 4.3510518446166736e-13 4.387935256804025e-13 4.765715968790362e-13 3.2391680941144964e-13 3.822867678254557e-13
          6.072099897591689e-13 4.554177006828574e-13 6.360755737523228e-13 2.9549978231131244e-13 5.021274284003464e-13 5.535267525442788e-13
          8.428544945460882e-13 3.5196477194219356e-13 8.452167042925021e-13 6.699789364519389e-13 1.0403839007525808e-12 1.990929694831345e-12
          1.762664389406747e-12 2.0408421442822094e-12 1.914219244792937e-12 7.981241560273847e-13 7.01089390872768e-13 8.948034825862518e-13
          1.5343990839821488e-12 1.7875963453036654e-12 1.0885175742997358e-12 1.234782121089358e-13 1.4970851935419041e-13 1.0429885458050597e-13
          1.2875009880539962e-13 1.1209159776092036e-13 6.104259986565302e-14 8.767881179759129e-14 1.7593882659944503e-13 1.532013430302933e-13
          1.1431502372952956e-13 8.511949705207613e-14 1.0779167825660886e-13 6.326602583426222e-14 1.3046385946114158e-13 4.451971888368919e-12
          4.045495009781989e-12 2.738163149815044e-12 2.4658772895469574e-12 1.5764817355994293e-12 1.1849644797944862e-12 1.080701915932041e-12
          3.157658803624566e-12 3.644321316688028e-12 1.2549983758513866e-12 2.8337926834926267e-12 4.330162244448708e-12 1.4029358977696126e-12
          1.5467360883124314e-12 2.991285890931181e-12 3.5873176642763554e-12 1.5715377386011895e-12 4.853771428861381e-13 4.797159134097057e-13
          5.673642514570004e-13 5.290704632785635e-13 3.7153553952760825e-13 3.1846494033576296e-13 3.0190739705522176e-13 4.788542317973629e-13
          4.855502971896918e-13 2.8659486051672237e-13 1.1526915610680566e-13 1.060288365574657e-13 2.4409107095615535e-13 2.0450385593325888e-13
          6.212341585068847e-14 1.0048282553590947e-13 9.458040767038856e-14 9.678851700812571e-14 1.6491664091036244e-13 8.867798980486762e-14
          3.7291298580550505e-13 3.0297887530905207e-13 1.2703739949008864e-13 2.3304476481259914e-13 4.1776562250557745e-12 2.248738130843619e-12
          4.954813041832097e-12 2.3662934922209257e-12 1.1731458136642776e-12 1.1078738507884764e-12 1.4046012367647964e-12 1.3048139058791803e-12
          1.0939327649943277e-12 9.720433654900795e-13 9.084922999763508e-13 9.339246707977583e-13 1.0495454711034017e-12 7.43042196221228e-13
          4.137642744081562e-12 3.759035233246055e-12 1.2668228690894196e-12 2.8275041960380507e-12 1.4230558576257205e-12 1.5823771291716584e-12
          1.6870856899687878e-12 4.907716841725868e-12 1.0202959447096647e-12 1.0216790875279295e-12 7.014982255637655e-13 6.616576601622646e-13
          1.1816308086968452e-12 1.1251121686149388e-12 7.597590350189924e-13 1.7778712528023808e-12 7.041871717170023e-13 1.1151160080844838e-12
          1.172044680575322e-11 1.0598885242263309e-11 3.951712805558979e-12 3.5713332545862445e-12 7.82065140652737e-12 2.632427087231318e-12
          1.4608307166703994e-11 1.3466766596815404e-11 4.6232629903290146e-12 1.0333552194936912e-11 1.301351354450413e-11 6.46839053524975e-12
          1.759168743457488e-11 4.70715843649381e-12 1.5838823929084313e-12 2.3379473604318363e-12 7.851951279417484e-13 6.40325346621113e-12
          2.1669683234917414e-12 3.1980106429000685e-12 2.374351063270931e-12 1.696617413335687e-12 1.7126443881079842e-12 1.4288069582932935e-12
          9.069631449149504e-13 1.1135399598978632e-12 3.9202918973939994e-13 6.566451865850113e-13 6.950605060459687e-13 1.1386942769475155e-12
          4.740798646060685e-13 1.1705286793031156e-12 8.606216869097344e-13 1.4343669626848084e-12 2.7276592040284294e-12 2.1973056016546366e-12
          3.655254858109817e-12 1.1735636111023321e-12 7.241675551566821e-13 1.4205090172624643e-12 1.0427919527470922e-12 1.321182466362632e-12
          6.47077141530654e-13 1.4669990691774577e-12 2.5742032354144122e-12 2.4665388750473862e-12 1.8827132912325063e-12 2.0924978541886982e-12
          5.285100973751214e-13 5.002349147083953e-13 5.442168704034667e-13 5.082487045698484e-13 1.6873620288469656e-13 3.9835749531470957e-13
          3.6773573221110876e-13 4.191010598109356e-13 4.116149810195249e-13 3.478329612964676e-13 6.13629340605496e-13 5.610004044933065e-13
          3.573118776811737e-13 4.2912807206843557e-13 3.133429209760851e-13 4.2876755127189495e-13 1.7368289751610002e-13 3.1741174152863176e-13
          2.281913295250567e-13 4.115022945910314e-13 2.2269244315825575e-13 4.0224642441040873e-13 3.165547400696649e-13 4.1461649717447987e-13
          1.2349462098850993e-12 1.1158036166282587e-12 3.567303333773281e-13 3.2170067556296327e-13 8.230084409897984e-13 2.81716740826742e-13
          1.60753172379178e-12 1.4699316609322204e-12 4.3396393173483553e-13 1.1104249078052304e-12 1.7824512206695668e-13 1.6306705917941477e-13
          2.233614366106108e-13 2.038304826375388e-13 1.5812631334247971e-13 3.2177733139761114e-13 2.9511677647093126e-13 2.071157768030317e-13
          2.1316032757747533e-13 2.313137239259802e-13 2.880499871754545e-13 2.6388052593970043e-13 3.6883719865761756e-13 2.009621669589627e-13
          4.948464708545429e-13 2.685660140069941e-13 3.746670773116846e-13 3.891562963335609e-13 6.813663733183156e-13 2.914565712936636e-13
          4.955843642322334e-13 2.659852786493102e-13 2.5450843143407237e-13 1.389629192432757e-13 1.7093136061052313e-13 2.044657357206836e-13
          2.6900459090112317e-13 1.4769149491333727e-13 2.459285939850701e-13 2.0289980197777058e-13 3.3354344608156267e-13 3.7073322174378875e-13
          5.025385020928042e-13 2.869158781941256e-13 4.823155841475739e-13 3.7152993237425346e-13 5.914306555108527e-13 2.997342948265762e-13
          6.136686212848268e-13 5.86658162905884e-13 7.04737874221296e-13 4.4725753533972685e-13 4.583093865813693e-13 3.8413641194834956e-13
          3.2043002811111034e-13 4.1086129101800143e-13 4.3629485388348173e-13 3.5302018896345643e-13 1.1518868723057775e-12 1.382066693794483e-12
          7.190482257388272e-13 8.35429469653326e-13 7.78913062396447e-13 8.254225084038638e-13 5.839775084908964e-13 1.6122465152831884e-12
          9.51810713567825e-13 8.719319544112807e-13 8.524871606803419e-14 8.712334494032661e-14 1.4462824345261919e-13 1.3727945892569602e-13
          6.168643993423018e-14 7.213420043215839e-14 7.82713561674723e-14 8.899797381261905e-14 1.2993067439877287e-13 8.440851190278619e-14
          1.7607293675036545e-13 2.634976515542708e-13 1.2592518588642225e-13 1.608919684427048e-13 1.5620666882258542e-13 2.105715483853413e-13
          1.4195158795177478e-13 9.873155220812947e-13 1.9632975086864576e-12 1.8719728828675384e-12 1.6187140453161172e-12 4.4480049530747e-13
          4.2798298741838485e-13 7.45560878209549e-13 7.131856206669965e-13 2.7219453375929966e-13 3.7747306123282075e-13 3.6371748014890653e-13
          3.874333060470773e-13 6.246804452566862e-13 3.273557232370712e-13 8.072479960186819e-13 1.2964104866149794e-12 1.1360411396463434e-12
          3.5913703962923815e-13 5.19879051828933e-13 2.4159823109430434e-13 3.2136628749068806e-13 3.545729466936213e-13 4.712075762689375e-13
          3.37983027572226e-13 1.1205320756586992e-12 9.575791458241299e-13 2.0511045961917956e-12 2.006833037688006e-12 1.8798946051052455e-12
          4.039369172880593e-12 7.694913494093945e-13 7.539627112173892e-13 1.1921783927920784e-12 1.166463361463784e-12 4.2909531235044876e-13
          6.823442859342496e-13 6.676743077141041e-13 7.092678539239797e-13 1.0927323744538698e-12 6.256190208767105e-13 2.4232128959023264e-12
          2.36579229459763e-12 1.3607292645619989e-12 2.2019600155247067e-12 1.686977718307009e-12 1.450397012180142e-12 3.336427238724212e-12
          6.409639787491842e-13 9.806108190578734e-13 3.6478202722003613e-13 5.615997689607647e-13 5.569769528464744e-13 8.433625727252151e-13
          4.837826869228542e-13 1.95488084205192e-12 1.1251099747626014e-12 1.6566887436221153e-12 1.2036208247982133e-12 2.6145925709578458e-12
          1.99569787685614e-12 1.4656860672237396e-12 3.6571082315509915e-12 6.959531747189898e-13 9.063509142152913e-13 1.194790378524102e-12
          1.5846963023828644e-12 9.450057044971542e-13 2.2914401307861157e-12 2.9801379452136635e-12 4.671140769788236e-13 6.959796832356036e-13
          2.718257521852474e-13 3.9725972705946627e-13 3.783252463246781e-13 5.50286492515594e-13 3.506014685807069e-13 1.3444076886842694e-12
          7.699327127233322e-13 1.0438249741537396e-12 8.363644853641015e-13 1.2077663217433771e-12 5.032564793168505e-13 7.159295785300362e-13
          6.260834729752794e-13 8.853550147773784e-13 5.876810834327746e-13 2.2241606945670726e-12 1.322023028311867e-12 1.5952310080691023e-12
          2.9958238889059314e-13 4.156205414435714e-13 2.2986100821488613e-13 3.086532721435127e-13 2.6461485607232166e-13 3.524075382202303e-13
          2.6934195041548666e-13 7.69914789174916e-13 5.137037896595468e-13 6.164022706148658e-13 7.654488799295068e-12 7.461593449419376e-12
          6.912348011991822e-12 1.1429978833450504e-11 4.477329002594122e-12 4.36459283996551e-12 2.5733985592821736e-12 2.50871591891568e-12
          4.043603582342399e-12 2.324546796395279e-12 6.869190918772011e-12 6.6982883137778975e-12 3.853113747075806e-12 6.209597448841877e-12
          6.087826612144234e-12 5.101471007338364e-12 9.340761478755388e-12 3.5617044558075242e-12 2.0479642862095592e-12 2.985193920411546e-12
          1.7166154621713702e-12 5.470599991165957e-12 3.1456017874161325e-12 4.578936714652577e-12 1.4130663485901307e-11 1.3821473744255405e-11
          1.2920372905600584e-11 1.432023655628654e-11 8.339001539288022e-12 8.153277792225203e-12 4.827191359608991e-12 4.7180105757919595e-12
          7.613501393284294e-12 4.401474634433416e-12 8.662718890590374e-12 8.486544059340549e-12 4.932020269217429e-12 7.967291917503979e-12
          1.1513042025653363e-11 9.750177351061705e-12 1.209803065882172e-11 6.77431427708078e-12 3.911354338469967e-12 5.728405634332905e-12
          3.3032425923600587e-12 7.14133345870742e-12 4.135631235703077e-12 6.085696385543475e-12 8.580914495907164e-12 6.252403183833969e-12
          4.374338832689299e-12 9.384010225695192e-12 1.6419961657477663e-11 1.1881833764630876e-11 8.177066791302407e-12 1.2787791092564596e-11
          4.072954607941856e-12 5.205520206881824e-12 3.1035318960792343e-12 6.22149603070428e-12 7.897403382945305e-12 2.386377884215648e-12
          1.3728836531136272e-12 1.821728343517381e-12 1.047461058992483e-12 3.641787637246546e-12 2.0933131045526566e-12 2.754989605524911e-12
          3.797521567912424e-12 2.2655497994929246e-12 2.660407533985057e-12 1.5842445414698257e-12 5.693546496044775e-12 3.393077881245571e-12
          3.924062984135522e-12 1.3276154065822119e-12 7.616613529073596e-13 9.223269264289063e-13 5.282622109165093e-13 1.9859414038329234e-12
          1.14223148212163e-12 1.3676717996907397e-12 7.830994864697488e-12 9.98470637227585e-12 5.961401748959518e-12 8.3626990510483e-12
          1.0711423795801938e-11 4.59510249215597e-12 2.6470565795039543e-12 3.4952900386190915e-12 2.0128674216185355e-12 4.91541539037399e-12
          2.8360825326168705e-12 3.758655343622154e-12 7.218271059852144e-12 4.3066948368529506e-12 4.965359605762854e-12 2.961814847707591e-12
          7.775339032428095e-12 4.642890131320096e-12 5.357572851666051e-12 2.5240408152762103e-12 1.4540288761282858e-12 1.7349733893601048e-12
          9.983399502188554e-13 2.7232587516977154e-12 1.5700845773747801e-12 1.874753736458313e-12 7.454222204452124e-13 1.0363862437421675e-12
          8.007013140399038e-13 1.816428402701911e-12 9.063338480828342e-13 4.569856597859397e-13 6.235750118644402e-13 3.591377916625581e-13
          4.737397904672566e-13 3.859042998323029e-13 5.101205382891944e-13 3.9916070331904195e-13 1.0973684509541655e-12 7.482000447870605e-13
          8.194542044910386e-13 2.9533150889198682e-12 1.9222516564476353e-12 4.279106919832565e-12 1.2147811554462142e-12 9.386662418552755e-13
          1.68328827654402e-12 5.376887693416355e-12 3.396763897978974e-12 5.796685186642618e-12 2.0830716547468495e-12 1.4000914863040644e-12
          2.2416013837158345e-12 1.798223431145271e-12 1.064852508550976e-12 1.1578234014716304e-12 7.801207030435304e-13 2.6035496916476803e-12
          1.5498683026944435e-12 1.6555877942005507e-12 4.728006135275233e-13 6.117735393485099e-13 2.710729509119578e-13 3.4955600346114476e-13
          3.800561482384889e-13 4.810937038442202e-13 2.743928129812849e-13 9.003326608657015e-13 5.14679713263997e-13 6.27768865140115e-13
          5.727104507099565e-13 7.161642974844364e-13 4.2310635319782503e-13 5.281228562555307e-13 4.5345634806607625e-13 5.525721256968762e-13
          4.116320874708196e-13 1.0094372733588363e-12 6.658827144334535e-13 7.605438630663578e-13 3.2670767141712227e-12 1.9491962043882425e-12
          2.0615302617010616e-12 1.2226106075325859e-12 3.518928369372237e-12 2.1002316479449364e-12 2.215518819580768e-12 1.143471244841829e-12
          6.555242240042887e-13 7.137537862087178e-13 4.719317757844319e-13 1.2370236331217512e-12 7.097280774909152e-13 7.76919904432239e-13
          1.250008858062796e-12 7.379019141250115e-13 9.316896190085093e-13 5.55188772319651e-13 1.3407613136668356e-12 7.93549436256461e-13
          9.939794152119787e-13 4.0232622404503443e-13 4.328138733146643e-13 3.109744409704183e-13 3.2531071347725357e-13 3.2598176784138057e-13
          3.351909668910642e-13 2.606433614535893e-13 4.633015225842942e-13 3.3964698598408884e-13 3.4440016594074785e-13 2.548193700674844e-13
          2.4948139540611566e-13 3.837707916986712e-13 3.754735400810994e-13 1.9052128988587294e-13 2.748466775843995e-13 2.6883877179542167e-13
          2.345708830818567e-13 3.520315940612712e-13 2.5226708577791455e-13 7.875379839203134e-13 7.690496747210853e-13 4.976800231863568e-13
          7.163029970212225e-13 2.1202954282280502e-13 3.165208171939599e-13 1.6203179048796975e-13 2.2737868209815637e-13 1.8493829456023287e-13
          2.729894336651951e-13 1.9602194051141818e-13 6.367204272830112e-13 4.126306175227671e-13 5.397895763677536e-13 1.6055798046702488e-13
          2.248119060296804e-13 1.236965785245348e-13 1.658209901276443e-13 1.5030011204022762e-13 1.9979967945787562e-13 1.5265215787937975e-13
          4.327725125049086e-13 2.818613383022639e-13 3.754579344697995e-13 1.4565049313128249e-12 1.4200088366357924e-12 8.046858119585783e-13
          7.844880452512645e-13 1.3160401131360706e-12 7.273045064132548e-13 2.230343669230847e-12 2.174574845938904e-12 1.2039859583752749e-12
          2.0153516732224035e-12 3.0833895889321347e-13 3.003476295376459e-13 4.3088605263249537e-13 4.198727310610946e-13 1.5818618393022757e-13
          2.2752716290840974e-13 2.2160674302011074e-13 2.7983790001500835e-13 3.8945807362893267e-13 2.0568230041342206e-13 6.707445584700458e-13
          6.53889618305927e-13 3.477260326026234e-13 6.056012951654874e-13 1.1599088846484916e-12 6.419335331039823e-13 9.723851609398633e-13
          5.386401098232611e-13 1.7750295535090812e-12 9.83020213083566e-13 1.4854223784092353e-12 2.5154517805769077e-13 3.454791088199401e-13
          1.3439029911734726e-13 1.8139440742746794e-13 2.1445127687692245e-13 2.9088242751172454e-13 1.7234176162737184e-13 5.342530396712258e-13
          2.813529646201297e-13 4.4799579766027633e-13 2.7414456404078045e-12 2.6785815721753803e-12 1.5276630590718171e-12 1.4921514729593793e-12
          2.496748338787815e-12 1.3897352246743014e-12 2.872860050468795e-12 2.811397461058451e-12 1.5723652117436875e-12 2.631759868401205e-12
          8.355185407195402e-13 8.158015886841584e-13 4.4880132595704067e-13 4.380351841625615e-13 7.589930572020159e-13 4.0694458792937227e-13
          8.829811108707665e-13 8.632217733410063e-13 4.656456052298698e-13 8.058617713159142e-13 2.2162768482680612e-12 1.2324312634048447e-12
          1.8697632793546634e-12 1.0389971185253547e-12 2.3498835958140353e-12 1.310106027420543e-12 1.9949135438052335e-12 6.728050550233832e-13
          3.595729369012987e-13 5.670064830370544e-13 3.0093939421251996e-13 7.165170702865041e-13 3.8483846029992643e-13 6.053349489000827e-13
          8.569489914954033e-14 8.367564329710113e-14 1.1784705390449942e-13 1.1495984219779342e-13 6.08868737477994e-14 8.056613088986649e-14
          7.882849760751118e-14 7.780280796965292e-14 1.0649938067037709e-13 7.266023885161355e-14 1.8535474324943168e-13 1.806306981031019e-13
          1.2175567048061055e-13 1.6708951067792404e-13 6.946968801599547e-14 9.290201401996452e-14 4.9179115722179755e-14 6.481972523341999e-14
          6.499014753734705e-14 8.487789719026225e-14 6.140983708876876e-14 1.4505689440583777e-13 1.0017624037535113e-13 1.2990484561245892e-13
          2.3719076268795e-13 2.313554115596968e-13 1.6313454000829654e-13 1.5901767620073282e-13 2.1462645309500399e-13 1.4734624486906604e-13
          2.536712475364951e-13 2.476934680116755e-13 1.7129413290746748e-13 2.302698382052612e-13 1.8872092327053087e-13 1.30008333919351e-13
          1.5657892254748396e-13 1.0875316837459224e-13 2.0366239775331978e-13 1.4012452183266e-13 1.7068340009786826e-13 7.756110241100211e-13
          4.290425531801462e-13 5.884658453756785e-13 3.254046512751428e-13 1.1813253044012272e-12 6.546084008583669e-13 8.939336372934124e-13