<?xml version="1.0"?>
<VTKFile type="UnstructuredGrid" version="0.1" byte_order="LittleEndian" header_type="UInt32" compressor="vtkZLibDataCompressor">
  <UnstructuredGrid>
    <Piece NumberOfPoints="348" NumberOfCells="177">
      <PointData>
        <DataArray type="Int32" Name="libmesh_node_id" format="ascii" RangeMin="234" RangeMax="2440">
          234 245 318 320 328 553
          554 555 561 563 564 565
          566 567 573 574 692 693
          705 708 801 802 803 806
          807 808 809 810 811 812
          813 814 815 817 818 819
          820 821 822 823 1144 1145
          1146 1149 1152 1166 1167 1186
          1187 1189 1192 1208 1209 1210
          1211 1212 1213 1214 1215 1216
          1217 1218 1219 1220 1221 1222
          1223 1224 1225 1226 1229 1230
          1256 1257 1258 1259 1260 1261
          1262 1263 1264 1265 1569 1570
          1571 1572 1573 1574 1575 1576
          1577 1578 1579 1580 1581 1582
          1583 1584 1585 1586 1587 1588
          1589 1590 1591 1592 1896 1902
          1984 1985 1987 1990 2000 2002
          2004 2018 2019 2021 2024 2034
          2036 2038 2070 2071 2072 2073
          2074 2075 2076 2077 2078 2079
          2080 2081 2082 2083 2084 2085
          2086 2087 2088 2089 2090 2091
          2092 2093 2094 2095 2096 2097
          2098 2099 2100 2101 2102 2103
          2104 2105 2106 2107 2108 2109
          2110 2111 2112 2113 2114 2115
          2116 2117 2118 2119 2120 2121
          2122 2123 2124 2125 2126 2127
          2128 2129 2130 2131 2132 2133
          2134 2135 2136 2137 2138 2139
          2140 2141 2142 2143 2144 2145
          2160 2161 2162 2163 2164 2165
          2166 2167 2168 2169 2207 2208
          2209 2210 2211 2212 2218 2275
          2276 2277 2278 2279 2280 2281
          2282 2283 2284 2285 2286 2287
          2288 2289 2290 2291 2292 2293
          2294 2295 2296 2297 2298 2299
          2300 2301 2302 2303 2304 2305
          2306 2307 2308 2309 2310 2311
          2312 2313 2314 2315 2316 2317
          2318 2319 2320 2321 2322 2323
          2324 2325 2326 2327 2328 2329
          2330 2331 2332 2333 2334 2335
          2336 2337 2338 2339 2340 2341
          2342 2411 2413 2414 2418 2431
          2433 2434 2438 706 319 308
          709 322 816 824 825 826
          570 321 324 1236 1237 1238
          1239 1240 1241 1170 1243 1172
          1245 558 1246 1247 1276 1202
          1280 1206 2213 2214 2215 2216
          2217 2219 2220 1244 2225 2221
          2226 2222 2232 2224 2415 2416
          2412 2417 2419 2420 1277 2435
          2436 2432 2437 2439 2440 1281
        </DataArray>
        <DataArray type="Float64" Name="bounds" format="ascii" RangeMin="0" RangeMax="0">
          0 0 0 0 0 0
          0 0 0 0 0 0
          0 0 0 0 0 0
          0 0 0 0 0 0
          0 0 0 0 0 0
          0 0 0 0 0 0
          0 0 0 0 0 0
          0 0 0 0 0 0
          0 0 0 0 0 0
          0 0 0 0 0 0
          0 0 0 0 0 0
          0 0 0 0 0 0
          0 0 0 0 0 0
          0 0 0 0 0 0
          0 0 0 0 0 0
          0 0 0 0 0 0
          0 0 0 0 0 0
          0 0 0 0 0 0
          0 0 0 0 0 0
          0 0 0 0 0 0
          0 0 0 0 0 0
          0 0 0 0 0 0
          0 0 0 0 0 0
          0 0 0 0 0 0
          0 0 0 0 0 0
          0 0 0 0 0 0
          0 0 0 0 0 0
          0 0 0 0 0 0
          0 0 0 0 0 0
          0 0 0 0 0 0
          0 0 0 0 0 0
          0 0 0 0 0 0
          0 0 0 0 0 0
          0 0 0 0 0 0
          0 0 0 0 0 0
          0 0 0 0 0 0
          0 0 0 0 0 0
          0 0 0 0 0 0
          0 0 0 0 0 0
          0 0 0 0 0 0
          0 0 0 0 0 0
          0 0 0 0 0 0
          0 0 0 0 0 0
          0 0 0 0 0 0
          0 0 0 0 0 0
          0 0 0 0 0 0
          0 0 0 0 0 0
          0 0 0 0 0 0
          0 0 0 0 0 0
          0 0 0 0 0 0
          0 0 0 0 0 0
          0 0 0 0 0 0
          0 0 0 0 0 0
          0 0 0 0 0 0
          0 0 0 0 0 0
          0 0 0 0 0 0
          0 0 0 0 0 0
          0 0 0 0 0 0
        </DataArray>
        <DataArray type="Float64" Name="gradient_error" format="ascii" RangeMin="7.780364905617078e-11" RangeMax="2.1764181930575292e-7">
          6.443785108075158e-9 1.1352425080323327e-10 1.4513542496194885e-9 2.0222571696505707e-8 2.9061197760476263e-8 1.603835533599974e-8
          9.571529617919351e-8 9.823631715227878e-8 1.9286098526018673e-7 8.446276360137749e-10 2.5225622594735113e-9 1.880000220158536e-8
          8.585513304328172e-9 7.410865479792802e-10 3.646516301338031e-8 3.8493333796351475e-8 6.610826455471309e-9 6.328541063373707e-9
          1.4972933447257005e-9 7.780364905617078e-11 5.598891807152897e-9 4.513189153556697e-8 3.8893359226717125e-8 3.265482691786729e-8
          1.0066253818184635e-9 2.8843183058846205e-9 2.451747719085231e-8 2.0963220437515762e-8 1.1459681971217318e-9 8.364026144659059e-9
          7.930444425696392e-9 4.7620112299507775e-9 1.7408963684179215e-8 2.3336454850142057e-10 3.4965051757315974e-10 2.536644192259132e-10
          1.3396851180190866e-9 1.383402794691805e-10 1.739700558562567e-10 3.592547997261547e-10 1.53325946077205e-8 8.235740919152641e-8
          7.34567623657094e-8 5.1147747111117135e-8 8.379377147175072e-8 1.1533152627542302e-8 2.8224317009142126e-8 6.265864079684296e-8
          6.178634970594889e-8 1.5554312501450627e-7 5.788836704161154e-8 6.019414490415266e-9 5.529709784940079e-9 3.808622865843902e-8
          3.367975737525598e-8 7.667413748874921e-10 2.9912603993647377e-9 2.541790263868778e-9 6.238133129780444e-9 2.3438908004371358e-8
          2.4603417736286185e-9 5.3887307412503576e-8 4.60867513449562e-8 1.54213158264483e-8 4.8835249292875965e-8 3.628001610676921e-10
          5.096530888395353e-10 1.2879466927991306e-9 1.2236742687980106e-9 5.845698367445877e-10 1.014562018666909e-9 1.1775502705013855e-9
          6.087633216557817e-8 5.8951045005005615e-8 5.0141100450424564e-8 4.6642462823710944e-8 8.815726531402298e-8 2.6829882599532956e-8
          3.934383484525409e-8 5.746299864771415e-8 4.955841907048051e-8 1.1436493846513261e-7 1.5071452054754836e-9 2.1276567926974914e-9
          1.927374940926609e-9 1.7270930891557271e-9 1.0122322540178485e-9 1.003043238296421e-9 1.5608217612397195e-9 1.4539810275335325e-9
          3.3336462527715974e-10 7.229270255304944e-10 6.960674739242211e-10 9.938542225749936e-10 1.3471402938273455e-9 6.692079223179478e-10
          1.0443070400182527e-10 1.3162963706201025e-10 3.054837145824208e-10 2.845367727772975e-10 9.547129468705956e-11 1.5910010788580082e-10
          1.575257118466086e-10 1.5882857012219525e-10 2.6358983097217414e-10 1.559513158074164e-10 4.8274401321009676e-8 3.4582745589521605e-8
          5.669457087865664e-8 5.549478619898887e-8 5.146957712948837e-8 6.283519983449681e-8 4.341952573059439e-8 3.8194898721533124e-8
          5.7121144484249694e-8 4.565653854244983e-8 5.210144695888318e-8 6.051050999000353e-8 4.1247665325740816e-8 6.239679117901256e-8
          6.231891775333459e-8 6.28075992611929e-8 1.316895936961005e-9 1.731240463544842e-9 1.683375963879917e-9 1.5647917235567e-9
          5.838993987343798e-9 9.90826605018675e-10 9.637181595713903e-10 1.5161865291647775e-9 1.4697600402872377e-9 5.036915888603651e-10
          1.059793692939403e-9 1.0223617372667588e-9 8.987807559753161e-10 1.3498746981770855e-9 9.230060967051375e-10 4.859544751910597e-9
          4.653705756959199e-9 2.8732055612403523e-9 4.1273289472085096e-9 1.1008038925878804e-9 1.3607274579975032e-9 1.2273829330965984e-9
          4.2042272449259794e-9 8.434646842004199e-10 1.1682627933399641e-9 4.819144558509458e-10 7.88501919386789e-10 8.259775705743136e-10
          1.060109741735455e-9 7.159214269574174e-10 3.3521920512068247e-9 2.0592604870736973e-9 2.995694611466493e-9 1.2450970983718861e-8
          1.1877545065411733e-8 1.0589443656781872e-8 4.5678214242865405e-8 4.355033392107226e-8 2.973645023404911e-8 3.7677632603337634e-8
          1.0717946237121333e-8 1.0244043923464465e-8 7.791574642678325e-9 7.45449889702561e-9 9.07290945303398e-9 6.517436116786229e-9
          2.329435308017581e-8 2.2157086072092806e-8 1.7895279792725478e-8 1.9217185951191638e-8 8.699864933704602e-9 6.379209661851202e-9
          3.0249001568590346e-8 2.0620456500953415e-8 2.6565191529784537e-8 7.394698822412316e-9 5.21705780691597e-9 5.456084396136003e-9
          3.841930297716535e-9 1.5320178680818105e-8 1.2046690130846942e-8 1.1352863044365396e-8 3.3506959892078515e-10 3.353278424826077e-10
          6.691439628518389e-10 6.443357082048572e-10 2.35328562025343e-10 4.23039647729674e-10 4.072645575246607e-10 3.284021942490859e-10
          5.773590712996457e-10 3.9665173202678117e-10 1.9710630303117673e-9 1.8885366594084167e-9 1.226986387022709e-9 1.6616483626289476e-9
          3.221574706126522e-10 4.875458336902893e-10 2.6661150533637233e-10 3.738859572894251e-10 3.2309663877156294e-10 4.399009783391626e-10
          3.407956531378018e-10 1.3369019424429908e-9 1.050445235867689e-9 1.1809191058905498e-9 3.5301087718066282e-9 4.559077158310098e-9
          3.1922858601842724e-9 9.330803675786444e-9 2.730681418050465e-9 3.8439873740849266e-9 7.95729750407862e-9 5.45229714419694e-8
          5.320922072456614e-8 5.0573731821214765e-8 4.906302615015846e-8 4.863399473669026e-8 4.3984155590218975e-8 6.299661721148232e-8
          6.301595741407025e-8 6.081935941595836e-8 6.159293287317481e-8 4.484964054557532e-8 4.317169545743971e-8 3.7719242716577717e-8
          3.6070535620578014e-8 3.7936561170354604e-8 3.1195520059044784e-8 5.643401151470572e-8 5.623989803263451e-8 4.974776804941916e-8
          5.3771244484444126e-8 3.963803880782095e-8 3.4893469341586505e-8 3.3903558149424244e-8 2.605615993711153e-8 5.519939579726622e-8
          5.1238771623464904e-8 5.024822346484103e-8 2.9648718220116724e-8 2.4051388358370964e-8 2.1039998185553788e-8 1.6629855997241794e-8
          4.5484224423874455e-8 3.8313564587034405e-8 3.245469729734611e-8 4.876274474456073e-8 5.427656520490516e-8 4.976082877050011e-8
          5.412469023791511e-8 6.118231134002344e-8 5.978657503745726e-8 3.489998370723021e-8 4.538932310972982e-8 4.7195517666624144e-8
          5.8769113803740195e-8 4.801930257804321e-8 5.134684127601699e-8 4.3853016261327856e-8 4.674757613058858e-8 5.6299385464605433e-8
          5.098617239033399e-8 4.0039506481206354e-8 4.5399583511472354e-8 4.1053746375287566e-8 5.418716205067835e-8 6.189528767659999e-8
          5.921219331188662e-8 6.121633833840266e-8 4.9968072377494915e-8 6.24188598057191e-8 6.01090605090685e-8 6.317815451618723e-8
          5.4408589556096776e-8 4.7606109860738094e-8 4.202335342650645e-8 3.532538750989359e-8 5.6083883787932375e-8 5.000517102506259e-8
          4.557733037221802e-8 1.6652597410520498e-8 2.377041472508174e-8 1.4341087853794334e-8 2.1247985894812366e-8 3.0849761633875486e-8
          3.4390326831869175e-8 2.768433063078177e-8 3.0597563501489625e-8 1.4607616976160892e-9 7.075248054607747e-9 3.020899195505267e-8
          9.926964945719992e-11 2.045855710752064e-10 5.458742959026198e-9 4.986456059794913e-10 1.6482088241316774e-9 5.498602643708835e-10
          2.2539681285716832e-9 2.2374332607286534e-8 6.588096984841378e-10 6.78218528560159e-9 1.3257021877838794e-8 3.3276578567014854e-9
          2.186445521336383e-9 4.116677560625592e-9 6.996306676201379e-9 1.489125750908608e-8 4.185652032591723e-8 8.939558713803299e-8
          1.61087346992544e-8 7.03395384543439e-8 1.355477294384802e-9 8.905404722164453e-10 8.668038008214518e-8 1.7575875609553845e-7
          1.0991308540667466e-7 2.1764181930575292e-7 1.5811325406783671e-9 2.6203834119253e-9 1.8636591673514946e-9 2.6131998857483845e-9
          1.6803171806831837e-9 5.634868220933694e-9 5.1086600217844835e-9 3.450222928671461e-9 1.204682045949466e-9 1.5701815960494821e-9
          1.6707126557626085e-9 2.0831946556207352e-9 3.079075855837134e-9 3.746846502968021e-9 1.0509019447753161e-8 8.900249620750974e-9
          1.0565727488270414e-8 6.171857639314238e-9 1.6583494516527265e-8 1.2932174517379962e-8 9.441557712430282e-9 2.1828871485148455e-8
          1.6577139354853695e-8 1.9140639498665127e-8 1.2235124625791607e-8 2.3898690674053555e-8 1.823584947702572e-8 1.3345804423403295e-8
        </DataArray>
        <DataArray type="Float64" Name="gradient_matprop_error" format="ascii" RangeMin="0" RangeMax="0">
          0 0 0 0 0 0
          0 0 0 0 0 0
          0 0 0 0 0 0
          0 0 0 0 0 0
          0 0 0 0 0 0
          0 0 0 0 0 0
          0 0 0 0 0 0
          0 0 0 0 0 0
          0 0 0 0 0 0
          0 0 0 0 0 0
          0 0 0 0 0 0
          0 0 0 0 0 0
          0 0 0 0 0 0
          0 0 0 0 0 0
          0 0 0 0 0 0
          0 0 0 0 0 0
          0 0 0 0 0 0
          0 0 0 0 0 0
          0 0 0 0 0 0
          0 0 0 0 0 0
          0 0 0 0 0 0
          0 0 0 0 0 0
          0 0 0 0 0 0
          0 0 0 0 0 0
          0 0 0 0 0 0
          0 0 0 0 0 0
          0 0 0 0 0 0
          0 0 0 0 0 0
          0 0 0 0 0 0
          0 0 0 0 0 0
          0 0 0 0 0 0
          0 0 0 0 0 0
          0 0 0 0 0 0
          0 0 0 0 0 0
          0 0 0 0 0 0
          0 0 0 0 0 0
          0 0 0 0 0 0
          0 0 0 0 0 0
          0 0 0 0 0 0
          0 0 0 0 0 0
          0 0 0 0 0 0
          0 0 0 0 0 0
          0 0 0 0 0 0
          0 0 0 0 0 0
          0 0 0 0 0 0
          0 0 0 0 0 0
          0 0 0 0 0 0
          0 0 0 0 0 0
          0 0 0 0 0 0
          0 0 0 0 0 0
          0 0 0 0 0 0
          0 0 0 0 0 0
          0 0 0 0 0 0
          0 0 0 0 0 0
          0 0 0 0 0 0
          0 0 0 0 0 0
          0 0 0 0 0 0
          0 0 0 0 0 0
        </DataArray>
        <DataArray type="Float64" Name="initial_marker" format="ascii" RangeMin="0" RangeMax="2">
          0 0 0 1 2 0.5
          2 2 2 0 0 2
          2 0 2 2 0 0
          0 0 0 0 0 0
          0 0 0 0 0 0
          0 0 0 0 0 0
          0 0 0 0 1.3333333333333333 2
          2 1.5 2 0 1 2
          2 2 2 0.5 0.5 2
          2 0 2 2 0.3333333333333333 1.25
          1 2 2 2 2 0
          0 2 1.25 0 0 1
          2 2 2 2 2 2
          2 2 2 2 0 0
          0 0 0 0 0 0
          0 0 0 0 0 0
          0 0 0 0 0 0
          0 0 0 0 2 2
          2 2 2 2 2 2
          2 2 2 2 2 2
          2 2 0 1 1 1
          2 0 0 1 1 0
          1 1 0 1 1 2
          2 2 2 0 0.5 0
          1.5 0 0.5 0 0.5 0
          0 0 1.5 1.5 1.3333333333333333 2
          2 2 2 2 2 2
          2 2 2 2 2 2
          2 2 2 2 2 2
          2 2 2 2 2 2
          2 2 2 2 0 0
          1 1 0 1 0.75 0
          0.75 0.3333333333333333 2 2 1.75 1.75
          0 0.25 0 0 0 0
          0 1.25 1.3333333333333333 1.3333333333333333 2 2
          1.5 2 2 2 2 2
          2 2 2 2 2 2
          2 2 2 2 2 2
          2 2 2 2 2 2
          2 2 2 2 2 2
          2 2 2 2 2 2
          2 2 2 2 2 2
          2 2 2 2 2 2
          2 2 2 2 2 2
          2 2 2 2 2 2
          2 2 2 2 2 2
          2 2 2 2 2 2
          2 2 2 2 2 2
          2 2 2 0 0 0
          0 0 0 0 0 0
          0 0 0 0 0.75 0
          0.25 0 0.25 0.6666666666666666 2 2
          1 1.5 0 0 2 2
          2 2 1.5 1.75 1 1.5
          1.25 2 2 2 0 0
          0.5 0.5 1.5 1.5 2 2
          2 2 2 2 2 2
          2 2 2 2 2 2
        </DataArray>
        <DataArray type="Float64" Name="markers_norefine" format="ascii" RangeMin="0" RangeMax="2">
          0 0 0 0 2 0
          0 0 1 0 0 0
          0 0 2 0 0 0
          0 0 0 0 0 0
          0 0 0 0 0 0
          0 0 0 0 0 0
          0 0 0 0 0 0
          0 0 0 0 0 2
          2 0.5 2 0 0 0
          0 0 0 0 0 0
          0 0 0 0 0 0
          0 0 0 0 0 0
          2 1.25 1 0.5 0 0
          2 2 1.5 0.5 0 0
          0 0 0 0 0 0
          0 0 0 0 0 0
          0 0 0 0 0 0
          0 0 0 0 0 0
          1 1 1 2 0.5 0
          1.5 2 2 2 2 2
          2 2 0 0 0 0
          0 0 0 0 0 0
          0 0 0 0 0 0
          0 0 0 0 0 0
          0 0 0 0 0 0
          0 0 0 0 0 0
          0 0 0 0 0 0
          0 0 0 0 0 0
          0 0 0 0 0 0
          0 0 0 0 0 0
          0 0 0 0 0 0
          0 0 0 0 0 0
          0 0 0 0 0 0
          0 0 0 0 0 0
          0 0 0 0 0 0
          0 0 0 0 0 1
          1 1 0.75 0.75 0.25 2
          2 1.75 1.75 0.5 0.25 0
          0 0 0 1.5 1.25 1
          0.75 0.25 0 0 0 1
          0.5 0.5 0 0 0 0
          0.25 0 0 2 2 2
          2 2 2 2 2 2
          2 2 2 2 2 1.75
          1.25 2 2 2 2 1.75
          1.25 1.5 0.3333333333333333 2 1.5 2
          0.75 0.25 0 0 1 0.5
          0 0 0 0 0 0
          0 0 0 0 0 0
          0 0 0 0 0 0
          0 0 0 0 0 0
          0 0 0 0 0 0
          0 0 0 0 0 0
          0 0 0 0 0 0
          0 0 0 0 0 0
          0 0 0 0 0 0
          0 0 0 0 0 0
          0 0 0 0 0 0
        </DataArray>
        <DataArray type="Float64" Name="markers_mustrefine" format="ascii" RangeMin="0" RangeMax="2">
          0 0 0 1 2 0.5
          2 2 2 0 0 2
          2 0 2 2 0 0
          0 0 0 0 0 0
          0 0 0 0 0 0
          0 0 0 0 0 0
          0 0 0 0 1.3333333333333333 2
          2 1.5 2 0 1 2
          2 2 2 0.5 0.5 2
          2 0 2 2 0.3333333333333333 1.25
          1 2 2 2 2 0
          0 2 1.25 0 0 1
          2 2 2 2 2 2
          2 2 2 2 0 0
          0 0 0 0 0 0
          0 0 0 0 0 0
          0 0 0 0 0 0
          0 0 0 0 2 2
          2 2 2 2 2 2
          2 2 2 2 2 2
          2 2 0 1 1 1
          2 0 0 1 1 0
          1 1 0 1 1 2
          2 2 2 0 0.5 0
          1.5 0 0.5 0 0.5 0
          0 0 1.5 1.5 1.3333333333333333 2
          2 2 2 2 2 2
          2 2 2 2 2 2
          2 2 2 2 2 2
          2 2 2 2 2 2
          2 2 2 2 0 0
          1 1 0 1 0.75 0
          0.75 0.3333333333333333 2 2 1.75 1.75
          0 0.25 0 0 0 0
          0 1.25 1.3333333333333333 1.3333333333333333 2 2
          1.5 2 2 2 2 2
          2 2 2 2 2 2
          2 2 2 2 2 2
          2 2 2 2 2 2
          2 2 2 2 2 2
          2 2 2 2 2 2
          2 2 2 2 2 2
          2 2 2 2 2 2
          2 2 2 2 2 2
          2 2 2 2 2 2
          2 2 2 2 2 2
          2 2 2 2 2 2
          2 2 2 2 2 2
          2 2 2 0 0 0
          0 0 0 0 0 0
          0 0 0 0 0.75 0
          0.25 0 0.25 0.6666666666666666 2 2
          1 1.5 0 0 2 2
          2 2 1.5 1.75 1 1.5
          1.25 2 2 2 0 0
          0.5 0.5 1.5 1.5 2 2
          2 2 2 2 2 2
          2 2 2 2 2 2
        </DataArray>
        <DataArray type="Float64" Name="gradient_marker" format="ascii" RangeMin="0" RangeMax="1">
          0.5 1 0.75 0 0 0.125
          0.5 0.5 0.5 1 1 1
          1 1 1 1 1 1
          1 1 0 0.25 0.125 0
          0 0 0 0 0.5 0.25
          0.375 0 0 1 1 1
          1 1 1 1 0 0.5
          0.5 0.25 0.5 0 0 0
          0 0.5 0 0.5 0.5 0.75
          0.75 1 1 1 0.5 0.625
          1 0.75 0.75 1 0.75 1
          1 1 1 1 1 1
          0.5 0.5 1 1 0.75 1
          0.5 0.5 1 0.75 0 0
          0 0 0.5 0.5 0.5 0.5
          1 1 1 0.5 0.5 1
          1 1 1 1 1 1
          1 1 1 1 0 0
          0 0 0 0 0 0
          0 0 0 0 0 0
          0 0 1 1 1 1
          1 1 1 1 1 1
          1 1 1 1 1 1
          1 1 1 1 1 1
          1 1 1 1 1 1
          1 1 1 1 1 1
          1 1 0 0 0.6666666666666666 0
          1 1 1 1 1 1
          1 1 1 1 1 1
          0 0.6666666666666666 0 1 1 1
          1 1 1 1 1 1
          1 1 1 1 1 1
          1 1 1 1 1 1
          1 1 1 1 1 1
          1 1 1 1 1 1
          1 1 1 1 1 0
          0 0.5 0.5 0 0.5 0
          0 0.5 0 1 1 1
          1 1 1 1 1 1
          1 0 0.5 0 0.6666666666666666 0
          0.5 0 1 1 1 1
          1 1 1 0 0 0.5
          0.5 0 0.5 0 0 0.5
          0 1 1 1 1 1
          1 1 1 1 1 0
          0.5 0 0.6666666666666666 0 0.5 0
          1 1 1 1 1 1
          1 1 1 1 1 1
          1 1 1 1 0.875 0.75
          1 1 0.6666666666666666 1 1 1
          1 0.375 1 0.5 0.5 1
          1 0.5 0.5 0 0.625 0.25
          0.5 0.125 1 1 0.875 0.75
          1 1 1 1 1 1
          1 1 1 1 1 1
          1 1 1 1 1 1
          1 1 1 1 1 1
          1 1 1 1 1 1
        </DataArray>
        <DataArray type="Float64" Name="gradient_matprop_marker" format="ascii" RangeMin="0" RangeMax="0">
          0 0 0 0 0 0
          0 0 0 0 0 0
          0 0 0 0 0 0
          0 0 0 0 0 0
          0 0 0 0 0 0
          0 0 0 0 0 0
          0 0 0 0 0 0
          0 0 0 0 0 0
          0 0 0 0 0 0
          0 0 0 0 0 0
          0 0 0 0 0 0
          0 0 0 0 0 0
          0 0 0 0 0 0
          0 0 0 0 0 0
          0 0 0 0 0 0
          0 0 0 0 0 0
          0 0 0 0 0 0
          0 0 0 0 0 0
          0 0 0 0 0 0
          0 0 0 0 0 0
          0 0 0 0 0 0
          0 0 0 0 0 0
          0 0 0 0 0 0
          0 0 0 0 0 0
          0 0 0 0 0 0
          0 0 0 0 0 0
          0 0 0 0 0 0
          0 0 0 0 0 0
          0 0 0 0 0 0
          0 0 0 0 0 0
          0 0 0 0 0 0
          0 0 0 0 0 0
          0 0 0 0 0 0
          0 0 0 0 0 0
          0 0 0 0 0 0
          0 0 0 0 0 0
          0 0 0 0 0 0
          0 0 0 0 0 0
          0 0 0 0 0 0
          0 0 0 0 0 0
          0 0 0 0 0 0
          0 0 0 0 0 0
          0 0 0 0 0 0
          0 0 0 0 0 0
          0 0 0 0 0 0
          0 0 0 0 0 0
          0 0 0 0 0 0
          0 0 0 0 0 0
          0 0 0 0 0 0
          0 0 0 0 0 0
          0 0 0 0 0 0
          0 0 0 0 0 0
          0 0 0 0 0 0
          0 0 0 0 0 0
          0 0 0 0 0 0
          0 0 0 0 0 0
          0 0 0 0 0 0
          0 0 0 0 0 0
        </DataArray>
        <DataArray type="Float64" Name="combo" format="ascii" RangeMin="0" RangeMax="2">
          0.5 1 0.75 0 2 0.125
          0.5 0.5 1.5 1 1 1
          1 1 2 1 1 1
          1 1 0 0.25 0.125 0
          0 0 0 0 0.5 0.25
          0.375 0 0 1 1 1
          1 1 1 1 0 0.5
          0.5 0.25 0.5 0 0 2
          2 1 2 0.5 0.5 0.75
          0.75 1 1 1 0.5 0.625
          1 0.75 0.75 1 0.75 1
          1 1 1 1 1 1
          2 1.5 1.5 1.25 0.75 1
          2 2 1.75 1.25 0 0
          0 0 0.5 0.5 0.5 0.5
          1 1 1 0.5 0.5 1
          1 1 1 1 1 1
          1 1 1 1 0 0
          1 1 1 2 0.5 0
          1.5 2 2 2 2 2
          2 2 1 1 1 1
          1 1 1 1 1 1
          1 1 1 1 1 1
          1 1 1 1 1 1
          1 1 1 1 1 1
          1 1 1 1 1 1
          1 1 0 0 0.6666666666666666 0
          1 1 1 1 1 1
          1 1 1 1 1 1
          0 0.6666666666666666 0 1 1 1
          1 1 1 1 1 1
          1 1 1 1 1 1
          1 1 1 1 1 1
          1 1 1 1 1 1
          1 1 1 1 1 1
          1 1 1 1 1 1
          1 1.25 1.125 0.75 0.75 2
          2 1.875 1.75 1.25 1.125 1
          1 1 1 1.75 1.625 1.5
          1.375 0.25 0.5 0 0.6666666666666666 1
          0.875 0.5 1 1 1 1
          1.125 1 1 2 2 2
          2 2 2 2 2 2
          2 2 2 2 2 1.875
          1.625 2 2 2 2 1.75
          1.5 1.5 1 2 1.75 2
          1.375 1.125 1 1 1.5 1.25
          1 1 1 1 1 1
          1 1 1 1 0.875 0.75
          1 1 0.6666666666666666 1 1 1
          1 0.375 1 0.5 0.5 1
          1 0.5 0.5 0 0.625 0.25
          0.5 0.125 1 1 0.875 0.75
          1 1 1 1 1 1
          1 1 1 1 1 1
          1 1 1 1 1 1
          1 1 1 1 1 1
          1 1 1 1 1 1
        </DataArray>
        <DataArray type="Float64" Name="dHdT" format="ascii" RangeMin="25.806327696783036" RangeMax="53.309390539694256">
          25.806327696783036 25.811959628093227 25.811199819088532 26.310165428301545 46.32228398311485 26.161788795437406
          36.47216431073698 31.363103725193877 44.73090415273725 25.89188373328594 25.884944967532856 30.664431230125224
          27.632497870088933 25.82865635897344 52.809234265242 36.41076167258012 25.80942429244067 25.80913906712029
          25.81110809018787 25.811579611842095 25.819447622793266 26.081523203799847 26.037924436414748 25.99432566902965
          25.808560020264053 25.81572959528714 25.95531220495338 25.93112225617265 25.81452302364299 25.86789260586705
          25.859791488537 25.822899170310226 25.906932307391923 25.8128673322461 25.813357623888702 25.817114511969123
          25.82146475466586 25.81242397838526 25.81342754883516 25.8144165301037 26.36574821426846 29.116459817842635
          28.67915841559205 27.667048131042474 34.162591165598414 26.196953416943245 26.778889809218274 49.1066427024641
          49.75485683444431 40.140709419225374 48.166376741161685 26.080682934311884 26.059620695909167 27.79252974217424
          27.492482511913497 25.885985473007167 26.427278056263695 26.336450223174896 26.052870584669495 26.846159466257202
          26.137871094070242 33.04581120486723 32.1328466471862 29.58502220015616 29.656772169920654 25.84420390836455
          25.84454581116428 26.0692502820946 26.024089577700114 25.833834186272558 25.851888240421577 25.941709678511344
          49.46602691210212 47.11325275118659 45.80206437163402 40.93661040265875 36.808340335375675 32.77962916733868
          46.294419871594975 49.98648036050123 51.049970182864534 42.39312507492003 25.849441626187 25.89540958618861
          25.891308857420157 25.8872081286517 25.83745100168707 25.83787268891173 25.871698312209652 25.869519234162986
          25.8224829560222 25.837810023144065 25.837468736205526 25.838294376136393 25.86734015611632 25.83712744926698
          25.816440011035652 25.816991684493644 25.82272875647076 25.82268596266959 25.81532120857935 25.817824504884086
          25.818164063833954 25.817543357951635 25.822643168868417 25.818503622783815 40.28151653663666 35.336818331872955
          46.12169696756831 45.34251631384316 43.07530485312438 49.526393617925734 39.606100257966695 37.624926469802645
          46.95964422754837 46.827339476779244 47.47978250154547 49.53719024044515 46.310293858289135 50.13476432332021
          49.32737369206184 50.22562237560413 26.0493150701303 26.221682621674844 26.21083930151366 26.181160350909757
          26.926620173717378 26.004673785242368 26.000328039942033 26.15221134733614 26.14276194098659 25.92703148834149
          26.034216038479236 26.02741352444231 25.988087814371912 26.116733958506195 26.00873590145718 26.763993972174895
          26.726988014793662 26.402848426035312 26.627906962266678 26.01529428809274 26.14158442759974 26.12084413473244
          26.640788452299102 25.974328890240184 26.083196300188643 25.911533387799597 25.985704277203283 25.96846444637825
          26.06623721800192 25.97454776189759 26.490452386619303 26.24627487845447 26.424780681038698 28.849385566128134
          28.689346612684094 28.288092701659927 38.07937544582629 37.32382708174518 33.57292908817366 35.881024292878024
          28.331590430444358 28.201506842923017 27.495696611205567 27.411323308847738 27.868209253495994 27.187524725044202
          32.0396992231297 31.775670582634756 30.379168313111926 30.97165975522417 27.75772119980227 27.23360376717729
          34.44275143008297 31.57333662467076 33.69173299207397 27.43005151493691 26.894645553403855 26.996339582610446
          26.602888976480777 29.73300118296903 28.551157950641702 28.4799486986824 25.887617237591748 25.886228650179273
          25.953535087898814 25.94921754470385 25.859185613108327 25.90070718398719 25.898740796414913 25.882030758913118
          25.937333604426808 25.899115897213488 26.21279161587026 26.19595172301912 26.058413667747935 26.150767053621667
          25.87689548449346 25.92242561588159 25.864087685775345 25.89825085013416 25.87456951392748 25.91508402441846
          25.89270282631314 26.090813640623693 26.02265200386366 26.062162863173768 26.480691791427482 26.81946147781723
          26.503162678438656 27.88630554555476 26.352530331368364 26.643635700050197 27.537601583267108 43.95954916708823
          43.32256006877699 41.99013918699069 41.297849250613126 41.27242052975399 39.134554667482334 49.4784216084805
          49.73945412308128 49.16423898707075 48.80050536474879 39.80660901656301 38.953817032143 36.57625462770535
          35.864182683386346 36.49472818201747 33.97158463333963 48.39837842859295 47.48237624845059 44.50597451078595
          44.410210026029134 37.846851620661475 35.82330716114562 35.83443315228072 33.02559073479163 44.85436625454738
          42.288720492968835 42.10820841727924 33.66778977818441 31.817975317822263 31.330384289868636 29.799467956048268
          39.41209057879023 36.534906313972286 34.858680677161864 47.7165050613255 48.22356577365019 48.440397002208144
          49.11319740636765 49.85784962050121 50.294202519136974 46.315889794040146 46.28951635694661 47.08312991297477
          48.778505278134794 49.413037266889006 50.382475479942464 52.15697806924173 51.60328274727466 50.20095223180115
          48.1749808723938 46.99807908942759 49.39072486029008 53.309390539694256 51.35360595022976 49.41547043978841
          48.02422595591741 47.845868124549284 42.116330057004205 50.373160181722014 50.0084903422388 49.45245272702753
          45.173837819732974 41.320730472107286 38.19687670565284 35.35664463448374 47.46433363908859 43.46189956713684
          39.81477637783006 29.961536435229924 32.46109674197713 29.248641807260245 31.498213164051126 34.17696884360011
          34.74043714680327 33.2318506876567 33.82409656392945 25.81108212236938 25.818090549548142 25.835019431498914
          25.811610354166483 25.8121284309836 25.842144311008365 25.814235649154377 25.821781780706637 25.815264765396517
          25.849712254781295 25.98028336550042 25.81963492552351 26.02746037832464 26.33667663824543 25.91578930926901
          25.980967924676467 25.939834832068872 26.073403883018305 26.333650779880028 27.7625425067083 28.993366365704127
          26.534148052106918 27.0749612601495 25.85575591957854 25.88047871545609 30.57798826469913 32.710230979202755
          32.39218367408547 34.79455542849056 26.15075251377287 26.355713606767843 26.19025591925976 26.374636340309724
          26.168709370171495 26.965967497164073 26.89010217605219 26.51447490615197 26.07154050350909 26.135356836941117
          26.180990219099847 26.270098465856982 26.46556225568453 26.61583884975329 28.09802926625523 27.732980247080945