<?xml version="1.0"?>
<VTKFile type="UnstructuredGrid" version="0.1" byte_order="LittleEndian" header_type="UInt32" compressor="vtkZLibDataCompressor">
  <UnstructuredGrid>
    <Piece NumberOfPoints="311" NumberOfCells="179">
      <PointData>
        <DataArray type="Int32" Name="libmesh_node_id" format="ascii" RangeMin="253" RangeMax="2727">
          253 323 568 569 575 597
          598 829 830 1227 1228 1231
          1232 1233 1234 1235 1266 1267
          1268 1269 1270 1271 1272 1273
          1274 1275 1314 1315 1316 1317
          1321 1322 1324 1325 1327 1352
          1353 1356 1358 1359 2146 2147
          2148 2149 2150 2151 2152 2153
          2154 2155 2156 2157 2158 2159
          2170 2171 2172 2173 2174 2175
          2176 2177 2178 2179 2180 2181
          2182 2183 2184 2185 2186 2187
          2188 2189 2190 2191 2192 2193
          2194 2195 2196 2197 2198 2199
          2200 2201 2202 2203 2204 2205
          2206 2343 2344 2345 2346 2347
          2348 2349 2350 2351 2352 2353
          2354 2355 2356 2357 2358 2359
          2360 2361 2362 2363 2364 2365
          2366 2367 2368 2369 2370 2371
          2372 2373 2374 2375 2376 2377
          2378 2379 2380 2381 2382 2383
          2384 2385 2386 2387 2388 2389
          2390 2391 2392 2393 2394 2395
          2396 2397 2398 2399 2400 2401
          2402 2403 2404 2405 2406 2407
          2408 2409 2410 2551 2552 2553
          2554 2555 2556 2557 2558 2559
          2560 2561 2562 2563 2564 2579
          2580 2581 2582 2583 2584 2585
          2586 2587 2588 2667 2668 2669
          2670 2671 2672 2673 2674 2675
          2676 2687 2688 2689 2690 2691
          2692 2693 2701 2702 2703 2704
          2705 2706 2707 2708 2709 2710
          2721 2722 2723 2724 2725 2726
          2727 822 823 567 1223 1226
          1229 1225 1230 1585 1588 1589
          1586 1222 2136 2137 2138 2141
          1224 2144 1213 2142 2143 2087
          2112 2113 2145 1214 2115 565
          2118 1220 2167 2101 2126 2168
          2169 1217 2128 2130 566 2235
          2213 2236 2214 2237 2238 2242
          2219 2243 2245 2246 2252 2248
          2253 2287 2288 2290 1258 2293
          1259 2303 2305 2307 1261 2321
          2322 2324 573 2327 1264 2337
          2339 2341 574 2451 2415 2452
          2455 2419 2456 2458 2459 2462
          2463 2479 2435 2480 2483 2439
          2484 2486 2487 2490 2491
        </DataArray>
        <DataArray type="Float64" Name="bounds" format="ascii" RangeMin="0" RangeMax="0">
          0 0 0 0 0 0
          0 0 0 0 0 0
          0 0 0 0 0 0
          0 0 0 0 0 0
          0 0 0 0 0 0
          0 0 0 0 0 0
          0 0 0 0 0 0
          0 0 0 0 0 0
          0 0 0 0 0 0
          0 0 0 0 0 0
          0 0 0 0 0 0
          0 0 0 0 0 0
          0 0 0 0 0 0
          0 0 0 0 0 0
          0 0 0 0 0 0
          0 0 0 0 0 0
          0 0 0 0 0 0
          0 0 0 0 0 0
          0 0 0 0 0 0
          0 0 0 0 0 0
          0 0 0 0 0 0
          0 0 0 0 0 0
          0 0 0 0 0 0
          0 0 0 0 0 0
          0 0 0 0 0 0
          0 0 0 0 0 0
          0 0 0 0 0 0
          0 0 0 0 0 0
          0 0 0 0 0 0
          0 0 0 0 0 0
          0 0 0 0 0 0
          0 0 0 0 0 0
          0 0 0 0 0 0
          0 0 0 0 0 0
          0 0 0 0 0 0
          0 0 0 0 0 0
          0 0 0 0 0 0
          0 0 0 0 0 0
          0 0 0 0 0 0
          0 0 0 0 0 0
          0 0 0 0 0 0
          0 0 0 0 0 0
          0 0 0 0 0 0
          0 0 0 0 0 0
          0 0 0 0 0 0
          0 0 0 0 0 0
          0 0 0 0 0 0
          0 0 0 0 0 0
          0 0 0 0 0 0
          0 0 0 0 0 0
          0 0 0 0 0 0
          0 0 0 0 0
        </DataArray>
        <DataArray type="Float64" Name="gradient_error" format="ascii" RangeMin="1.3105133276872587e-10" RangeMax="5.098617239033399e-8">
          2.0702067820663674e-8 3.713855462150548e-10 4.625953086151855e-9 1.799850026980118e-9 1.096042197704667e-8 2.031053890473278e-10
          1.5960619733333362e-10 1.3140685282464407e-10 1.3105133276872587e-10 6.449644169631117e-10 7.146122155328377e-10 6.25161557350132e-10
          1.0441587232110777e-8 8.399188366186715e-9 3.64562057274186e-9 4.34489263261697e-9 3.466186908848218e-8 2.9689911899513753e-8
          1.7762617868904945e-8 1.469691998209343e-8 1.5404395235658645e-8 7.071580655458973e-9 3.138236279621721e-8 3.753106522508339e-8
          2.008070995518043e-8 2.285212915579554e-8 5.166125459502067e-10 4.647352764671889e-10 3.836659026114774e-10 3.3677635629249566e-10
          3.3596851841812596e-10 2.301490718754836e-10 1.590613159298351e-9 1.2431449425841805e-9 6.049903732308084e-10 7.022459913224078e-9
          5.5565161847369595e-9 2.475504942483185e-9 9.375267987166791e-9 8.292393715236917e-9 1.5246473819091922e-10 1.6893449883567274e-10
          2.610291415036123e-10 2.5458045432940114e-10 1.410247630469205e-10 1.9581212215746106e-10 1.9472385218023563e-10 1.8540425948042625e-10
          2.481317671551899e-10 1.9363558220301014e-10 8.152031329322371e-10 7.731415008312384e-10 5.782905738713763e-10 8.058498507063017e-10
          5.6251218299562366e-9 5.366672991281468e-9 3.884710932719228e-9 3.699624309262241e-9 4.657429607166642e-9 3.1921816183882314e-9
          1.4361934483191078e-8 1.3642908141235513e-8 9.892134051542001e-9 1.1679464872803972e-8 2.5558277049702453e-9 2.4276219379981963e-9
          1.5986010813203015e-9 1.5152083899962626e-9 2.0807832691643336e-9 1.2917887911681814e-9 7.176860967605806e-9 6.77986157423575e-9
          4.359277185473901e-9 5.707182049651258e-9 3.6755614663409974e-9 2.493697297482936e-9 2.6479871772824734e-9 1.7725282611788966e-9
          8.995814927812504e-9 6.3774564490177194e-9 6.250275377684314e-9 8.379497391720328e-10 1.612356405482356e-9 5.045237741927094e-10
          9.946773892714773e-10 6.10797460965036e-10 1.1366494771270927e-9 6.979836182816578e-10 4.276836334662792e-9 2.7081261312657255e-9
          2.8704888052303483e-9 2.998524758626164e-8 2.852684027900851e-8 2.2458438386126006e-8 2.1306422014955817e-8 2.4390460300630207e-8
          1.810266688757918e-8 4.287712069696732e-8 4.211454657462177e-8 3.357533486216978e-8 3.8380166114752963e-8 1.5941656767097298e-8
          1.510418026041386e-8 1.0738141332224383e-8 1.0137107284215441e-8 1.2763395893549433e-8 8.474595841976231e-9 2.5713353316295308e-8
          2.471684246771643e-8 1.7024414101318657e-8 2.1515080391164672e-8 1.85700930086407e-8 1.3652095283531252e-8 1.2614233445429029e-8
          9.104345016502843e-9 3.05072241389694e-8 2.2989146850441913e-8 2.0838559044091513e-8 9.502227775114322e-9 6.205112699510107e-9
          6.206152597016221e-9 3.977341134784899e-9 1.640336650117192e-8 1.102860268167331e-8 1.0776652066082841e-8 3.9354685120784754e-8
          4.1879066065084604e-8 3.5425927243411966e-8 3.6680221798781625e-8 4.4365117682340203e-8 3.6389465516364005e-8 3.251309097984782e-8
          3.7206519494144886e-8 3.456282619755437e-8 4.4209772428252556e-8 2.899785707303426e-8 2.905913854973186e-8 2.0793664901727975e-8
          2.057427285406263e-8 2.7267715960730512e-8 1.893697137007272e-8 2.794944180135322e-8 2.898241682054411e-8 2.0942570092813258e-8
          2.872592022661223e-8 3.922660922150034e-8 3.0254701696140026e-8 2.7802637060064282e-8 2.0786672491966716e-8 4.191757957128222e-8
          3.273269430620886e-8 3.045902052211747e-8 2.1901693707366142e-8 1.498424262995527e-8 1.4758004080232822e-8 9.860005915521098e-9
          2.383420036508418e-8 1.6390084037402927e-8 1.6296533105160848e-8 4.533001082691369e-10 4.315045313658148e-10 9.453596900121595e-10
          8.957616873667593e-10 2.394235866804897e-10 5.314171394813365e-10 5.038829505105049e-10 3.7304611981902167e-10 7.630791857163788e-10
          4.3010395143302714e-10 2.79736015937003e-9 2.632145474778033e-9 1.4954215149633816e-9 2.1924973489576796e-9 2.948307937968852e-10
          5.872124625817299e-10 1.6750709131572337e-10 3.320773225391906e-10 2.1601342940168955e-10 4.119568920015432e-10 2.3345372344389775e-10
          1.6199990143441155e-9 9.167457159919312e-10 1.0707565075650753e-9 6.731580488205075e-9 6.330428324747135e-9 3.908750355631813e-9
          3.666195934317257e-9 5.238372445600793e-9 3.01383179724824e-9 1.163143358698787e-8 1.1079956810613042e-8 6.646585187574153e-9
          9.408926767625052e-9 3.785608092985332e-9 2.1611502020543177e-9 2.3963511481778215e-9 1.3594217024837007e-9 6.9043720251116214e-9
          4.005769782388967e-9 4.329306763679511e-9 1.413747347197048e-8 1.3877711056907324e-8 8.985899200629049e-9 8.700362459434404e-9
          1.250306477255669e-8 7.606330954317233e-9 1.4317939699390495e-8 1.4352093035894475e-8 9.217445696768768e-9 1.3433138454763239e-8
          9.599194947049575e-9 5.666270327309181e-9 6.122453752554709e-9 3.5317005147636985e-9 1.0600458132524911e-8 6.306457615727859e-9
          6.8453836135772864e-9 1.739700558562567e-10 3.592547997261547e-10 7.410865479792802e-10 5.096530888395353e-10 5.845698367445877e-10
          1.014562018666909e-9 1.2236742687980106e-9 1.1775502705013855e-9 3.054837145824208e-10 1.5910010788580082e-10 1.575257118466086e-10
          2.845367727772975e-10 3.628001610676921e-10 2.35328562025343e-10 4.23039647729674e-10 4.072645575246607e-10 3.9665173202678117e-10
          1.2879466927991306e-9 1.226986387022709e-9 2.9912603993647377e-9 1.9710630303117673e-9 1.8885366594084167e-9 2.8732055612403523e-9
          7.791574642678325e-9 7.45449889702561e-9 1.6616483626289476e-9 2.541790263868778e-9 6.517436116786229e-9 1.880000220158536e-8
          1.7895279792725478e-8 1.54213158264483e-8 1.3369019424429908e-9 2.0592604870736973e-9 5.21705780691597e-9 1.050445235867689e-9
          1.1809191058905498e-9 2.4603417736286185e-9 3.841930297716535e-9 1.2046690130846942e-8 8.585513304328172e-9 1.0215587719463742e-9
          1.5811325406783671e-9 1.7616986123947903e-9 2.6203834119253e-9 6.634125513637289e-10 1.1610957161531929e-9 3.961567622576159e-9
          5.634868220933694e-9 2.6916137857609886e-9 4.165756189574558e-10 7.384623805588714e-10 1.7530082056788273e-9 4.505903693989774e-10
          1.0875301705619094e-9 3.7719242716577717e-8 3.6070535620578014e-8 3.1195520059044784e-8 5.0141100450424564e-8 4.974776804941916e-8
          4.6642462823710944e-8 2.4051388358370964e-8 1.6629855997241794e-8 3.8313564587034405e-8 2.6829882599532956e-8 4.3853016261327856e-8
          4.674757613058858e-8 5.098617239033399e-8 3.646516301338031e-8 4.1053746375287566e-8 4.955841907048051e-8 4.7606109860738094e-8
          3.532538750989359e-8 5.000517102506259e-8 3.8493333796351475e-8 7.714964771284937e-9 1.0509019447753161e-8 5.412697373585941e-9
          1.2538718573115899e-8 1.6583494516527265e-8 9.025090581206763e-9 3.6052891115516134e-9 2.273516882531751e-9 6.136790497460302e-9
          3.9257885888515016e-9 1.6719077412177932e-8 2.1828871485148455e-8 1.221945706080073e-8 1.8369350428384825e-8 2.3898690674053555e-8
          1.3489679015780496e-8 8.438315309646814e-9 5.461788245793286e-9 9.367960578278881e-9 6.090698614059441e-9
        </DataArray>
        <DataArray type="Float64" Name="gradient_matprop_error" format="ascii" RangeMin="0" RangeMax="0">
          0 0 0 0 0 0
          0 0 0 0 0 0
          0 0 0 0 0 0
          0 0 0 0 0 0
          0 0 0 0 0 0
          0 0 0 0 0 0
          0 0 0 0 0 0
          0 0 0 0 0 0
          0 0 0 0 0 0
          0 0 0 0 0 0
          0 0 0 0 0 0
          0 0 0 0 0 0
          0 0 0 0 0 0
          0 0 0 0 0 0
          0 0 0 0 0 0
          0 0 0 0 0 0
          0 0 0 0 0 0
          0 0 0 0 0 0
          0 0 0 0 0 0
          0 0 0 0 0 0
          0 0 0 0 0 0
          0 0 0 0 0 0
          0 0 0 0 0 0
          0 0 0 0 0 0
          0 0 0 0 0 0
          0 0 0 0 0 0
          0 0 0 0 0 0
          0 0 0 0 0 0
          0 0 0 0 0 0
          0 0 0 0 0 0
          0 0 0 0 0 0
          0 0 0 0 0 0
          0 0 0 0 0 0
          0 0 0 0 0 0
          0 0 0 0 0 0
          0 0 0 0 0 0
          0 0 0 0 0 0
          0 0 0 0 0 0
          0 0 0 0 0 0
          0 0 0 0 0 0
          0 0 0 0 0 0
          0 0 0 0 0 0
          0 0 0 0 0 0
          0 0 0 0 0 0
          0 0 0 0 0 0
          0 0 0 0 0 0
          0 0 0 0 0 0
          0 0 0 0 0 0
          0 0 0 0 0 0
          0 0 0 0 0 0
          0 0 0 0 0 0
          0 0 0 0 0
        </DataArray>
        <DataArray type="Float64" Name="initial_marker" format="ascii" RangeMin="0" RangeMax="2">
          2 0 2 2 2 0
          0 0 0 1 1 0.75
          2 2 2 2 2 2
          2 2 2 2 2 2
          2 2 0 0 1 1
          0 0.25 2 2 2 2
          2 2 2 2 0 0
          0.5 0.25 0 0 0 0
          0 0 1.5 1.25 1.3333333333333333 1.3333333333333333
          2 2 2 2 2 2
          2 2 2 2 2 2
          2 2 2 2 2 2
          2 2 2 2 2 2
          2 2 2 2 2 2
          2 2 2 1.75 2 2
          2 2 2 2 2 2
          2 2 2 2 2 2
          2 2 2 2 2 2
          2 2 2 2 2 2
          2 2 2 2 2 2
          2 2 2 2 2 2
          2 2 2 2 2 2
          2 2 2 2 2 2
          2 2 2 2 2 2
          2 2 2 2 2 2
          2 2 2 2 2 2
          2 2 2 2 2 2
          2 2 2 2 2 2
          2 2 2 2 2 2
          2 1.5 1.75 1 1.5 1.25
          2 2 2 2 2 2
          2 2 2 2 2 2
          2 2 2 2 2 2
          2 2 2 2 2 2
          2 2 2 2 2 2
          2 2 2 2 2 2
          2 0 0 0 0 0
          0 1.25 1 0 0 0
          0 0 0 1 0.75 0.3333333333333333
          2 1.75 2 2 2 2
          2 2 1.75 2 2 2
          2 2 1.25 1.5 2 1.3333333333333333
          1.3333333333333333 1 2 2 2 1
          1.5 1.5 1.75 1 1.5 2
          2 2 1 1.5 2 1.25
          2 2 2 2 2 2
          2 2 2 2 2 2
          2 2 2 2 2 2
          2 2 2 2 2 2
          2 2 2 2 2 2
          2 2 2 2 2 2
          2 2 2 2 2
        </DataArray>
        <DataArray type="Float64" Name="markers_norefine" format="ascii" RangeMin="0" RangeMax="2">
          0 0 0 0 0 0
          0 0 0 0 0 0
          0 0 0 0 0 0
          0 0 0 0 1 0
          0 0 0 0 0 0
          0 0 0 0 0 0
          0 0 0 0 0 0
          0 0 0 0 0 0
          0 0 0 0 0 0
          0 0 0 0 0 0
          0 0 0 0 0 0
          0 0 0 0 0 0
          0 0 0 0 0 0
          0 0 0 0 0 0
          0 0 0 0 0 0
          0 0 0 0 0 0
          0 0.5 0.5 0 0.25 0
          0 0 0 0 0 0
          0 0 0 0 0 0
          0 0 0 0 0 0
          0 0 0 0 0 1.5
          1.25 0.5 0.25 0.5 0 2
          1.5 0.5 0.5 0 0 0
          0 0 0 0 0 0
          0 0 0 0 0 0
          0 0 0 0 0 0
          0 0 0 0 0 0
          0 0 0 0 0 0
          0 0 0 0 0 0
          0 0 0 0 0 0
          0 0 0 0 0 0
          0 0 0 0 0 0
          0 0 0 0 0 0
          0 0 0 0 0 0
          0 0 0 0 0 0
          0 0 0 0 0 0
          0 0 0 0 0 0
          0 0 0 0 0 0
          0 0 0 0 0 0
          0 0 0 0 0 0
          0 0 0 0 0 0
          0 0 0 0 0 0
          0 0 0 0 0 0
          0 0 0 0 0 0
          0 0 0 0 0 0
          0 0 0 0 1 1
          0.5 0 0 0 0 2
          2 1.25 2 2 1.5 0.25
          0 0.5 0 0 0 0
          0 0 0 0 0 0
          0 0 0 0 0 0
          0 0 0 0 0
        </DataArray>
        <DataArray type="Float64" Name="markers_mustrefine" format="ascii" RangeMin="0" RangeMax="2">
          2 0 2 2 2 0
          0 0 0 1 1 0.75
          2 2 2 2 2 2
          2 2 2 2 2 2
          2 2 0 0 1 1
          0 0.25 2 2 2 2
          2 2 2 2 0 0
          0.5 0.25 0 0 0 0
          0 0 1.5 1.25 1.3333333333333333 1.3333333333333333
          2 2 2 2 2 2
          2 2 2 2 2 2
          2 2 2 2 2 2
          2 2 2 2 2 2
          2 2 2 2 2 2
          2 2 2 1.75 2 2
          2 2 2 2 2 2
          2 2 2 2 2 2
          2 2 2 2 2 2
          2 2 2 2 2 2
          2 2 2 2 2 2
          2 2 2 2 2 2
          2 2 2 2 2 2
          2 2 2 2 2 2
          2 2 2 2 2 2
          2 2 2 2 2 2
          2 2 2 2 2 2
          2 2 2 2 2 2
          2 2 2 2 2 2
          2 2 2 2 2 2
          2 1.5 1.75 1 1.5 1.25
          2 2 2 2 2 2
          2 2 2 2 2 2
          2 2 2 2 2 2
          2 2 2 2 2 2
          2 2 2 2 2 2
          2 2 2 2 2 2
          2 0 0 0 0 0
          0 1.25 1 0 0 0
          0 0 0 1 0.75 0.3333333333333333
          2 1.75 2 2 2 2
          2 2 1.75 2 2 2
          2 2 1.25 1.5 2 1.3333333333333333
          1.3333333333333333 1 2 2 2 1
          1.5 1.5 1.75 1 1.5 2
          2 2 1 1.5 2 1.25
          2 2 2 2 2 2
          2 2 2 2 2 2
          2 2 2 2 2 2
          2 2 2 2 2 2
          2 2 2 2 2 2
          2 2 2 2 2 2
          2 2 2 2 2
        </DataArray>
        <DataArray type="Float64" Name="gradient_marker" format="ascii" RangeMin="1" RangeMax="1">
          1 1 1 1 1 1
          1 1 1 1 1 1
          1 1 1 1 1 1
          1 1 1 1 1 1
          1 1 1 1 1 1
          1 1 1 1 1 1
          1 1 1 1 1 1
          1 1 1 1 1 1
          1 1 1 1 1 1
          1 1 1 1 1 1
          1 1 1 1 1 1
          1 1 1 1 1 1
          1 1 1 1 1 1
          1 1 1 1 1 1
          1 1 1 1 1 1
          1 1 1 1 1 1
          1 1 1 1 1 1
          1 1 1 1 1 1
          1 1 1 1 1 1
          1 1 1 1 1 1
          1 1 1 1 1 1
          1 1 1 1 1 1
          1 1 1 1 1 1
          1 1 1 1 1 1
          1 1 1 1 1 1
          1 1 1 1 1 1
          1 1 1 1 1 1
          1 1 1 1 1 1
          1 1 1 1 1 1
          1 1 1 1 1 1
          1 1 1 1 1 1
          1 1 1 1 1 1
          1 1 1 1 1 1
          1 1 1 1 1 1
          1 1 1 1 1 1
          1 1 1 1 1 1
          1 1 1 1 1 1
          1 1 1 1 1 1
          1 1 1 1 1 1
          1 1 1 1 1 1
          1 1 1 1 1 1
          1 1 1 1 1 1
          1 1 1 1 1 1
          1 1 1 1 1 1
          1 1 1 1 1 1
          1 1 1 1 1 1
          1 1 1 1 1 1
          1 1 1 1 1 1
          1 1 1 1 1 1
          1 1 1 1 1 1
          1 1 1 1 1 1
          1 1 1 1 1
        </DataArray>
        <DataArray type="Float64" Name="gradient_matprop_marker" format="ascii" RangeMin="0" RangeMax="0">
          0 0 0 0 0 0
          0 0 0 0 0 0
          0 0 0 0 0 0
          0 0 0 0 0 0
          0 0 0 0 0 0
          0 0 0 0 0 0
          0 0 0 0 0 0
          0 0 0 0 0 0
          0 0 0 0 0 0
          0 0 0 0 0 0
          0 0 0 0 0 0
          0 0 0 0 0 0
          0 0 0 0 0 0
          0 0 0 0 0 0
          0 0 0 0 0 0
          0 0 0 0 0 0
          0 0 0 0 0 0
          0 0 0 0 0 0
          0 0 0 0 0 0
          0 0 0 0 0 0
          0 0 0 0 0 0
          0 0 0 0 0 0
          0 0 0 0 0 0
          0 0 0 0 0 0
          0 0 0 0 0 0
          0 0 0 0 0 0
          0 0 0 0 0 0
          0 0 0 0 0 0
          0 0 0 0 0 0
          0 0 0 0 0 0
          0 0 0 0 0 0
          0 0 0 0 0 0
          0 0 0 0 0 0
          0 0 0 0 0 0
          0 0 0 0 0 0
          0 0 0 0 0 0
          0 0 0 0 0 0
          0 0 0 0 0 0
          0 0 0 0 0 0
          0 0 0 0 0 0
          0 0 0 0 0 0
          0 0 0 0 0 0
          0 0 0 0 0 0
          0 0 0 0 0 0
          0 0 0 0 0 0
          0 0 0 0 0 0
          0 0 0 0 0 0
          0 0 0 0 0 0
          0 0 0 0 0 0
          0 0 0 0 0 0
          0 0 0 0 0 0
          0 0 0 0 0
        </DataArray>
        <DataArray type="Float64" Name="combo" format="ascii" RangeMin="1" RangeMax="2">
          1 1 1 1 1 1
          1 1 1 1 1 1
          1 1 1 1 1 1
          1 1 1 1 1.5 1
          1 1 1 1 1 1
          1 1 1 1 1 1
          1 1 1 1 1 1
          1 1 1 1 1 1
          1 1 1 1 1 1
          1 1 1 1 1 1
          1 1 1 1 1 1
          1 1 1 1 1 1
          1 1 1 1 1 1
          1 1 1 1 1 1
          1 1 1 1 1 1
          1 1 1 1 1 1
          1 1.25 1.25 1 1.125 1
          1 1 1 1 1 1
          1 1 1 1 1 1
          1 1 1 1 1 1
          1 1 1 1 1 1.75
          1.625 1.25 1.125 1.25 1 2
          1.75 1.25 1.25 1 1 1
          1 1 1 1 1 1
          1 1 1 1 1 1
          1 1 1 1 1 1
          1 1 1 1 1 1
          1 1 1 1 1 1
          1 1 1 1 1 1
          1 1 1 1 1 1
          1 1 1 1 1 1
          1 1 1 1 1 1
          1 1 1 1 1 1
          1 1 1 1 1 1
          1 1 1 1 1 1
          1 1 1 1 1 1
          1 1 1 1 1 1
          1 1 1 1 1 1
          1 1 1 1 1 1
          1 1 1 1 1 1
          1 1 1 1 1 1
          1 1 1 1 1 1
          1 1 1 1 1 1
          1 1 1 1 1 1
          1 1 1 1 1 1
          1 1 1 1 1.5 1.5
          1.25 1 1 1 1 2
          2 1.625 2 2 1.75 1.125
          1 1.25 1 1 1 1
          1 1 1 1 1 1
          1 1 1 1 1 1
          1 1 1 1 1
        </DataArray>
        <DataArray type="Float64" Name="dHdT" format="ascii" RangeMin="25.812551338248436" RangeMax="56.49990524484707">
          35.6810576182699 25.82625861404096 26.698370680428216 26.14125093695511 28.19605933718226 25.81550030664636
          25.814523620028297 25.812551338248436 25.81260806686435 25.90515445092824 25.891356637967114 25.862860793771688
          28.04600811010129 27.515201814345204 26.494315767148514 26.640403083989746 36.84034365161536 34.109927488837
          31.184318202906546 29.563661705923337 29.33391680071758 27.18591106244911 47.271896466433375 39.77969565813049
          32.980336477796 31.863510067008576 25.82762267649474 25.826277812563443 25.84442849493011 25.83984345710404
          25.822705553704846 25.830031834557712 26.107069694222957 26.038602832717167 25.920351682376698 27.469864982410172
          26.988044051337223 26.26920265249795 29.004559589675523 27.994408770088526 25.841913386089303 25.842290779440326
          25.86717003632909 25.866691282320744 25.835945666093345 25.854303876520397 25.854193592794264 25.84266817279135
          25.86621252831239 25.85408330906813 25.972263880727464 25.966126656901906 25.924377548476798 25.971020262750283
          26.95509226385569 26.897045137779948 26.572435060279187 26.532815029980238 26.74284360937138 26.42787259006663
          29.23445795615995 28.99687012707644 27.895364241295763 28.39182895556049 26.29950564028651 26.273774493927426
          26.111473417288508 26.09567850473545 26.20581101899498 26.053880600175443 27.24169347206601 27.148710522618032
          26.641407382093774 26.910501588211805 26.540303048007736 26.290605366570034 26.338284021149644 26.1546442148956
          27.675558758119177 27.055693096591984 27.053281395706453 25.972350158173295 26.116887838342684 25.910522344290598
          25.99899429489226 25.93231323696616 26.028729184360262 25.944502971953767 26.616348996448096 26.31087864674256
          26.345857593544594 33.68029547168295 33.145926855982566 31.643504126549146 31.276011732428714 31.910646066478474
          30.240372129047156 41.48631150493901 40.12144491611941 36.02305936215911 37.09238108846055 29.807114788617426
          29.4904084890264 28.20986955458422 28.016794363249343 28.681065778706714 27.543164297436835 33.730817045187834
          33.21747999663311 30.728640812161526 31.763903179061685 30.27656968367068 28.854360934873657 28.57483978415741
          27.64151416268683 33.915722850834236 31.73346552880531 30.93682307631576 27.745904020839305 27.00052010976026
          26.990345494753118 26.543977735949582 29.788451072503754 28.224852586046143 28.056752400602853 51.53839949475117
          49.006937704720194 43.40459906362403 41.62016491615739 43.21514415260599 37.912053765902286 56.49990524484707
          53.48349230376392 44.842604794448555 46.45994991156676 37.05057038175121 36.4017635283073 34.380137188911625
          33.719762888608905 34.64514072308336 31.917888458167763 38.31725951191655 37.55835045541729 34.97402956170919
          35.703573554814405 37.381702192359356 34.41741998565403 33.04893561682428 31.112079987056624 39.000915096191044
          35.478684324851855 33.82846487291231 31.990021475500694 29.66272001017671 29.25639784366583 27.879804808112507
          32.92367637328837 30.342484019790458 29.813411820297368 25.89737668635656 25.893772212823414 25.98819382268571
          25.978860575309312 25.85911418348485 25.911114270830247 25.905889058134566 25.8840033039024 25.954186863391048
          25.89204889311229 26.33743736218537 26.303654056322273 26.088012228109363 26.216089661002858 25.870508230156787
          25.9218418139469 25.84556295490868 25.87390798642496 25.85617095386149 25.889890943773175 25.85606292405342
          26.10660752728401 25.97695045488114 26.00557710047329 27.19923059299729 27.09325932438418 26.588477159378538
          26.53030742009485 26.82853825668039 26.383457247108975 28.88164384216814 28.604914368723158 27.33102189182506
          27.940641658222432 26.515865429565 26.207975927179547 26.245772350293056 26.0554222096191 27.20863845638278
          26.59428173956844 26.624539316926228 31.02780562253545 30.50822490253139 28.510240197944846 28.26688563253593
          29.280336578818137 27.675049679699704 32.09492098137332 31.4497805415355 28.708981798177014 29.928657455426155
          27.987614223899417 27.015908900164675 27.02312147485 26.49260345179207 28.349642737332267 27.207558283730524
          27.201165749171928 25.81342754883516 25.8144165301037 25.82865635897344 25.84454581116428 25.833834186272558
          25.851888240421577 26.024089577700114 25.941709678511344 25.82272875647076 25.817824504884086 25.818164063833954
          25.82268596266959 25.84420390836455 25.859185613108327 25.90070718398719 25.898740796414913 25.899115897213488
          26.0692502820946 26.058413667747935 26.427278056263695 26.21279161587026 26.19595172301912 26.402848426035312
          27.495696611205567 27.411323308847738 26.150767053621667 26.336450223174896 27.187524725044202 30.664431230125224
          30.379168313111926 29.58502220015616 26.090813640623693 26.24627487845447 26.894645553403855 26.02265200386366
          26.062162863173768 26.137871094070242 26.602888976480777 28.551157950641702 27.632497870088933 26.02887740863149
          26.15075251377287 26.168028938789966 26.355713606767843 25.94873628001838 26.040902673726954 26.588434220776044
          26.965967497164073 26.324269179913927 25.89721895533247 25.955404797123837 26.138350527028884 25.89961019712852
          26.011514178624168 36.57625462770535 35.864182683386346 33.97158463333963 45.80206437163402 44.50597451078595
          40.93661040265875 31.817975317822263 29.799467956048268 36.534906313972286 32.77962916733868 52.15697806924173
          51.60328274727466 48.1749808723938 52.809234265242 53.309390539694256 51.049970182864534 41.320730472107286
          35.35664463448374 43.46189956713684 36.41076167258012 27.360277617220113 28.09802926625523 26.845684700862396
          28.546781402891607 29.814920983621462 27.620284802109936 26.479655320676446 26.22506352131025 26.979216811071666
          26.537884110480054 29.800708759742584 31.444690926441545 28.43150254149787 30.358721975538536 32.084338123585304
          28.798335588108348 27.48474839065348 26.849761581268154 27.70726338537395 26.9853060983813
        </DataArray>
        <DataArray type="Float64" Name="dk/dtemperature" format="ascii" RangeMin="0.007639076100828335" RangeMax="0.033305120392625814">
          0.007946112685909602 0.015804580349343192 0.01473527189790952 0.015557570881087219 0.013066521914340937 0.01580458034934319
          0.015804580349343192 0.015804580349343192 0.015804580349343192 0.015804580349343192 0.015804580349343192 0.015804580349343192
          0.013337498092966093 0.013795349358419437 0.015023104507750736 0.014798361744807371 0.008066752165906655 0.008844204027896235
          0.010794945209506595 0.012017031610375307 0.012206488692252139 0.01416130328923515 0.01619830547333056 0.008043826057293601
          0.009548010334394622 0.010235133636446807 0.01580458034934319 0.015804580349343192 0.015804580349343185 0.015804580349343192
          0.015804580349343192 0.015804580349343192 0.015600531784275102 0.01568972440612052 0.01579413889995931 0.013832146032452985
          0.01439686575185948 0.015357799536248672 0.012268567043317346 0.013235470416383547 0.015804580349343192 0.015804580349343192
          0.015804580349343192 0.015804580349343192 0.01580458034934319 0.015804580349343192 0.015804580349343192 0.01580458034934319
          0.015804580349343192 0.01580458034934319 0.015762814551807676 0.015762814551807676 0.015804580349343192 0.015776736484319515
          0.014419009202113479 0.014496879770410117 0.014947120099866772 0.014991843059896596 0.014687090270029696 0.01512991090991852
          0.012396008759505575 0.012556152605726302 0.01345468134719601 0.012996516428767322 0.015325280082444666 0.015360881650825841
          0.015558765986739592 0.015598141572970362 0.015446300254821669 0.01565840005796889 0.01410702033249847 0.014209107515330008
          0.014825722525704807 0.014468320489811809 0.014952971524557896 0.015329557302674206 0.01523986147844884 0.015515805083551704
          0.013640552574800681 0.014303019356511681 0.014298113133307208 0.015804580349343192 0.015577258674202605 0.015804580349343192
          0.01572104875427216 0.015804580349343192 0.015700165855504405 0.015783697450575434 0.014848806934884827 0.015282947333719585
          0.015243571747488811 0.009268296623835805 0.009547128851005567 0.010341248766619683 0.010667163259590764 0.010266044685298611
          0.011511313529726673 0.008774191786358132 0.00856256379651241 0.00818811240616813 0.008263417405314761 0.011919222185088342
          0.01213824048364479 0.013117348748763967 0.013295040392158144 0.01274107608630795 0.013758299386171666 0.008952916794397227
          0.009329843683366215 0.011146682513379634 0.01038709908677915 0.01145979934578891 0.012598985700097876 0.01282416737929653
          0.013653446287274672 0.008988873241921084 0.010376407704616633 0.010915699241897548 0.01355500562467349 0.014373718442381968
          0.014387179954557645 0.01498001865247999 0.011832230847537224 0.013108161062769349 0.013271136582086467 0.02167141375829827
          0.015203306209165868 0.011950261113581108 0.0098730867893856 0.008313128628047312 0.007807676206766207 0.033305120392625814
          0.021127410898850018 0.012287261843190813 0.008764746782059098 0.007639076100828335 0.007731691826753218 0.008729448889538954