<?xml version="1.0"?>
<VTKFile type="UnstructuredGrid" version="0.1" byte_order="LittleEndian" header_type="UInt32" compressor="vtkZLibDataCompressor">
  <UnstructuredGrid>
    <Piece NumberOfPoints="344" NumberOfCells="176">
      <PointData>
        <DataArray type="Int32" Name="libmesh_node_id" format="ascii" RangeMin="0" RangeMax="3366">
          0 1 2 3 4 5
          6 7 8 9 10 11
          12 13 14 15 40 41
          42 43 44 45 46 47
          60 61 62 63 64 65
          66 67 80 81 82 83
          90 91 92 93 94 95
          96 97 110 111 112 113
          120 121 122 123 124 125
          140 141 142 150 151 152
          153 154 155 170 171 172
          180 181 182 183 184 185
          200 201 202 2993 2994 2997
          3003 3007 3008 3009 3010 3011
          3012 3013 3014 3015 3016 3017
          3018 3019 3020 3021 3022 3023
          3024 3025 3026 3027 3028 3029
          3030 3031 3032 3033 3034 3035
          3036 3037 3038 3039 3040 3043
          3046 3115 3116 3117 3118 3119
          3120 3121 3122 3123 3124 3125
          3126 3127 3128 3129 3130 3131
          3132 3133 3134 3135 3136 3137
          3138 3139 3140 3141 3142 3143
          3144 3145 3146 3147 3148 3149
          3150 3151 3152 3153 3154 3155
          3156 3157 3158 3159 3160 3161
          3162 3163 3164 3165 3166 3167
          3168 3169 3170 3171 3172 3173
          3174 3175 3176 3177 3178 3179
          3180 3181 3182 3183 3184 3185
          3186 3187 3188 3189 3190 3191
          3192 3193 3194 3195 3196 3197
          3198 3199 3200 3201 3202 3203
          3204 3205 3206 3207 3208 3209
          3210 3211 3212 3213 3214 3215
          3216 3217 3218 3219 3220 3221
          3222 3223 3224 3225 3226 3227
          3228 3229 3230 3231 3232 3233
          3234 3235 3236 3237 3238 3239
          3240 3241 3242 3243 3244 3245
          3246 3247 3248 3249 3250 3251
          3252 3253 3254 3255 3256 3257
          3258 3259 3260 3261 3262 3263
          3264 3265 3266 3267 3268 3269
          3270 3271 3272 3273 3274 3275
          3276 3277 3278 3279 3280 3281
          3282 3283 3284 3285 3286 3287
          3288 3289 3290 3291 3292 3293
          3294 3295 3296 3297 3298 3299
          3300 3301 3302 3303 3304 3305
          3306 3307 3308 3309 3310 3311
          3312 3313 3316 3317 3322 3324
          3325 3327 3341 3342 3345 3347
          3348 3350 3357 3358 3361 3362
          3364 3366 16 17 18 19
          48 49 68 69 84 98
          99 114
        </DataArray>
        <DataArray type="Float64" Name="bounds" format="ascii" RangeMin="0" RangeMax="0">
          0 0 0 0 0 0
          0 0 0 0 0 0
          0 0 0 0 0 0
          0 0 0 0 0 0
          0 0 0 0 0 0
          0 0 0 0 0 0
          0 0 0 0 0 0
          0 0 0 0 0 0
          0 0 0 0 0 0
          0 0 0 0 0 0
          0 0 0 0 0 0
          0 0 0 0 0 0
          0 0 0 0 0 0
          0 0 0 0 0 0
          0 0 0 0 0 0
          0 0 0 0 0 0
          0 0 0 0 0 0
          0 0 0 0 0 0
          0 0 0 0 0 0
          0 0 0 0 0 0
          0 0 0 0 0 0
          0 0 0 0 0 0
          0 0 0 0 0 0
          0 0 0 0 0 0
          0 0 0 0 0 0
          0 0 0 0 0 0
          0 0 0 0 0 0
          0 0 0 0 0 0
          0 0 0 0 0 0
          0 0 0 0 0 0
          0 0 0 0 0 0
          0 0 0 0 0 0
          0 0 0 0 0 0
          0 0 0 0 0 0
          0 0 0 0 0 0
          0 0 0 0 0 0
          0 0 0 0 0 0
          0 0 0 0 0 0
          0 0 0 0 0 0
          0 0 0 0 0 0
          0 0 0 0 0 0
          0 0 0 0 0 0
          0 0 0 0 0 0
          0 0 0 0 0 0
          0 0 0 0 0 0
          0 0 0 0 0 0
          0 0 0 0 0 0
          0 0 0 0 0 0
          0 0 0 0 0 0
          0 0 0 0 0 0
          0 0 0 0 0 0
          0 0 0 0 0 0
          0 0 0 0 0 0
          0 0 0 0 0 0
          0 0 0 0 0 0
          0 0 0 0 0 0
          0 0 0 0 0 0
          0 0
        </DataArray>
        <DataArray type="Float64" Name="gradient_error" format="ascii" RangeMin="2.457110744085008e-10" RangeMax="7.651387561059459e-7">
          3.076313276008979e-10 4.055419808788003e-10 3.3457482194060313e-10 2.844006339710928e-10 1.2197609931257658e-9 1.4986836600854087e-9
          8.778054243699681e-10 7.327360337671333e-10 6.762665088872878e-10 4.739065865359253e-10 2.2121914863200246e-9 1.2531514182122188e-9
          8.604696514658477e-10 5.682629745233774e-10 2.6323343171453364e-9 1.4767019036737794e-9 2.636076630024059e-10 2.611699403412877e-10
          2.5692718865452767e-10 2.457110744085008e-10 2.715466641845627e-10 2.9411135010441294e-10 2.7605629758090703e-10 3.2106949020222277e-10
          6.869711968003728e-9 7.86433149495038e-9 4.199594673350946e-9 3.6671256410165143e-9 1.0330446151849051e-8 5.5297302550846624e-9
          1.14443952470311e-8 6.155820495217227e-9 5.34857851751511e-10 4.6453931402930074e-10 7.290143583202747e-10 8.67245743403354e-10
          3.843008703031014e-8 4.148277253391782e-8 2.1272784680342887e-8 1.9591612593545275e-8 4.886935475300707e-8 2.5446568180994504e-8
          5.034792514854912e-8 2.6600752488243156e-8 1.062796826767952e-9 7.531381567804086e-10 2.0237816089819406e-9 2.8535798279371963e-9
          5.9327122830185493e-8 6.212646991899544e-8 2.4190188336250157e-8 2.35764547178184e-8 6.850167653243258e-8 2.7952633103969328e-8
          4.251727531934429e-9 5.119106709596244e-9 5.87768374127259e-9 7.868305385724092e-8 6.807721892215243e-8 1.9793337226506253e-7
          2.2352015325224758e-7 5.6721270648851036e-8 1.4996461220310776e-7 5.982069113568878e-9 7.464306973378195e-9 5.807255516020592e-9
          3.259204208903577e-7 4.144834806177216e-7 3.0285937335809663e-7 3.4516794247331943e-7 5.917442764315422e-7 2.2314538824168516e-7
          2.6020902395129965e-8 2.485642079145938e-8 2.2874127376488974e-8 3.7703325333029854e-8 4.6344139270574546e-8 4.3294496123153386e-8
          4.0244852975732225e-8 1.668490958621639e-7 1.6161542913364192e-7 7.49989343098827e-8 2.284859465022139e-7 2.351416020157359e-7
          4.024604317274054e-7 4.1900923736968327e-7 4.502244558443649e-7 4.486096357483695e-7 2.122431096592584e-7 4.4978151505838745e-7
          4.50127080072436e-7 2.85350656553481e-7 3.4715003960119806e-7 3.616225249939062e-7 3.122584463623752e-7 3.554090671545262e-7
          5.055265004583387e-7 4.773775328455518e-7 5.604088624653991e-7 3.3253835680706274e-7 6.106504685486539e-8 1.909642323742128e-7
          4.831975367578962e-7 4.4578021239724187e-7 5.177372858831164e-7 4.367679261728949e-7 2.30922273570659e-7 2.687730696469625e-7
          2.2191907496473113e-7 4.914238407001159e-7 6.258973216494211e-7 7.024766785380361e-7 2.6517713557373626e-7 1.7411695503205603e-7
          1.780407625414219e-7 5.365817978425149e-8 3.615997963342207e-8 3.610828477296259e-8 5.647169954904154e-8 5.548281300703581e-8
          4.5780824269832075e-8 4.5837756364183826e-8 3.642641164233443e-8 5.305674645779894e-8 4.550587610591532e-8 1.8661779482592645e-8
          3.607883553262834e-8 3.5203813179326105e-8 3.795500575403169e-8 5.552951187644833e-8 3.704301767042225e-8 4.974324717457413e-8
          4.465941122726525e-8 1.8556523464396172e-8 3.957557527995637e-8 5.236793155122256e-8 5.6798551421257996e-8 1.2912375588477416e-7
          1.369125725378145e-7 4.172480426661724e-8 1.1015237076926119e-7 5.314744234344559e-9 1.5299445657545076e-8 1.5177135606500605e-8
          1.5393855111369198e-8 2.058795802183258e-7 2.17026593654371e-7 1.7857993727190516e-7 2.5284147080745593e-8 2.9486800910812626e-8
          8.721386403539651e-8 1.840568216704555e-8 6.400635454644299e-8 3.822840091008012e-9 1.4727581088974523e-8 1.2819740731666287e-8
          1.4494092715998044e-7 1.0960702692584043e-7 2.5632322086941034e-8 9.723838848109119e-9 4.233263591037749e-8 2.2208842297600286e-9
          9.97968193680156e-9 7.494143297264586e-8 1.773847964384309e-8 9.633974534148557e-8 9.977187682972002e-8 1.0114916513633638e-7
          1.9852832425907633e-7 1.9793876254184112e-7 1.8105573468955482e-7 1.8178457478230917e-7 9.634795568831907e-8 1.9631761694490126e-7
          1.7910911537083895e-7 1.0320400831795447e-7 1.641727068372685e-7 1.6504082530554197e-7 1.6190061379677664e-7 4.0719306116883666e-7
          3.852113066476441e-7 3.8132446196700115e-7 3.9491947313201616e-7 3.591909249712674e-7 8.845830341957991e-8 9.217522212744691e-8
          1.939346988160879e-7 1.763967022845988e-7 8.794749876828799e-8 1.907984626613248e-7 1.7300484388927071e-7 9.58921408353139e-8
          1.5885870575310975e-7 1.5521122511721657e-7 4.3386862979774506e-7 4.072916926311276e-7 4.205983862975848e-7 3.7465824425214575e-7
          4.1580447466026105e-7 4.2460537119913367e-7 4.6333052988885506e-7 4.5475630897569887e-7 4.4674136519701776e-7 4.849668065261482e-7
          4.5578843050405036e-7 4.4965700986992424e-7 4.712550316193995e-7 3.3436239980279073e-7 4.185780390318115e-7 4.092836784456774e-7
          4.419649418416227e-7 4.853611762294909e-7 4.755738826673466e-7 5.132324748367857e-7 5.084573813806589e-7 5.45302496184418e-7
          4.912911407995264e-7 5.134903694655695e-7 3.8282159995179913e-7 4.7249974685306695e-7 5.074704087839197e-7 5.315075505562868e-7
          2.770214343273417e-7 2.76669884435859e-7 3.25604576617177e-7 3.241467542477952e-7 2.7783625667509503e-7 3.292015994990919e-7
          2.0292919799378414e-7 2.416879808048296e-7 2.4268763204687856e-7 2.390853836146633e-7 3.741877189070122e-7 3.716236240597313e-7
          3.805669423230888e-7 2.80446763615875e-7 2.789988532092742e-7 3.338861723804995e-7 2.800729715947509e-7 3.3877152643442376e-7
          1.9545248459113162e-7 2.3608113016817125e-7 2.3270992492588564e-7 3.8877349155172483e-7 3.974700812740967e-7 2.7670977574521093e-7
          8.091346932089315e-8 8.388158015453201e-8 1.867174104785399e-7 1.6874699504826844e-7 8.022849963991122e-8 1.8154351661593691e-7
          1.6349090172506222e-7 8.684969098817087e-8 1.50776579617997e-7 1.4543828683418755e-7 4.662888421436223e-7 4.3418867338743335e-7
          4.478388254133183e-7 3.932599773535523e-7 7.664644274436866e-8 7.72624068847355e-8 1.751034834531499e-7 1.5707188346373872e-7
          7.542696242083316e-8 1.6724661324904432e-7 1.4934135230910572e-7 7.787837102510232e-8 1.3904028347432757e-7 1.314360913691671e-7
          5.00387373526378e-7 4.6136285200316215e-7 4.7454392356947476e-7 4.100956974400804e-7 5.452673830454442e-7 5.807814751114139e-7
          5.864524961105327e-7 6.199591288365349e-7 5.371988570179951e-7 5.623253438440957e-7 4.504784334398306e-7 5.467980133899658e-7
          5.909939106566466e-7 5.918594821295734e-7 6.326910018215827e-7 6.633205393002743e-7 6.848286519275179e-7 7.114698046544861e-7
          5.888725707310344e-7 6.168430786949624e-7 5.381677807523406e-7 6.407967346369661e-7 6.971075043674007e-7 6.627026932637245e-7
          2.8044799198768734e-7 3.4315957030100124e-7 2.799048711520066e-7 3.4678628597603264e-7 1.8529306117720705e-7 2.2821699374339562e-7
          2.2238764582641116e-7 4.058711486143151e-7 4.136677008000588e-7 2.7114092630958424e-7 2.782023509686023e-7 3.493800394462079e-7
          2.751276657224145e-7 3.506722015564551e-7 1.7079427057685592e-7 2.1496501420931258e-7 2.0576920310443947e-7 4.205577279238135e-7
          4.2621673739049567e-7 2.5913575784176926e-7 1.578250965501788e-7 1.4015567806718228e-7 1.2248625958418577e-7 5.351383108987217e-7
          4.871558873547058e-7 4.2275240819430205e-7 7.438882465180331e-7 7.651387561059459e-7 6.462299612535148e-7 6.534078379266141e-7
          7.609918468961027e-7 7.454034362652033e-7 2.7045519297024186e-7 3.5035985412672653e-7 1.5100008897895755e-7 1.9464905144028234e-7
          4.3026451528321125e-7 2.382980139016071e-7 6.60664688457679e-10 4.6122273149945997e-10 1.947889228323131e-9 1.1174500149171716e-9
          2.617807745412409e-10 2.870108015112122e-10 8.120914911045352e-9 4.4078018536873364e-9 6.946887963293204e-10 3.4823994904761796e-8
          1.8548864935686396e-8 2.2737349666110036e-9
        </DataArray>
        <DataArray type="Float64" Name="gradient_matprop_error" format="ascii" RangeMin="0" RangeMax="0">
          0 0 0 0 0 0
          0 0 0 0 0 0
          0 0 0 0 0 0
          0 0 0 0 0 0
          0 0 0 0 0 0
          0 0 0 0 0 0
          0 0 0 0 0 0
          0 0 0 0 0 0
          0 0 0 0 0 0
          0 0 0 0 0 0
          0 0 0 0 0 0
          0 0 0 0 0 0
          0 0 0 0 0 0
          0 0 0 0 0 0
          0 0 0 0 0 0
          0 0 0 0 0 0
          0 0 0 0 0 0
          0 0 0 0 0 0
          0 0 0 0 0 0
          0 0 0 0 0 0
          0 0 0 0 0 0
          0 0 0 0 0 0
          0 0 0 0 0 0
          0 0 0 0 0 0
          0 0 0 0 0 0
          0 0 0 0 0 0
          0 0 0 0 0 0
          0 0 0 0 0 0
          0 0 0 0 0 0
          0 0 0 0 0 0
          0 0 0 0 0 0
          0 0 0 0 0 0
          0 0 0 0 0 0
          0 0 0 0 0 0
          0 0 0 0 0 0
          0 0 0 0 0 0
          0 0 0 0 0 0
          0 0 0 0 0 0
          0 0 0 0 0 0
          0 0 0 0 0 0
          0 0 0 0 0 0
          0 0 0 0 0 0
          0 0 0 0 0 0
          0 0 0 0 0 0
          0 0 0 0 0 0
          0 0 0 0 0 0
          0 0 0 0 0 0
          0 0 0 0 0 0
          0 0 0 0 0 0
          0 0 0 0 0 0
          0 0 0 0 0 0
          0 0 0 0 0 0
          0 0 0 0 0 0
          0 0 0 0 0 0
          0 0 0 0 0 0
          0 0 0 0 0 0
          0 0 0 0 0 0
          0 0
        </DataArray>
        <DataArray type="Float64" Name="initial_marker" format="ascii" RangeMin="0" RangeMax="0">
          0 0 0 0 0 0
          0 0 0 0 0 0
          0 0 0 0 0 0
          0 0 0 0 0 0
          0 0 0 0 0 0
          0 0 0 0 0 0
          0 0 0 0 0 0
          0 0 0 0 0 0
          0 0 0 0 0 0
          0 0 0 0 0 0
          0 0 0 0 0 0
          0 0 0 0 0 0
          0 0 0 0 0 0
          0 0 0 0 0 0
          0 0 0 0 0 0
          0 0 0 0 0 0
          0 0 0 0 0 0
          0 0 0 0 0 0
          0 0 0 0 0 0
          0 0 0 0 0 0
          0 0 0 0 0 0
          0 0 0 0 0 0
          0 0 0 0 0 0
          0 0 0 0 0 0
          0 0 0 0 0 0
          0 0 0 0 0 0
          0 0 0 0 0 0
          0 0 0 0 0 0
          0 0 0 0 0 0
          0 0 0 0 0 0
          0 0 0 0 0 0
          0 0 0 0 0 0
          0 0 0 0 0 0
          0 0 0 0 0 0
          0 0 0 0 0 0
          0 0 0 0 0 0
          0 0 0 0 0 0
          0 0 0 0 0 0
          0 0 0 0 0 0
          0 0 0 0 0 0
          0 0 0 0 0 0
          0 0 0 0 0 0
          0 0 0 0 0 0
          0 0 0 0 0 0
          0 0 0 0 0 0
          0 0 0 0 0 0
          0 0 0 0 0 0
          0 0 0 0 0 0
          0 0 0 0 0 0
          0 0 0 0 0 0
          0 0 0 0 0 0
          0 0 0 0 0 0
          0 0 0 0 0 0
          0 0 0 0 0 0
          0 0 0 0 0 0
          0 0 0 0 0 0
          0 0 0 0 0 0
          0 0
        </DataArray>
        <DataArray type="Float64" Name="markers_norefine" format="ascii" RangeMin="0" RangeMax="0">
          0 0 0 0 0 0
          0 0 0 0 0 0
          0 0 0 0 0 0
          0 0 0 0 0 0
          0 0 0 0 0 0
          0 0 0 0 0 0
          0 0 0 0 0 0
          0 0 0 0 0 0
          0 0 0 0 0 0
          0 0 0 0 0 0
          0 0 0 0 0 0
          0 0 0 0 0 0
          0 0 0 0 0 0
          0 0 0 0 0 0
          0 0 0 0 0 0
          0 0 0 0 0 0
          0 0 0 0 0 0
          0 0 0 0 0 0
          0 0 0 0 0 0
          0 0 0 0 0 0
          0 0 0 0 0 0
          0 0 0 0 0 0
          0 0 0 0 0 0
          0 0 0 0 0 0
          0 0 0 0 0 0
          0 0 0 0 0 0
          0 0 0 0 0 0
          0 0 0 0 0 0
          0 0 0 0 0 0
          0 0 0 0 0 0
          0 0 0 0 0 0
          0 0 0 0 0 0
          0 0 0 0 0 0
          0 0 0 0 0 0
          0 0 0 0 0 0
          0 0 0 0 0 0
          0 0 0 0 0 0
          0 0 0 0 0 0
          0 0 0 0 0 0
          0 0 0 0 0 0
          0 0 0 0 0 0
          0 0 0 0 0 0
          0 0 0 0 0 0
          0 0 0 0 0 0
          0 0 0 0 0 0
          0 0 0 0 0 0
          0 0 0 0 0 0
          0 0 0 0 0 0
          0 0 0 0 0 0
          0 0 0 0 0 0
          0 0 0 0 0 0
          0 0 0 0 0 0
          0 0 0 0 0 0
          0 0 0 0 0 0
          0 0 0 0 0 0
          0 0 0 0 0 0
          0 0 0 0 0 0
          0 0
        </DataArray>
        <DataArray type="Float64" Name="markers_mustrefine" format="ascii" RangeMin="0" RangeMax="0">
          0 0 0 0 0 0
          0 0 0 0 0 0
          0 0 0 0 0 0
          0 0 0 0 0 0
          0 0 0 0 0 0
          0 0 0 0 0 0
          0 0 0 0 0 0
          0 0 0 0 0 0
          0 0 0 0 0 0
          0 0 0 0 0 0
          0 0 0 0 0 0
          0 0 0 0 0 0
          0 0 0 0 0 0
          0 0 0 0 0 0
          0 0 0 0 0 0
          0 0 0 0 0 0
          0 0 0 0 0 0
          0 0 0 0 0 0
          0 0 0 0 0 0
          0 0 0 0 0 0
          0 0 0 0 0 0
          0 0 0 0 0 0
          0 0 0 0 0 0
          0 0 0 0 0 0
          0 0 0 0 0 0
          0 0 0 0 0 0
          0 0 0 0 0 0
          0 0 0 0 0 0
          0 0 0 0 0 0
          0 0 0 0 0 0
          0 0 0 0 0 0
          0 0 0 0 0 0
          0 0 0 0 0 0
          0 0 0 0 0 0
          0 0 0 0 0 0
          0 0 0 0 0 0
          0 0 0 0 0 0
          0 0 0 0 0 0
          0 0 0 0 0 0
          0 0 0 0 0 0
          0 0 0 0 0 0
          0 0 0 0 0 0
          0 0 0 0 0 0
          0 0 0 0 0 0
          0 0 0 0 0 0
          0 0 0 0 0 0
          0 0 0 0 0 0
          0 0 0 0 0 0
          0 0 0 0 0 0
          0 0 0 0 0 0
          0 0 0 0 0 0
          0 0 0 0 0 0
          0 0 0 0 0 0
          0 0 0 0 0 0
          0 0 0 0 0 0
          0 0 0 0 0 0
          0 0 0 0 0 0
          0 0
        </DataArray>
        <DataArray type="Float64" Name="gradient_marker" format="ascii" RangeMin="1" RangeMax="1">
          1 1 1 1 1 1
          1 1 1 1 1 1
          1 1 1 1 1 1
          1 1 1 1 1 1
          1 1 1 1 1 1
          1 1 1 1 1 1
          1 1 1 1 1 1
          1 1 1 1 1 1
          1 1 1 1 1 1
          1 1 1 1 1 1
          1 1 1 1 1 1
          1 1 1 1 1 1
          1 1 1 1 1 1
          1 1 1 1 1 1
          1 1 1 1 1 1
          1 1 1 1 1 1
          1 1 1 1 1 1
          1 1 1 1 1 1
          1 1 1 1 1 1
          1 1 1 1 1 1
          1 1 1 1 1 1
          1 1 1 1 1 1
          1 1 1 1 1 1
          1 1 1 1 1 1
          1 1 1 1 1 1
          1 1 1 1 1 1
          1 1 1 1 1 1
          1 1 1 1 1 1
          1 1 1 1 1 1
          1 1 1 1 1 1
          1 1 1 1 1 1
          1 1 1 1 1 1
          1 1 1 1 1 1
          1 1 1 1 1 1
          1 1 1 1 1 1
          1 1 1 1 1 1
          1 1 1 1 1 1
          1 1 1 1 1 1
          1 1 1 1 1 1
          1 1 1 1 1 1
          1 1 1 1 1 1
          1 1 1 1 1 1
          1 1 1 1 1 1
          1 1 1 1 1 1
          1 1 1 1 1 1
          1 1 1 1 1 1
          1 1 1 1 1 1
          1 1 1 1 1 1
          1 1 1 1 1 1
          1 1 1 1 1 1
          1 1 1 1 1 1
          1 1 1 1 1 1
          1 1 1 1 1 1
          1 1 1 1 1 1
          1 1 1 1 1 1
          1 1 1 1 1 1
          1 1 1 1 1 1
          1 1
        </DataArray>
        <DataArray type="Float64" Name="gradient_matprop_marker" format="ascii" RangeMin="0" RangeMax="0">
          0 0 0 0 0 0
          0 0 0 0 0 0
          0 0 0 0 0 0
          0 0 0 0 0 0
          0 0 0 0 0 0
          0 0 0 0 0 0
          0 0 0 0 0 0
          0 0 0 0 0 0
          0 0 0 0 0 0
          0 0 0 0 0 0
          0 0 0 0 0 0
          0 0 0 0 0 0
          0 0 0 0 0 0
          0 0 0 0 0 0
          0 0 0 0 0 0
          0 0 0 0 0 0
          0 0 0 0 0 0
          0 0 0 0 0 0
          0 0 0 0 0 0
          0 0 0 0 0 0
          0 0 0 0 0 0
          0 0 0 0 0 0
          0 0 0 0 0 0
          0 0 0 0 0 0
          0 0 0 0 0 0
          0 0 0 0 0 0
          0 0 0 0 0 0
          0 0 0 0 0 0
          0 0 0 0 0 0
          0 0 0 0 0 0
          0 0 0 0 0 0
          0 0 0 0 0 0
          0 0 0 0 0 0
          0 0 0 0 0 0
          0 0 0 0 0 0
          0 0 0 0 0 0
          0 0 0 0 0 0
          0 0 0 0 0 0
          0 0 0 0 0 0
          0 0 0 0 0 0
          0 0 0 0 0 0
          0 0 0 0 0 0
          0 0 0 0 0 0
          0 0 0 0 0 0
          0 0 0 0 0 0
          0 0 0 0 0 0
          0 0 0 0 0 0
          0 0 0 0 0 0
          0 0 0 0 0 0
          0 0 0 0 0 0
          0 0 0 0 0 0
          0 0 0 0 0 0
          0 0 0 0 0 0
          0 0 0 0 0 0
          0 0 0 0 0 0
          0 0 0 0 0 0
          0 0 0 0 0 0
          0 0
        </DataArray>
        <DataArray type="Float64" Name="combo" format="ascii" RangeMin="1" RangeMax="1">
          1 1 1 1 1 1
          1 1 1 1 1 1
          1 1 1 1 1 1
          1 1 1 1 1 1
          1 1 1 1 1 1
          1 1 1 1 1 1
          1 1 1 1 1 1
          1 1 1 1 1 1
          1 1 1 1 1 1
          1 1 1 1 1 1
          1 1 1 1 1 1
          1 1 1 1 1 1
          1 1 1 1 1 1
          1 1 1 1 1 1
          1 1 1 1 1 1
          1 1 1 1 1 1
          1 1 1 1 1 1
          1 1 1 1 1 1
          1 1 1 1 1 1
          1 1 1 1 1 1
          1 1 1 1 1 1
          1 1 1 1 1 1
          1 1 1 1 1 1
          1 1 1 1 1 1
          1 1 1 1 1 1
          1 1 1 1 1 1
          1 1 1 1 1 1
          1 1 1 1 1 1
          1 1 1 1 1 1
          1 1 1 1 1 1
          1 1 1 1 1 1
          1 1 1 1 1 1
          1 1 1 1 1 1
          1 1 1 1 1 1
          1 1 1 1 1 1
          1 1 1 1 1 1
          1 1 1 1 1 1
          1 1 1 1 1 1
          1 1 1 1 1 1
          1 1 1 1 1 1
          1 1 1 1 1 1
          1 1 1 1 1 1
          1 1 1 1 1 1
          1 1 1 1 1 1
          1 1 1 1 1 1
          1 1 1 1 1 1
          1 1 1 1 1 1
          1 1 1 1 1 1
          1 1 1 1 1 1
          1 1 1 1 1 1
          1 1 1 1 1 1
          1 1 1 1 1 1
          1 1 1 1 1 1
          1 1 1 1 1 1
          1 1 1 1 1 1
          1 1 1 1 1 1
          1 1 1 1 1 1
          1 1
        </DataArray>
        <DataArray type="Float64" Name="dHdT" format="ascii" RangeMin="25.79013967817571" RangeMax="30.618034648289772">
          25.811463824712348 25.81145706178133 25.811468270328383 25.811471607807718 25.811541251260714 25.811547030042345
          25.811523535757008 25.811520730306388 25.811439712944843 25.811459739415568 25.81156128840598 25.811530436864405
          25.811428191512938 25.81145403179527 25.811567411482674 25.811533382443937 25.81147947887544 25.811479390903084
          25.811500041471675 25.811500209352065 25.811479765886293 25.81149958532283 25.8114798720776 25.811499353405203
          25.811315861415974 25.81129732979508 25.811427634270412 25.811436364651918 25.811252672158165 25.81140665411253
          25.811245802270808 25.811404067793973 25.811557938745747 25.811556867887862 25.811560636066893 25.811562333317138
          25.812910538481965 25.812952542259435 25.812272671889495 25.812254956094506 25.813048695566284 25.812312877645812
          25.812979590994615 25.812272572137907 25.81159280151956 25.811599373707047 25.81157705972534 25.811565553281195
          25.808524690862388 25.808841707085453 25.81194746112831 25.811805076412 25.809505159997325 25.812169349826583
          25.811597669677706 25.811561661876418 25.8116865659612 25.88729941223027 25.86605384888363 25.85273062140978
          25.861445576638637 25.842794766965095 25.838125928240533 25.811217142129642 25.81108120915663 25.811518741946667
          29.21824086430092 29.62416214467728 26.133983113472965 26.179588737979508 30.37305734415348 26.052760198254795
          25.80556753138235 25.804850144293805 25.807469864717525 25.80688238300595 25.79013967817571 25.796302712406103
          25.8024657466365 25.847514284723886 25.83793731255246 25.87983602736621 25.882893296492867 25.888010900528847
          27.293129791805207 27.2983960771647 26.65117433124012 26.660543394986693 25.87179073008399 27.307822587634757
          26.627228282729828 25.874668811832233 25.982724335888804 25.991283319682843 25.963177070719592 29.35513659307813
          27.89380479608719 27.859819489894377 27.95645165882694 26.16548271504168 25.852930395173413 25.859381151603795
          27.313048610876308 26.593757777775483 27.306805997220863 26.553915158977325 25.856609073829336 25.939838097924643
          25.915840415007125 29.96007032589251 28.021848430771726 28.084828215054436 26.09542179468498 25.89212452226614
          26.00694367125561 25.80239175223388 25.805895589330564 25.805765149868904 25.796260432929138 25.79557545409689
          25.798916116883458 25.799299629118767 25.806191536432298 25.793957959837506 25.79804060437794 25.809399426427248
          25.802256779670024 25.8023388253084 25.802123248918377 25.803164298579524 25.80652635790366 25.792090661669846
          25.79712335804501 25.80988841722779 25.802156054420173 25.822029741256628 25.822988134560102 25.839741569777374
          25.841894538375914 25.819781275014783 25.834623413894427 25.810695268571145 25.80786896116816 25.807747639146825
          25.80819840295088 25.85745339829812 25.86080094219173 25.84946555277407 25.805042653765177 25.817330238383697
          25.828805581370325 25.815255172495547 25.82346859114894 25.811013139406747 25.808695852170658 25.80934323438236
          25.840280924356957 25.83168200980234 25.806378564934576 25.813689057015882 25.818978240846324 25.811414970972997
          25.810082388063872 25.824267424676766 25.808749805154747 25.980460220233052 25.970125859446853 25.973574753653022
          26.31354202733251 26.308711041643775 26.25881529829771 26.263439664657056 25.961542353614746 26.296515723726735
          26.247084427984564 25.95979149866065 26.208919554951645 26.213337301981603 26.197653132242394 27.294490171148425
          27.11847613443957 27.118732588830927 27.117880878916104 26.876913251255406 25.95907436405991 25.95063946411397
          26.280841132129574 26.231650889734425 25.9391632801209 26.26364090401038 26.214410844667594 25.942204564168026
          26.182460647339273 26.165180785324814 27.303597919788018 27.116539721744633 27.113072527121414 26.858742690111672
          28.580867850816148 28.604573399646274 28.265725401470863 28.248674857829727 28.66490509936329 28.30937956126617
          27.47789091224215 27.47360574205858 27.488411093116312 29.25712832005019 28.842003271211155 28.81318911365869
          28.915623867054517 27.8694357532225 28.7432404920795 28.36554266895699 28.829726640478565 28.426320985091483
          27.500414378733275 27.511717221164055 29.481893044782204 29.01066820977959 29.116155325154423 27.924073087554287
          26.47522757324142 26.47973141941936 26.67473203123652 26.678347547870093 26.463289386561964 26.66479462787992
          26.20463958817804 26.320559641284188 26.32596547646633 26.306621092696275 26.87423648923161 26.876963676320827
          26.86629986919789 26.436479694390336 26.446058617984935 26.650118093156184 26.425455030974728 26.632566881687975
          26.17485221303734 26.287252274680306 26.26461465075224 26.854177568327437 26.83967873240122 26.39965233632327
          25.935361416886572 25.92801261683842 26.245417573549922 26.19603324933398 25.917585731557136 26.226367466268925
          26.176688538189126 25.920663816790267 26.146648925118033 26.12700961010932 27.31160938335895 27.107703996461385
          27.10047524863958 26.82688119440181 25.915889644318042 25.9083051917412 26.20666133164695 26.156561295286135
          25.900584843286698 26.186462784226265 26.135832130108078 25.90072073916435 26.106461258925336 26.085201475989898
          27.310571698704162 27.090764323790165 27.0784201264129 26.787130144570174 28.925754502267175 28.491638045925747
          29.029138190346966 28.56144316020063 27.52167741851106 27.53082006435989 29.783763968029728 29.231921980758276
          29.357727167943207 27.989350062142297 29.139146168546915 28.635884369433693 29.26139467851638 28.715968280779606
          27.53935674267666 27.545137814530502 30.154581958661357 29.495057490118143 29.646175725662857 28.054119157841214
          26.402881659985695 26.61285249829886 26.37861836191258 26.590552470241335 26.13271695589358 26.239871749159924
          26.21321294181719 26.822823336612018 26.80248657857009 26.347026542426267 26.35278889704033 26.565603835843742
          26.325395988848733 26.537695135564135 26.086101258122476 26.185116756654644 26.155656525110093 26.778418774647157
          26.749994282279534 26.28413225518681 26.165791890272374 26.114661074056222 26.063530257840068 27.300041124845876
          27.061720532066218 26.734065514630974 29.39579043133442 28.80085976596294 27.547130717897176 30.618034648289772
          29.812625840694096 28.1142425190922 26.296034126930714 26.506559678468314 26.036671588541637 26.124787021733745
          26.717085230005917 26.21290245492585 25.8114419848396 25.81146052072801 25.811546828115894 25.811523488036677
          25.811479056616413 25.811500147957467 25.811347338175494 25.811453447327494 25.8115595564795 25.812501470825573
          25.812037204475136 25.8115729381247
        </DataArray>
        <DataArray type="Float64" Name="dk/dtemperature" format="ascii" RangeMin="0.010994217198249653" RangeMax="0.015804580349343192">
          0.015804580349343192 0.015804580349343192 0.015804580349343192 0.015804580349343192 0.015804580349343192 0.015804580349343192
          0.015804580349343192 0.015804580349343192 0.015804580349343192 0.015804580349343192 0.015804580349343192 0.015804580349343192
          0.015804580349343192 0.015804580349343192 0.015804580349343192 0.015804580349343192 0.015804580349343192 0.015804580349343192
          0.015804580349343192 0.015804580349343192 0.015804580349343192 0.015804580349343192 0.015804580349343192 0.015804580349343192
          0.015804580349343192 0.015804580349343192 0.015804580349343192 0.015804580349343192 0.015804580349343192 0.015804580349343192
          0.015804580349343192 0.015804580349343192 0.015804580349343192 0.015804580349343192 0.015804580349343192 0.015804580349343192
          0.015804580349343192 0.015804580349343192 0.015804580349343192 0.015804580349343192 0.015804580349343192 0.015804580349343192