<?xml version="1.0"?>
<VTKFile type="UnstructuredGrid" version="0.1" byte_order="LittleEndian" header_type="UInt32" compressor="vtkZLibDataCompressor">
  <UnstructuredGrid>
    <Piece NumberOfPoints="715" NumberOfCells="431">
      <PointData>
        <DataArray type="Int32" Name="libmesh_node_id" format="ascii" RangeMin="819" RangeMax="6237">
          819 976 977 978 979 980
          987 1517 1518 1519 1520 1521
          1522 1526 1527 1528 1529 1530
          1534 1535 1541 1542 1543 1544
          1548 1549 1551 1552 1759 1760
          1762 1763 2003 2004 2005 2007
          2008 2009 2010 2011 2012 2013
          2014 2015 2016 2017 2018 2020
          2022 2027 2713 2714 2715 2716
          2717 2718 2719 2720 2721 2722
          2725 2729 2730 2733 2737 2738
          2739 2740 2741 2742 2743 2744
          2745 2746 2770 2776 2777 2780
          2781 2782 2783 2784 2785 2786
          2787 2788 2789 2790 2791 2792
          2793 2794 2809 2810 2811 2812
          2813 2814 2815 2816 2817 2818
          2851 2855 2865 2866 2869 2871
          2873 2874 2875 2876 2877 2878
          2879 2880 2881 2882 2884 2886
          2888 2890 2891 2892 2893 2894
          2895 2896 2899 2900 2905 2907
          2908 2909 2910 2914 2915 2917
          2918 2919 2920 2921 2922 2923
          2924 2925 2926 2937 2939 2941
          2943 3195 3200 3202 3206 3207
          3213 3287 3288 3289 3290 3291
          3292 3293 3294 3295 3296 3299
          3300 3303 3304 3305 3306 3307
          3308 3309 3310 3311 3312 3313
          3314 3315 3316 3317 3318 3319
          3320 3321 3322 3323 3324 3325
          3326 3327 3328 3329 3330 3331
          3332 3333 3334 3335 3336 3337
          3338 3339 3340 3341 3342 3343
          3344 4918 4919 4920 4923 4926
          4928 4929 4930 4931 4932 4933
          4934 4935 4936 4937 4938 4939
          4940 4941 4944 4945 4948 4950
          4952 4953 4954 4955 4956 4957
          4958 4959 4960 4961 4972 4973
          4974 4975 4976 4977 4978 4979
          4980 4981 4989 4990 4991 4992
          4993 4994 4995 5012 5028 5029
          5032 5034 5046 5058 5060 5062
          5066 5067 5068 5069 5070 5072
          5073 5074 5075 5076 5077 5078
          5079 5080 5081 5082 5083 5084
          5085 5086 5087 5088 5089 5090
          5091 5092 5093 5094 5095 5096
          5097 5098 5099 5100 5101 5102
          5103 5106 5107 5110 5111 5112
          5113 5114 5115 5116 5117 5118
          5119 5120 5121 5122 5123 5124
          5125 5126 5127 5128 5129 5130
          5131 5290 5292 5294 5318 5320
          5322 5338 5339 5340 5341 5342
          5343 5344 5345 5346 5347 5348
          5349 5350 5351 5366 5367 5368
          5369 5370 5371 5372 5373 5374
          5375 5376 5377 5378 5379 5380
          5381 5382 5383 5384 5385 5386
          5387 5388 5389 5390 5391 5392
          5393 5394 5395 5396 5397 5398
          5399 5400 5401 5402 5403 5404
          5405 5406 5407 5408 5409 5410
          5411 5412 5413 5414 5415 5416
          5417 5418 5419 5420 5421 5422
          5423 5424 5425 5426 5427 5428
          5429 5430 5431 5432 5433 5434
          5435 5436 5437 5438 5439 5440
          5441 5442 5443 5444 5445 5446
          5447 5448 5449 5450 5451 5452
          5453 5454 5455 5456 5457 5458
          5459 5460 5461 5544 5545 5546
          5547 5548 5549 5550 5551 5552
          5553 5554 5555 5556 5557 5558
          5559 5560 5561 5562 5563 5564
          5565 5566 5567 5568 5569 5570
          5571 5572 5573 5574 5575 5576
          5577 5578 5579 5580 5581 5582
          5583 5584 5585 5586 5587 5588
          5589 5590 5591 5592 5593 5594
          5595 5596 5597 5598 5599 5600
          5601 5602 5603 5604 5605 5606
          5607 5608 5609 5610 5611 5823
          5824 5825 5826 5827 5828 5829
          5851 5852 5853 5854 5855 5856
          5857 5933 5934 5937 5939 5953
          5954 5957 5959 5961 5962 5963
          5964 5965 5966 5967 5968 5969
          5970 5971 5972 5973 5974 5975
          5976 5977 5978 5979 5980 5981
          5982 5983 5984 5985 5986 5987
          5988 5989 5990 5991 5992 5993
          5994 5995 5996 5997 5998 5999
          6000 6009 6011 6013 6023 6025
          6027 6037 6039 6041 6051 6053
          6055 6057 6058 6059 6060 6061
          6062 6063 6064 6065 6066 6067
          6068 6069 6070 6071 6072 6073
          6074 6075 6076 6077 6078 6079
          6080 6081 6082 6083 6084 6085
          6086 6087 6088 6089 6090 6091
          6092 6093 6094 6095 6096 6097
          6098 6099 6100 6101 6102 6103
          6104 6105 6106 6107 6108 6109
          6110 6111 6112 6125 6126 6129
          6131 6133 6134 6135 6136 6137
          6138 6139 6140 6141 6142 6143
          6144 6145 6146 6147 6148 6149
          6150 6151 6152 6153 6154 6155
          6156 6157 6158 6159 6160 6161
          6162 6183 6184 6185 6186 6187
          6188 6189 6192 6197 6198 6199
          6200 6201 6202 6203 6204 6205
          6206 6207 6208 6211 6212 6217
          6218 6219 6220 6221 6222 6223
          6231 6232 6233 6234 6235 6236
          6237
        </DataArray>
        <DataArray type="Float64" Name="bounds" format="ascii" RangeMin="0" RangeMax="0">
          0 0 0 0 0 0
          0 0 0 0 0 0
          0 0 0 0 0 0
          0 0 0 0 0 0
          0 0 0 0 0 0
          0 0 0 0 0 0
          0 0 0 0 0 0
          0 0 0 0 0 0
          0 0 0 0 0 0
          0 0 0 0 0 0
          0 0 0 0 0 0
          0 0 0 0 0 0
          0 0 0 0 0 0
          0 0 0 0 0 0
          0 0 0 0 0 0
          0 0 0 0 0 0
          0 0 0 0 0 0
          0 0 0 0 0 0
          0 0 0 0 0 0
          0 0 0 0 0 0
          0 0 0 0 0 0
          0 0 0 0 0 0
          0 0 0 0 0 0
          0 0 0 0 0 0
          0 0 0 0 0 0
          0 0 0 0 0 0
          0 0 0 0 0 0
          0 0 0 0 0 0
          0 0 0 0 0 0
          0 0 0 0 0 0
          0 0 0 0 0 0
          0 0 0 0 0 0
          0 0 0 0 0 0
          0 0 0 0 0 0
          0 0 0 0 0 0
          0 0 0 0 0 0
          0 0 0 0 0 0
          0 0 0 0 0 0
          0 0 0 0 0 0
          0 0 0 0 0 0
          0 0 0 0 0 0
          0 0 0 0 0 0
          0 0 0 0 0 0
          0 0 0 0 0 0
          0 0 0 0 0 0
          0 0 0 0 0 0
          0 0 0 0 0 0
          0 0 0 0 0 0
          0 0 0 0 0 0
          0 0 0 0 0 0
          0 0 0 0 0 0
          0 0 0 0 0 0
          0 0 0 0 0 0
          0 0 0 0 0 0
          0 0 0 0 0 0
          0 0 0 0 0 0
          0 0 0 0 0 0
          0 0 0 0 0 0
          0 0 0 0 0 0
          0 0 0 0 0 0
          0 0 0 0 0 0
          0 0 0 0 0 0
          0 0 0 0 0 0
          0 0 0 0 0 0
          0 0 0 0 0 0
          0 0 0 0 0 0
          0 0 0 0 0 0
          0 0 0 0 0 0
          0 0 0 0 0 0
          0 0 0 0 0 0
          0 0 0 0 0 0
          0 0 0 0 0 0
          0 0 0 0 0 0
          0 0 0 0 0 0
          0 0 0 0 0 0
          0 0 0 0 0 0
          0 0 0 0 0 0
          0 0 0 0 0 0
          0 0 0 0 0 0
          0 0 0 0 0 0
          0 0 0 0 0 0
          0 0 0 0 0 0
          0 0 0 0 0 0
          0 0 0 0 0 0
          0 0 0 0 0 0
          0 0 0 0 0 0
          0 0 0 0 0 0
          0 0 0 0 0 0
          0 0 0 0 0 0
          0 0 0 0 0 0
          0 0 0 0 0 0
          0 0 0 0 0 0
          0 0 0 0 0 0
          0 0 0 0 0 0
          0 0 0 0 0 0
          0 0 0 0 0 0
          0 0 0 0 0 0
          0 0 0 0 0 0
          0 0 0 0 0 0
          0 0 0 0 0 0
          0 0 0 0 0 0
          0 0 0 0 0 0
          0 0 0 0 0 0
          0 0 0 0 0 0
          0 0 0 0 0 0
          0 0 0 0 0 0
          0 0 0 0 0 0
          0 0 0 0 0 0
          0 0 0 0 0 0
          0 0 0 0 0 0
          0 0 0 0 0 0
          0 0 0 0 0 0
          0 0 0 0 0 0
          0 0 0 0 0 0
          0 0 0 0 0 0
          0 0 0 0 0 0
          0 0 0 0 0 0
          0 0 0 0 0 0
          0 0 0 0 0 0
          0
        </DataArray>
        <DataArray type="Float64" Name="gradient_error" format="ascii" RangeMin="6.634366026658741e-13" RangeMax="5.2750171938730275e-9">
          7.004825432163377e-12 4.715321330958005e-11 3.640604586386882e-11 1.4435337445757292e-10 6.624209250700211e-11 6.217968610938974e-12
          9.88888835691952e-10 8.885910575561928e-11 4.192460624685152e-9 2.072332231793341e-9 2.6607116657022973e-10 6.821533994473187e-10
          2.2926562364995064e-10 2.470847221974209e-9 3.16695777031816e-11 1.9440599674073613e-11 1.2807350917496426e-9 5.843641442969538e-10
          1.4741993374189072e-11 5.7257444764642245e-11 1.722564102117024e-10 7.87322975240487e-11 4.625183597707294e-11 3.173906028271724e-11
          7.626423145201721e-11 5.043023440133441e-11 1.532331299992811e-11 1.5108731849179828e-11 3.260773664035064e-11 3.1928698838798045e-11
          7.87489193219091e-12 7.76436418325773e-12 4.0375828058128065e-11 3.64034040694357e-11 2.934047798175666e-11 1.5985658340474746e-10
          4.3235188527313616e-11 1.4272311534702304e-11 1.1729639509298613e-11 9.91382249114454e-12 7.85308816726282e-12 2.8787888301320707e-12
          2.3069991567393366e-12 1.85921156304232e-12 7.347638441370288e-12 1.05323075146957e-11 2.481298903021912e-12 1.5752505189928294e-10
          4.129717730596481e-11 1.0271970385583451e-11 2.8401447493731663e-10 2.517695945304882e-10 1.1052453416627023e-9 9.411503448577063e-10
          1.2779589196319956e-10 6.173072589932433e-10 5.228212362365764e-10 1.7584142086892656e-10 5.814413152454966e-10 3.183668475024917e-10
          3.5305146346291966e-9 1.8799151773755813e-10 4.5900575252679207e-10 2.288625029076135e-10 9.60385942644952e-11 2.6232799454264163e-10
          4.81647857706708e-11 1.4095660327741945e-10 1.0165627078050893e-10 1.2470242266115823e-10 6.511551593836133e-11 1.4091998696232092e-9
          8.273542376116239e-10 4.093690336785694e-10 1.8007574729746389e-9 1.1603338530473078e-9 6.877381432485956e-10 1.633516767355257e-9
          6.95963556183181e-11 6.156886225071286e-11 3.1756142823371214e-10 2.679858643961282e-10 2.8015019313404395e-11 1.5075946236882318e-10
          1.269703803020129e-10 4.272868143787499e-11 1.6170238757455767e-10 7.617591920337986e-11 2.4547129274920113e-9 2.0395288199321563e-9
          1.053918151973645e-9 1.1576476626055506e-9 2.3045300113603743e-11 7.066570186690139e-11 1.0489562597380823e-11 3.2942524073408326e-11
          2.5007227496668622e-11 3.207938205704027e-11 1.4722690425287226e-11 4.445592089424354e-10 2.1875642025818877e-10 1.1907867096340292e-10
          3.7358024153275906e-10 5.461579339978803e-10 2.329596947991221e-10 1.4573423868962193e-10 5.807895774978615e-11 1.5590257745139185e-10
          1.2040519890381603e-10 7.612974414143735e-11 6.11451486855811e-11 4.603418221564444e-11 3.2870410305676094e-11 2.8103474318117234e-11
          2.586122416005159e-11 8.823393628011806e-11 5.319810273232217e-11 4.090010216292029e-11 3.6923118463426104e-10 9.03198014262283e-11
          4.991261703132543e-10 2.198927452381387e-10 1.2284768228862802e-10 5.797579129231141e-11 4.01583603820367e-11 3.025159280032227e-10
          1.7147157589454536e-10 5.957142572017027e-11 7.224221554966315e-11 5.999084929980211e-11 2.5382061928993816e-11 3.568818084510927e-11
          4.0306738796510945e-11 2.1829487794114593e-11 3.107700373860507e-11 3.2798220923921536e-11 3.6910367458153095e-11 2.965448432345382e-11
          2.9940604053135797e-11 1.3728629902591678e-11 1.4001413996601668e-11 1.1947267795363495e-11 3.0674120176734236e-11 1.4725646962241475e-11
          3.335544929807657e-11 1.5741586604917954e-11 2.6234709702719137e-11 6.388107087483105e-11 2.047535547213772e-11 9.024045313219636e-11
          2.6158684981347646e-11 3.639518804563043e-11 1.6790258961391276e-11 1.1146541327754323e-11 1.3001346789177701e-11 1.635943226624992e-11
          1.9717517743322136e-11 5.58751218158634e-11 5.167644173940888e-11 2.1637753544651578e-10 1.9467534062432735e-10 2.3285206860560436e-11
          1.0772700547056305e-10 9.679734771792243e-11 4.0799877107785276e-11 1.4189131901984241e-10 7.017625447492126e-11 7.597824758424478e-11
          1.7512825335853336e-10 1.2133424657562787e-10 2.986009432181777e-11 8.380519420539219e-11 1.3690872610404096e-11 4.120355459820196e-11
          2.5598196091019352e-11 5.680089617323843e-11 2.7922290211843197e-11 1.1813106585944417e-11 1.091916608092935e-11 5.1742279318253596e-11
          4.645597216284839e-11 5.129848752780713e-12 2.3689985200218242e-11 2.1271692925863223e-11 8.552896461235745e-12 3.360892664300204e-11
          1.5370846512571657e-11 2.589025407290744e-12 2.3816357191986325e-12 1.0302885388294586e-11 9.261889098111927e-12 1.0713698554632026e-12
          4.249111330296542e-12 3.826572877064996e-12 1.8392054777477082e-12 6.688259525115277e-12 2.741759313802234e-12 6.3062933273646546e-12
          1.9575998894139573e-11 2.9407260681315913e-12 8.913612005229923e-12 5.532019308172102e-12 1.3103809509718266e-11 5.938931636824731e-12
          1.358135935693004e-12 3.752932971266308e-12 6.634366026658741e-13 1.5079809763611923e-12 1.2121069469971123e-12 2.35023970023133e-12
          9.364777489513666e-13 1.845620468932124e-10 3.8374084286212524e-10 3.695886698486394e-10 3.3010983363819984e-10 1.061717214702525e-9
          1.382540306737685e-10 1.3345856403320034e-10 2.818881224351908e-10 2.713955896254355e-10 9.498829820934229e-11 2.0353814608975065e-10
          1.9590066158091706e-10 1.19867385279041e-10 2.421517788063828e-10 1.7464619580821395e-10 8.34499185664538e-10 8.010157285186784e-10
          5.921813058581648e-10 7.084999546798581e-10 1.3907419278798144e-10 2.737010261411207e-10 2.107875443612285e-10 7.699050823310956e-10
          1.0041655315424809e-10 2.0043813242815863e-10 7.140530408170967e-11 1.4437737110666785e-10 7.837833690364421e-11 1.5401824785093745e-10
          1.1073566428222773e-10 5.775981771583764e-10 4.249704903364079e-10 4.342807117479936e-10 2.273461435326441e-9 2.179316474231633e-9
          1.7400591176537114e-9 1.665670658011943e-9 1.9182392313086823e-9 1.460636621988631e-9 5.2750171938730275e-9 5.0600415712991575e-9
          4.0174041236513894e-9 4.464356783807563e-9 1.5482770424624439e-9 1.1726051784450946e-9 1.1450204027108359e-9 8.614207635723245e-10
          3.6135381580028696e-9 2.8355309948245707e-9 2.6693698029175754e-9 1.842538208207299e-10 6.872522738607109e-11 1.1550141104820864e-10
          8.627596455146648e-11 2.785006525867628e-10 1.060756955507935e-9 6.287429924246158e-10 3.4440988671616915e-10 1.281199924357357e-9
          7.940116051751255e-11 1.5105441426424935e-10 7.474370664925176e-11 1.3709875728248967e-10 1.0091665817278557e-10 4.058363786588783e-10
          3.493077983556053e-10 5.7122399342062306e-11 1.1004900278867417e-10 4.046345825300806e-11 7.89180901042351e-11 3.9001162890412844e-11
          7.327877452632951e-11 5.241565784833801e-11 3.016152153150597e-10 2.2022075828952774e-10 1.9392295276562916e-10 4.9951133258128374e-11
          8.523594790044414e-11 3.57867392393095e-11 6.220170567620912e-11 4.055873172052369e-11 6.318571658832365e-11 4.572271665388429e-11
          2.1021864620996486e-10 1.5679441758996888e-10 1.3941462313067256e-10 2.5768706919262906e-11 4.5046383391342154e-11 1.8457050305704554e-11
          3.225579471504067e-11 2.078464607758268e-11 3.307249166473048e-11 2.3770653046411367e-11 1.1520992417887304e-10 8.331645113852016e-11
          7.569427181766995e-11 8.302664843611826e-10 6.389905829639956e-10 1.780911913767263e-9 7.759585521440092e-10 5.794006911333647e-10
          4.827320946783667e-10 3.5773182609069195e-10 1.7915672361737602e-9 1.3743476979689366e-9 1.0916910582035614e-9 4.860600891715554e-10
          3.702328332055115e-10 2.631473903500243e-10 1.985197224316637e-10 1.0168481706059271e-9 7.927307034896111e-10 5.325363122622777e-10
          2.772199279021018e-10 2.0386736567474153e-10 1.4735503239054337e-10 1.0753523272848359e-10 6.060720926620269e-10 4.5411259724490384e-10
          3.0920413922328724e-10 2.2852427359835026e-9 1.1965042865216944e-9 3.4324228472794908e-9 4.301069599059579e-9 2.2876864757882023e-9
          4.608141401198518e-9 1.859422786448551e-9 1.4827852484133854e-9 9.539715392299608e-10 7.470284938253943e-10 2.8479267777252358e-9
          2.3126600849500214e-9 1.4598303700579956e-9 1.1571796662255419e-9 8.831245570838949e-10 5.736505520198888e-10 4.3169294692313684e-10
          1.8354421552457597e-9 1.42235221900332e-9 9.030333770694587e-10 3.610891150573066e-9 2.9659603703767073e-9 1.8734387801607022e-9
          1.5028705287007217e-9 3.883281625846849e-9 3.2022031640451146e-9 2.0301664708728807e-9 2.3790038010125002e-9 1.8616540742891902e-9
          1.1794459321358566e-9 9.049834898487036e-10 2.577682505970391e-9 2.023783998446542e-9 1.28556676140652e-9 6.894212232589018e-11
          6.65321498465573e-11 1.4442112464030772e-10 1.3897237812897997e-10 4.585651216782838e-11 1.0070075100127704e-10 9.688516501694219e-11
          5.971237162370133e-11 1.2381439315734553e-10 8.627250217004418e-11 4.4731109901600866e-10 4.28873823345555e-10 3.0434841267519003e-10
          3.7806469249384785e-10 3.223176443948781e-11 3.109947486729375e-11 6.900455813035083e-11 6.637926558164364e-11 2.0756869519424482e-11
          4.6468002616780844e-11 4.4695399537053796e-11 2.789789971820405e-11 5.908190918349482e-11 3.976919277701894e-11 2.209610505184013e-10
          2.1170997642758876e-10 1.444146726501457e-10 1.862630466142331e-10 4.996401869693464e-11 1.0224184658205853e-10 3.440676591176058e-11
          7.117566908508157e-11 3.892294346497556e-11 7.830020068081667e-11 5.44453635994556e-11 3.066048375360082e-10 2.1695508925740855e-10
          2.2904076228771237e-10 2.3321943641372997e-11 4.870969832183603e-11 1.5558404487663285e-11 3.276935433202023e-11 1.815522325828411e-11
          3.7224610456091105e-11 2.5024115511182553e-11 1.5058918778576163e-10 1.025408781794986e-10 1.1203285903180268e-10 1.299122180101179e-9
          1.2422850131279448e-9 9.464416680768926e-10 9.042737121470652e-10 1.0861180031920703e-9 7.886326406316761e-10 3.2531649987147957e-9
          3.112072330362148e-9 2.3440981701992315e-9 2.7210033194647094e-9 6.73066651694562e-10 6.426058159041478e-10 4.673921609687643e-10
          4.460065520983489e-10 5.592688638795619e-10 3.8759435486428604e-10 1.7984729144523698e-9 1.7150826262809922e-9 1.2199709537256328e-9
          1.4864365642342425e-9 8.679229723761636e-10 6.277536800430198e-10 6.339150177459454e-10 4.563427412816113e-10 2.167806536578591e-9
          1.6133635302586897e-9 1.5687795344030987e-9 4.4382633100355976e-10 3.069025832626321e-10 3.2147017213879496e-10 2.2168084344638533e-10
          1.1689277714284125e-9 8.248200114065645e-10 8.328069419255408e-10 2.8270383229947503e-11 5.570110641418615e-11 1.9477955411249533e-11
          3.868314685986794e-11 1.9261956194947156e-11 3.690861244510831e-11 2.5572652496465155e-11 1.5790453123206493e-10 1.1117226862555861e-10
          1.0069142522572418e-10 1.319947822371865e-11 2.6408371798989272e-11 8.839328886466515e-12 1.7725663441625616e-11 8.990010287846153e-12
          1.7422748852196153e-11 1.1662523892648873e-11 7.684940137007484e-11 5.215263966339826e-11 4.870740141815665e-11 1.2796419109830222e-11
          2.2616058013571556e-11 8.693835139729792e-12 1.558155428468472e-11 1.0389276873401074e-11 1.6595241070743764e-11 1.1369282959945971e-11
          5.927266729383818e-11 4.146243483094536e-11 3.865510348020988e-11 5.933132562535976e-12 1.0605379135237598e-11 4.1053681931543325e-12
          7.127208480605855e-12 4.790027621686323e-12 7.742334561498107e-12 5.2555846041294136e-12 2.8480110515911327e-11 1.91950667310843e-11
          1.847740204630879e-11 4.2371385698557374e-10 3.034978934442158e-10 2.5996968654613573e-10 1.8525398280614416e-10 1.029428527274945e-9
          7.527851360650875e-10 6.13235999670959e-10 2.1296052151663728e-10 1.4642195919127605e-10 1.2945570751373367e-10 8.873158115585527e-11
          5.375767339245397e-10 3.7505902834261054e-10 3.152663228191099e-10 1.4722157709047524e-10 1.0436985306692997e-10 7.717178832974702e-11
          5.442244643008312e-11 3.3336569596675556e-10 2.39753110287528e-10 1.6681972445650275e-10 7.261174224501547e-11 4.958140066379509e-11
          3.767233897400106e-11 2.5609970124948635e-11 1.689270521744599e-10 1.1660728524830688e-10 8.337831311130972e-11 6.589053381818989e-10
          4.80632653304473e-10 3.182827446553813e-10 2.2987749007630787e-10 1.0757556688821638e-9 7.940516135698219e-10 5.124522043311612e-10
          1.4204996630097016e-9 1.056712818222921e-9 6.787973460784095e-10 4.977383538346917e-10 1.5489007891959485e-9 1.155365605241697e-9
          7.433778479654762e-10 1.1530568858298024e-10 1.7618835357267775e-10 8.572905916221328e-11 3.3660710098802515e-10 2.7575740005569917e-11
          3.917231371416453e-11 2.4306130964508847e-11 6.822204663736965e-11 8.609383064517417e-11 1.330086578220873e-10 6.381030280426623e-11
          9.939333151393634e-11 4.325743917061386e-11 6.388923285986967e-11 4.7146503796124974e-11 2.5871803909445407e-10 1.9632517783384977e-10
          1.1797825083765262e-10 4.651985289633907e-11 7.319403715933353e-11 3.337115018503923e-11 5.2980546470940185e-11 2.312386070072752e-11
          3.406053151920642e-11 2.835113385318805e-11 1.4683749303440585e-10 1.0793943017661626e-10 6.486624620678105e-11 2.0213881504448583e-11
          2.8900097372599215e-11 1.4871830337060618e-11 2.1216961847723067e-11 1.3422926263908714e-11 1.7887962558265522e-11 1.3333763978410417e-11
          5.0985715201326434e-11 3.775662365368439e-11 2.9948611996809704e-11 1.1033183500404875e-11 1.5416558022161487e-11 9.525566203975174e-12
          1.2947986333609003e-11 7.718868519973334e-12 1.0489163301656228e-11 9.524317224044768e-12 2.7553043514381388e-11 2.243980601323788e-11
          1.7225934782636555e-11 5.729079625592183e-10 2.5545726308431906e-10 8.498932939150372e-10 1.0773753105616245e-10 6.235449577552267e-11
          1.5136376147979968e-10 1.0783488733445756e-9 4.6276491628580867e-10 1.1665839005638385e-9 1.863930580800319e-10 7.068903377092612e-11
          1.9985844946080924e-10 4.480765124894212e-10 3.4521154060211327e-10 1.962617560607812e-10 1.489183200024024e-10 6.738393859741257e-10
          5.25313509368853e-10 2.869408046158513e-10 2.615241801541878e-10 1.945500803911849e-10 1.1131925375250074e-10 8.174723766635838e-11
          4.0199730554758534e-10 3.0174200332034046e-10 1.6578710001168913e-10 8.149583351389125e-11 6.099035509878127e-11 4.678939263041673e-11
          3.480771212026983e-11 1.156685803717526e-10 8.731960773362036e-11 5.1051988959470656e-11 4.505661477274741e-11 3.271945446349483e-11
          2.582316659240304e-11 1.9001348770506593e-11 6.480277821472522e-11 4.728506121277302e-11 3.569220658140269e-11 8.621651698699542e-10
          6.771283886490998e-10 3.621709938500868e-10 2.792469664108701e-10 9.352919995805915e-10 7.363788443206269e-10 3.915484154638535e-10
          5.216414568024837e-10 3.9392640286768923e-10 2.11742480114872e-10 1.577209316173966e-10 5.685298981716887e-10 4.3018004228067574e-10
          2.2981397763549042e-10 1.4350846436925288e-10 1.0912306760459763e-10 5.2721840984940915e-11 4.715111248502455e-11 1.5428631786088003e-10
          1.176364759905338e-10 5.6882978590594034e-11 8.129121682582141e-11 5.943601473264923e-11 4.439067912946297e-11 3.168748788231763e-11
          8.778395228284251e-11 6.426631017850667e-11 4.7850866798992666e-11 2.6057954143233797e-11 2.7404688149885436e-11 1.795898393217853e-11
          2.8751422156537072e-11 1.8842938805238903e-11 1.994700107674864e-11 1.5900904089899995e-11 1.6774435445432496e-11 1.4948247181135542e-11
          1.4470517995960318e-11 1.3406562638579235e-11 2.1051063348258387e-11 1.7647966800964994e-11 1.3992788810785097e-11 2.3571080497053992e-11
          3.7646203962769124e-11 1.6397076322755204e-11 2.6321492849135664e-11 1.599057012218855e-11 2.4108075356877487e-11 1.6687972724810454e-11
          7.774019581126444e-11 5.495254134586465e-11 4.007938750656641e-11 1.1166315482545068e-11 1.8089028125802982e-11 7.486594687924742e-12
          1.2232362630179141e-11 7.479799929937591e-12 1.1386060883581308e-11 7.664055540747823e-12 3.8191975527374113e-11 2.6084020408968305e-11
          1.931921632640339e-11 1.4190926594750418e-10 1.0150971705480902e-10 5.887543144327633e-11 4.166987848035719e-11 2.2208675794957379e-10
          1.6023579151139918e-10 8.941031142178201e-11 2.900360490941369e-11 1.797345233703824e-11 2.3307935991851152e-11 1.2477416498394468e-11
          1.6317033873501714e-11 1.1677576718521681e-11 1.3606755452005446e-11 9.440108429059569e-12 3.398425468154018e-11 2.4026998134010884e-11
          1.8148838579281874e-11 8.573270770017433e-12 1.1259735699382942e-11 5.515132638388507e-12 6.467520461938772e-12 2.9150801644789385e-10
          2.1134187606182616e-10 1.1532690771213938e-10 8.275575750859976e-11 3.189019846976038e-10 2.3157242989425882e-10 1.2557776450320098e-10
          4.285708831918683e-11 3.0435164576339346e-11 2.252497366210768e-11 1.5875175703750887e-11 4.6388086921957365e-11 3.297298413326588e-11
          2.4288204351140818e-11
        </DataArray>
        <DataArray type="Float64" Name="gradient_matprop_error" format="ascii" RangeMin="0" RangeMax="0">
          0 0 0 0 0 0
          0 0 0 0 0 0
          0 0 0 0 0 0
          0 0 0 0 0 0
          0 0 0 0 0 0
          0 0 0 0 0 0
          0 0 0 0 0 0
          0 0 0 0 0 0
          0 0 0 0 0 0
          0 0 0 0 0 0
          0 0 0 0 0 0
          0 0 0 0 0 0
          0 0 0 0 0 0
          0 0 0 0 0 0
          0 0 0 0 0 0
          0 0 0 0 0 0
          0 0 0 0 0 0
          0 0 0 0 0 0
          0 0 0 0 0 0
          0 0 0 0 0 0
          0 0 0 0 0 0
          0 0 0 0 0 0
          0 0 0 0 0 0
          0 0 0 0 0 0
          0 0 0 0 0 0
          0 0 0 0 0 0
          0 0 0 0 0 0
          0 0 0 0 0 0
          0 0 0 0 0 0
          0 0 0 0 0 0
          0 0 0 0 0 0
          0 0 0 0 0 0
          0 0 0 0 0 0
          0 0 0 0 0 0
          0 0 0 0 0 0
          0 0 0 0 0 0
          0 0 0 0 0 0
          0 0 0 0 0 0
          0 0 0 0 0 0
          0 0 0 0 0 0
          0 0 0 0 0 0
          0 0 0 0 0 0
          0 0 0 0 0 0
          0 0 0 0 0 0
          0 0 0 0 0 0
          0 0 0 0 0 0
          0 0 0 0 0 0
          0 0 0 0 0 0
          0 0 0 0 0 0
          0 0 0 0 0 0
          0 0 0 0 0 0
          0 0 0 0 0 0
          0 0 0 0 0 0
          0 0 0 0 0 0
          0 0 0 0 0 0
          0 0 0 0 0 0
          0 0 0 0 0 0
          0 0 0 0 0 0
          0 0 0 0 0 0
          0 0 0 0 0 0
          0 0 0 0 0 0
          0 0 0 0 0 0
          0 0 0 0 0 0
          0 0 0 0 0 0
          0 0 0 0 0 0
          0 0 0 0 0 0
          0 0 0 0 0 0
          0 0 0 0 0 0
          0 0 0 0 0 0
          0 0 0 0 0 0
          0 0 0 0 0 0
          0 0 0 0 0 0
          0 0 0 0 0 0
          0 0 0 0 0 0
          0 0 0 0 0 0
          0 0 0 0 0 0
          0 0 0 0 0 0
          0 0 0 0 0 0
          0 0 0 0 0 0
          0 0 0 0 0 0
          0 0 0 0 0 0
          0 0 0 0 0 0
          0 0 0 0 0 0
          0 0 0 0 0 0
          0 0 0 0 0 0
          0 0 0 0 0 0
          0 0 0 0 0 0
          0 0 0 0 0 0
          0 0 0 0 0 0
          0 0 0 0 0 0
          0 0 0 0 0 0
          0 0 0 0 0 0
          0 0 0 0 0 0
          0 0 0 0 0 0
          0 0 0 0 0 0
          0 0 0 0 0 0
          0 0 0 0 0 0
          0 0 0 0 0 0
          0 0 0 0 0 0
          0 0 0 0 0 0
          0 0 0 0 0 0
          0 0 0 0 0 0
          0 0 0 0 0 0
          0 0 0 0 0 0
          0 0 0 0 0 0
          0 0 0 0 0 0
          0 0 0 0 0 0
          0 0 0 0 0 0
          0 0 0 0 0 0
          0 0 0 0 0 0
          0 0 0 0 0 0
          0 0 0 0 0 0
          0 0 0 0 0 0
          0 0 0 0 0 0
          0 0 0 0 0 0
          0 0 0 0 0 0
          0 0 0 0 0 0
          0 0 0 0 0 0
          0 0 0 0 0 0
          0
        </DataArray>
        <DataArray type="Float64" Name="initial_marker" format="ascii" RangeMin="0" RangeMax="2">
          0 0 0 1 0 0
          2 1 2 2 0 2
          2 2 1 0.25 2 2
          0 2 0 0.5 0 0
          2 1 0 0 0 0
          0 0 0 0 0 0
          0 0 0 0 0 0
          0 0 0 0 0 0
          0 0 1 1 2 2
          1 2 2 1 2 2
          2 0.5 2 1.5 0.5 2
          0 2 0 1.5 1.5 2
          2 2 2 2 2 2
          1 1 2 2 1 2
          2 0.75 2 2 2 2
          2 2 0 2 0 2
          0 1 0.75 2 2 2
          2 2 0 0.5 0 2
          0 0.5 0 0 0 0
          0 2 1.75 0.5 2 1.5
          2 2 2 1 1 2
          2 1.5 0 0 0 0
          0 0 0 0 0 0
          0 0 0 0 0 0
          1.5 1.5 0 2 1 2
          1 0 0 0 0 0
          0 0 0 0 0 0
          0 0 0 0 0 0
          0 0 0 0 0 0
          0 0 0 0 0 0
          0 0 0 0 0 0
          0 0 0 0 0 0
          0 0 0 0 0 0
          0 0 0 0 0 0
          0 0 0 0 0 0
          0 2 2 2 2 2
          2 2 2 2 2 2
          2 2 2 2 2 2
          2 2 2 2 2 2
          2 2 2 2 2 2
          2 2 2 2 2 2
          2 2 2 2 2 2
          2 2 2 2 2 2
          2 2 2 1.5 0 1
          1 2 2 2 2 2
          2 2 1 1.5 1.5 2
          2 1.5 1.75 1 1.5 0.5
          1.25 1 2 2 2 0
          1 0 1 0 1 1
          2 2 2 0 1 0
          1 0 1 1 2 2
          2 2 2 2 2 2
          2 2 2 2 2 2
          2 2 2 2 2 2
          2 2 2 2 2 2
          2 2 2 2 2 2
          2 2 2 2 2 2
          2 2 2 2 2 2
          2 2 2 2 2 2
          2 2 2 2 2 2
          2 2 2 2 2 2
          2 2 2 2 2 2
          2 2 2 2 2 2
          2 2 2 2 2 2
          2 2 2 2 2 2
          2 2 2 2 2 2
          2 2 2 1.75 2 2
          2 2 2 1.5 1.75 1
          1.5 1.25 2 2 2 2
          2 2 2 2 2 2
          2 2 2 2 2 2
          2 2 2 2 2 2
          2 2 2 2 2 2
          2 2 2 2 2 2
          2 2 2 1 1.5 0.5
          1.25 0 1 1 2 2
          2 0 1 0 1 0
          1 1 2 2 2 0
          0.75 0 0.5 0 0.5 0
          1.75 1.5 1.6666666666666667 0 0.5 0
          0.5 0 0 0 1.5 1.5
          1.3333333333333333 2 2 2 2 2
          2 2 2 2 2 2