<?xml version="1.0"?>
<VTKFile type="UnstructuredGrid" version="0.1" byte_order="LittleEndian" header_type="UInt32" compressor="vtkZLibDataCompressor">
  <UnstructuredGrid>
    <Piece NumberOfPoints="554" NumberOfCells="344">
      <PointData>
        <DataArray type="Int32" Name="libmesh_node_id" format="ascii" RangeMin="659" RangeMax="5000">
          678 1355 1356 1357 1358 1361
          1362 1363 2238 2320 2326 2327
          2328 2336 2337 2338 2339 2354
          2355 2356 2357 2359 2360 2361
          2362 2364 2365 2366 2367 2368
          2369 2370 2371 2372 2373 2394
          2395 2397 2422 2423 2426 2428
          2429 2431 4230 4231 4232 4233
          4234 4235 4236 4237 4238 4239
          4240 4241 4242 4243 4244 4245
          4246 4249 4251 4252 4253 4254
          4255 4256 4257 4258 4259 4260
          4261 4262 4263 4264 4268 4269
          4270 4274 4275 4277 4298 4299
          4300 4301 4302 4303 4304 4305
          4306 4307 4308 4309 4310 4311
          4312 4313 4314 4315 4316 4317
          4318 4319 4320 4321 4322 4323
          4324 4325 4326 4327 4328 4329
          4354 4356 4357 4358 4361 4362
          4376 4377 4379 4382 4384 4385
          4386 4387 4388 4389 4390 4391
          4392 4393 4401 4402 4403 4404
          4405 4406 4407 4410 4411 4413
          4416 4418 4419 4420 4421 4422
          4423 4424 4425 4426 4427 4435
          4436 4437 4438 4439 4440 4441
          4442 4443 4444 4445 4446 4447
          4448 4449 4450 4451 4452 4453
          4454 4455 4456 4457 4458 4459
          4460 4461 4462 4463 4464 4465
          4466 4467 4468 4469 4470 4471
          4472 4473 4474 4475 4476 4477
          4478 4479 4480 4481 4482 4483
          4484 4485 4486 4487 4488 4489
          4490 4491 4492 4493 4494 4495
          4496 4497 4498 4499 4500 4501
          4502 4503 4504 4505 4506 4507
          4508 4509 4513 4514 4515 4523
          4524 4525 4526 4527 4528 4529
          4530 4532 4533 4534 4537 4538
          4550 4552 4553 4554 4557 4558
          4604 4605 4606 4607 4608 4609
          4610 4611 4612 4613 4614 4615
          4618 4620 4621 4623 4624 4625
          4626 4627 4628 4629 4630 4631
          4633 4635 4637 4740 4741 4744
          4745 4747 4751 4823 4824 4825
          4826 4827 4828 4829 4830 4831
          4832 4833 4834 4837 4839 4840
          4842 4843 4844 4845 4846 4847
          4848 4849 4850 4852 4854 4856
          4857 4858 4859 4860 4861 4862
          4863 4864 4865 4866 4867 4868
          4871 4873 4874 4876 4877 4878
          4879 4880 4881 4882 4883 4884
          4886 4888 4890 4959 4960 4963
          4964 4966 4970 4987 4988 4991
          4992 4994 4998 659 2239 2090
          2178 2321 2179 1337 2240 2322
          2323 2241 1285 2324 2181 2325
          2329 2331 2334 2340 2194 1300
          2344 2198 2341 2345 2347 2351
          2358 2375 2374 2377 2376 2378
          2379 1364 2380 2381 2385 3733
          3753 3754 3756 1299 4247 4248
          3759 4250 2184 3739 3769 3771
          4265 3773 4266 4267 2330 4276
          4284 4285 2332 4286 4287 2333
          4295 4290 4296 4297 2335 4337
          4332 4338 4339 4359 4355 2348
          4360 4363 2352 4374 4375 4378
          4380 4381 4383 4395 4394 4399
          4398 4397 4408 4409 4412 4414
          4415 4417 4429 4428 4433 4432
          4431 2363 4511 4517 4519 4521
          4535 4531 4536 4539 2382 4555
          4551 4556 4559 2386 4576 4577
          2388 4578 4579 2389 4586 4587
          2390 4588 4616 4617 4589 2391
          4619 1365 4622 2396 4594 4595
          4596 2392 4601 4602 4632 4603
          2393 4634 4636 1366 4710 4711
          4712 4742 2408 4743 4746 2412
          4717 4718 4748 4719 4749 2409
          4750 4752 4753 2413 4835 4836
          4838 2424 4841 2425 4851 4853
          4855 2427 4869 4870 4872 1371
          4875 2430 4885 4887 4889 1372
          4961 4962 4965 2442 4967 4968
          4969 4971 4972 2443 4989 4990
          4993 2446 4995 4996 4997 4999
          5000 2447
        </DataArray>
        <DataArray type="Float64" Name="bounds" format="ascii" RangeMin="0" RangeMax="0">
          0 0 0 0 0 0
          0 0 0 0 0 0
          0 0 0 0 0 0
          0 0 0 0 0 0
          0 0 0 0 0 0
          0 0 0 0 0 0
          0 0 0 0 0 0
          0 0 0 0 0 0
          0 0 0 0 0 0
          0 0 0 0 0 0
          0 0 0 0 0 0
          0 0 0 0 0 0
          0 0 0 0 0 0
          0 0 0 0 0 0
          0 0 0 0 0 0
          0 0 0 0 0 0
          0 0 0 0 0 0
          0 0 0 0 0 0
          0 0 0 0 0 0
          0 0 0 0 0 0
          0 0 0 0 0 0
          0 0 0 0 0 0
          0 0 0 0 0 0
          0 0 0 0 0 0
          0 0 0 0 0 0
          0 0 0 0 0 0
          0 0 0 0 0 0
          0 0 0 0 0 0
          0 0 0 0 0 0
          0 0 0 0 0 0
          0 0 0 0 0 0
          0 0 0 0 0 0
          0 0 0 0 0 0
          0 0 0 0 0 0
          0 0 0 0 0 0
          0 0 0 0 0 0
          0 0 0 0 0 0
          0 0 0 0 0 0
          0 0 0 0 0 0
          0 0 0 0 0 0
          0 0 0 0 0 0
          0 0 0 0 0 0
          0 0 0 0 0 0
          0 0 0 0 0 0
          0 0 0 0 0 0
          0 0 0 0 0 0
          0 0 0 0 0 0
          0 0 0 0 0 0
          0 0 0 0 0 0
          0 0 0 0 0 0
          0 0 0 0 0 0
          0 0 0 0 0 0
          0 0 0 0 0 0
          0 0 0 0 0 0
          0 0 0 0 0 0
          0 0 0 0 0 0
          0 0 0 0 0 0
          0 0 0 0 0 0
          0 0 0 0 0 0
          0 0 0 0 0 0
          0 0 0 0 0 0
          0 0 0 0 0 0
          0 0 0 0 0 0
          0 0 0 0 0 0
          0 0 0 0 0 0
          0 0 0 0 0 0
          0 0 0 0 0 0
          0 0 0 0 0 0
          0 0 0 0 0 0
          0 0 0 0 0 0
          0 0 0 0 0 0
          0 0 0 0 0 0
          0 0 0 0 0 0
          0 0 0 0 0 0
          0 0 0 0 0 0
          0 0 0 0 0 0
          0 0 0 0 0 0
          0 0 0 0 0 0
          0 0 0 0 0 0
          0 0 0 0 0 0
          0 0 0 0 0 0
          0 0 0 0 0 0
          0 0 0 0 0 0
          0 0 0 0 0 0
          0 0 0 0 0 0
          0 0 0 0 0 0
          0 0 0 0 0 0
          0 0 0 0 0 0
          0 0 0 0 0 0
          0 0 0 0 0 0
          0 0 0 0 0 0
          0 0 0 0 0 0
          0 0
        </DataArray>
        <DataArray type="Float64" Name="gradient_error" format="ascii" RangeMin="2.6603240516508563e-10" RangeMax="2.0129903393724155e-7">
          5.438179621967437e-8 6.940706282505062e-8 2.0129903393724155e-7 5.0486826309141864e-8 2.120384340375292e-8 8.606122593769547e-9
          1.5762445858356693e-7 5.309350795007195e-8 1.619034303718996e-7 1.0757087152811431e-7 6.707079956992854e-8 1.022494320101617e-7
          1.3218470779625632e-7 6.35517247246336e-8 8.931455232697618e-8 4.556905861470901e-8 1.0393823694869635e-7 4.6451866780995335e-8
          7.81681352510119e-8 5.412177449831515e-8 8.696723863273747e-8 1.7010011287667818e-7 1.2358044378640243e-8 6.615219970785345e-8
          7.785236222320283e-8 6.846075949422074e-8 8.703899341948096e-8 6.231905334019037e-8 7.204005505441611e-8 1.2719817494525655e-7
          4.2497948013095504e-8 3.023200105730986e-8 8.814783516993782e-8 7.928926041079074e-8 1.5103167260337717e-7 3.387317369139815e-8
          2.846913112723986e-8 1.1948289027861837e-8 4.468328137572078e-8 5.042882048950455e-8 2.4829830730927696e-8 4.2398009520502705e-8
          5.683517631680099e-8 3.153696658991363e-8 5.414964486600979e-8 5.323545802548053e-8 5.266626000826848e-8 4.857516832789574e-8
          5.108291624953635e-8 5.0545014579258494e-8 4.6645381294008654e-8 5.000711290898064e-8 3.9455175976833346e-8 3.964938345715293e-8
          3.4081286482826486e-8 5.789186520000961e-8 5.724021837307061e-8 5.856343672021748e-8 5.7603635888497894e-8 5.422070227975126e-8
          5.495218479619038e-8 6.722579731595515e-8 5.8010984612404064e-8 5.671556499155958e-8 5.612226655787697e-8 5.448590645264162e-8
          5.5420145370715086e-8 5.284954634740627e-8 6.910695084512824e-8 6.907879823080612e-8 6.913360481595462e-8 7.083206818483858e-8
          4.666331126071353e-8 4.630266106152423e-8 4.147378950805614e-8 4.1036437848034e-8 7.129524199638511e-8 6.9167896057138e-8
          6.819557067122247e-8 4.1941711492867114e-8 4.139661999660274e-8 4.085152850033836e-8 5.269792625591205e-8 5.075448872366342e-8
          4.7634449612699485e-8 4.5691498270089527e-8 4.881105119141479e-8 4.0427895971718665e-8 6.760296369811894e-8 6.71493598042068e-8
          6.31079981654755e-8 6.828486853967393e-8 4.1399233038594014e-8 3.971610711904293e-8 3.4701090038625506e-8 3.3195398229599446e-8
          3.435713343345771e-8 2.8258081299339905e-8 5.763822914660433e-8 5.733699464302474e-8 5.0025460674269885e-8 5.3097806900147645e-8
          2.9151680276712365e-8 1.870659300769774e-8 6.472977568034024e-8 5.073277839854809e-8 5.799645756224798e-8 2.604505727969895e-8
          2.052829385869167e-8 1.648564826818396e-8 1.255077121261067e-8 4.165768270748858e-8 3.4470502440779725e-8 2.643790524013878e-8
          1.0713406152633557e-8 1.7100117549247757e-8 9.161013106595337e-9 6.5399447431190194e-9 1.4918247233282774e-8 1.109733903224497e-8
          7.015091856352163e-8 7.345147158992646e-8 7.636968284298569e-8 6.023448839888863e-8 7.44589043732147e-8 7.787677945013792e-8
          7.66050360889652e-8 7.985554576571426e-8 8.00725774991527e-8 8.137413496941963e-8 4.907058511911326e-8 6.388211536018775e-8
          6.917952915041574e-8 8.293169198618051e-8 7.64331402380839e-8 7.574187831586413e-8 7.401578000492353e-8 7.184154213535235e-8
          8.45332573209474e-8 8.674316146487182e-8 7.49348622125848e-8 1.760648959866941e-8 3.8709376523301766e-8 7.143771486543773e-8
          3.1942136565496235e-8 1.5736935595334423e-8 3.9447847804087217e-8 1.8723234063951884e-8 4.4968300017126344e-8 7.640396097220876e-8
          8.249772161309351e-8 8.97566098388703e-9 3.161354273032322e-8 3.534785524421508e-8 7.12581796093288e-8 8.699169460790414e-8
          9.167234420668277e-8 7.484416484919177e-8 8.01805472864773e-8 8.648791305369615e-8 9.217422605821213e-8 7.720403104881861e-8
          7.609991944295565e-8 7.907640608639387e-8 7.288437721016838e-8 7.54238309165347e-8 8.025118685244843e-8 7.651325445182285e-8
          6.167624486111369e-8 7.505694176113066e-8 7.789324605976205e-8 8.901786396990134e-8 6.701957082780436e-8 6.922562135941346e-8
          5.92117216048651e-8 6.128364331681541e-8 7.013310672415065e-8 6.146091001009599e-8 6.889774538944104e-8 7.480024150931637e-8
          6.685051259658456e-8 8.093130112432745e-8 7.243098556508883e-8 6.690963465785636e-8 6.641249015511286e-8 4.9183688223850716e-8
          8.531161052189167e-8 8.065231333568773e-8 8.102513176512826e-8 5.949786104334104e-8 5.0372091706358e-8 3.893962666923485e-8
          3.186861532251324e-8 7.346699983711879e-8 6.37967310438456e-8 5.096132941686114e-8 2.9031891024328722e-8 5.513643599623868e-8
          4.472037232598881e-8 6.556913157976641e-8 8.812867443200406e-8 8.957074036900462e-8 1.515934483506048e-8 4.412543848531434e-8
          5.583418649336396e-8 8.468197876083708e-8 5.6444292113922344e-8 7.032331247251076e-8 5.8786996248640415e-8 6.73799360665472e-8
          8.570497803132037e-8 7.767729387864135e-8 4.5933555193776846e-8 6.464618110001176e-8 6.583073726881057e-8 8.630613269380317e-8
          9.200886663190704e-8 8.823194343808348e-8 8.90013653679546e-8 7.095797671603092e-8 9.35267076698682e-8 9.045762626398816e-8
          9.078098995363041e-8 8.162525714141329e-8 7.20729756371577e-8 5.935109071875621e-8 5.0269969947177335e-8 8.426295927581381e-8
          7.479746233956364e-8 6.233443454782956e-8 5.598560938578587e-8 5.360100190420262e-8 5.0960184675409335e-8 5.8785879663188766e-8
          5.671590801452911e-8 5.221765691222478e-8 5.20153964845849e-8 6.158614994059166e-8 5.983081412485561e-8 5.347512914904023e-8
          2.5456791874419283e-8 3.3125774649189856e-8 2.222200210548346e-8 1.667737983641111e-8 2.9154426812299042e-8 2.224509703221772e-8
          3.923398362503426e-8 4.201844384861267e-8 3.452769011282671e-8 2.6425180759704014e-8 3.6789834434166795e-8 2.798779856409615e-8
          2.7883778067998292e-8 2.6573049757482594e-8 2.1329719129173745e-8 2.027985847529796e-8 2.2377236238317684e-8 1.692375952560536e-8
          4.246035397364428e-8 4.163583095565648e-8 3.2850475508773e-8 3.6952573514588437e-8 1.5574084761587124e-8 1.4745236152304714e-8
          1.2143932195752046e-8 2.5286863281985675e-8 2.435628638844448e-8 2.0795533238618058e-8 1.5920935884764103e-8 1.179795126192617e-8
          9.387410691877101e-9 6.728924459677159e-9 2.721130284324653e-8 2.0489139785580575e-8 1.6289003611175097e-8 8.268676077294346e-9
          4.573115091475958e-9 1.4669656767634024e-8 8.30110716350305e-9 4.650491723732893e-9 3.201907855113996e-9 8.12161755195133e-9
          5.710943592673024e-9 2.1120232848880886e-9 3.821821547243252e-9 5.093743304797638e-8 5.255957880431174e-8 4.3056063422449055e-8
          4.365784580127219e-8 5.1388175773785e-8 4.0890384117077146e-8 5.285280875682634e-8 5.714263173427696e-8 4.830375695978362e-8
          6.148034346362467e-8 3.440766447479077e-8 3.410833607786359e-8 3.061162010081052e-8 3.839669912763086e-8 4.020175733250665e-8
          3.918745171603595e-8 4.046160565911767e-8 3.089062937962066e-8 2.4760207279722805e-8 1.8380675925034802e-8 5.242771526655727e-8
          4.0792374608000057e-8 3.3247523383112245e-8 2.2389577146396382e-8 1.2980398350036608e-8 2.9941407293935445e-8 1.768331164111557e-8
          5.256775582127013e-8 5.8674903382003925e-8 4.307549686145387e-8 4.885557220827376e-8 6.685348602776991e-8 5.542472142484227e-8
          5.192588185247307e-8 5.891546541423034e-8 4.8765222304987525e-8 6.849649586830901e-8 3.743306238569946e-8 4.161801383655392e-8
          4.4253970019024834e-8 3.6371858188885215e-8 4.1452173015584055e-8 4.573326559484658e-8 6.023354451020256e-8 4.761417961034218e-8
          3.961473849919518e-8 2.970437479214961e-8 6.285404523812912e-8 4.997773235126954e-8 4.19968973913447e-8 3.540977877717224e-8
          2.121343157945569e-8 3.737953865010671e-8 2.2527701801779705e-8 1.2428123962979582e-8 8.888917742559365e-9 1.676828839288249e-8
          1.2116561941668612e-8 6.0355730665173664e-9 8.32222362922582e-9 2.0041699661844733e-8 1.4553442701148099e-8 2.126175377372272e-8
          1.54635521981444e-8 1.0061337439325013e-8 1.07126856950834e-8 1.6918624662161782e-7 1.3547449675590664e-7 1.5943692104107179e-7
          1.1961097200699115e-7 1.2956547409329817e-7 1.0371493005585064e-7 9.866262894118062e-8 7.664810459273177e-8 9.043277110742737e-8
          1.4548503441352784e-7 7.934809275724382e-8 1.053594058522772e-7 1.2840683881650401e-7 1.0685079162924997e-7 1.4268875132667677e-7
          1.947958953240211e-7 7.533453792859949e-8 6.876763837601584e-8 7.063405519162099e-8 8.738613505674665e-8 1.2981742098908338e-7
          1.6499885576119715e-7 1.4815094618833092e-7 5.3958519082494116e-8 1.3220324430782286e-7 2.4483077046224192e-8 6.179643191998114e-8
          1.4215479652190112e-7 1.6906248824663742e-7 1.6054242030600028e-7 5.924979089702097e-8 1.2037417882921998e-7 9.854982412386906e-8
          1.5801322834961624e-7 8.541098080230745e-8 1.4308794156101474e-7 1.0582692901665859e-7 1.261692485074791e-7 5.2899119529522426e-8
          5.61841870380979e-8 5.57878228033906e-8 5.358472103705271e-8 5.9137264204186874e-8 6.36169042643637e-8 6.394270425712012e-8
          5.977199452806442e-8 6.403242926795764e-8 6.089915153191366e-8 3.938844378854518e-8 4.7031473834368535e-8 4.228496416331496e-8
          6.128760641375676e-8 5.97879235377485e-8 6.501683343863442e-8 5.877885854147475e-8 5.164006222229681e-8 2.847039444235354e-8
          2.2707377175524947e-8 2.1661269289849944e-8 1.892480509197075e-8 1.7926355585198356e-8 1.8697151692514726e-8 1.4964912596857326e-8
          1.4145205438681751e-8 1.6148932636556827e-8 1.0703390071435015e-8 8.930998051033725e-9 6.489115914897066e-9 5.017987068056308e-9
          6.022141928006005e-9 3.3941923346624996e-9 2.57514220778763e-9 4.692815485959715e-9 5.773060979882762e-9 1.6047832973893013e-9
          3.0212595120469842e-9 7.628008084556839e-9 5.099908701027734e-9 6.448553977019713e-8 6.738143106833355e-8 7.080342499523962e-8
          4.5754162900109943e-8 5.7317009310136815e-8 7.238591692665736e-8 7.473932983804953e-8 7.131564471207607e-8 8.006755261711677e-8
          7.465437806044173e-8 7.349131860645896e-8 2.305088434764953e-8 4.023851812755344e-8 6.633280445443425e-8 1.7964799440755448e-8
          3.3965449977920833e-8 6.130200274172454e-8 8.068245485971136e-8 7.426725720422007e-8 7.966118333628438e-8 7.315328142878905e-8
          7.372711898026568e-8 7.586531277050527e-8 5.933557300427365e-8 6.14673205567668e-8 5.3782146589483565e-8 6.359906810925994e-8
          1.1352458850588992e-8 1.3679141378743493e-8 7.670805524350188e-9 1.4926666398299427e-8 1.0219677832481197e-8 1.7668321855937182e-8
          2.1177828901965192e-8 1.2130934733711288e-8 1.8810430865539703e-8 1.2851905668572508e-8 1.494858734135412e-8 1.4090374628939313e-8
          1.1237187923837132e-8 1.0540240330396897e-8 1.1580788318157096e-8 8.534600583957907e-9 7.974512999894368e-9 7.4389992815694625e-9
          5.291436756481953e-9 4.914170380982926e-9 1.0763552298459623e-8 1.0119658329426758e-8 5.933901029575517e-9 3.875541170928169e-9
          8.18146659065415e-9 1.7816949600016898e-8 1.707966453425602e-8 1.4385127706354132e-8 8.03852373320926e-9 5.779916265733059e-9
          4.672786124408132e-9 3.2560921671705568e-9 3.937121908516435e-9 2.532989541741688e-9 5.4380000017695466e-9 2.168307039859194e-9
          1.372560037178124e-9 2.9364587377167662e-9 9.9019721174221e-9 5.423230099334806e-9 2.334014454765647e-9 1.57232207063776e-9
          1.0486779532204092e-9 2.0275170814109773e-9 6.822113148198068e-10 1.341382912397107e-9 3.4933449031065225e-9 2.3442581840704533e-9
          1.0223542193671544e-9 6.373915992250088e-10 1.3280000584183101e-9 4.333106731786679e-10 8.607515327570472e-10 2.6603240516508563e-10
          5.318427338113355e-10 2.426383662341198e-9 1.5182789385768123e-9 9.427990471414716e-10 2.500543501512699e-8 2.4495031948472745e-8
          2.150911764604176e-8 3.025441229139371e-8 3.053083717028234e-8 2.8104228046319895e-8 1.53716043118814e-8 8.634827520518292e-9
          2.0738183839911742e-8 1.1915915173678337e-8 3.219792344582296e-8 3.3661061592112687e-8 3.2614792031962396e-8 3.236356287785035e-8
          3.441805735873841e-8 3.415975062693635e-8 2.4710922363523688e-8 1.4383312027345467e-8 2.6181028677999787e-8 1.530128869462464e-8
          5.335448708602156e-9 3.623976215459697e-9 7.202453529065493e-9 4.943855834951299e-9 3.87068362822561e-9 2.365703150574657e-9
          1.47641977894304e-9 5.389393496472294e-9 3.248396717804729e-9 2.035631764230217e-9 8.607324997459864e-9 5.951063220241846e-9
          9.131145287793584e-9 6.3289367387380986e-9 6.562101200911558e-9 3.928674561935635e-9 2.468330888032436e-9 7.004261221965773e-9
          4.185451505411479e-9 2.6321027675065085e-9
        </DataArray>
        <DataArray type="Float64" Name="gradient_matprop_error" format="ascii" RangeMin="0" RangeMax="0">
          0 0 0 0 0 0
          0 0 0 0 0 0
          0 0 0 0 0 0
          0 0 0 0 0 0
          0 0 0 0 0 0
          0 0 0 0 0 0
          0 0 0 0 0 0
          0 0 0 0 0 0
          0 0 0 0 0 0
          0 0 0 0 0 0
          0 0 0 0 0 0
          0 0 0 0 0 0
          0 0 0 0 0 0
          0 0 0 0 0 0
          0 0 0 0 0 0
          0 0 0 0 0 0
          0 0 0 0 0 0
          0 0 0 0 0 0
          0 0 0 0 0 0
          0 0 0 0 0 0
          0 0 0 0 0 0
          0 0 0 0 0 0
          0 0 0 0 0 0
          0 0 0 0 0 0
          0 0 0 0 0 0
          0 0 0 0 0 0
          0 0 0 0 0 0
          0 0 0 0 0 0
          0 0 0 0 0 0
          0 0 0 0 0 0
          0 0 0 0 0 0
          0 0 0 0 0 0
          0 0 0 0 0 0
          0 0 0 0 0 0
          0 0 0 0 0 0
          0 0 0 0 0 0
          0 0 0 0 0 0
          0 0 0 0 0 0
          0 0 0 0 0 0
          0 0 0 0 0 0
          0 0 0 0 0 0
          0 0 0 0 0 0
          0 0 0 0 0 0
          0 0 0 0 0 0
          0 0 0 0 0 0
          0 0 0 0 0 0
          0 0 0 0 0 0
          0 0 0 0 0 0
          0 0 0 0 0 0
          0 0 0 0 0 0
          0 0 0 0 0 0
          0 0 0 0 0 0
          0 0 0 0 0 0
          0 0 0 0 0 0
          0 0 0 0 0 0
          0 0 0 0 0 0
          0 0 0 0 0 0
          0 0 0 0 0 0
          0 0 0 0 0 0
          0 0 0 0 0 0
          0 0 0 0 0 0
          0 0 0 0 0 0
          0 0 0 0 0 0
          0 0 0 0 0 0
          0 0 0 0 0 0
          0 0 0 0 0 0
          0 0 0 0 0 0
          0 0 0 0 0 0
          0 0 0 0 0 0
          0 0 0 0 0 0
          0 0 0 0 0 0
          0 0 0 0 0 0
          0 0 0 0 0 0
          0 0 0 0 0 0
          0 0 0 0 0 0
          0 0 0 0 0 0
          0 0 0 0 0 0
          0 0 0 0 0 0
          0 0 0 0 0 0
          0 0 0 0 0 0
          0 0 0 0 0 0
          0 0 0 0 0 0
          0 0 0 0 0 0
          0 0 0 0 0 0
          0 0 0 0 0 0
          0 0 0 0 0 0
          0 0 0 0 0 0
          0 0 0 0 0 0
          0 0 0 0 0 0
          0 0 0 0 0 0
          0 0 0 0 0 0
          0 0 0 0 0 0
          0 0
        </DataArray>
        <DataArray type="Float64" Name="initial_marker" format="ascii" RangeMin="2" RangeMax="2">
          2 2 2 2 2 2
          2 2 2 2 2 2
          2 2 2 2 2 2
          2 2 2 2 2 2
          2 2 2 2 2 2
          2 2 2 2 2 2
          2 2 2 2 2 2
          2 2 2 2 2 2
          2 2 2 2 2 2
          2 2 2 2 2 2
          2 2 2 2 2 2
          2 2 2 2 2 2
          2 2 2 2 2 2
          2 2 2 2 2 2
          2 2 2 2 2 2
          2 2 2 2 2 2
          2 2 2 2 2 2
          2 2 2 2 2 2
          2 2 2 2 2 2
          2 2 2 2 2 2
          2 2 2 2 2 2
          2 2 2 2 2 2
          2 2 2 2 2 2
          2 2 2 2 2 2
          2 2 2 2 2 2
          2 2 2 2 2 2
          2 2 2 2 2 2
          2 2 2 2 2 2
          2 2 2 2 2 2
          2 2 2 2 2 2
          2 2 2 2 2 2
          2 2 2 2 2 2
          2 2 2 2 2 2
          2 2 2 2 2 2
          2 2 2 2 2 2
          2 2 2 2 2 2
          2 2 2 2 2 2
          2 2 2 2 2 2
          2 2 2 2 2 2
          2 2 2 2 2 2
          2 2 2 2 2 2
          2 2 2 2 2 2
          2 2 2 2 2 2
          2 2 2 2 2 2
          2 2 2 2 2 2
          2 2 2 2 2 2
          2 2 2 2 2 2
          2 2 2 2 2 2
          2 2 2 2 2 2
          2 2 2 2 2 2
          2 2 2 2 2 2
          2 2 2 2 2 2
          2 2 2 2 2 2
          2 2 2 2 2 2
          2 2 2 2 2 2
          2 2 2 2 2 2
          2 2 2 2 2 2
          2 2 2 2 2 2
          2 2 2 2 2 2
          2 2 2 2 2 2
          2 2 2 2 2 2
          2 2 2 2 2 2
          2 2 2 2 2 2
          2 2 2 2 2 2
          2 2 2 2 2 2
          2 2 2 2 2 2
          2 2 2 2 2 2
          2 2 2 2 2 2
          2 2 2 2 2 2
          2 2 2 2 2 2
          2 2 2 2 2 2
          2 2 2 2 2 2
          2 2 2 2 2 2
          2 2 2 2 2 2
          2 2 2 2 2 2
          2 2 2 2 2 2
          2 2 2 2 2 2
          2 2 2 2 2 2
          2 2 2 2 2 2
          2 2 2 2 2 2
          2 2 2 2 2 2
          2 2 2 2 2 2
          2 2 2 2 2 2
          2 2 2 2 2 2
          2 2 2 2 2 2
          2 2 2 2 2 2
          2 2 2 2 2 2
          2 2 2 2 2 2
          2 2 2 2 2 2
          2 2 2 2 2 2
          2 2 2 2 2 2
          2 2 2 2 2 2
          2 2
        </DataArray>
        <DataArray type="Float64" Name="markers_norefine" format="ascii" RangeMin="0" RangeMax="2">
          2 2 0 1 0 2
          1 0 0 0 2 1.5
          1.5 1.5 0.75 0.25 0 2
          2 2 2 1 2 2
          2 2 2 2 1.75 0.5
          0 2 2 2 1 0
          0 0 1.5 0.25 0 2
          1 0 0 0 0 0
          0 0 0 0 0 0
          0 1 1 1 1 0.75
          0.6666666666666666 2 1 1 1 1
          1 1 2 2 2 2
          0.25 0 0 0 1 1
          0 0 0 0 1 0.75
          0.5 0.25 0.5 0 2 1.75
          1.25 1.6666666666666667 0 0 0 0
          0 0 1 1 0.75 0.5
          0 0 1 0.3333333333333333 0 0
          0 0 0 0 0 0
          0 0 0 0 0 0
          2 2 2 2 2 2
          2 2 2 2 2 2
          2 2 1.5 1.5 1 1
          2 2 1.3333333333333333 2 2 2
          2 2 2 2 2 2
          2 2 2 2 2 2
          2 1.25 1.3333333333333333 2 2 1.5
          2 2 2 2 2 1.75
          2 2 2 2 2 2
          2 1.75 1.5 1 2 2
          2 2 1.25 0.75 0.5 0
          1.75 1.5 1.5 0.5 0.25 0
          0 1.25 0.75 0.25 2 2
          2 2 2 2 2 2
          2 2 2 2 2 2
          2 2 2 2 2 2
          2 2 2 1.3333333333333333 2 2
          2 1.5 1 0.5 0 1.5
          1 0.5 0 0 0 0.25
          0 0 0 0.5 0 0
          0 0 0 0 0 0
          0 0 0 0 0 0
          0 0 0 0 0 0
          0.5 0.25 0 0 0 0
          0 0 0 0 0 0
          0 0 0 0 0 0
          0 0 0 0 0 0
          0 0 0 1.5 1 0.5
          0.25 0.25 0 2 1.75 1
          1 0 0 0 0.5 0.25
          0 0 0 0 0 0.25
          0 0 0 0 0 0
          2 2 2 1.75 1.5 0.75
          2 2 2 1.5 1 0.75
          0.25 1 1 0.5 0.5 0
          0 0 0.5 0 0 0
          0 0 0 0 0 0
          0 0 0 0 0 0
          0 0 0 0 0 0
          0 0 0 0 0 0
          0 0 0 0 0 0
          0.25 0 0 0 0 0.5
          0 0 0 0 0 0
          1.25 0 0 0 0 0
          0 0 0 0 0 0
          1 1 1 2 2 2
          2 1.75 2 0 0.5 0
          1.25 1.5 1 1 0 0
          0 0 0 0 0 0
          0 0 0 0 0 0
          0 0 0 0 0 0
          0 0 0 2 2 2
          2 2 2 1.75 2 2
          2 1.5 2 2 2 2
          2 2 2 2 2 2
          1.75 2 0.5 0.75 0 1
          0 0 0 0 0 0
          0 0 0 0 0 0
          0 0 0 0 0 0
          0 0 0 0 0 0
          0 0 0 0 0 0
          0 0 0 0 0 0
          0 0 0 0 0 0
          0 0 0 0 0 0
          0 0 0 0 0 0
          0 0 0 0 0 0
          0 0 0 0 0 0
          0 0 0 0 0 0
          0 0 0 0 0 0
          0 0 0 0 0 0
          0 0 0 0 0 0
          0 0 0 0 0 0
          0 0
        </DataArray>
        <DataArray type="Float64" Name="markers_mustrefine" format="ascii" RangeMin="2" RangeMax="2">
          2 2 2 2 2 2
          2 2 2 2 2 2
          2 2 2 2 2 2
          2 2 2 2 2 2
          2 2 2 2 2 2
          2 2 2 2 2 2
          2 2 2 2 2 2
          2 2 2 2 2 2
          2 2 2 2 2 2
          2 2 2 2 2 2
          2 2 2 2 2 2
          2 2 2 2 2 2
          2 2 2 2 2 2
          2 2 2 2 2 2
          2 2 2 2 2 2
          2 2 2 2 2 2
          2 2 2 2 2 2
          2 2 2 2 2 2
          2 2 2 2 2 2
          2 2 2 2 2 2
          2 2 2 2 2 2
          2 2 2 2 2 2
          2 2 2 2 2 2
          2 2 2 2 2 2
          2 2 2 2 2 2
          2 2 2 2 2 2
          2 2 2 2 2 2
          2 2 2 2 2 2
          2 2 2 2 2 2
          2 2 2 2 2 2
          2 2 2 2 2 2
          2 2 2 2 2 2
          2 2 2 2 2 2
          2 2 2 2 2 2
          2 2 2 2 2 2
          2 2 2 2 2 2
          2 2 2 2 2 2
          2 2 2 2 2 2
          2 2 2 2 2 2
          2 2 2 2 2 2
          2 2 2 2 2 2
          2 2 2 2 2 2
          2 2 2 2 2 2
          2 2 2 2 2 2
          2 2 2 2 2 2
          2 2 2 2 2 2
          2 2 2 2 2 2
          2 2 2 2 2 2
          2 2 2 2 2 2
          2 2 2 2 2 2
          2 2 2 2 2 2
          2 2 2 2 2 2
          2 2 2 2 2 2
          2 2 2 2 2 2
          2 2 2 2 2 2
          2 2 2 2 2 2
          2 2 2 2 2 2
          2 2 2 2 2 2
          2 2 2 2 2 2
          2 2 2 2 2 2
          2 2 2 2 2 2
          2 2 2 2 2 2
          2 2 2 2 2 2
          2 2 2 2 2 2
          2 2 2 2 2 2
          2 2 2 2 2 2
          2 2 2 2 2 2
          2 2 2 2 2 2
          2 2 2 2 2 2
          2 2 2 2 2 2
          2 2 2 2 2 2
          2 2 2 2 2 2
          2 2 2 2 2 2
          2 2 2 2 2 2
          2 2 2 2 2 2
          2 2 2 2 2 2
          2 2 2 2 2 2
          2 2 2 2 2 2
          2 2 2 2 2 2
          2 2 2 2 2 2
          2 2 2 2 2 2
          2 2 2 2 2 2
          2 2 2 2 2 2
          2 2 2 2 2 2
          2 2 2 2 2 2
          2 2 2 2 2 2
          2 2 2 2 2 2
          2 2 2 2 2 2
          2 2 2 2 2 2
          2 2 2 2 2 2
          2 2 2 2 2 2
          2 2 2 2 2 2
          2 2
        </DataArray>
        <DataArray type="Float64" Name="gradient_marker" format="ascii" RangeMin="0" RangeMax="1">
          1 0 0.625 1 1 0
          0.25 1 1 0.5 0 0.125
          0.25 0.5 0.625 1 0.75 0
          0 0 0 0.375 0 0
          0 0.5 0.5 1 1 0.75
          1 0.5 0.5 1 0.75 1
          1 1 1 1 1 1
          1 1 0 0 0 0
          0 0 0 0 0 0
          0 0 0 0 0 0
          0 0 0 0 0 0
          0 0 0 0 0 0
          0 0 0 0 0 0
          0 0 0 0 0 0
          0.5 0.5 0 0.6666666666666666 0 0
          0.5 0 1 1 1 1
          1 1 1 1 1 1
          1 1 0 0.6666666666666666 0 1
          1 1 1 1 1 1
          1 1 1 1 1 1
          0 0 0 0 0 0
          0 0 0 0 0 0
          0 0 0 0 0 0
          0 0 0 0 0 0
          0 0 0 0 0 0
          0 0 0 0 0 0
          0 0 0 0 0 0
          0 0 0.5 0.5 0 0.5
          0 0 0.5 0 1 1
          1 1 1 1 1 1
          1 1 0 0.5 0 0.6666666666666666
          0 0.5 0 1 1 1
          1 1 1 1 0 0
          0.5 0.5 0 0.5 0 0
          0.5 0 1 1 1 1
          1 1 1 1 1 1
          0 0.5 0 0.6666666666666666 0 0.5
          0 1 1 1 1 1
          1 1 0 0 0 0
          0 0 0 0 0 0
          1 1 1 1 1 1
          1 1 1 1 1 1
          1 1 1 1 1 1
          1 1 1 1 1 1
          1 1 1 1 1 1
          1 1 1 1 1 1
          1 1 1 1 1 1
          1 1 1 1 1 1
          1 1 1 1 1 1
          1 1 1 1 1 1
          1 1 1 1 1 1
          1 1 1 1 1 1
          1 1 1 1 1 1
          1 1 1 1 1 1
          1 1 1 1 1 1
          1 1 1 1 1 1
          1 1 1 1 1 1
          1 1 1 1 1 1
          1 1 1 0.75 0.5 0.75
          0.5 0.375 0.375 0.25 0.16666666666666666 0.25
          0.375 0 0.25 0.375 0.375 0.375
          0.625 0.625 0.625 0.25 0.25 0.375
          0.5 0.5 0.125 0.375 0.5 0.625
          0.25 0.375 0.375 0 0.25 0.25
          0.25 0 0.5 0.75 0.75 0
          0 0 0 0 0 0
          0 0 0 0 0 0
          0 0 0 0 0.5 0.6666666666666666
          1 1 1 1 1 1
          1 1 1 1 1 1
          1 1 1 1 1 1
          1 1 1 0 0 0
          0 0 0 0 0 0