<?xml version="1.0"?>
<VTKFile type="UnstructuredGrid" version="0.1" byte_order="LittleEndian" header_type="UInt32" compressor="vtkZLibDataCompressor">
  <UnstructuredGrid>
    <Piece NumberOfPoints="573" NumberOfCells="350">
      <PointData>
        <DataArray type="Int32" Name="libmesh_node_id" format="ascii" RangeMin="426" RangeMax="5503">
          426 680 1365 1366 1367 1368
          1369 1370 1371 1372 1373 1374
          1385 1386 1389 1390 1392 1393
          1394 2396 2404 2405 2406 2407
          2408 2409 2410 2411 2412 2413
          2414 2415 2416 2417 2419 2420
          2421 2424 2425 2427 2430 2432
          2433 2434 2435 2436 2437 2438
          2439 2440 2441 2442 2443 2444
          2445 2446 2447 2448 2449 2450
          2451 2452 2453 2454 2455 2470
          2471 2472 2473 2474 2475 2476
          2477 2478 2479 2480 2481 2482
          2483 2484 2485 2486 2487 2488
          2489 2510 2511 2513 2529 2535
          2537 2538 2539 2542 2544 2545
          2547 2558 2560 2562 2564 2732
          2733 2734 2737 2738 2739 2742
          2743 2790 2791 2792 2793 2794
          2795 2796 2797 2798 2799 4622
          4632 4634 4636 4678 4679 4680
          4681 4688 4689 4690 4691 4692
          4693 4694 4695 4696 4697 4698
          4699 4700 4701 4702 4703 4704
          4705 4719 4728 4737 4738 4739
          4743 4748 4749 4750 4752 4753
          4755 4757 4759 4761 4762 4763
          4764 4765 4766 4767 4774 4781
          4789 4790 4791 4792 4793 4794
          4795 4796 4797 4798 4799 4800
          4801 4802 4803 4804 4805 4806
          4807 4808 4809 4810 4811 4812
          4813 4814 4815 4816 4817 4818
          4819 4820 4821 4822 4835 4836
          4838 4841 4851 4853 4855 4869
          4870 4872 4875 4885 4887 4889
          4891 4892 4893 4894 4895 4896
          4897 4898 4899 4900 4901 4902
          4903 4904 4905 4906 4907 4908
          4909 4910 4911 4912 4913 4914
          4915 4916 4917 4918 4919 4920
          4921 4922 4923 4924 4925 4926
          4927 4928 4929 4930 4931 4932
          4933 4934 4935 4936 4937 4938
          4939 4940 4941 4942 4943 4944
          4945 4946 4947 4948 4949 4950
          4951 4952 4953 4954 4955 4956
          4957 4958 4962 4967 4968 4969
          4971 4972 4974 4976 4978 4980
          4981 4982 4983 4984 4985 4986
          4990 4995 4996 4997 4999 5000
          5002 5004 5006 5008 5009 5010
          5011 5012 5013 5014 5015 5016
          5017 5018 5019 5020 5021 5022
          5023 5024 5025 5026 5027 5028
          5029 5030 5031 5032 5033 5034
          5035 5036 5037 5038 5039 5040
          5041 5042 5043 5044 5045 5046
          5047 5048 5049 5050 5051 5052
          5053 5054 5055 5056 5057 5058
          5059 5060 5061 5062 5063 5064
          5065 5066 5067 5068 5069 5070
          5097 5098 5101 5103 5105 5106
          5107 5108 5109 5110 5111 5112
          5113 5114 5116 5118 5120 5122
          5123 5124 5125 5126 5127 5128
          5129 5130 5131 5132 5133 5134
          5135 5136 5137 5138 5210 5211
          5212 5213 5224 5225 5226 5227
          5228 5229 5230 5281 5282 5283
          5284 5285 5286 5287 5288 5299
          5300 5301 5302 5303 5304 5305
          5306 5307 5308 5309 5310 5311
          5312 5313 5314 5315 5316 5317
          5318 5329 5330 5331 5332 5333
          5334 5335 5343 5344 5345 5346
          5347 5348 5349 5350 5351 5352
          5363 5364 5365 5366 5367 5368
          5369 5452 5453 5454 5455 5456
          5457 5458 5466 5467 5468 5469
          5470 5471 5472 5473 5474 5475
          5476 5477 5478 5479 5487 5488
          5489 5490 5491 5492 5493 5494
          5495 5496 5497 5498 5499 5500
          5501 5502 5503 1387 677 1388
          1391 535 1757 1761 1763 1765
          2531 2534 2533 2536 1413 2559
          2561 2740 2741 2744 2418 2784
          2786 2788 2789 1418 5231 5233
          5235 5237 5290 5296 5294 5298
          5220 5221 5319 5320 5223 5323
          5325 5326 5328 5336 5338 5340
          5342 5353 5354 5357 5359 5360
          5362 5370 5372 5374 5376 5459
          5461 5463 5465 5480 5482 5484
          5486 5483 2563
        </DataArray>
        <DataArray type="Float64" Name="bounds" format="ascii" RangeMin="0" RangeMax="0">
          0 0 0 0 0 0
          0 0 0 0 0 0
          0 0 0 0 0 0
          0 0 0 0 0 0
          0 0 0 0 0 0
          0 0 0 0 0 0
          0 0 0 0 0 0
          0 0 0 0 0 0
          0 0 0 0 0 0
          0 0 0 0 0 0
          0 0 0 0 0 0
          0 0 0 0 0 0
          0 0 0 0 0 0
          0 0 0 0 0 0
          0 0 0 0 0 0
          0 0 0 0 0 0
          0 0 0 0 0 0
          0 0 0 0 0 0
          0 0 0 0 0 0
          0 0 0 0 0 0
          0 0 0 0 0 0
          0 0 0 0 0 0
          0 0 0 0 0 0
          0 0 0 0 0 0
          0 0 0 0 0 0
          0 0 0 0 0 0
          0 0 0 0 0 0
          0 0 0 0 0 0
          0 0 0 0 0 0
          0 0 0 0 0 0
          0 0 0 0 0 0
          0 0 0 0 0 0
          0 0 0 0 0 0
          0 0 0 0 0 0
          0 0 0 0 0 0
          0 0 0 0 0 0
          0 0 0 0 0 0
          0 0 0 0 0 0
          0 0 0 0 0 0
          0 0 0 0 0 0
          0 0 0 0 0 0
          0 0 0 0 0 0
          0 0 0 0 0 0
          0 0 0 0 0 0
          0 0 0 0 0 0
          0 0 0 0 0 0
          0 0 0 0 0 0
          0 0 0 0 0 0
          0 0 0 0 0 0
          0 0 0 0 0 0
          0 0 0 0 0 0
          0 0 0 0 0 0
          0 0 0 0 0 0
          0 0 0 0 0 0
          0 0 0 0 0 0
          0 0 0 0 0 0
          0 0 0 0 0 0
          0 0 0 0 0 0
          0 0 0 0 0 0
          0 0 0 0 0 0
          0 0 0 0 0 0
          0 0 0 0 0 0
          0 0 0 0 0 0
          0 0 0 0 0 0
          0 0 0 0 0 0
          0 0 0 0 0 0
          0 0 0 0 0 0
          0 0 0 0 0 0
          0 0 0 0 0 0
          0 0 0 0 0 0
          0 0 0 0 0 0
          0 0 0 0 0 0
          0 0 0 0 0 0
          0 0 0 0 0 0
          0 0 0 0 0 0
          0 0 0 0 0 0
          0 0 0 0 0 0
          0 0 0 0 0 0
          0 0 0 0 0 0
          0 0 0 0 0 0
          0 0 0 0 0 0
          0 0 0 0 0 0
          0 0 0 0 0 0
          0 0 0 0 0 0
          0 0 0 0 0 0
          0 0 0 0 0 0
          0 0 0 0 0 0
          0 0 0 0 0 0
          0 0 0 0 0 0
          0 0 0 0 0 0
          0 0 0 0 0 0
          0 0 0 0 0 0
          0 0 0 0 0 0
          0 0 0 0 0 0
          0 0 0 0 0 0
          0 0 0
        </DataArray>
        <DataArray type="Float64" Name="gradient_error" format="ascii" RangeMin="1.7044486612685404e-12" RangeMax="3.441805735873841e-8">
          5.80095015196818e-9 6.443035108841e-11 1.7816949600016898e-8 5.423230099334806e-9 2.1854914305978258e-9 5.299160127211613e-10
          1.994075304149986e-10 3.213638666079361e-11 3.236356287785035e-8 1.530128869462464e-8 1.6310368333689225e-9 2.893479154072152e-10
          1.5632523172871565e-10 1.8379559779069495e-10 1.4384056495219134e-10 3.088760078738267e-10 2.4812193617852114e-10 3.5407716582004573e-11
          4.021136560966317e-10 1.4385127706354132e-8 7.359494909405441e-9 5.577367745406907e-9 1.5953917219243406e-9 1.9150612242034253e-9
          6.822113148198068e-10 2.6603240516508563e-10 3.3558167632180056e-10 1.1982565515916503e-10 2.3442581840704533e-9 9.427990471414716e-10
          4.712346509830476e-10 9.582239204089042e-11 3.565656038825722e-11 5.040760413110354e-11 3.17961413811205e-10 8.944719567067941e-11
          9.914103589269656e-11 3.025441229139371e-8 2.8104228046319895e-8 1.1915915173678337e-8 3.415975062693635e-8 1.3956496163922748e-8
          1.1888783208037894e-8 4.659405606748162e-9 3.6283663438277446e-9 4.401849858517478e-9 1.2328382815280837e-9 1.6199886330666975e-8
          1.4873277007805264e-8 4.704741744413016e-9 5.7773403217021326e-9 4.943855834951299e-9 2.035631764230217e-9 6.173551702976063e-10
          2.544507563170812e-10 6.3289367387380986e-9 2.6321027675065085e-9 7.71126301864351e-10 6.901708006867459e-10 1.9279272275319235e-10
          1.274530013444172e-10 5.42229040530877e-11 8.951392046766536e-10 2.4969939019028597e-10 1.206368343538863e-10 3.0486650846586065e-10
          1.8127238921782094e-10 1.3656769125065102e-10 9.473169939676373e-11 1.8133541939136367e-10 2.5769649738844235e-10 8.103677702878558e-11
          2.0855967755882013e-10 6.922176251652049e-11 2.928676283138575e-10 8.052040879927518e-11 7.971836380842163e-11 2.8640925122427123e-11
          4.312907047190248e-11 1.9315884700770655e-11 2.4553967810176058e-11 1.0196176620936768e-11 5.4026993048349116e-11 4.922034074933584e-11
          2.9117408093835306e-11 4.842148776701076e-10 3.4798472687929115e-10 1.1709403885984266e-10 1.4028141156378216e-11 2.7520099033396662e-11
          1.6385275712169204e-11 1.079210037629482e-9 8.048128215115729e-10 2.6979579135045083e-10 1.3825921707981232e-9 1.0560520236013004e-9
          3.564365051647721e-10 4.8669739757118534e-11 2.093059371789707e-11 5.7749827368994186e-11 1.8398845917010826e-11 3.2092431060536617e-10
          7.063017399797309e-11 1.1409066771012638e-10 4.461152476254675e-11 2.2599072394438596e-11 3.955022962218679e-11 1.3396961416143881e-11
          1.601910164558419e-11 8.587698787278952e-12 3.4347894262805235e-12 4.36551534946583e-12 1.3625456629122099e-11 5.615731342820549e-12
          5.257281683251196e-12 3.376663809033834e-12 1.615507929704465e-11 6.978236743113928e-12 5.3110353457487405e-12 1.707966453425602e-8
          5.4380000017695466e-9 2.9364587377167662e-9 9.9019721174221e-9 1.1924612130579682e-8 1.1322375759279547e-8 6.923708633104574e-9
          9.314254135989437e-9 4.17120978230269e-9 3.8977022848834155e-9 2.0318247809462552e-9 3.092976148721908e-9 3.350466826355694e-9
          1.935000448686997e-9 1.7792223987032134e-9 1.0174894641451762e-9 6.231828425661431e-9 3.650194419515346e-9 3.3256120673452734e-9
          1.049188186914938e-9 5.354676077506038e-10 5.499212828229681e-10 2.813447165750987e-10 1.9949148401796183e-9 1.0205892865177082e-9
          1.0373487680323272e-9 4.333106731786679e-10 2.7480930477188903e-10 1.707241177906105e-10 1.0334121939304423e-10 9.28485693661982e-11
          1.341382912397107e-9 1.3280000584183101e-9 8.607515327570472e-10 5.318427338113355e-10 2.426383662341198e-9 1.5182789385768123e-9
          5.199651171449541e-10 2.8151249443316315e-10 8.817541515229641e-10 3.259130528832227e-10 1.9814056287986605e-10 1.7401473318351758e-10
          1.0450948216483703e-10 5.566547556112022e-10 3.3992360388015615e-10 2.302293143082242e-10 1.569323487583771e-10 5.8123519658566195e-11
          6.035195295390758e-11 3.997930626249512e-11 3.380349787139039e-11 7.947333095591431e-10 4.5238283524147616e-10 3.1538920635664275e-10
          1.7894650072972696e-10 1.4595320520082157e-9 8.320307019389053e-10 5.600059486181969e-10 2.448178752025109e-10 1.26143422337456e-10
          9.697473895213467e-11 5.0368214623007033e-11 4.5002867195968146e-10 2.3128720364854791e-10 1.7253270421540857e-10 1.163557422878349e-10
          6.568815630620712e-11 6.112397097287971e-11 3.475380973240748e-11 1.9949954090922364e-10 1.1248265300923965e-10 1.0211512123133979e-10
          2.5033208042283366e-11 3.57580740841626e-11 1.3206704637482216e-11 1.878877280395122e-11 1.4998965963175636e-11 1.9294489451079048e-11
          1.0344711471010033e-11 6.117331954126171e-11 3.203681359420266e-11 3.07132088859774e-11 2.500543501512699e-8 2.4495031948472745e-8
          2.150911764604176e-8 3.053083717028234e-8 1.53716043118814e-8 8.634827520518292e-9 2.0738183839911742e-8 3.219792344582296e-8
          3.3661061592112687e-8 3.2614792031962396e-8 3.441805735873841e-8 2.4710922363523688e-8 1.4383312027345467e-8 2.6181028677999787e-8
          1.7047031469224473e-8 1.6564119254183834e-8 1.098700506926276e-8 1.0526941727646926e-8 1.4261389218602128e-8 8.785393347364666e-9
          2.1084723027014396e-8 2.0942150612289318e-8 1.3673300433507251e-8 1.8826676366522035e-8 6.439021984043765e-9 6.099220489757858e-9
          3.447182839968917e-9 3.2384346306633944e-9 4.967941380753316e-9 2.5929536477503663e-9 8.502582523312737e-9 8.18321017083179e-9
          4.430981497504971e-9 6.864299585882067e-9 9.897602952488138e-9 5.9013885810512815e-9 5.369076279093946e-9 3.1194624016611543e-9
          1.3558381919348637e-8 8.226514008290322e-9 7.50898364299156e-9 3.2609179436429355e-9 1.67738969272066e-9 1.697322422479138e-9
          8.676324427827475e-10 4.598297286650131e-9 2.3808431271452437e-9 2.407477063724036e-9 2.353854428187748e-8 2.379731005855662e-8
          1.567490570606878e-8 1.5659557436507574e-8 2.2041406261861472e-8 1.408770416027818e-8 2.4326225943359782e-8 2.4795246597615682e-8
          1.6312838337450832e-8 2.3220426073431495e-8 9.853203850866488e-9 9.61808396491734e-9 5.5042534122793975e-9 5.289423997440646e-9
          8.26843284207741e-9 4.41275721564653e-9 1.0303956891818236e-8 1.011785566863538e-8 5.598114580398357e-9 8.7841085011662e-9
          1.625150669653922e-8 9.982879972420755e-9 9.149473881100038e-9 5.39954324049135e-9 1.723963918547673e-8 1.0636193265398006e-8
          9.765236913976162e-9 5.629451047776779e-9 2.930026377400506e-9 2.965017639735987e-9 1.5209963409356183e-9 6.017710915323433e-9
          3.138334468635248e-9 3.1772715203236765e-9 3.623976215459697e-9 3.87068362822561e-9 2.365703150574657e-9 1.47641977894304e-9
          5.389393496472294e-9 3.248396717804729e-9 1.3343690226648585e-9 4.642700515579679e-10 1.7937171410609211e-9 8.469343301868609e-10
          5.192210662644742e-10 2.8520560340285373e-10 2.0918540705732328e-10 1.1421528277185499e-9 7.016317689481578e-10 3.809672926072093e-10
          5.951063220241846e-9 6.562101200911558e-9 3.928674561935635e-9 2.468330888032436e-9 7.004261221965773e-9 4.185451505411479e-9
          2.1419409770929477e-9 7.293147645976813e-10 2.2722740506572687e-9 1.3655231977652513e-9 8.392469390358504e-10 4.522237224948856e-10
          2.71777474001225e-10 1.4490182303286951e-9 8.906498935729282e-10 4.790221740600727e-10 2.343484462563141e-9 1.340152086249222e-9
          8.79065900458801e-10 4.991915052117148e-10 3.2824273564809032e-9 1.8836546726593994e-9 1.2149368955560613e-9 7.249998960358699e-10
          3.71845427389341e-10 2.704244379117489e-10 1.3980176152880814e-10 1.0199198573063105e-9 5.225153053705745e-10 3.7360256862904296e-10
          3.049106495063058e-10 1.7176076292628256e-10 1.5414037194860916e-10 8.538673800958924e-11 4.1322901498286375e-10 2.3344676698206053e-10
          1.584787871437092e-10 9.311660434913217e-11 4.853707890964063e-11 4.611140123941852e-11 2.4455115273311324e-11 1.263369440159303e-10
          6.55521433539663e-11 6.218755782530004e-11 4.014066668365555e-9 2.3096775141680185e-9 1.475849525383385e-9 8.387429840237543e-10
          4.2917148840086406e-9 2.4718546001359522e-9 1.5747627027087126e-9 1.2517738498017125e-9 6.409534431565326e-10 4.5389740478987997e-10
          2.340381386097675e-10 1.3402032237179348e-9 6.86131354577727e-10 4.843832200714193e-10 4.958688819136023e-10 2.8112901508397346e-10
          1.5771872287916498e-10 1.0915655361700053e-10 5.269095421224439e-10 2.9916454589216553e-10 1.6865078933702072e-10 1.5199187408465053e-10
          7.86415635467899e-11 7.470184908792546e-11 3.825396042571913e-11 1.6167936987922317e-10 8.355021198694337e-11 7.941498017111554e-11
          1.3944818555189992e-10 1.6268804172560473e-10 9.422393497708289e-11 2.075164035519207e-10 8.210265926199387e-11 9.684715357221518e-11
          6.222448834180434e-11 7.198027549125532e-11 5.779128456810282e-11 6.101666463277254e-11 5.0238336921092827e-11 1.2536055751094871e-10
          8.22097646103013e-11 6.884941903707632e-11 2.418302875580565e-10 1.194863037134299e-10 2.5455566591158113e-10 1.4723298702894188e-10
          8.74387805522013e-11 7.411032416918215e-11 4.71934637659468e-11 1.553365069184228e-10 9.243094550930381e-11 7.476385496165394e-11
          4.8676493014508546e-11 5.090341528363565e-11 3.6372475094120526e-11 3.715398503631079e-11 3.483856269736183e-11 3.187037699166076e-11
          2.604111063218414e-11 5.3130337552762755e-11 3.7935494978501044e-11 2.890219128595969e-11 1.0642261856929466e-9 9.85872713501809e-10
          4.475418393344876e-10 7.690334062974711e-10 2.579594376238809e-10 1.1761006287925664e-10 1.3654436367547248e-10 6.284676179296918e-11
          4.90614380551873e-10 2.224488359693643e-10 2.558747786437254e-10 1.5146568097958312e-11 6.207374201709245e-11 2.902813980300539e-11
          2.5073211339902443e-11 1.460162308636039e-11 1.1326252957594615e-10 5.275971394191266e-11 4.427971096476445e-11 6.695582413121711e-12
          9.441498105411222e-12 4.596545281899232e-12 6.243438998039271e-12 4.228667195713681e-12 5.524313043109525e-12 3.9803623124970935e-12
          1.6022585424945214e-11 1.041481178333506e-11 8.942440604277773e-12 1.7008562062660264e-9 1.588292471627006e-9 7.792516359062526e-10
          7.246543768412608e-10 1.2570331731120934e-9 5.694578771741107e-10 2.3340261214300147e-9 2.200163011126506e-9 1.0109149076372578e-9
          1.7713880839331815e-9 8.071948201495824e-10 3.6512284943678033e-10 4.1806459317951826e-10 1.9051652122792562e-10 1.1485392845493862e-9
          5.192198269855021e-10 5.936071581134946e-10 2.7917421446623817e-9 2.652833670937061e-9 1.301271503257247e-9 1.2264639586079462e-9
          2.1666457876065262e-9 9.871986615425705e-10 2.956632454349523e-9 2.818590876549369e-9 1.3063219569866248e-9 2.315066804120713e-9
          1.416764978450087e-9 6.406668061964324e-10 7.323939454562042e-10 3.324683984928364e-10 1.5188964406425153e-9 6.869967454519364e-10
          7.854668584108735e-10 1.8142811787157163e-10 8.4139226214895e-11 6.892327927245277e-11 3.965622988937788e-11 2.5410787482430013e-10
          1.173880602048968e-10 9.483917018780133e-11 2.41729267022843e-11 1.5686055798993206e-11 1.3278375306733173e-11 9.668366480946484e-12
          3.259547481268148e-11 1.7850501828922083e-11 1.7116344726777573e-11 3.1095800996479246e-10 1.4328728284199324e-10 1.1509585773227477e-10
          5.38731607324205e-11 3.3258795582726873e-10 1.5312175701219829e-10 1.2279296816740107e-10 3.9151048113776495e-11 1.877630437342233e-11
          1.940208867904236e-11 1.0036759246686214e-11 4.159924295456892e-11 1.999326637620933e-11 2.0063316199945743e-11 8.446370157510455e-12
          8.787594696621142e-12 5.712954232629561e-12 5.611295151214742e-12 5.831828418949053e-12 5.318714227683393e-12 3.6821928112089586e-12
          9.128819235731826e-12 5.509636069799922e-12 4.8056000364177336e-12 2.4056865685812016e-11 4.877514123898361e-11 2.920106458769972e-11
          4.891817406889389e-11 5.896419794849613e-11 6.15377294425895e-12 7.066022504554806e-12 7.486831952565533e-12 8.523254438433137e-12
          1.0789860065953575e-11 6.177848597612534e-12 9.569861261602179e-12 1.54508489393281e-11 1.32224927099502e-11 1.6177252858272225e-11
          1.5325443095683187e-11 7.331510667585133e-12 1.3787780358985135e-11 6.9069980416508444e-12 2.5385366507555894e-11 4.437304991126453e-12
          2.1858892170209896e-12 2.646511214353925e-12 1.7044486612685404e-12 9.403613071874188e-12 5.090780003927273e-11 2.7391125109307296e-11
          9.554645859898598e-11 5.091837047582179e-11 1.2784883482513145e-11 2.313797417976194e-11 8.048160960382225e-12 1.3812071304495687e-11
          2.0689304020399103e-10 1.9098780026955774e-10 3.337067530180757e-10 3.094947469683174e-10 1.4840130681824049e-10 2.4236999002289307e-10
          4.643400000999401e-10 4.3306863620615336e-10 3.4249958978132595e-10 1.5596359933374077e-10 8.241717557393658e-11 2.2109027838030554e-10
          1.1618044435196722e-10 5.625510974080784e-10 5.271660091811382e-10 4.2043312494546013e-10 5.988996589133107e-10 5.622903623170783e-10
          4.499430816104295e-10 2.7250191538603955e-10 1.4284592125242719e-10 2.921145299363729e-10 1.5302130675555874e-10 3.6871026463478495e-11
          2.137766131933817e-11 5.140525548660677e-11 2.330581848509384e-11 6.286531397640538e-11 2.4106881224436108e-11 6.725691575932274e-11
          2.5973609407653325e-11 1.2786364208059726e-11 1.380579000030367e-11
        </DataArray>
        <DataArray type="Float64" Name="gradient_matprop_error" format="ascii" RangeMin="0" RangeMax="0">
          0 0 0 0 0 0
          0 0 0 0 0 0
          0 0 0 0 0 0
          0 0 0 0 0 0
          0 0 0 0 0 0
          0 0 0 0 0 0
          0 0 0 0 0 0
          0 0 0 0 0 0
          0 0 0 0 0 0
          0 0 0 0 0 0
          0 0 0 0 0 0
          0 0 0 0 0 0
          0 0 0 0 0 0
          0 0 0 0 0 0
          0 0 0 0 0 0
          0 0 0 0 0 0
          0 0 0 0 0 0
          0 0 0 0 0 0
          0 0 0 0 0 0
          0 0 0 0 0 0
          0 0 0 0 0 0
          0 0 0 0 0 0
          0 0 0 0 0 0
          0 0 0 0 0 0
          0 0 0 0 0 0
          0 0 0 0 0 0
          0 0 0 0 0 0
          0 0 0 0 0 0
          0 0 0 0 0 0
          0 0 0 0 0 0
          0 0 0 0 0 0
          0 0 0 0 0 0
          0 0 0 0 0 0
          0 0 0 0 0 0
          0 0 0 0 0 0
          0 0 0 0 0 0
          0 0 0 0 0 0
          0 0 0 0 0 0
          0 0 0 0 0 0
          0 0 0 0 0 0
          0 0 0 0 0 0
          0 0 0 0 0 0
          0 0 0 0 0 0
          0 0 0 0 0 0
          0 0 0 0 0 0
          0 0 0 0 0 0
          0 0 0 0 0 0
          0 0 0 0 0 0
          0 0 0 0 0 0
          0 0 0 0 0 0
          0 0 0 0 0 0
          0 0 0 0 0 0
          0 0 0 0 0 0
          0 0 0 0 0 0
          0 0 0 0 0 0
          0 0 0 0 0 0
          0 0 0 0 0 0
          0 0 0 0 0 0
          0 0 0 0 0 0
          0 0 0 0 0 0
          0 0 0 0 0 0
          0 0 0 0 0 0
          0 0 0 0 0 0
          0 0 0 0 0 0
          0 0 0 0 0 0
          0 0 0 0 0 0
          0 0 0 0 0 0
          0 0 0 0 0 0
          0 0 0 0 0 0
          0 0 0 0 0 0
          0 0 0 0 0 0
          0 0 0 0 0 0
          0 0 0 0 0 0
          0 0 0 0 0 0
          0 0 0 0 0 0
          0 0 0 0 0 0
          0 0 0 0 0 0
          0 0 0 0 0 0
          0 0 0 0 0 0
          0 0 0 0 0 0
          0 0 0 0 0 0
          0 0 0 0 0 0
          0 0 0 0 0 0
          0 0 0 0 0 0
          0 0 0 0 0 0
          0 0 0 0 0 0
          0 0 0 0 0 0
          0 0 0 0 0 0
          0 0 0 0 0 0
          0 0 0 0 0 0
          0 0 0 0 0 0
          0 0 0 0 0 0
          0 0 0 0 0 0
          0 0 0 0 0 0
          0 0 0 0 0 0
          0 0 0
        </DataArray>
        <DataArray type="Float64" Name="initial_marker" format="ascii" RangeMin="0" RangeMax="2">
          2 0.5 2 2 2 2
          1 0 2 2 2 2
          0 0 0 0 0 0
          0 2 2 2 2 2
          2 2 0.5 0.25 2 2
          1.25 1.75 1.25 0 2 2
          0.75 2 2 2 2 2
          2 2 2 2 2 2
          2 2 2 2 2 2
          1.5 2 2 2 2 2
          1 0.5 2 2 1 0
          0 0 0 0 0 0
          0 0 0 0 0 0
          0 0 0 0 0 0
          0 2 2 2 0.25 1.25
          0 2 2 2 2 2
          2 1.75 0 2 0 0
          0 0 0 0 0 0
          0 0 0 0 0 0
          0 0 0 0 0 2
          2 2 2 2 2 2
          2 2 2 2 2 2
          2 2 2 2 2 2
          2 2 2 2 2 2
          2 2 1.5 1.5 1.25 1
          2 2 2 2 2 2
          2 2 2 2 1.75 2
          1.5 2 2 1.3333333333333333 2 2
          1 1 0 2 2 2
          2 2 2 2 2 2
          2 1.75 2 2 2 1.5
          1.25 1 0.5 2 1.75 2
          1 1 0.5 0.75 0 0
          0 1.25 1 0.5 2 2
          2 2 2 2 2 2
          2 2 2 2 2 2
          2 2 2 2 2 2
          2 2 2 2 2 2
          2 2 2 2 2 2
          2 2 2 2 2 2
          2 2 2 2 2 2
          2 2 2 2 2 2
          2 2 2 2 2 2
          2 2 2 2 2 2
          2 2 2 2 2 2
          2 2 2 2 2 2
          2 2 2 2 2 2
          2 2 2 2 2 2
          2 2 2 1.75 2 2
          2 1.5 1.6666666666666667 2 2 2
          2 2 2 2 2 2
          2 2 2 2 2 2
          1.75 2 2 2 2 2
          2 2 2 2 2 2
          2 2 2 2 2 2
          2 2 2 2 2 2
          1.3333333333333333 1.75 1.25 1.5 0.5 2
          1.5 2 2 2 2 2
          2 2 2 2 2 2
          2 2 2 2 2 2
          1.25 1.3333333333333333 2 2 1.5 2
          1.5 2 1 2 1.5 2
          0.5 0.75 0 1 0 0.5
          0 0.5 0 0 0 1
          0.6666666666666666 0 1 0 1 1
          0.75 0 0 1 1 0
          0 0.25 0 0 0 0
          0 0.5 0 0 2 2
          2 2 2 2 2 2
          2 2 2 1 2 1.75
          1.25 1 2 2 1.75 0
          0.25 0 0 0 0 0
          0.75 0.5 0 2 2 2
          2 2 2 2 2 2
          2 2 2 2 2 2
          2 2 2 2 2 2
          2 2 2 2 2 2
          2 2 2 2 2 2
          2 2 2 2 2 2
          2 2 1 1 0 0
          1 1 0 2 2 2
          2 2 2 2 1 1
          0 0 1 1 0 0.5
          0.5 0 0 0 0 0
          0.5 0 0 0 0 0
          0 0 0 0 0 0
          0 0 0 0.25 0 0.5
          0 0 0 0 0 0
          0 0 0 0 2 1.75
          2 2 1 1.75 0.5 1.5
          2 2 2 2 2 2
          2 2 2 2 2 2
          2 2 2 2 2 2
          2 2 2 2 2 2
          2 2 1.6666666666666667 2 1.5 2
          1.5 0.6666666666666666 0.5
        </DataArray>
        <DataArray type="Float64" Name="markers_norefine" format="ascii" RangeMin="0" RangeMax="0">
          0 0 0 0 0 0
          0 0 0 0 0 0
          0 0 0 0 0 0
          0 0 0 0 0 0
          0 0 0 0 0 0
          0 0 0 0 0 0
          0 0 0 0 0 0
          0 0 0 0 0 0
          0 0 0 0 0 0
          0 0 0 0 0 0
          0 0 0 0 0 0
          0 0 0 0 0 0
          0 0 0 0 0 0
          0 0 0 0 0 0
          0 0 0 0 0 0
          0 0 0 0 0 0
          0 0 0 0 0 0
          0 0 0 0 0 0
          0 0 0 0 0 0
          0 0 0 0 0 0
          0 0 0 0 0 0
          0 0 0 0 0 0
          0 0 0 0 0 0
          0 0 0 0 0 0
          0 0 0 0 0 0
          0 0 0 0 0 0
          0 0 0 0 0 0
          0 0 0 0 0 0
          0 0 0 0 0 0
          0 0 0 0 0 0
          0 0 0 0 0 0
          0 0 0 0 0 0
          0 0 0 0 0 0
          0 0 0 0 0 0
          0 0 0 0 0 0
          0 0 0 0 0 0
          0 0 0 0 0 0
          0 0 0 0 0 0
          0 0 0 0 0 0
          0 0 0 0 0 0
          0 0 0 0 0 0
          0 0 0 0 0 0
          0 0 0 0 0 0
          0 0 0 0 0 0
          0 0 0 0 0 0
          0 0 0 0 0 0
          0 0 0 0 0 0
          0 0 0 0 0 0
          0 0 0 0 0 0
          0 0 0 0 0 0
          0 0 0 0 0 0
          0 0 0 0 0 0
          0 0 0 0 0 0
          0 0 0 0 0 0
          0 0 0 0 0 0
          0 0 0 0 0 0
          0 0 0 0 0 0
          0 0 0 0 0 0
          0 0 0 0 0 0
          0 0 0 0 0 0
          0 0 0 0 0 0
          0 0 0 0 0 0
          0 0 0 0 0 0
          0 0 0 0 0 0
          0 0 0 0 0 0
          0 0 0 0 0 0
          0 0 0 0 0 0
          0 0 0 0 0 0
          0 0 0 0 0 0
          0 0 0 0 0 0
          0 0 0 0 0 0
          0 0 0 0 0 0
          0 0 0 0 0 0
          0 0 0 0 0 0
          0 0 0 0 0 0
          0 0 0 0 0 0
          0 0 0 0 0 0
          0 0 0 0 0 0
          0 0 0 0 0 0
          0 0 0 0 0 0
          0 0 0 0 0 0
          0 0 0 0 0 0
          0 0 0 0 0 0
          0 0 0 0 0 0
          0 0 0 0 0 0
          0 0 0 0 0 0
          0 0 0 0 0 0
          0 0 0 0 0 0
          0 0 0 0 0 0
          0 0 0 0 0 0
          0 0 0 0 0 0
          0 0 0 0 0 0
          0 0 0 0 0 0
          0 0 0 0 0 0
          0 0 0 0 0 0
          0 0 0
        </DataArray>
        <DataArray type="Float64" Name="markers_mustrefine" format="ascii" RangeMin="0" RangeMax="2">
          2 0.5 2 2 2 2
          1 0 2 2 2 2
          0 0 0 0 0 0
          0 2 2 2 2 2
          2 2 0.5 0.25 2 2
          1.25 1.75 1.25 0 2 2
          0.75 2 2 2 2 2
          2 2 2 2 2 2
          2 2 2 2 2 2
          1.5 2 2 2 2 2
          1 0.5 2 2 1 0
          0 0 0 0 0 0
          0 0 0 0 0 0
          0 0 0 0 0 0
          0 2 2 2 0.25 1.25
          0 2 2 2 2 2
          2 1.75 0 2 0 0
          0 0 0 0 0 0
          0 0 0 0 0 0
          0 0 0 0 0 2
          2 2 2 2 2 2
          2 2 2 2 2 2
          2 2 2 2 2 2
          2 2 2 2 2 2
          2 2 1.5 1.5 1.25 1
          2 2 2 2 2 2
          2 2 2 2 1.75 2
          1.5 2 2 1.3333333333333333 2 2
          1 1 0 2 2 2
          2 2 2 2 2 2
          2 1.75 2 2 2 1.5
          1.25 1 0.5 2 1.75 2
          1 1 0.5 0.75 0 0
          0 1.25 1 0.5 2 2
          2 2 2 2 2 2
          2 2 2 2 2 2
          2 2 2 2 2 2
          2 2 2 2 2 2
          2 2 2 2 2 2
          2 2 2 2 2 2
          2 2 2 2 2 2
          2 2 2 2 2 2
          2 2 2 2 2 2
          2 2 2 2 2 2
          2 2 2 2 2 2
          2 2 2 2 2 2
          2 2 2 2 2 2
          2 2 2 2 2 2
          2 2 2 1.75 2 2
          2 1.5 1.6666666666666667 2 2 2
          2 2 2 2 2 2
          2 2 2 2 2 2
          1.75 2 2 2 2 2
          2 2 2 2 2 2
          2 2 2 2 2 2
          2 2 2 2 2 2
          1.3333333333333333 1.75 1.25 1.5 0.5 2
          1.5 2 2 2 2 2
          2 2 2 2 2 2
          2 2 2 2 2 2
          1.25 1.3333333333333333 2 2 1.5 2
          1.5 2 1 2 1.5 2
          0.5 0.75 0 1 0 0.5
          0 0.5 0 0 0 1
          0.6666666666666666 0 1 0 1 1
          0.75 0 0 1 1 0
          0 0.25 0 0 0 0
          0 0.5 0 0 2 2
          2 2 2 2 2 2
          2 2 2 1 2 1.75
          1.25 1 2 2 1.75 0
          0.25 0 0 0 0 0
          0.75 0.5 0 2 2 2
          2 2 2 2 2 2
          2 2 2 2 2 2
          2 2 2 2 2 2
          2 2 2 2 2 2
          2 2 2 2 2 2
          2 2 2 2 2 2
          2 2 1 1 0 0
          1 1 0 2 2 2
          2 2 2 2 1 1
          0 0 1 1 0 0.5
          0.5 0 0 0 0 0
          0.5 0 0 0 0 0
          0 0 0 0 0 0
          0 0 0 0.25 0 0.5
          0 0 0 0 0 0
          0 0 0 0 2 1.75
          2 2 1 1.75 0.5 1.5
          2 2 2 2 2 2
          2 2 2 2 2 2
          2 2 2 2 2 2
          2 2 2 2 2 2
          2 2 1.6666666666666667 2 1.5 2
          1.5 0.6666666666666666 0.5
        </DataArray>
        <DataArray type="Float64" Name="gradient_marker" format="ascii" RangeMin="1" RangeMax="1">
          1 1 1 1 1 1
          1 1 1 1 1 1
          1 1 1 1 1 1
          1 1 1 1 1 1
          1 1 1 1 1 1
          1 1 1 1 1 1
          1 1 1 1 1 1
          1 1 1 1 1 1
          1 1 1 1 1 1
          1 1 1 1 1 1
          1 1 1 1 1 1
          1 1 1 1 1 1
          1 1 1 1 1 1