<?xml version="1.0"?>
<VTKFile type="UnstructuredGrid" version="0.1" byte_order="LittleEndian" header_type="UInt32" compressor="vtkZLibDataCompressor">
  <UnstructuredGrid>
    <Piece NumberOfPoints="552" NumberOfCells="338">
      <PointData>
        <DataArray type="Int32" Name="libmesh_node_id" format="ascii" RangeMin="525" RangeMax="4522">
          525 526 533 534 654 655
          656 657 658 659 660 661
          662 663 664 665 666 667
          882 883 885 886 901 907
          1263 1264 1265 1268 1271 1273
          1274 1275 1276 1277 1278 1279
          1280 1281 1282 1283 1284 1285
          1286 1289 1290 1292 1295 1297
          1298 1299 1300 1301 1302 1303
          1304 1305 1306 1309 1310 1313
          1315 1317 1318 1319 1320 1321
          1322 1323 1324 1325 1326 2076
          2082 2084 2085 2086 2087 2088
          2089 2090 2091 2092 2093 2094
          2095 2096 2097 2110 2111 2113
          2116 2126 2128 2130 2144 2145
          2147 2150 2160 2162 2164 2166
          2167 2168 2169 2170 2171 2172
          2173 2174 2175 2176 2177 2178
          2179 2180 2181 2182 2183 2184
          2185 2186 2187 2188 2189 2190
          2191 2192 2193 2194 2195 2196
          2197 2198 2199 2200 2201 2202
          2203 2204 2205 2206 2207 2208
          2209 2210 2211 2212 2213 2214
          2215 2216 2217 2218 2219 2220
          2221 2222 2223 2224 2225 2226
          2227 2228 2229 2230 2231 2232
          2233 2329 2344 2346 2358 2363
          2374 2376 2378 2380 3437 3443
          3457 3458 3460 3463 3473 3475
          3477 3487 3569 3570 3572 3575
          3585 3587 3589 3603 3604 3606
          3609 3619 3621 3623 3659 3661
          3663 3673 3675 3677 3679 3680
          3681 3682 3683 3684 3685 3686
          3687 3688 3689 3690 3691 3692
          3693 3694 3695 3696 3697 3698
          3699 3700 3701 3702 3703 3704
          3705 3706 3707 3708 3709 3710
          3711 3712 3713 3714 3715 3716
          3717 3718 3719 3720 3721 3722
          3723 3724 3725 3726 3727 3728
          3729 3730 3731 3732 3733 3734
          3735 3736 3737 3738 3739 3740
          3741 3742 3743 3744 3745 3746
          3747 3748 3749 3750 3751 3752
          3753 3754 3755 3756 3757 3758
          3759 3760 3761 3762 3763 3764
          3765 3766 3767 3768 3769 3770
          3771 3772 3773 3774 3775 3776
          3777 3778 3779 3780 3781 3782
          3783 3784 3785 3786 3787 3788
          3789 3790 3791 3792 3793 3794
          3795 3796 3797 3798 3799 3800
          3801 3802 3803 3804 3805 3806
          3807 3808 3809 3810 3811 3812
          3813 3814 3815 3816 3817 3818
          3819 3820 3821 3822 3823 3824
          3825 3826 3827 3828 3829 3830
          3831 3832 3833 3834 3835 3836
          3837 3838 3839 3840 3841 3842
          3843 3844 3845 3846 3847 3848
          3849 3850 3851 3852 3853 3854
          3855 3856 3857 3858 3859 3860
          3861 3862 3863 3864 3865 3866
          3867 3868 3869 3870 3871 3872
          3873 3874 3875 3876 3877 3878
          3879 3880 3881 3882 3883 3884
          3885 3886 3887 3888 3889 3890
          3891 3892 3893 3894 3895 3896
          3897 3898 3899 3900 3901 3902
          3903 3904 3905 3906 3907 3908
          3909 3910 3911 3912 3913 3914
          3915 3916 3917 3918 3919 3920
          3921 3922 3923 3924 3925 3926
          3927 3928 3929 3930 3931 3932
          3933 3934 3935 3936 3937 3938
          3939 3940 3941 3942 3943 3944
          3945 3946 3947 3948 3949 3950
          3951 3952 3953 3954 3955 3956
          3957 3958 3959 3960 3961 3962
          3963 3964 3965 3966 3967 3968
          3969 3970 3971 3972 3973 3974
          3975 3976 3977 3978 4247 4248
          4250 4265 4266 4267 4374 4375
          4378 4380 4381 4383 4394 4395
          4396 4397 4398 4399 4400 4408
          4409 4412 4414 4415 4417 4428
          4429 4430 4431 4432 4433 4434
          4510 4511 4512 4516 4517 4518
          4519 4520 4521 4522 903 908
        </DataArray>
        <DataArray type="Float64" Name="bounds" format="ascii" RangeMin="0" RangeMax="0">
          0 0 0 0 0 0
          0 0 0 0 0 0
          0 0 0 0 0 0
          0 0 0 0 0 0
          0 0 0 0 0 0
          0 0 0 0 0 0
          0 0 0 0 0 0
          0 0 0 0 0 0
          0 0 0 0 0 0
          0 0 0 0 0 0
          0 0 0 0 0 0
          0 0 0 0 0 0
          0 0 0 0 0 0
          0 0 0 0 0 0
          0 0 0 0 0 0
          0 0 0 0 0 0
          0 0 0 0 0 0
          0 0 0 0 0 0
          0 0 0 0 0 0
          0 0 0 0 0 0
          0 0 0 0 0 0
          0 0 0 0 0 0
          0 0 0 0 0 0
          0 0 0 0 0 0
          0 0 0 0 0 0
          0 0 0 0 0 0
          0 0 0 0 0 0
          0 0 0 0 0 0
          0 0 0 0 0 0
          0 0 0 0 0 0
          0 0 0 0 0 0
          0 0 0 0 0 0
          0 0 0 0 0 0
          0 0 0 0 0 0
          0 0 0 0 0 0
          0 0 0 0 0 0
          0 0 0 0 0 0
          0 0 0 0 0 0
          0 0 0 0 0 0
          0 0 0 0 0 0
          0 0 0 0 0 0
          0 0 0 0 0 0
          0 0 0 0 0 0
          0 0 0 0 0 0
          0 0 0 0 0 0
          0 0 0 0 0 0
          0 0 0 0 0 0
          0 0 0 0 0 0
          0 0 0 0 0 0
          0 0 0 0 0 0
          0 0 0 0 0 0
          0 0 0 0 0 0
          0 0 0 0 0 0
          0 0 0 0 0 0
          0 0 0 0 0 0
          0 0 0 0 0 0
          0 0 0 0 0 0
          0 0 0 0 0 0
          0 0 0 0 0 0
          0 0 0 0 0 0
          0 0 0 0 0 0
          0 0 0 0 0 0
          0 0 0 0 0 0
          0 0 0 0 0 0
          0 0 0 0 0 0
          0 0 0 0 0 0
          0 0 0 0 0 0
          0 0 0 0 0 0
          0 0 0 0 0 0
          0 0 0 0 0 0
          0 0 0 0 0 0
          0 0 0 0 0 0
          0 0 0 0 0 0
          0 0 0 0 0 0
          0 0 0 0 0 0
          0 0 0 0 0 0
          0 0 0 0 0 0
          0 0 0 0 0 0
          0 0 0 0 0 0
          0 0 0 0 0 0
          0 0 0 0 0 0
          0 0 0 0 0 0
          0 0 0 0 0 0
          0 0 0 0 0 0
          0 0 0 0 0 0
          0 0 0 0 0 0
          0 0 0 0 0 0
          0 0 0 0 0 0
          0 0 0 0 0 0
          0 0 0 0 0 0
          0 0 0 0 0 0
          0 0 0 0 0 0
        </DataArray>
        <DataArray type="Float64" Name="gradient_error" format="ascii" RangeMin="1.3385582708576634e-9" RangeMax="3.6901560817357125e-7">
          8.744672723454612e-9 1.0129175047045848e-8 2.2495130865046197e-8 2.8350079986815944e-9 1.5977603150610675e-8 4.0591244288489e-8
          2.6690214110915054e-7 1.4169686822861702e-7 1.167481664656519e-8 1.6918624662161782e-7 5.2647634738940325e-8 4.6536441086346266e-8
          3.7357938983891524e-8 9.954523354067707e-9 1.0953792743522982e-8 3.6901560817357125e-7 1.929956159263154e-7 1.0367469845913812e-8
          9.485912552045307e-9 9.126960824440397e-9 3.088685445185186e-9 2.8558218985788007e-9 4.544612882223441e-9 4.5657402210956244e-9
          1.5252277376081737e-8 1.6884934319251572e-7 1.3013900498783903e-7 9.142866678316235e-8 1.9435604773552456e-7 1.5858153144023015e-8
          1.2687180652336152e-8 1.2608969452905566e-7 9.433384476121425e-8 6.161750421967715e-9 8.276042785242399e-8 6.024107896897796e-8
          9.516208160649292e-9 6.257799499337284e-8 2.6049621704447732e-8 2.234241258466779e-7 1.524294851066371e-7 1.053594058522772e-7
          1.0135873249316763e-7 2.9135497492828504e-8 8.683577592849724e-8 2.576268367765917e-7 3.4041264652412925e-8 4.061061072955329e-8
          9.34470875108055e-8 5.9137264204186874e-8 1.2981742098908338e-7 1.9153274624111492e-7 1.1858847354831083e-7 1.5284572830314506e-8
          4.812783347229295e-8 6.752993393601237e-8 2.906970984085839e-7 1.184773699168987e-7 1.833882777940947e-7 1.4697960436469486e-8
          2.482991856712907e-7 7.687718121762403e-8 1.243308538768714e-7 2.9559826492971748e-8 7.183902018604018e-8 8.184350024969677e-9
          6.576463193225578e-9 3.3586470168892687e-9 1.7178452653611876e-7 1.0073293039575485e-7 4.96857636148148e-9 1.9402653773935313e-7
          8.613724204023555e-8 2.1370538460176493e-7 1.9326855415875198e-7 1.8804488071322371e-7 1.3797790295154142e-7 2.0122873602920438e-7
          1.7714526447569131e-7 1.5943692104107179e-7 1.1606879889386832e-7 7.75715815624359e-8 6.753029014115587e-8 5.2019080937528084e-8
          5.6606536778158425e-8 4.516616843934344e-8 3.413726869075845e-8 1.2570145580181563e-7 1.1590024004973234e-7 1.370866948574049e-7
          3.30765472311523e-8 1.3014434036744744e-7 9.078976899392496e-8 1.4752680435698767e-7 1.9080174506127715e-8 2.5526278676028796e-8
          3.604456052218592e-8 2.217656258932752e-8 1.3592293153210685e-7 2.2987232378415869e-7 1.4922298706401292e-7 1.2847648529749545e-7
          1.1713944646145585e-7 1.2923962289054965e-7 1.1613764091019185e-7 1.3543754982943894e-7 1.3041542733209047e-7 3.407079549302807e-8
          3.7917870998215405e-8 4.43556389799128e-8 9.079406293593885e-8 1.2668845227731266e-7 1.1195236223306785e-7 1.1961097200699115e-7
          1.0371493005585064e-7 1.2104445298263986e-7 1.0685079162924997e-7 4.923810316193568e-8 5.242972296722526e-8 6.089915153191366e-8
          9.350038545128072e-8 1.2417595238707296e-7 1.1512130325213009e-7 8.141412818365267e-8 7.017177499353069e-8 1.4453259629211147e-7
          1.371142194538928e-7 1.5475030021963195e-7 1.0270073293841305e-7 8.738613505674665e-8 5.76891395482732e-8 4.519126013651212e-8
          1.2411978815446482e-7 1.4815094618833092e-7 1.209659109360019e-7 2.328263863886104e-8 3.1419658753732364e-8 2.8983209426822125e-8
          3.957239242016411e-8 4.166653023253906e-8 4.876219427942953e-8 1.3509821709463252e-8 2.7704873657167238e-8 3.48354494833547e-8
          4.028341395338988e-8 3.683789856308361e-8 5.090641284378549e-8 4.496441025123036e-8 6.530531827347507e-8 5.685689126504422e-8
          1.031051129057435e-7 1.8345417479584086e-8 4.370029772832794e-8 5.538093664490122e-8 5.7462286499375454e-8 1.356412623714037e-7
          1.3107005224563143e-7 2.2583446202844444e-7 2.1363853460295201e-7 1.5078980300635943e-7 1.4789875355158407e-7 2.5297749904740225e-7
          1.2099991218408552e-7 1.460630289956202e-7 1.9098173968114047e-7 1.5849749562560172e-7 1.389286372117213e-7 1.2245473319696002e-7
          2.2127266789606513e-7 1.947958953240211e-7 1.6499885576119715e-7 7.341381512371996e-8 1.4215479652190112e-7 7.586531277050527e-8
          1.6054242030600028e-7 1.2037417882921998e-7 9.854982412386906e-8 1.4308794156101474e-7 3.889018795391377e-8 3.523315044250016e-8
          3.573553448694897e-8 3.6214306691049277e-8 3.7332297228494005e-8 3.012892890678529e-8 3.728255151858736e-8 3.659358747533631e-8
          3.720489202676506e-8 3.866925720248441e-8 2.4020102592222016e-8 2.5130677494378788e-8 2.803218608553587e-8 2.11417175094092e-8
          3.27676292769544e-8 3.86161247273004e-8 2.9753044895341876e-8 1.355018801201922e-8 1.6735024256969856e-8 2.321359506787075e-8
          1.4728536098493089e-8 2.8645466534378282e-8 3.448067620607244e-8 2.824227037312605e-8 3.9978559382444586e-8 3.8437008089660996e-8
          4.120293368655501e-8 4.0983556733386784e-8 4.378936448956423e-8 4.084910765606832e-8 4.113409437569198e-8 4.0729303753327023e-8
          4.2725946168775964e-8 3.936417855896463e-8 4.556089321967297e-8 4.4857866391342034e-8 4.7027127114695784e-8 4.265776267545651e-8
          3.6354122278407e-8 3.7429646802511775e-8 3.430440056984681e-8 3.8389943841195745e-8 3.915803932324158e-8 3.5619201894489574e-8
          3.776898442518515e-8 3.818949307964627e-8 4.0005136921114605e-8 4.0363678581882266e-8 3.913767470533468e-8 4.109048023060248e-8
          3.143608452250015e-8 3.2463375202120724e-8 3.514749888472379e-8 3.5320860920753134e-8 4.2446789801624105e-8 4.2744833747082404e-8
          4.50997844242444e-8 4.532819693461515e-8 4.3196504246733094e-8 4.543274533294987e-8 3.71000169545417e-8 3.823678691095562e-8
          4.179604421718099e-8 4.092019510725796e-8 3.881074110064522e-8 4.0366185533505755e-8 3.795613452472847e-8 3.92736308484565e-8
          3.934230398379376e-8 4.1739562626257186e-8 4.1991019372420784e-8 4.1922551698776754e-8 4.344047776582134e-8 4.049497259662805e-8
          4.157207431072882e-8 4.4408780209879247e-8 4.734762238760515e-8 4.636454231641767e-8 5.022746980845815e-8 4.908250278022638e-8
          5.083364610557063e-8 4.563744139990769e-8 5.349612564503779e-8 5.211047990656417e-8 5.2899119529522426e-8 4.749753494645357e-8
          3.9667155434961854e-8 3.9845581323221903e-8 3.599696382210293e-8 3.968134125731066e-8 3.938844378854518e-8 3.5092446789804725e-8
          4.7948585638932203e-8 4.807657164815912e-8 5.0893935778522965e-8 5.088152560989989e-8 4.7736299797801113e-8 4.999693965014728e-8
          4.466481078296426e-8 4.5858027192264897e-8 5.036295489662048e-8 4.8213475216000786e-8 5.3740798489945714e-8 5.35475340144084e-8
          5.61841870380979e-8 5.57878228033906e-8 5.203543607028629e-8 5.358472103705271e-8 5.417604698209567e-8 5.5111912197721117e-8
          5.977199452806442e-8 5.681196988432643e-8 4.4846023247417696e-8 4.600848562131539e-8 4.242400455661919e-8 4.289220738361304e-8
          5.051893467410957e-8 5.380892111224767e-8 5.076585987204518e-8 4.6776034468525044e-8 4.7031473834368535e-8 4.28354663353486e-8
          4.228496416331496e-8 5.704900195552241e-8 5.97879235377485e-8 5.360282513387542e-8 4.0028501389939416e-8 4.1283961710322814e-8
          3.7151048678261594e-8 4.2378602378933104e-8 4.3229435505215103e-8 3.8365031953837436e-8 4.370559616328481e-8 4.3679385562591704e-8
          3.843793774600027e-8 4.303412570898568e-8 4.253325305574643e-8 3.830345912782211e-8 2.636344188665117e-8 2.7630171347850393e-8
          2.9146125957372212e-8 3.0576747045324705e-8 3.066073351655774e-8 3.374610632347103e-8 2.102999563331393e-8 2.337104956425568e-8
          2.596951820740211e-8 2.8248732386627412e-8 3.247123892569093e-8 3.406287689527262e-8 3.6411885792735265e-8 3.817058278858948e-8
          3.736951653244832e-8 4.1609873841029306e-8 2.5902962247084664e-8 2.9024514162132728e-8 3.26552127156493e-8 3.5149862280479564e-8
          3.530343708942684e-8 3.827251978420433e-8 4.090548739321562e-8 4.3455555466878905e-8 3.2603235902818e-8 3.589438359982871e-8
          3.867469814402004e-8 4.170901730179886e-8 4.564993796075669e-8 4.625478939655233e-8 4.9261862775109524e-8 3.968976275925564e-8
          4.406279489720309e-8 4.503434683498149e-8 1.5004135829748168e-8 1.8611575177440702e-8 1.658087510474688e-8 2.073707009153505e-8
          2.5820654441566275e-8 2.8858549408537744e-8 1.220686959584883e-8 1.6464325923794903e-8 1.839501108445629e-8 2.473476015319167e-8
          1.8146007682089813e-8 2.3049506548934828e-8 1.970055135546891e-8 2.554928218084823e-8 3.237629268036501e-8 3.641833752135508e-8
          1.4561221195884025e-8 2.0333965845061002e-8 2.2166482827749352e-8 3.1086749468161306e-8 3.160607649814148e-8 3.501291695839343e-8
          3.734585362117916e-8 4.058279211091255e-8 3.119530732479656e-8 3.460570529752346e-8 3.697069092192336e-8 3.8932964425804016e-8
          4.34330009136025e-8 4.421149353258646e-8 4.822775226526947e-8 3.854203707329377e-8 4.306795938750304e-8 4.4002430363071346e-8
          4.1000569389555306e-8 4.2950237412367254e-8 4.622746346238872e-8 4.8386957907866785e-8 4.651542947891431e-8 5.2079069799036684e-8
          3.260763504876498e-8 3.697896426196427e-8 4.2073125584608534e-8 4.480309216908397e-8 5.202298551518961e-8 5.437868722359981e-8
          5.823061307167164e-8 6.078975384594034e-8 5.817306287949198e-8 6.45160439404869e-8 4.160733054917924e-8 4.790110205661399e-8
          5.341757938698982e-8 5.7824819468305586e-8 5.014214255637898e-8 5.5192121077523795e-8 5.236531240524788e-8 5.5293849210440426e-8
          4.9092825047218145e-8 5.483672150611943e-8 5.277581340934353e-8 6.081248264486632e-8 6.652143537020665e-8 5.7595679591032885e-8
          6.23098772947639e-8 6.13499589769316e-8 6.828510157395491e-8 6.059223985393547e-8 2.1582617433045448e-8 2.8463608683783487e-8
          2.420139548661011e-8 3.211903721425912e-8 4.1075833392460275e-8 4.649000522121295e-8 1.6291183451149288e-8 2.422434979993504e-8
          2.706923439602296e-8 3.898454916827419e-8 2.7633118819293764e-8 3.6647904345226245e-8 2.8020823252687203e-8 4.0125674147203996e-8
          5.275053757661023e-8 5.979064268561448e-8 2.1730924941270584e-8 3.101174275123456e-8 3.412823423343893e-8 4.9146959401059413e-8
          4.855941607926909e-8 5.432286138697868e-8 5.2587935439423815e-8 5.71840967036977e-8 4.8204488888514225e-8 5.391006961167965e-8
          5.2631601708156284e-8 6.069234400240993e-8 6.750012990577016e-8 6.181201563167117e-8 6.631523755616633e-8 6.00824591093839e-8
          6.657158420873865e-8 6.251591597717025e-8 4.163271835933569e-8 4.327576662150955e-8 3.963676988702797e-8 4.0700617364005105e-8
          4.332983216898173e-8 4.558763785565264e-8 4.373137857750197e-8 4.486534078240953e-8 4.6326334854092737e-8 4.155461917526978e-8
          4.2138352181864885e-8 4.795053724297681e-8 5.035896874430777e-8 4.705824785072359e-8 4.3384809856904815e-8 4.5975619872288136e-8
          4.5867771109734945e-8 4.798765570078576e-8 4.334689070457814e-8 4.60435355659673e-8 4.63952761602603e-8 4.8729081374525585e-8
          5.158386196978791e-8 5.010152459053612e-8 5.213955919975929e-8 4.890916744898349e-8 5.187302065393066e-8 5.08307598763272e-8
          4.752125013425812e-8 4.829532825062115e-8 4.2465207048129034e-8 4.277551299068051e-8 5.269035213316313e-8 5.4781448643158804e-8
          4.9758836679071095e-8 4.84344592705073e-8 4.830315600557971e-8 4.369078782170747e-8 4.439603508616475e-8 5.634372600352866e-8
          5.815385580916073e-8 5.2748124880487146e-8 5.444234163916303e-8 5.7149959285574295e-8 5.40205777076176e-8 5.56341164371928e-8
          5.484088311723125e-8 5.764829222348158e-8 5.50159584073508e-8 5.948750278142955e-8 6.114342969352574e-8 5.6897277022274924e-8
          5.730588375675096e-8 6.012234638783071e-8 6.209260515101689e-8 5.737642079916837e-8 6.36169042643637e-8 6.394270425712012e-8
          6.403242926795764e-8 6.128760641375676e-8 6.501683343863442e-8 5.877885854147475e-8 6.448553977019713e-8 6.738143106833355e-8
          7.080342499523962e-8 4.5754162900109943e-8 5.7317009310136815e-8 7.238591692665736e-8 7.131564471207607e-8 7.473932983804953e-8
          7.130176180014289e-8 7.349131860645896e-8 7.465437806044173e-8 8.006755261711677e-8 7.049177179848235e-8 2.305088434764953e-8
          4.023851812755344e-8 6.633280445443425e-8 1.7964799440755448e-8 3.3965449977920833e-8 6.130200274172454e-8 7.426725720422007e-8
          8.068245485971136e-8 7.04838354810029e-8 7.372711898026568e-8 7.315328142878905e-8 7.966118333628438e-8 7.218606278959331e-8
          6.044571957144201e-8 5.933557300427365e-8 5.624967972290179e-8 6.191957939045114e-8 6.14673205567668e-8 5.6166545225925445e-8
          5.3782146589483565e-8 6.339343920946026e-8 6.359906810925994e-8 5.60834107289491e-8 1.3385582708576634e-9 1.4597753415356375e-9
        </DataArray>
        <DataArray type="Float64" Name="gradient_matprop_error" format="ascii" RangeMin="0" RangeMax="0">
          0 0 0 0 0 0
          0 0 0 0 0 0
          0 0 0 0 0 0
          0 0 0 0 0 0
          0 0 0 0 0 0
          0 0 0 0 0 0
          0 0 0 0 0 0
          0 0 0 0 0 0
          0 0 0 0 0 0
          0 0 0 0 0 0
          0 0 0 0 0 0
          0 0 0 0 0 0
          0 0 0 0 0 0
          0 0 0 0 0 0
          0 0 0 0 0 0
          0 0 0 0 0 0
          0 0 0 0 0 0
          0 0 0 0 0 0
          0 0 0 0 0 0
          0 0 0 0 0 0
          0 0 0 0 0 0
          0 0 0 0 0 0
          0 0 0 0 0 0
          0 0 0 0 0 0
          0 0 0 0 0 0
          0 0 0 0 0 0
          0 0 0 0 0 0
          0 0 0 0 0 0
          0 0 0 0 0 0
          0 0 0 0 0 0
          0 0 0 0 0 0
          0 0 0 0 0 0
          0 0 0 0 0 0
          0 0 0 0 0 0
          0 0 0 0 0 0
          0 0 0 0 0 0
          0 0 0 0 0 0
          0 0 0 0 0 0
          0 0 0 0 0 0
          0 0 0 0 0 0
          0 0 0 0 0 0
          0 0 0 0 0 0
          0 0 0 0 0 0
          0 0 0 0 0 0
          0 0 0 0 0 0
          0 0 0 0 0 0
          0 0 0 0 0 0
          0 0 0 0 0 0
          0 0 0 0 0 0
          0 0 0 0 0 0
          0 0 0 0 0 0
          0 0 0 0 0 0
          0 0 0 0 0 0
          0 0 0 0 0 0
          0 0 0 0 0 0
          0 0 0 0 0 0
          0 0 0 0 0 0
          0 0 0 0 0 0
          0 0 0 0 0 0
          0 0 0 0 0 0
          0 0 0 0 0 0
          0 0 0 0 0 0
          0 0 0 0 0 0
          0 0 0 0 0 0
          0 0 0 0 0 0
          0 0 0 0 0 0
          0 0 0 0 0 0
          0 0 0 0 0 0
          0 0 0 0 0 0
          0 0 0 0 0 0
          0 0 0 0 0 0
          0 0 0 0 0 0
          0 0 0 0 0 0
          0 0 0 0 0 0
          0 0 0 0 0 0
          0 0 0 0 0 0
          0 0 0 0 0 0
          0 0 0 0 0 0
          0 0 0 0 0 0
          0 0 0 0 0 0
          0 0 0 0 0 0
          0 0 0 0 0 0
          0 0 0 0 0 0
          0 0 0 0 0 0
          0 0 0 0 0 0
          0 0 0 0 0 0
          0 0 0 0 0 0
          0 0 0 0 0 0
          0 0 0 0 0 0
          0 0 0 0 0 0
          0 0 0 0 0 0
          0 0 0 0 0 0
        </DataArray>
        <DataArray type="Float64" Name="initial_marker" format="ascii" RangeMin="0" RangeMax="2">
          0 0 2 0 0 0
          2 1 0 2 1 0
          0 0 2 2 2 0
          0 0 0 0 0 0
          0 1 1 1 2 0
          0 1 1 0 1 1
          0 1 0.6666666666666666 2 2 2
          1.3333333333333333 2 2 1.5 2 2
          2 2 2 1.5 1.5 2
          2 2 2 0 0.5 0
          1 0 0.5 0 0.5 0
          0 0 1 1 0 2
          2 2 2 2 2 2
          2 2 2 2 2 2
          2 2 2 2 2 2
          2 2 2 2 2 2
          2 2 2 2 2 2
          2 2 2 2 2 2
          2 2 2 2 2 2
          2 2 2 2 2 2
          2 2 2 2 2 2
          2 2 2 2 2 2
          2 2 2 2 2 2
          2 2 2 2 2 2
          2 2 2 2 2 2
          2 2 2 2 2 2
          2 2 2 2 2 2
          2 2 2 2 2 2
          2 2 2 2 2 2
          2 2 2 2 2 2
          2 2 2 2 2 2
          2 2 2 2 2 2
          2 2 2 2 2 2
          2 2 2 2 2 2
          2 2 2 2 2 2
          2 2 2 2 2 2
          2 2 2 2 2 2
          2 2 2 2 2 2
          2 2 2 2 2 2
          2 2 2 2 2 2
          2 2 2 2 2 2
          2 2 2 2 2 2
          2 2 2 2 2 2
          2 2 2 2 2 2
          2 2 2 2 2 2
          2 2 2 2 2 2
          2 2 2 2 2 2
          2 2 2 2 2 2
          2 2 2 2 2 2
          2 2 2 2 2 2
          2 2 2 2 2 2
          2 2 2 2 2 2
          2 2 2 2 2 2
          2 2 2 2 2 2
          2 2 2 2 2 2
          2 2 2 2 2 2
          2 2 2 2 2 2
          2 2 2 2 2 2
          2 2 2 2 2 2
          2 2 2 2 2 2
          2 2 2 2 2 2
          2 2 2 2 2 2
          2 2 2 2 2 2
          2 2 2 2 2 2
          2 2 2 2 2 2
          2 2 2 2 2 2
          2 2 2 2 2 2
          2 2 2 2 2 2
          2 2 2 2 2 2
          2 2 2 2 2 2
          2 2 2 2 2 2
          2 2 2 2 2 2
          2 2 2 2 2 2
          2 2 2 2 2 2
          2 2 2 2 2 2
          2 2 2 2 2 2
          2 2 2 2 2 2
          2 2 2 2 2 2
          2 2 2 2 2 2
          2 2 2 2 2 2
          2 2 2 2 2 2
          2 2 2 2 2 2
          2 2 2 2 2 2
          2 2 2 2 2 2
          2 2 2 2 2 2
          2 2 2 2 2 2
          2 2 2 2 2 2
          2 2 2 2 2 2
          2 2 2 2 2 2
          2 2 2 2 2 2
          2 2 2 2 2 2
          2 2 2 2 0 0
        </DataArray>
        <DataArray type="Float64" Name="markers_norefine" format="ascii" RangeMin="0" RangeMax="2">
          0 0 2 0 0 0
          0 0 0 0 0 0
          0 0 2 0 0 0
          0 0 0 0 0 0
          0 0 0 0 0 0
          0 0 0 0 0 0
          0 0 0 0 0 0
          0 2 0.5 0 2 2
          0.5 2 0.5 0 0 2
          2 2 0 0 0 0
          0 0 0 0 0 0
          0 0 0 0 0 0
          0 0 0 0 0 0
          0 0 0 0 0 0
          0 0 0 0 0 0
          2 0 0 0 2 2
          2 2 0 0 0 0
          0 0 0 0 0 2
          2 2 0.5 0 0 0
          0 0 0 2 2 2
          0.5 0 0 0 0 0
          0 0 0 0 0 0
          0 0 0 2 2 2
          2 2 2 2 2 2
          2 2 2 2 2 2
          1.5 2 2 2 2 0
          0 0 0 0 0 0
          0 0 0 0 0 0
          0 0.25 0 0 1.25 2
          0 0 0 0 0 0
          1 1 1 2 0.5 0
          1.5 0 2 2 2 2
          2 1.5 2 2 2 2
          2 2 2 2 0.5 0
          1 1 0 1 0 0
          0 0 0 0 0 0
          0 0 0 0 0 0
          1 1 1 1 1 1
          2 2 2 2 1 1
          1 1 1 1 2 2
          2 2 0.5 0.5 0 0
          1.5 1.5 0.6666666666666666 0.5 0.5 0
          0 1.5 1.5 0.6666666666666666 0 0
          0 0 0 0 0 0
          0 0 0 0 0 0
          1 1 1 1 1 1
          2 2 2 2 1 1
          1 1 1 1 2 2
          2 2 0.5 0.5 0 0
          1.5 1.5 0.6666666666666666 0.5 0.5 0
          0 1.5 1.5 0.6666666666666666 0 0
          0 0 0 0 0 0
          0 0 0 0 2 2
          2 2 2 2 2 2
          2 2 2 2 2 2
          2 2 2 2 2 2
          2 2 1.5 1.5 2 2
          2 2 2 1.5 1.5 2
          2 2 2 2 2 2
          2 2 2 2 2 2
          2 2 2 2 2 2
          2 2 2 2 2 2
          2 2 2 2 2 2
          2 2 2 2 2 2
          2 2 2 2 2 2
          2 2 2 2 2 2
          2 2 2 2 2 2
          2 2 2 2 1.5 1.5
          2 2 2 2 2 1.25
          1.3333333333333333 2 2 1.75 2 2
          2 2 2 2 2 2
          2 2 2 2 2 2
          2 2 2 2 2 2
          2 2 2 2 2 2
          2 2 2 2 2 2
          2 2 0.5 0.5 0 0
          1 1 0 0.5 0.5 0
          0 1 1 0 1 1
          0 0 1 1 0 1
          1 0 0 1 1 0
          0.5 0.5 0 0 1 1
          0 0.25 0 0 0 0.75
          0.6666666666666666 0 1 1 0 0
          1 1 0 1 1 0
          0 1 1 0 2 2
          1.75 1.25 1 1 2 2
          2 2 2 2 2 1.75
          2 1.5 2 2 2 2
          2 2 2 2 2 2
          2 2 1.75 2 2 2
          1 0.5 0 1 0.75 0
          0 1 1 0 0 0
        </DataArray>
        <DataArray type="Float64" Name="markers_mustrefine" format="ascii" RangeMin="0" RangeMax="2">
          0 0 2 0 0 0
          2 1 0 2 1 0
          0 0 2 2 2 0
          0 0 0 0 0 0
          0 1 1 1 2 0
          0 1 1 0 1 1
          0 1 0.6666666666666666 2 2 2
          1.3333333333333333 2 2 1.5 2 2
          2 2 2 1.5 1.5 2
          2 2 2 0 0.5 0
          1 0 0.5 0 0.5 0
          0 0 1 1 0 2
          2 2 2 2 2 2
          2 2 2 2 2 2
          2 2 2 2 2 2
          2 2 2 2 2 2
          2 2 2 2 2 2
          2 2 2 2 2 2
          2 2 2 2 2 2
          2 2 2 2 2 2
          2 2 2 2 2 2
          2 2 2 2 2 2
          2 2 2 2 2 2
          2 2 2 2 2 2
          2 2 2 2 2 2
          2 2 2 2 2 2
          2 2 2 2 2 2
          2 2 2 2 2 2
          2 2 2 2 2 2
          2 2 2 2 2 2
          2 2 2 2 2 2
          2 2 2 2 2 2
          2 2 2 2 2 2
          2 2 2 2 2 2
          2 2 2 2 2 2
          2 2 2 2 2 2
          2 2 2 2 2 2
          2 2 2 2 2 2
          2 2 2 2 2 2
          2 2 2 2 2 2
          2 2 2 2 2 2
          2 2 2 2 2 2
          2 2 2 2 2 2
          2 2 2 2 2 2
          2 2 2 2 2 2
          2 2 2 2 2 2
          2 2 2 2 2 2
          2 2 2 2 2 2
          2 2 2 2 2 2
          2 2 2 2 2 2
          2 2 2 2 2 2
          2 2 2 2 2 2
          2 2 2 2 2 2
          2 2 2 2 2 2
          2 2 2 2 2 2
          2 2 2 2 2 2
          2 2 2 2 2 2
          2 2 2 2 2 2
          2 2 2 2 2 2
          2 2 2 2 2 2
          2 2 2 2 2 2
          2 2 2 2 2 2
          2 2 2 2 2 2
          2 2 2 2 2 2
          2 2 2 2 2 2
          2 2 2 2 2 2
          2 2 2 2 2 2
          2 2 2 2 2 2
          2 2 2 2 2 2
          2 2 2 2 2 2
          2 2 2 2 2 2
          2 2 2 2 2 2
          2 2 2 2 2 2
          2 2 2 2 2 2
          2 2 2 2 2 2
          2 2 2 2 2 2
          2 2 2 2 2 2
          2 2 2 2 2 2
          2 2 2 2 2 2
          2 2 2 2 2 2
          2 2 2 2 2 2
          2 2 2 2 2 2
          2 2 2 2 2 2
          2 2 2 2 2 2
          2 2 2 2 2 2
          2 2 2 2 2 2
          2 2 2 2 2 2
          2 2 2 2 2 2
          2 2 2 2 2 2
          2 2 2 2 2 2
          2 2 2 2 2 2
          2 2 2 2 0 0
        </DataArray>
        <DataArray type="Float64" Name="gradient_marker" format="ascii" RangeMin="0" RangeMax="1">
          0.25 0.875 0 0.5 0.5 0.75
          1 0.75 0.5 0.75 0.125 1
          0.75 0.625 0 1 0.75 0.5
          1 1 0.75 0.875 1 1
          0 0.5 0.5 0.5 0.75 0
          0 0.5 0.375 0 0.25 0.125
          0 0.25 0 1 0.625 0.25
          0.3333333333333333 0 0.25 0.75 0 0
          0.25 0 0.375 0.625 0.25 0
          0 0 1 0.5 0.5 0
          0.5 0.25 0.375 0 0.125 0
          0 0 0.5 0.25 0 1
          0 1 1 1 0.5 1
          1 0.75 0.5 0 0 0
          0 0 0 0.5 0.5 0.5
          0 0.25 0 0.5 0 0
          0 0 0.5 1 0.5 0.5
          0.5 0.5 0.5 0.5 0.5 0
          0 0 0.25 0.5 0.5 0.5
          0.375 0.5 0.375 0 0 0
          0.25 0.25 0.25 0 0 0.5
          0.5 0.5 0.25 0.25 0 0
          0.5 0.5 0.5 0 0 0
          0 0 0 0 0 0
          0 0 0 0 0 0
          0.125 0 0 0 0 0.5
          0.5 1 1 0.5 0.5 1
          0.5 0.5 1 0.75 0.5 0.5
          1 0.625 0.5 0 0.25 0
          0.375 0.25 0.25 0.5 0 0
          0 0 0 0 0 0
          0 0 0 0 0 0
          0 0 0 0 0 0
          0 0 0 0 0 0
          0 0 0 0 0 0
          0 0 0 0 0 0
          0 0 0 0 0 0
          0 0 0 0 0 0
          0 0 0 0 0 0
          0 0 0 0 0 0
          0 0 0 0 0 0
          0 0 0 0 0 0
          0 0 0 0 0 0
          0 0 0 0 0 0
          0 0 0 0 0 0
          0 0 0 0 0 0
          0 0 0 0 0 0
          0 0 0 0 0 0
          0 0 0 0 0 0
          0 0 0 0 0 0
          0 0 0 0 0 0
          0 0 0 0 0 0
          0 0 0 0 0 0
          0 0 0 0 0 0
          0 0 0 0 0 0
          0 0 0 0 0 0
          0 0 0 0 0 0
          0 0 0 0 0 0
          0 0 0 0 0 0
          0 0 0 0 0 0
          0 0 0 0 0 0
          0 0 0 0 0 0
          0 0 0 0 0 0
          0 0 0 0 0 0
          0 0 0 0 0 0
          0 0 0 0 0 0
          0 0 0 0 0 0
          0 0 0 0 0 0
          0 0 0 0 0 0
          0 0 0 0 0 0
          0 0 0 0 0 0
          0 0 0 0 0 0
          0 0 0 0 0 0
          0 0 0 0 0 0
          0 0 0 0 0 0
          0 0 0 0 0 0
          0 0 0 0 0 0
          0 0 0 0 0 0
          0 0 0 0 0 0