<?xml version="1.0"?>
<VTKFile type="UnstructuredGrid" version="0.1" byte_order="LittleEndian" header_type="UInt32" compressor="vtkZLibDataCompressor">
  <UnstructuredGrid>
    <Piece NumberOfPoints="613" NumberOfCells="379">
      <PointData>
        <DataArray type="Int32" Name="libmesh_node_id" format="ascii" RangeMin="661" RangeMax="5664">
          814 970 1343 1344 1345 1346
          1353 1354 1359 2336 2337 2338
          2339 2340 2341 2342 2343 2344
          2345 2346 2347 2348 2349 2350
          2351 2352 2353 2354 2355 2360
          2361 2362 2363 2367 2368 2370
          2371 2372 2373 2384 2385 2391
          2404 2405 2406 2407 2408 2410
          2411 2412 2413 2421 2425 2738
          2739 2740 2741 2745 2746 2748
          2750 2752 2755 2756 2759 2760
          4856 4857 4858 4859 4860 4861
          4862 4863 4864 4865 4866 4867
          4868 4869 4870 4871 4872 4873
          4874 4875 4876 4877 4878 4879
          4880 4881 4882 4883 4884 4885
          4886 4887 4888 4889 4890 4891
          4892 4893 4894 4895 4896 4897
          4898 4899 4900 4901 4902 4903
          4904 4905 4906 4907 4908 4909
          4910 4911 4912 4913 4914 4915
          4916 4917 4918 4919 4924 4925
          4926 4927 4928 4929 4935 4937
          4941 4942 4943 4944 4948 4949
          4950 4951 4952 4953 4954 4955
          4956 4957 4958 4959 4960 4961
          4962 4963 4964 4965 4969 4970
          4972 4973 4975 4976 4977 4978
          4979 4980 4981 4982 4983 4984
          4985 4986 4987 4990 4991 4993
          4995 4996 4997 4998 4999 5000
          5001 5002 5003 5004 5005 5006
          5007 5010 5012 5013 5014 5015
          5016 5017 5018 5019 5020 5021
          5022 5023 5025 5027 5028 5029
          5030 5031 5032 5033 5037 5038
          5040 5041 5042 5043 5047 5048
          5071 5077 5078 5098 5099 5100
          5101 5102 5103 5104 5105 5106
          5107 5108 5109 5112 5113 5115
          5117 5120 5121 5124 5128 5129
          5130 5131 5132 5133 5134 5135
          5137 5139 5141 5227 5228 5229
          5230 5231 5232 5233 5234 5235
          5236 5237 5238 5239 5240 5241
          5242 5243 5244 5245 5246 5247
          5248 5249 5250 5251 5252 5253
          5254 5255 5256 5258 5259 5260
          5261 5262 5263 5264 5265 5266
          5267 5268 5269 5270 5271 5272
          5273 5274 5275 5276 5277 5278
          5279 5280 5281 5282 5283 5284
          5285 5286 5287 5288 5289 5290
          5292 5293 5294 5351 5352 5353
          5354 5355 5356 5357 5358 5360
          5362 5364 5379 5380 5381 5382
          5383 5384 5385 5386 5388 5390
          5392 963 971 964 661 804
          805 794 1293 1294 1295 1347
          1348 1349 1350 1351 1298 1352
          1694 1692 1356 807 1383 1381
          2120 2121 2122 2125 2128 1301
          2386 2388 2387 2390 2389 2742
          2743 2744 2747 806 2364 1355
          2699 2749 2700 2751 2753 2703
          2754 2374 2236 2376 2757 2758
          2761 3750 3751 3752 3755 795
          3758 4177 4178 4180 2216 4183
          2217 3778 4193 4195 4197 2219
          4211 4212 4214 1315 4920 4921
          4217 2356 4922 4923 2222 2357
          4930 4931 1357 4932 4933 2358
          4934 4227 4936 4229 4938 4231
          4939 2359 4940 4945 4946 4947
          1358 4966 4967 4968 4971 2365
          4974 2366 4988 4989 4992 4994
          2369 5008 5009 5011 5024 5026
          1360 4313 4314 5034 5035 4317
          5036 4319 5039 2237 2375 5044
          5045 5046 5049 2377 5070 4349
          5072 4351 5073 5075 5074 2381
          5076 5079 5080 5081 5082 5083
          2382 5110 5111 5114 5116 5118
          5062 5119 5063 5122 5123 5125
          5068 5126 5127 5136 5138 5140
          2392 5142 5092 5143 5146 5096
          5147 5149 5150 5151 5152 5156
          5157 5171 5172 5174 2396 5177
          2397 5187 5189 5191 2399 5257
          2409 5205 5206 5208 1363 5211
          2402 5221 5223 5225 1364 5291
          1365 5303 5305 5307 2415 5359
          5361 5363 2422 5365 5317 5366
          5369 5321 5370 5372 5373 5376
          5377 5331 5333 5335 2419 5387
          5389 5391 2426 5393 5345 5394
          5397 5349 5398 5400 5401 5404
          5405 5455 5456 5461 5462 5459
          5464 5475 5479 5477 5481 5604
          5605 5608 5610 5611 5613 5624
          5626 5628 5630 5638 5639 5642
          5644 5645 5647 5658 5660 5662
          5664
        </DataArray>
        <DataArray type="Float64" Name="bounds" format="ascii" RangeMin="0" RangeMax="0">
          0 0 0 0 0 0
          0 0 0 0 0 0
          0 0 0 0 0 0
          0 0 0 0 0 0
          0 0 0 0 0 0
          0 0 0 0 0 0
          0 0 0 0 0 0
          0 0 0 0 0 0
          0 0 0 0 0 0
          0 0 0 0 0 0
          0 0 0 0 0 0
          0 0 0 0 0 0
          0 0 0 0 0 0
          0 0 0 0 0 0
          0 0 0 0 0 0
          0 0 0 0 0 0
          0 0 0 0 0 0
          0 0 0 0 0 0
          0 0 0 0 0 0
          0 0 0 0 0 0
          0 0 0 0 0 0
          0 0 0 0 0 0
          0 0 0 0 0 0
          0 0 0 0 0 0
          0 0 0 0 0 0
          0 0 0 0 0 0
          0 0 0 0 0 0
          0 0 0 0 0 0
          0 0 0 0 0 0
          0 0 0 0 0 0
          0 0 0 0 0 0
          0 0 0 0 0 0
          0 0 0 0 0 0
          0 0 0 0 0 0
          0 0 0 0 0 0
          0 0 0 0 0 0
          0 0 0 0 0 0
          0 0 0 0 0 0
          0 0 0 0 0 0
          0 0 0 0 0 0
          0 0 0 0 0 0
          0 0 0 0 0 0
          0 0 0 0 0 0
          0 0 0 0 0 0
          0 0 0 0 0 0
          0 0 0 0 0 0
          0 0 0 0 0 0
          0 0 0 0 0 0
          0 0 0 0 0 0
          0 0 0 0 0 0
          0 0 0 0 0 0
          0 0 0 0 0 0
          0 0 0 0 0 0
          0 0 0 0 0 0
          0 0 0 0 0 0
          0 0 0 0 0 0
          0 0 0 0 0 0
          0 0 0 0 0 0
          0 0 0 0 0 0
          0 0 0 0 0 0
          0 0 0 0 0 0
          0 0 0 0 0 0
          0 0 0 0 0 0
          0 0 0 0 0 0
          0 0 0 0 0 0
          0 0 0 0 0 0
          0 0 0 0 0 0
          0 0 0 0 0 0
          0 0 0 0 0 0
          0 0 0 0 0 0
          0 0 0 0 0 0
          0 0 0 0 0 0
          0 0 0 0 0 0
          0 0 0 0 0 0
          0 0 0 0 0 0
          0 0 0 0 0 0
          0 0 0 0 0 0
          0 0 0 0 0 0
          0 0 0 0 0 0
          0 0 0 0 0 0
          0 0 0 0 0 0
          0 0 0 0 0 0
          0 0 0 0 0 0
          0 0 0 0 0 0
          0 0 0 0 0 0
          0 0 0 0 0 0
          0 0 0 0 0 0
          0 0 0 0 0 0
          0 0 0 0 0 0
          0 0 0 0 0 0
          0 0 0 0 0 0
          0 0 0 0 0 0
          0 0 0 0 0 0
          0 0 0 0 0 0
          0 0 0 0 0 0
          0 0 0 0 0 0
          0 0 0 0 0 0
          0 0 0 0 0 0
          0 0 0 0 0 0
          0 0 0 0 0 0
          0 0 0 0 0 0
          0 0 0 0 0 0
          0
        </DataArray>
        <DataArray type="Float64" Name="gradient_error" format="ascii" RangeMin="1.7119195914038908e-12" RangeMax="3.1603446067759076e-9">
          6.743240234697309e-10 1.908252911370679e-11 2.6536611061409166e-11 2.2145251841793993e-11 1.8842985643243087e-11 1.598682272872539e-11
          5.439413692348626e-11 3.4056392157094195e-11 1.7669393626475837e-10 2.3888597140004305e-11 2.147738062381119e-11 4.1640299055079846e-11
          5.6935644247677856e-11 1.104131432117647e-11 4.3775983181644485e-11 4.002509624471198e-11 1.7590278261521568e-11 5.997153941366283e-11
          3.006905665445649e-11 6.898828038683843e-11 7.78855397370701e-11 4.8402344677542875e-11 7.045597575707928e-11 3.1798200283054954e-10
          2.6716123393682e-10 1.519832231263178e-10 1.2741771684167725e-10 1.5942139878352615e-10 7.563862492198784e-11 2.4973278359807146e-11
          2.2059910272471092e-11 6.736570968663846e-11 5.643215762630844e-11 1.5254010471661985e-11 3.340886871468419e-11 4.2091079234074314e-10
          3.4036115944994035e-10 1.4255089374979798e-10 1.807566483449202e-10 1.0549899818634803e-11 1.611603829515981e-11 6.477371045055002e-11
          1.3396862582019627e-9 1.1007129302111174e-9 5.892172850074147e-10 4.791325924497977e-10 5.844845854595743e-10 1.4364409772439455e-9
          1.3066325937865237e-9 5.947934249920549e-10 7.944190414494792e-10 1.9300432205003652e-10 2.7554948778775306e-10 6.613467867689882e-12
          6.257505991226948e-12 2.131155627865085e-11 1.9184689506259558e-11 5.104089984021421e-12 1.393948449016092e-11 1.4596262487437806e-11
          7.588442471037082e-12 1.3078132559450556e-11 3.661483423735275e-12 8.048742592203136e-12 3.0163309941917224e-12 5.276338937952704e-12
          1.7881719254341874e-11 1.914092664224723e-11 2.7431885595195815e-11 2.664035747143879e-11 1.7058934220490843e-11 2.2199002787573722e-11
          2.1815082022274158e-11 2.0400134030152583e-11 2.584882934768176e-11 2.14311612569746e-11 6.990204348881859e-11 6.667511767682301e-11
          5.5308111140128676e-11 6.974023565492446e-11 1.793895614185654e-10 1.725077013260877e-10 1.2652550688869085e-10 1.2141057993915828e-10
          1.53354194931992e-10 1.074216998128097e-10 4.4673251745533335e-10 4.278351468201384e-10 3.044114159405761e-10 3.759151688153516e-10
          4.914743178858621e-11 4.712050032214715e-11 8.700133959979179e-11 8.348194632754485e-11 3.1171718703486057e-11 5.864799213218601e-11
          5.6329602140866646e-11 4.1684581449005986e-11 7.385195489633224e-11 4.9927419617818193e-11 2.2196369639435765e-10 2.124178678717951e-10
          1.4541355117034247e-10 1.8624823651148888e-10 7.361064577756991e-11 1.2584685614206773e-10 5.047903116050061e-11 8.785833803017056e-11
          5.6150131557583264e-11 9.542655391671889e-11 6.658200087836974e-11 3.0333343396259523e-10 2.1518813204540132e-10 2.2522834795432113e-10
          3.4296668186343245e-11 6.0417615863531e-11 2.305722723307345e-11 4.0923235480664456e-11 2.631773555008554e-11 4.5816617692583614e-11
          3.1073154698791144e-11 1.498091505442042e-10 1.023896570855762e-10 1.1080267713422892e-10 1.0848133788987882e-9 1.0352838366381836e-9
          7.863679547353342e-10 7.49837655662646e-10 8.998953481258218e-10 6.502500813809109e-10 5.570243448478887e-10 5.308212127550188e-10
          3.859048694206166e-10 3.675820585627642e-10 4.5951236317344716e-10 3.177866114861777e-10 5.132360909499948e-10 3.694171470132914e-10
          3.61726898203211e-10 2.4966980367325745e-10 2.595335521796881e-10 1.7871119978141395e-10 2.1302245516010934e-11 2.053581457195836e-11
          3.901770742408229e-11 3.749156423095294e-11 1.343574060959087e-11 2.560279622864874e-11 2.460180783943289e-11 1.8360582696796574e-11
          3.325458683918221e-11 2.1819407125436523e-11 1.021221347887554e-10 9.769568063636494e-11 6.444081960096412e-11 8.55739114470986e-11
          8.953890504835148e-12 8.632027746524745e-12 1.651608569670299e-11 1.5870102036313907e-11 7.717176893141669e-12 1.4075294937249555e-11
          4.3637918663905555e-11 4.1740799801042344e-11 3.6547100440113057e-11 1.5256538321110702e-11 2.7268457458832395e-11 9.963560345952225e-12
          1.7882636139659614e-11 1.1816455657347207e-11 2.0716663372867148e-11 1.359496759748677e-11 6.872493749292273e-11 4.530340713722918e-11
          5.0718596345624156e-11 6.411097161295535e-12 1.1536054868342535e-11 4.978878534571226e-12 8.76765777313481e-12 2.93307231841364e-11
          2.1618518246433593e-11 2.616758631713722e-10 2.491699309657243e-10 1.7378098021110905e-10 1.6543822527884259e-10 2.1521550989581915e-10
          1.4280225748930245e-10 6.276911454095414e-10 5.955150375994124e-10 3.991297878662915e-10 5.085577573840115e-10 1.1308023177362573e-10
          1.0763544936907797e-10 9.28698479081583e-11 2.757931374521263e-10 2.614266088728548e-10 1.6744780858027643e-10 2.2270924469260066e-10
          1.6884734426268757e-10 1.1192806599753772e-10 1.206462820163447e-10 7.9873718327202e-11 3.9108080910680195e-10 2.6119509104907686e-10
          2.712856630536831e-10 7.274833592909143e-11 5.1874944414037315e-11 1.7066201922190365e-10 1.0913282456872105e-10 1.179105026875018e-10
          4.0124617942172084e-11 6.730647415995917e-11 2.7788052239775004e-11 4.701946148810461e-11 1.543692660249472e-10 1.0898582901087822e-10
          1.9014951863468835e-11 3.235125049007678e-11 1.2878081615855386e-11 2.1922879560285513e-11 7.560508288035325e-11 5.1540312759910075e-11
          2.4336913639293553e-10 1.7039707639360593e-10 1.170502487167226e-10 8.634369800976738e-12 1.461048503485741e-11 5.767935517531156e-12
          9.556614255805662e-12 5.976716364973297e-12 9.507936189951693e-12 6.977433794287748e-12 3.453982603567131e-11 2.2688879098211122e-11
          2.166217421080945e-11 3.7714737239301384e-12 6.138678607159722e-12 3.283195903239903e-12 4.88767990616061e-12 1.4601204782305376e-11
          1.0707168975815372e-11 3.2519910880229534e-12 4.554294995608701e-12 3.4774301989561814e-12 7.892621541365396e-11 5.221837308305634e-11
          4.752358902082826e-11 3.140469801297084e-11 1.7044690056961498e-10 1.132877776912954e-10 9.768510275101835e-11 3.386206296135874e-11
          2.0290896208727368e-11 7.377697405796609e-11 4.211287372892692e-11 1.2711717901839467e-9 1.2058055676669798e-9 8.644828368648724e-10
          8.191840241727734e-10 1.0279890471960246e-9 6.963858668597895e-10 1.9343866943512553e-9 1.8468772913511427e-9 1.2767225411641782e-9
          1.600332863278115e-9 5.725816426487163e-10 5.421498604900792e-10 3.697644821476797e-10 3.4990474132570275e-10 4.598770359859334e-10
          2.9632533794420324e-10 9.010094568700249e-10 8.573445859989288e-10 5.599574487856128e-10 7.360738821688889e-10 7.855963970314334e-10
          5.300164612353709e-10 5.371636840688496e-10 3.6077315126651206e-10 1.2456422283314717e-9 8.507318708413279e-10 8.623374550577981e-10
          3.4894031424243723e-10 2.243383854611171e-10 2.367285248970577e-10 5.656666787655065e-10 3.665495444651276e-10 3.8631847448492667e-10
          2.1006309689571713e-9 2.0436586110987566e-9 1.4892850915616882e-9 1.4434376662902113e-9 1.8520866391524363e-9 1.2958189864679245e-9
          1.9952904648580297e-9 1.9715395141790295e-9 1.4113014092900612e-9 1.8498019192516777e-9 1.022761216454549e-9 9.880336104649248e-10
          6.812996328460056e-10 6.563103665145254e-10 8.797554022403986e-10 5.802997772218732e-10 1.0000434366702395e-9 9.777220276286152e-10
          6.564791978242479e-10 8.94777530647133e-10 1.5145293774322526e-9 1.047290966072919e-9 1.0905562648598657e-9 7.454843570262291e-10
          1.5663306641869088e-9 1.0898119604897549e-9 1.1576659040642964e-9 7.039381043112743e-10 4.60431312836574e-10 4.963195863705577e-10
          7.365956791979024e-10 4.84186653344858e-10 5.307075575372796e-10 3.291074713449913e-10 2.2009115003753396e-10 1.8184366125060897e-10
          1.2115876490214327e-10 5.287419938414868e-10 3.559054721116514e-10 2.883448996900034e-10 1.4397063784929083e-10 7.904677741541545e-11
          2.3399984151118715e-10 1.2637042657525498e-10 6.848803186792628e-10 4.6359324851449534e-10 3.7658206443838324e-10 2.529934005989463e-10
          7.389571702510083e-10 5.013865784619356e-10 4.0955343213090864e-10 3.062344079716155e-10 1.6614899674280613e-10 3.3188406035200215e-10
          1.811920686163516e-10 6.605209129797472e-11 1.5516989806733214e-11 7.220185028300608e-11 1.0383762544922948e-10 1.992082014748375e-11
          1.482135965338979e-11 7.554016510820257e-11 8.923353722350763e-11 8.134301094445557e-11 6.253803176043716e-11 6.047586342211624e-12
          5.165487564460323e-12 4.221471013522484e-12 1.3108048403650802e-11 2.134966646331168e-11 7.442208325882405e-11 5.525675529594682e-12
          5.789707797512109e-12 2.055343805694897e-11 2.5325069677350482e-11 8.721247753687233e-12 6.9279024434223484e-12 2.7111171833986656e-11
          4.7524693375287704e-11 3.839684610881508e-11 5.427292776792625e-11 8.146980916406927e-11 1.0130742220428115e-10 1.0506473606424752e-10
          6.8323280614015025e-12 1.0139614232612701e-11 8.776450631061434e-12 7.150430637134867e-12 9.051064447506182e-12 3.081967643693867e-12
          9.271592017476755e-12 8.33412734523694e-12 5.994061913741492e-12 1.0438649038839471e-11 9.242120869734515e-12 6.392760556988796e-12
          2.792724351864102e-11 3.691606563188367e-11 7.318757008787244e-11 1.8025650424793955e-11 2.575927050588668e-11 5.175204792496439e-11
          1.2187396848454395e-11 3.9004007472953195e-11 7.833353613204868e-11 1.8599793952558645e-11 1.7119195914038908e-12 3.440586802534965e-12
          2.2897124505840733e-12 2.427476787150866e-11 3.9502396906037976e-11 3.806529567682363e-11 3.672035278004137e-11 9.947221850548715e-11
          9.524834257714611e-11 2.4969872196898595e-10 2.4055792902038026e-10 2.1474182409097135e-10 6.15073270204401e-10 5.89362298231763e-10
          5.186182900459836e-10 8.384565556136949e-11 1.768741493975471e-10 1.3437499461900598e-10 4.194704686662178e-10 3.1238574041690186e-10
          1.4613505087093248e-9 1.3960808231286191e-9 1.217125019793314e-9 3.1603446067759076e-9 2.413320287991122e-9 2.299482587048932e-9
          3.0163228805666694e-9 1.7933566911442882e-9 1.7063178867073127e-9 1.9877959967625942e-9 2.6199034459892323e-9 1.4689660946484743e-9
          1.2971117163957343e-9 1.2326501211039087e-9 9.137630961397403e-10 8.675371045130541e-10 1.0575492312733374e-9 7.423329981958531e-10
          7.127532317739437e-10 9.683045561582135e-10 5.151696937490776e-10 7.035896275972255e-10 1.5564660113837672e-9 2.066283451752285e-9
          1.143067418462891e-9 8.038531650614924e-10 1.1026999700200037e-9 8.187885433919664e-10 5.725072398969112e-10 5.724340365257526e-10
          3.984570641623872e-10 5.472699725950886e-12 1.0481432097745044e-11 1.0070583875325262e-11 8.933309784078592e-12 2.7753508884448298e-11
          2.6546064633120972e-11 2.3239804554400886e-11 4.092181688203831e-12 7.325879823696082e-12 5.55913556435903e-12 1.864618841642977e-11
          1.3730333023620994e-11 7.212069516261474e-11 6.864157905855614e-11 5.921055564621345e-11 4.637239684542219e-11 3.3060140145862396e-11
          7.532151771604658e-11 5.708413237490355e-11 9.480832947417392e-11 2.6950958228960083e-11 4.431794920375337e-11 6.247674911988326e-11
          3.096607917684246e-11 2.1481347450041422e-10 9.805842405363712e-11 1.3694311770465232e-10 6.90271339215882e-11 1.2857504277373357e-11
          2.1279246817968138e-11 1.4380483784314802e-11 4.777035302763643e-11 3.247628566332388e-11 3.409071091535358e-10 4.682215701643477e-10
          2.0763517553955278e-10 2.8679913824621397e-10 1.4755615569596163e-10 5.121253222879041e-10 7.07872920245211e-10 2.974047095752143e-10
          4.140428293043543e-10 1.0294961687856174e-10 7.05414293162248e-11 3.625183012010253e-10 2.511976015130824e-10 2.0934136921970644e-10
          1.4443519923830597e-10 2.4242596218432467e-12 3.889290198850945e-12 3.1051850011242866e-12 9.241280243258502e-12 3.907652162103823e-12
          5.682257505437844e-12 5.7781821386421906e-12 8.778526087771485e-12 3.0589947580541583e-12 4.321297498485484e-12 1.2577509819184261e-11
          1.895355635701559e-11 9.626134284220647e-12 8.082988553148762e-12 2.1545366893320552e-11 1.287093179805988e-11 4.708034701237296e-11
          2.6842198148988195e-11 2.6482334112671478e-11 3.9405924953595674e-11 1.7450299080099156e-11 5.156843181615455e-11 7.648659335425995e-11
          3.4123619056246494e-11 7.336038305026185e-12 1.1246933087229682e-11 4.604113357977263e-12 7.102179716904941e-12 2.2183630320622627e-11
          1.4129625622477821e-11 1.8180102321249858e-9 1.7267864390158522e-9 1.477565357268424e-9 2.7085979765118745e-9 2.591683840385502e-9
          2.259249407079212e-9 1.1351901713269969e-9 7.808615563854158e-10 1.7736377967863436e-9 1.239549228924348e-9 1.518340678242408e-10
          2.491823902883251e-10 2.865732823325025e-9 2.8000725791432793e-9 2.5651979104212973e-9 2.6755175747410014e-9 2.661100646884241e-9
          2.5351585421671113e-9 2.126330906420669e-9 1.5521910649090419e-9 2.1841016190324403e-9 1.6405810509109472e-9 3.2211360749123445e-10
          3.4547266702408e-10 4.811780303406658e-10 2.6721314885124824e-10 7.668021638322384e-10 4.212619972166209e-10 9.214572357907627e-11
          5.0506065788529595e-11 1.5034147382299165e-10 8.095405533411542e-11 9.167510952904544e-11 1.3529951723196216e-10 6.089602832093026e-11
          1.4161575995808904e-10 2.0810932708384768e-10 9.437499514025958e-11 3.9670725795870885e-11 2.533185846765944e-11 6.159390865400528e-11
          3.937131503641749e-11 9.866681060298357e-10 5.477504160086814e-10 1.0616802914687016e-9 5.946872621578705e-10 1.9752032211173656e-10
          1.0669493535774166e-10 2.144509437868792e-10 1.1648117875174793e-10 1.8394282634264344e-10 2.694782694465363e-10 1.2289227770416476e-10
          2.0032584889704558e-10 2.9314326434404696e-10 1.3396907984264242e-10 8.037143913170704e-11 5.145975584687775e-11 8.76870797753332e-11
          5.618159338711638e-11 4.509446239457444e-11 4.2917276614236596e-11 1.1073742786280951e-10 1.04925796713351e-10 3.701310945487979e-11
          8.928700551691704e-11 2.9000940201517676e-11 6.83151738424314e-11 2.0699513444166485e-11 4.711992072196233e-11 2.3301465055991865e-10
          2.2040401394963743e-10 1.8643519185596609e-10 3.7508968100954945e-10 3.5610405854629463e-10 3.0388860487422374e-10 1.4091984589485401e-10
          9.522347387608864e-11 2.3166536814247576e-10 1.5693904058421026e-10 4.407974300536247e-10 4.236100256994246e-10 3.723333951530066e-10
          4.41027673825501e-10 4.277959014275657e-10 3.8428291428919026e-10 2.93357648317185e-10 2.039362415639777e-10 3.098632312315945e-10
          2.1931287330125532e-10
        </DataArray>
        <DataArray type="Float64" Name="gradient_matprop_error" format="ascii" RangeMin="0" RangeMax="0">
          0 0 0 0 0 0
          0 0 0 0 0 0
          0 0 0 0 0 0
          0 0 0 0 0 0
          0 0 0 0 0 0
          0 0 0 0 0 0
          0 0 0 0 0 0
          0 0 0 0 0 0
          0 0 0 0 0 0
          0 0 0 0 0 0
          0 0 0 0 0 0
          0 0 0 0 0 0
          0 0 0 0 0 0
          0 0 0 0 0 0
          0 0 0 0 0 0
          0 0 0 0 0 0
          0 0 0 0 0 0
          0 0 0 0 0 0
          0 0 0 0 0 0
          0 0 0 0 0 0
          0 0 0 0 0 0
          0 0 0 0 0 0
          0 0 0 0 0 0
          0 0 0 0 0 0
          0 0 0 0 0 0
          0 0 0 0 0 0
          0 0 0 0 0 0
          0 0 0 0 0 0
          0 0 0 0 0 0
          0 0 0 0 0 0
          0 0 0 0 0 0
          0 0 0 0 0 0
          0 0 0 0 0 0
          0 0 0 0 0 0
          0 0 0 0 0 0
          0 0 0 0 0 0
          0 0 0 0 0 0
          0 0 0 0 0 0
          0 0 0 0 0 0
          0 0 0 0 0 0
          0 0 0 0 0 0
          0 0 0 0 0 0
          0 0 0 0 0 0
          0 0 0 0 0 0
          0 0 0 0 0 0
          0 0 0 0 0 0
          0 0 0 0 0 0
          0 0 0 0 0 0
          0 0 0 0 0 0
          0 0 0 0 0 0
          0 0 0 0 0 0
          0 0 0 0 0 0
          0 0 0 0 0 0
          0 0 0 0 0 0
          0 0 0 0 0 0
          0 0 0 0 0 0
          0 0 0 0 0 0
          0 0 0 0 0 0
          0 0 0 0 0 0
          0 0 0 0 0 0
          0 0 0 0 0 0
          0 0 0 0 0 0
          0 0 0 0 0 0
          0 0 0 0 0 0
          0 0 0 0 0 0
          0 0 0 0 0 0
          0 0 0 0 0 0
          0 0 0 0 0 0
          0 0 0 0 0 0
          0 0 0 0 0 0
          0 0 0 0 0 0
          0 0 0 0 0 0
          0 0 0 0 0 0
          0 0 0 0 0 0
          0 0 0 0 0 0
          0 0 0 0 0 0
          0 0 0 0 0 0
          0 0 0 0 0 0
          0 0 0 0 0 0
          0 0 0 0 0 0
          0 0 0 0 0 0
          0 0 0 0 0 0
          0 0 0 0 0 0
          0 0 0 0 0 0
          0 0 0 0 0 0
          0 0 0 0 0 0
          0 0 0 0 0 0
          0 0 0 0 0 0
          0 0 0 0 0 0
          0 0 0 0 0 0
          0 0 0 0 0 0
          0 0 0 0 0 0
          0 0 0 0 0 0
          0 0 0 0 0 0
          0 0 0 0 0 0
          0 0 0 0 0 0
          0 0 0 0 0 0
          0 0 0 0 0 0
          0 0 0 0 0 0
          0 0 0 0 0 0
          0 0 0 0 0 0
          0 0 0 0 0 0
          0
        </DataArray>
        <DataArray type="Float64" Name="initial_marker" format="ascii" RangeMin="0" RangeMax="2">
          2 0 0 0 0 0
          1 0.75 2 0 0 0
          0 0 0 0 0 0
          0 1 1 1 1 2
          2 2 2 2 2 1
          1 2 2 0.25 2 2
          2 2 2 0 1.5 2
          2 2 2 2 2 2
          2 2 2 2 2 0
          0 0 0 0 0 0
          0 0 0 0 0 0
          0 0 0.5 0.5 0 0
          0 0 0.5 0 1.5 1.5
          1.3333333333333333 1.6666666666666667 2 2 2 2
          2 2 2 2 2 2
          2 2 2 2 2 2
          2 2 2 2 2 2
          2 2 2 2 2 2
          2 2 2 2 2 2
          2 2 2 2 2 2
          1.75 2 2 2 2 2
          2 2 2 2 2 2
          2 2 2 2 2 2
          2 2 2 2 2 2
          2 2 2 2 2 2
          2 2 2 2 2 2
          2 2 2 2 1.5 1.75
          2 2 2 2 2 1.5
          1.75 1 1.5 1.25 2 2
          2 0.5 1.25 0 1 2
          2 2 2 2 2 2
          2 2 2 2 2 2
          2 2 2 2 2 2
          2 2 2 2 2 2
          2 2 2 2 2 2
          2 2 1.5 1.75 2 2
          1 1.5 0.5 1.25 2 2
          2 2 2 0 1 0
          1 0 0.75 0.6666666666666666 2 2
          1.75 0 1 0 1 2
          2 0 0 0 2 2
          2 2 2 2 2 2
          2 2 2 2 2 2
          2 2 2 2 2 2
          2 2 2 2 2 2
          2 2 2 2 2 2
          2 2 2 2 2 2
          2 2 2 2 2 2
          2 2 2 2 2 2
          2 2 2 2 2 2
          2 2 2 2 2 2
          2 2 2 2 2 2
          2 2 2 2 2 2
          2 2 2 2 2 2
          2 2 2 2 2 2
          2 2 2 2 2 2
          2 2 2 2 2 2
          2 0 0 0 0 0
          0 0 0 0 0 0
          0 0 0 0 0 0
          0 0 0 0 0 0
          0 0 0 0 1.75 1
          0 0 1.25 0 0.5 0
          0 0 0 0.5 0.25 0
          0 0 0 0 0 0
          0 0.25 0.5 0 0 0
          0 0 1 1 1 2
          2 2 2 2 2 2
          2 1.6666666666666667 2 2 2 2
          2 2 2 2 2 2
          2 2 2 2 2 2
          2 2 2 2 2 2
          2 2 2 2 2 2
          2 2 2 2 2 2
          2 1 1.5 1.5 1.25 2
          2 2 0 1 1 2
          2 2 2 2 2 2
          2 2 2 1 1.5 1.5
          1.25 2 2 2 2 0
          1 1 2 2 2 2
          2 2 2 2 2 2
          2 2 2 2 2 2
          2 0 0.75 0.5 1.75 0
          0 0.25 0.5 0 0 1.25
          1.5 1.3333333333333333 0.6666666666666666 2 2 2
          2 2 2 2 2 2
          2 1.5 1.75 1 1.5 2
          2 2 2 2 2 2
          2 2 2 2 2 2
          2 2 2 2 2 2
          2 2 2 2 2 2
          2 2 2 2 2 2
          2 2 2 2 2 2
          2 2 2 2 2 2
          2 2 2 2 2 2
          2 2 2 2 2 2
          2 2 2 2 2 2
          2 2 2 2 2 2
          2 2 2 2 2 2
          2 2 2 2 2 2
          2 2 2 2 2 2
          2 2 2 2 2 2
          2
        </DataArray>
        <DataArray type="Float64" Name="markers_norefine" format="ascii" RangeMin="0" RangeMax="0">
          0 0 0 0 0 0
          0 0 0 0 0 0
          0 0 0 0 0 0
          0 0 0 0 0 0
          0 0 0 0 0 0
          0 0 0 0 0 0
          0 0 0 0 0 0
          0 0 0 0 0 0
          0 0 0 0 0 0
          0 0 0 0 0 0
          0 0 0 0 0 0
          0 0 0 0 0 0
          0 0 0 0 0 0
          0 0 0 0 0 0
          0 0 0 0 0 0
          0 0 0 0 0 0
          0 0 0 0 0 0
          0 0 0 0 0 0
          0 0 0 0 0 0
          0 0 0 0 0 0
          0 0 0 0 0 0
          0 0 0 0 0 0
          0 0 0 0 0 0
          0 0 0 0 0 0
          0 0 0 0 0 0
          0 0 0 0 0 0
          0 0 0 0 0 0
          0 0 0 0 0 0
          0 0 0 0 0 0
          0 0 0 0 0 0
          0 0 0 0 0 0
          0 0 0 0 0 0
          0 0 0 0 0 0
          0 0 0 0 0 0
          0 0 0 0 0 0
          0 0 0 0 0 0
          0 0 0 0 0 0
          0 0 0 0 0 0
          0 0 0 0 0 0
          0 0 0 0 0 0
          0 0 0 0 0 0
          0 0 0 0 0 0
          0 0 0 0 0 0
          0 0 0 0 0 0
          0 0 0 0 0 0
          0 0 0 0 0 0
          0 0 0 0 0 0
          0 0 0 0 0 0
          0 0 0 0 0 0
          0 0 0 0 0 0
          0 0 0 0 0 0
          0 0 0 0 0 0
          0 0 0 0 0 0
          0 0 0 0 0 0
          0 0 0 0 0 0
          0 0 0 0 0 0
          0 0 0 0 0 0
          0 0 0 0 0 0
          0 0 0 0 0 0
          0 0 0 0 0 0
          0 0 0 0 0 0
          0 0 0 0 0 0
          0 0 0 0 0 0
          0 0 0 0 0 0
          0 0 0 0 0 0
          0 0 0 0 0 0
          0 0 0 0 0 0
          0 0 0 0 0 0
          0 0 0 0 0 0
          0 0 0 0 0 0
          0 0 0 0 0 0
          0 0 0 0 0 0
          0 0 0 0 0 0
          0 0 0 0 0 0
          0 0 0 0 0 0
          0 0 0 0 0 0
          0 0 0 0 0 0
          0 0 0 0 0 0
          0 0 0 0 0 0
          0 0 0 0 0 0
          0 0 0 0 0 0
          0 0 0 0 0 0
          0 0 0 0 0 0
          0 0 0 0 0 0
          0 0 0 0 0 0
          0 0 0 0 0 0
          0 0 0 0 0 0
          0 0 0 0 0 0
          0 0 0 0 0 0
          0 0 0 0 0 0
          0 0 0 0 0 0
          0 0 0 0 0 0
          0 0 0 0 0 0
          0 0 0 0 0 0
          0 0 0 0 0 0
          0 0 0 0 0 0
          0 0 0 0 0 0
          0 0 0 0 0 0
          0 0 0 0 0 0
          0 0 0 0 0 0
          0 0 0 0 0 0
          0 0 0 0 0 0
          0
        </DataArray>
        <DataArray type="Float64" Name="markers_mustrefine" format="ascii" RangeMin="0" RangeMax="2">
          2 0 0 0 0 0
          1 0.75 2 0 0 0
          0 0 0 0 0 0
          0 1 1 1 1 2
          2 2 2 2 2 1
          1 2 2 0.25 2 2
          2 2 2 0 1.5 2
          2 2 2 2 2 2
          2 2 2 2 2 0
          0 0 0 0 0 0
          0 0 0 0 0 0
          0 0 0.5 0.5 0 0
          0 0 0.5 0 1.5 1.5
          1.3333333333333333 1.6666666666666667 2 2 2 2
          2 2 2 2 2 2
          2 2 2 2 2 2
          2 2 2 2 2 2
          2 2 2 2 2 2
          2 2 2 2 2 2
          2 2 2 2 2 2
          1.75 2 2 2 2 2
          2 2 2 2 2 2
          2 2 2 2 2 2
          2 2 2 2 2 2
          2 2 2 2 2 2
          2 2 2 2 2 2
          2 2 2 2 1.5 1.75
          2 2 2 2 2 1.5
          1.75 1 1.5 1.25 2 2
          2 0.5 1.25 0 1 2
          2 2 2 2 2 2
          2 2 2 2 2 2
          2 2 2 2 2 2
          2 2 2 2 2 2
          2 2 2 2 2 2
          2 2 1.5 1.75 2 2