<?xml version="1.0"?>
<VTKFile type="UnstructuredGrid" version="0.1" byte_order="LittleEndian" header_type="UInt32" compressor="vtkZLibDataCompressor">
  <UnstructuredGrid>
    <Piece NumberOfPoints="651" NumberOfCells="397">
      <PointData>
        <DataArray type="Int32" Name="libmesh_node_id" format="ascii" RangeMin="583" RangeMax="4043">
          583 786 787 1221 1222 1223
          1224 1228 1229 1231 1232 1234
          1237 1238 1240 1243 1245 1246
          1247 1248 1249 1251 1252 1253
          1254 1922 1924 1925 1926 1927
          1928 1929 1930 1931 1944 1945
          1947 1950 1951 1964 1965 1968
          1969 1970 1971 1984 1985 1986
          1987 1990 1991 1999 2000 2001
          2002 2003 2004 2005 2006 2007
          2008 2009 2010 2011 2012 2013
          2014 2015 2016 2017 2018 2019
          2020 2021 2022 2023 2024 2025
          2026 2027 2028 2029 2030 2031
          2032 2033 2034 2035 2036 2037
          2038 2039 2040 2041 2042 2043
          2044 2045 2046 2047 2048 2049
          2050 2051 2052 2053 2054 2055
          2056 2057 2058 2059 2060 2061
          2062 2063 2064 2065 2066 2067
          2068 2069 2070 2071 2072 2073
          2074 2075 2076 2077 2078 2079
          3192 3193 3194 3195 3196 3197
          3198 3199 3204 3205 3206 3207
          3208 3209 3210 3211 3212 3213
          3215 3216 3217 3218 3219 3220
          3221 3222 3223 3302 3303 3304
          3305 3306 3307 3308 3309 3310
          3311 3313 3314 3315 3317 3318
          3319 3320 3321 3322 3323 3324
          3325 3336 3337 3338 3339 3340
          3341 3342 3343 3344 3345 3347
          3348 3349 3351 3352 3353 3354
          3355 3356 3357 3358 3359 3380
          3381 3382 3383 3384 3385 3386
          3387 3388 3389 3390 3391 3392
          3393 3394 3395 3396 3397 3398
          3399 3400 3401 3402 3403 3404
          3405 3406 3407 3408 3409 3410
          3411 3412 3413 3414 3415 3416
          3417 3418 3419 3420 3421 3422
          3423 3424 3425 3426 3427 3428
          3429 3430 3431 3432 3433 3434
          3435 3436 3437 3438 3439 3440
          3441 3442 3443 3444 3445 3446
          3447 3448 3449 3450 3451 3452
          3453 3454 3455 3456 3457 3458
          3459 3460 3461 3462 3463 3464
          3465 3466 3467 3468 3469 3470
          3471 3472 3473 3474 3475 3476
          3477 3478 3479 3480 3481 3482
          3483 3484 3485 3486 3487 3488
          3489 3490 3491 3492 3493 3494
          3495 3496 3497 3498 3499 3500
          3501 3502 3503 3504 3505 3506
          3507 3508 3509 3510 3511 3512
          3513 3514 3515 3516 3517 3518
          3519 3520 3521 3522 3523 3524
          3525 3526 3527 3528 3529 3530
          3531 3532 3533 3534 3535 3536
          3537 3538 3539 3540 3541 3542
          3543 3544 3545 3546 3547 3548
          3549 3550 3551 3552 3553 3554
          3555 3556 3557 3558 3559 3560
          3561 3562 3563 3564 3565 3566
          3567 3568 3569 3570 3571 3572
          3573 3574 3575 3576 3577 3578
          3579 3580 3581 3582 3583 3584
          3585 3586 3587 3588 3589 3590
          3591 3592 3593 3594 3595 3596
          3597 3598 3599 3600 3601 3602
          3603 3604 3605 3606 3607 3608
          3609 3610 3611 3612 3613 3614
          3615 3616 3617 3618 3619 3620
          3621 3622 3623 3624 3625 3626
          3627 3628 3629 3630 3631 3632
          3633 3634 3635 3636 3637 3638
          3639 3640 3641 3642 3643 3644
          3645 3646 3647 3648 3649 3650
          3780 3781 3783 3788 3790 3895
          3896 3899 3901 3902 3904 3915
          3917 3919 3921 3929 3930 3933
          3935 3936 3938 3949 3951 3953
          3955 4031 4033 4037 4039 4041
          4043 777 780 651 783 779
          782 785 784 930 933 934
          931 776 650 1211 1212 1213
          1225 1226 1227 1216 1230 778
          1219 781 1233 1220 1257 1255
          1239 1258 1256 1244 1263 1262
          1265 1266 1267 1250 1268 1272
          788 1273 1920 1921 1942 1943
          1923 1946 1935 1937 1940 1949
          1236 1962 1963 1966 1967 1955
          1960 1958 1977 1993 1995 1997
          2084 2085 2130 2131 2087 2134
          2136 2137 2139 2150 2151 2154
          2155 2157 2159 2174 2190 2192
          2194 2196 1948 3202 3294 3295
          3297 1982 3300 1983 3203 3214
          3296 3312 3190 3252 3254 3301
          3316 3256 3328 3329 3331 1988
          3334 1989 3330 3346 3286 3288
          3335 3350 3290 1242 3364 3374
          3376 3378 3782 3897 3898 3900
          2170 3903 2171 3789 3916 3918
          3920 3931 3932 3934 2176 3937
          2177 3950 3952 3954 2179 4032
          4038 4040 4042
        </DataArray>
        <DataArray type="Float64" Name="bounds" format="ascii" RangeMin="0" RangeMax="0">
          0 0 0 0 0 0
          0 0 0 0 0 0
          0 0 0 0 0 0
          0 0 0 0 0 0
          0 0 0 0 0 0
          0 0 0 0 0 0
          0 0 0 0 0 0
          0 0 0 0 0 0
          0 0 0 0 0 0
          0 0 0 0 0 0
          0 0 0 0 0 0
          0 0 0 0 0 0
          0 0 0 0 0 0
          0 0 0 0 0 0
          0 0 0 0 0 0
          0 0 0 0 0 0
          0 0 0 0 0 0
          0 0 0 0 0 0
          0 0 0 0 0 0
          0 0 0 0 0 0
          0 0 0 0 0 0
          0 0 0 0 0 0
          0 0 0 0 0 0
          0 0 0 0 0 0
          0 0 0 0 0 0
          0 0 0 0 0 0
          0 0 0 0 0 0
          0 0 0 0 0 0
          0 0 0 0 0 0
          0 0 0 0 0 0
          0 0 0 0 0 0
          0 0 0 0 0 0
          0 0 0 0 0 0
          0 0 0 0 0 0
          0 0 0 0 0 0
          0 0 0 0 0 0
          0 0 0 0 0 0
          0 0 0 0 0 0
          0 0 0 0 0 0
          0 0 0 0 0 0
          0 0 0 0 0 0
          0 0 0 0 0 0
          0 0 0 0 0 0
          0 0 0 0 0 0
          0 0 0 0 0 0
          0 0 0 0 0 0
          0 0 0 0 0 0
          0 0 0 0 0 0
          0 0 0 0 0 0
          0 0 0 0 0 0
          0 0 0 0 0 0
          0 0 0 0 0 0
          0 0 0 0 0 0
          0 0 0 0 0 0
          0 0 0 0 0 0
          0 0 0 0 0 0
          0 0 0 0 0 0
          0 0 0 0 0 0
          0 0 0 0 0 0
          0 0 0 0 0 0
          0 0 0 0 0 0
          0 0 0 0 0 0
          0 0 0 0 0 0
          0 0 0 0 0 0
          0 0 0 0 0 0
          0 0 0 0 0 0
          0 0 0 0 0 0
          0 0 0 0 0 0
          0 0 0 0 0 0
          0 0 0 0 0 0
          0 0 0 0 0 0
          0 0 0 0 0 0
          0 0 0 0 0 0
          0 0 0 0 0 0
          0 0 0 0 0 0
          0 0 0 0 0 0
          0 0 0 0 0 0
          0 0 0 0 0 0
          0 0 0 0 0 0
          0 0 0 0 0 0
          0 0 0 0 0 0
          0 0 0 0 0 0
          0 0 0 0 0 0
          0 0 0 0 0 0
          0 0 0 0 0 0
          0 0 0 0 0 0
          0 0 0 0 0 0
          0 0 0 0 0 0
          0 0 0 0 0 0
          0 0 0 0 0 0
          0 0 0 0 0 0
          0 0 0 0 0 0
          0 0 0 0 0 0
          0 0 0 0 0 0
          0 0 0 0 0 0
          0 0 0 0 0 0
          0 0 0 0 0 0
          0 0 0 0 0 0
          0 0 0 0 0 0
          0 0 0 0 0 0
          0 0 0 0 0 0
          0 0 0 0 0 0
          0 0 0 0 0 0
          0 0 0 0 0 0
          0 0 0 0 0 0
          0 0 0 0 0 0
          0 0 0 0 0 0
          0 0 0 0 0 0
          0 0 0
        </DataArray>
        <DataArray type="Float64" Name="gradient_error" format="ascii" RangeMin="1.9328659009972333e-9" RangeMax="1.3856415136238342e-7">
          6.211737052745732e-9 4.512787934996299e-9 1.3251241594675762e-7 5.036526971512252e-9 6.6971211760359805e-9 5.103377589298107e-8
          4.132815317429618e-8 8.357715380559709e-9 3.1622530455611274e-8 7.418307329922358e-8 5.632177103546586e-8 5.1803451162205134e-8
          1.1193735623635729e-8 4.301885011515446e-8 9.880266732018457e-8 9.069355862409256e-9 3.7274653724160356e-8 4.5124338723285566e-8
          6.165019337125492e-8 6.468958558980749e-8 8.437162017981768e-8 5.920897546787537e-9 1.211328937018868e-8 1.525319593844355e-8
          1.1917474429913244e-7 5.34783796072342e-8 5.548466294874962e-8 5.106497471945765e-8 4.7288836195754636e-8 3.989643944203698e-8
          4.661120941879798e-8 4.278390431057154e-8 3.743523358882215e-8 3.2763714534529806e-8 3.4634841368680094e-8 5.067800788349882e-8
          5.833419096603334e-8 2.955033359380403e-8 4.9371495774323296e-8 2.979426511366594e-8 4.073286296247629e-8 3.147612335305443e-8
          5.1512393043732855e-8 4.3469763856872954e-8 4.9826473268480256e-8 8.730987160482118e-9 9.093734438150084e-9 1.7592602680363558e-8
          1.0427155444703571e-8 6.999766841880685e-9 7.839421227578311e-9 4.590400342202784e-8 3.90892694129204e-8 6.464968178183693e-8
          6.687317610239476e-8 4.035688767479353e-8 4.253339352294105e-8 6.988951327759936e-8 3.379237398798224e-8 5.057377973895207e-8
          5.593045966882669e-8 6.125826639221007e-8 5.810334617710196e-8 5.6659635819219256e-8 1.2602939246123885e-8 3.149162528566973e-8
          4.480499892137327e-8 4.4492492869126654e-8 7.715287311873989e-8 7.07273741108469e-8 7.320327623450241e-8 6.653110281669072e-8
          5.371745751709375e-8 4.926705944766571e-8 6.173032744202718e-8 5.7376877078658353e-8 5.660580038519668e-8 5.571666409319401e-8
          2.7360427326334592e-8 3.9014365567938246e-8 2.4511392885253343e-8 3.649523200784463e-8 2.1573262258760904e-8 2.9179429325948857e-8
          2.6391808218919755e-8 4.310358929046374e-8 4.167388162211576e-8 4.881331637251079e-8 2.1369578988889813e-8 3.3233890706368e-8
          1.7966346429293375e-8 2.941103849351419e-8 1.616832811106513e-8 2.333474148150242e-8 2.0146887490576005e-8 5.071243232173847e-8
          5.875277338719561e-8 4.325053311848739e-8 1.0827869090543012e-8 1.1041249839593737e-8 1.3105311206808901e-8 1.3140827676044341e-8
          1.1848755949100127e-8 1.3353912233857805e-8 5.3172189957986836e-9 8.468741985402762e-9 9.977565475456468e-9 1.050593576911258e-8
          1.53099313704704e-8 1.5192704227071478e-8 1.732686857062454e-8 1.7049985477042003e-8 2.5719000163290132e-8 3.746655653377486e-8
          6.086065503462833e-9 1.1332971028459232e-8 1.2576858283145188e-8 1.3768045472489767e-8 4.010233657507942e-8 4.025850774940675e-8
          6.799577355142276e-8 6.746952150776134e-8 4.4201257480854535e-8 4.5015503888517565e-8 7.51505107509607e-8 5.0661050444692505e-8
          5.968330702457317e-8 6.509347136606439e-8 6.100594288349937e-8 4.4674531341586974e-8 4.2943854771272193e-8 7.41870313470937e-8
          1.0931234904223054e-8 1.1093389873503217e-8 1.1060959624437022e-8 1.1362939905957702e-8 1.1028529375370828e-8 1.128914770703967e-8
          1.1129769146337771e-8 1.0970390585635877e-8 1.1526606166882252e-8 1.1387772142593508e-8 1.2009787668882203e-8 1.1877550349108091e-8
          1.1248938118304765e-8 1.1745313029333983e-8 1.0478879327888001e-8 1.0477207500026794e-8 1.1162628772253516e-8 1.0602199547542259e-8
          1.0484365005740475e-8 1.0245560664823473e-8 1.112571391582407e-8 1.1817129856765079e-8 1.104912187506332e-8 9.852968656341959e-9
          1.0108700186952233e-8 1.05378485696193e-8 9.51505715713037e-9 8.815591217276436e-9 8.943163986086384e-9 9.64715537008316e-9
          9.768662240039963e-9 9.407038388515425e-9 1.0207432899594841e-8 7.806061865375408e-9 7.936749291816404e-9 8.85674210399156e-9
          8.21312442425852e-9 9.538237182151315e-9 9.580955203518799e-9 1.0276626754591419e-8 7.975992925002e-9 8.278542730133668e-9
          1.0156106691235321e-8 1.085578528610922e-8 1.0776850096901719e-8 1.1346505704332513e-8 8.66100298188433e-9 9.426682101713745e-9
          9.81596938642154e-9 5.546019433639404e-9 6.038921005410646e-9 6.184446146554988e-9 6.729754434857192e-9 7.05162857108109e-9
          7.827711430804254e-9 4.1131613755661504e-9 4.850841060057657e-9 5.350252389562634e-9 6.322459179981955e-9 7.046527459514085e-9
          7.621259978649103e-9 8.168380260357271e-9 6.733178427586323e-9 7.282880733204765e-9 7.789483842648177e-9 8.590432967100514e-9
          8.78086791251873e-9 9.43802783043314e-9 7.443461188174267e-9 8.221942446226906e-9 8.434375370934503e-9 1.0282640724650247e-8
          9.846164428961913e-9 9.630239008557757e-9 1.0295715927860747e-8 1.0150622526363331e-8 1.0512296831695396e-8 1.0950800553429711e-8
          1.0039766829923476e-8 1.0395463581219923e-8 1.0754750295281491e-8 1.1255640619112431e-8 1.0840755651228927e-8 9.424140814574108e-9
          9.892210571638622e-9 1.023823634248226e-8 1.072059060904522e-8 9.218042620590457e-9 9.697003647965397e-9 1.032585015860119e-8
          1.0406060466377317e-8 1.0956866665173015e-8 1.1257918228033233e-8 1.1838183465231669e-8 1.0218513818630206e-8 1.0766204629361293e-8
          1.1398801656325193e-8 1.166446823892529e-8 1.1707880099597058e-8 1.2097879972860484e-8 1.1751291960268824e-8 1.2785840281619729e-8
          1.2629994911921904e-8 1.294479461005254e-8 1.2474149542224082e-8 1.2494106965439812e-8 1.2330266117744606e-8 1.296918444289356e-8
          1.2760549874517128e-8 1.2166425270049398e-8 1.2551915306140694e-8 1.1910006537748782e-8 1.1845003548089016e-8 1.2505049418023936e-8
          1.1963490480982916e-8 1.3406944250573056e-8 1.311804923648257e-8 1.360822283519905e-8 1.3266205400053158e-8 1.2829154222392085e-8
          1.2924187964907265e-8 1.3220663348700652e-8 1.3099549209420495e-8 1.3706117923878269e-8 1.3265258895911005e-8 1.250749983854229e-8
          1.3200962482751858e-8 1.2169740759695252e-8 1.3894670662061117e-8 1.4595085777013263e-8 1.3159744608959034e-8 1.4727660115444169e-8
          1.4851546569678895e-8 1.5865905733589246e-8 1.5199175525141887e-8 1.6913248938304195e-8 1.6916361514442082e-8 1.784851113952631e-8
          1.6893100392999044e-8 1.531004919941382e-8 1.597257001007707e-8 1.4005903250278225e-8 1.6501946935416865e-8 1.688459310206411e-8
          1.6137167175415604e-8 1.0856335649377404e-8 1.113347062099975e-8 1.0057719130358636e-8 1.1368858016498232e-8 1.1553981687594461e-8
          1.03686615917483e-8 1.168002104647207e-8 1.1724259385830907e-8 1.0545415964845174e-8 1.058006329420204e-8 1.068680430445292e-8
          1.1591469139321402e-8 1.1667592760556638e-8 1.106374631414854e-8 1.1957623196661612e-8 9.739631361026166e-9 9.853054710729676e-9
          1.0921650202505513e-8 1.003809436355563e-8 1.2719294722033958e-8 1.275094606389919e-8 1.39294993374727e-8 1.3913481039531201e-8
          1.290609358431532e-8 1.3901428565392723e-8 1.1964531279931139e-8 1.2034394287702991e-8 1.3150895819270132e-8 1.208480739889765e-8
          1.1604391844182617e-8 1.2376876175658676e-8 1.194401985328034e-8 1.2547482046719242e-8 1.0264296438257946e-8 1.1151079754191427e-8
          1.1118794386629172e-8 1.3165324543790781e-8 1.396578049132068e-8 1.31462689349521e-8 1.3722247684182017e-8 1.207365986857045e-8
          1.3017292977851351e-8 1.2600920660732141e-8 6.867047074158485e-9 7.470096500145125e-9 7.578806765958708e-9 8.246487568855364e-9
          8.661052682723703e-9 9.540210348262694e-9 4.918690631125489e-9 5.870337227450858e-9 6.39798119393888e-9 7.718952835073834e-9
          8.289150806894857e-9 9.032815249377827e-9 8.950844203564603e-9 9.790476037658183e-9 1.0446921703533695e-8 1.1357212773668901e-8
          5.674550020120434e-9 6.905739193350297e-9 7.340753725047992e-9 9.230606885316276e-9 9.440601585943133e-9 1.0333982835682824e-8
          1.0139338056767441e-8 1.0891608199980366e-8 9.053894145193318e-9 9.918596031548286e-9 9.759386287141966e-9 1.1256195306297094e-8
          1.2190899748271343e-8 1.1682499260352223e-8 1.2495190588024112e-8 1.080104930097373e-8 1.1683688746468083e-8 1.1295950460185334e-8
          1.50654043094653e-8 1.5017403470850062e-8 1.613622424422723e-8 1.6059341748980216e-8 1.4876359676713616e-8 1.580200977043511e-8
          1.4228092195046991e-8 1.4250651883182782e-8 1.5318604752680656e-8 1.4182990133077284e-8 1.7209292111230804e-8 1.708275209330706e-8
          1.8200005881106964e-8 1.8010078527621054e-8 1.6674707536192636e-8 1.745370536146665e-8 1.6336253711633605e-8 1.6342594716603855e-8
          1.7316251981343155e-8 1.61582711692079e-8 1.4780235772024473e-8 1.555973088115027e-8 1.4240328164423725e-8 1.49294300848131e-8
          1.397639874303159e-8 1.4923287001642863e-8 1.4074528550412424e-8 1.6226272044256254e-8 1.6777508311854508e-8 1.6059341091510556e-8
          1.646775707491086e-8 1.5778661433378422e-8 1.653835837395433e-8 1.5430409111140703e-8 9.543679634698226e-9 1.0495266518060908e-8
          1.009979891066086e-8 1.1161290184742174e-8 1.224644959703042e-8 1.3098635093963203e-8 6.034323382788898e-9 7.672489641777483e-9
          7.938148628494217e-9 1.0680462756191622e-8 1.0660997082706844e-8 1.1818660352659116e-8 1.1206763987223613e-8 1.2465154145746334e-8
          1.3909082847506679e-8 1.4677023620064984e-8 6.1548220263038876e-9 8.201273944282551e-9 8.469450244522147e-9 1.1957938035983775e-8
          1.3122639983721874e-8 1.4025666429067134e-8 1.3309058861002659e-8 1.4109915151219103e-8 1.2542904826015695e-8 1.3351650607072018e-8
          1.2943813699749694e-8 1.4852310368905962e-8 1.559883549976248e-8 1.4856264888219965e-8 1.551095731168153e-8 1.4097895024150729e-8
          1.479137777326121e-8 1.4557673613531628e-8 1.1353149411911865e-8 1.1732763800277439e-8 1.0693095492035003e-8 1.0952785846902403e-8
          1.1791284759289172e-8 1.2335660176636477e-8 1.1763862955157816e-8 1.2084704629105429e-8 1.2397206286244295e-8 1.1177930713021997e-8
          1.1376083797570176e-8 1.287793809967238e-8 1.3402953711711193e-8 1.2635997112700917e-8 1.1535430047849917e-8 1.214098775300976e-8
          1.242442771473558e-8 1.3000472452651066e-8 1.1338253751567816e-8 1.1942712132301696e-8 1.2649601372866894e-8 1.276503880120017e-8
          1.3389492021562692e-8 1.3560105979083475e-8 1.408608468803381e-8 1.2574752644768205e-8 1.3213507504597134e-8 1.3835417567060813e-8
          1.2648870934407802e-8 1.2753861609687837e-8 1.1594240362824693e-8 1.1715235915263425e-8 1.3878566039674873e-8 1.434932540648313e-8
          1.3468103769752085e-8 1.5007985280909004e-8 1.526924294302519e-8 1.4904175728226195e-8 1.3989253582902445e-8 1.4533760939053309e-8
          1.455962361860607e-8 1.492453570469976e-8 1.3839095908798679e-8 1.4435265685154305e-8 1.4826104458512186e-8 1.4989858910654298e-8
          1.5330492862744952e-8 1.5129966710278624e-8 1.520623916579089e-8 1.4971732540399593e-8 1.5391742782464718e-8 1.535575769233105e-8
          1.8694167397859242e-8 1.856579349723888e-8 1.8153180071845035e-8 1.7098768928825455e-8 1.6328597310579355e-8 1.9021852568428044e-8
          1.8772826977804716e-8 1.8110625202323913e-8 1.8266857838204788e-8 1.8202773885449668e-8 1.783663555462174e-8 1.7210659949562118e-8
          1.6723870881657798e-8 1.722817996623024e-8 1.6577656789654585e-8 1.1734508744772841e-8 1.309725918384109e-8 1.5397238176809163e-8
          6.284839552132952e-9 8.768831055153399e-9 1.3189275577177635e-8 1.6277444366026604e-8 1.6051642122863114e-8 1.5421079769891498e-8
          1.5796371287612466e-8 1.540937485197955e-8 1.4929336846818438e-8 1.5534162315310325e-8 1.5185462386238645e-8 1.5658949778641103e-8
          1.5441587925658848e-8 3.102266292133123e-8 1.1347168920892041e-8 9.813367700235156e-9 3.497899368335399e-8 7.47701390357406e-8
          3.59208803771154e-8 1.1021501084031168e-8 3.103376318887147e-8 5.0853282473498425e-9 2.1241928622572628e-9 1.9328659009972333e-9
          4.387015308142164e-9 9.301585723526778e-9 2.9823597028278265e-9 1.1413990212157963e-8 6.935309037311588e-8 5.6754101437463436e-8
          3.4749893960237867e-9 3.3851056755882674e-8 2.7130347858195095e-8 4.4155112501810995e-8 1.5121608106964434e-8 9.341718562999835e-8
          7.218514734112077e-8 5.324346141538739e-8 3.9493088416324294e-8 8.153107942542734e-8 6.043291021090955e-8 7.335473509671853e-8
          1.0780194708424185e-7 8.326921132502731e-8 9.708664954207046e-8 1.3856415136238342e-7 1.0610551243914508e-7 1.2081856398742243e-7
          4.6364504267031556e-8 6.680617783266767e-8 2.3237565978930284e-8 6.593214440171787e-8 4.937707097677753e-8 8.724785139830379e-8
          9.841693933292448e-8 6.615912790524472e-8 5.849364704618469e-8 5.437332122649554e-8 5.2759812651110954e-8 5.886331036469066e-8
          4.377852529469529e-8 5.7638404954400686e-8 6.55540851490217e-8 5.6126299421181986e-8 4.275418263854833e-8 3.649165268537639e-8
          5.483257156418183e-8 3.1731616674609576e-8 4.173031401174009e-8 2.615917816663496e-8 3.3201137208760476e-8 4.2062936633008266e-8
          5.8293047248885944e-8 3.4360910414804154e-8 2.4366316986480487e-8 5.178979918903696e-8 6.174529471116845e-8 3.801953048794624e-8
          3.433179136379087e-8 3.122124393832894e-8 6.654901519894992e-8 5.995986249124306e-8 2.32735876270946e-8 4.340182885347267e-8
          5.900269736718018e-8 5.363370947443113e-8 6.007852827707873e-8 1.4477097935571796e-8 2.5117919614552755e-8 1.0517717129821399e-8
          1.680289130569637e-8 5.369678119867106e-8 3.456124758396215e-8 3.707419618862816e-8 5.5585309669404196e-8 5.521821501843971e-8
          3.986157794763344e-8 6.440200035052648e-8 2.7861298371057496e-8 9.567337925973363e-9 8.088887608898914e-9 8.224050150522176e-9
          8.690152717365113e-9 6.9625869369369345e-9 7.093998206405625e-9 7.397535832483924e-9 9.0154587655822e-9 9.93230363082522e-9
          8.048837840973092e-9 8.988001336460333e-9 9.44391245226122e-9 8.487410547731855e-9 9.121936915765335e-9 6.654672282513853e-9
          7.353153079971003e-9 6.7911692048297186e-9 4.957727116084642e-9 5.403034390596169e-9 6.334233298826673e-9 3.728327861209496e-9
          4.3793174746916376e-9 5.693783356066444e-9 5.672276149776559e-9 6.375137351809475e-9 5.7743983454450734e-9 7.145054409058775e-9
          5.1174246508893955e-9 6.087667585772389e-9 5.497366924433198e-9 6.7839979928526706e-9 9.207735312969794e-9 9.000314645265162e-9
          9.784569303203209e-9 8.792893977560526e-9 1.9123953213402283e-8 1.9653007489359514e-8 1.9360967245470747e-8 1.862509372800782e-8
          1.9072505578788048e-8 1.89435891168472e-8 1.8493380970417293e-8 1.7073942755103243e-8 1.7475986941601356e-8 1.6770713428769044e-8
          1.7813002579854095e-8 1.2372980158954988e-8 1.376981614032704e-8 1.604148630837047e-8 6.667808438801505e-9 9.250435324498891e-9
          1.3777460227216955e-8 1.6832386094437277e-8 1.6474922237924556e-8 1.5916798157265826e-8 1.6180391574319002e-8 1.5411668302581152e-8
          1.559838430706167e-8 1.4995375832106933e-8 1.578510031154219e-8
        </DataArray>
        <DataArray type="Float64" Name="gradient_matprop_error" format="ascii" RangeMin="0" RangeMax="0">
          0 0 0 0 0 0
          0 0 0 0 0 0
          0 0 0 0 0 0
          0 0 0 0 0 0
          0 0 0 0 0 0
          0 0 0 0 0 0
          0 0 0 0 0 0
          0 0 0 0 0 0
          0 0 0 0 0 0
          0 0 0 0 0 0
          0 0 0 0 0 0
          0 0 0 0 0 0
          0 0 0 0 0 0
          0 0 0 0 0 0
          0 0 0 0 0 0
          0 0 0 0 0 0
          0 0 0 0 0 0
          0 0 0 0 0 0
          0 0 0 0 0 0
          0 0 0 0 0 0
          0 0 0 0 0 0
          0 0 0 0 0 0
          0 0 0 0 0 0
          0 0 0 0 0 0
          0 0 0 0 0 0
          0 0 0 0 0 0
          0 0 0 0 0 0
          0 0 0 0 0 0
          0 0 0 0 0 0
          0 0 0 0 0 0
          0 0 0 0 0 0
          0 0 0 0 0 0
          0 0 0 0 0 0
          0 0 0 0 0 0
          0 0 0 0 0 0
          0 0 0 0 0 0
          0 0 0 0 0 0
          0 0 0 0 0 0
          0 0 0 0 0 0
          0 0 0 0 0 0
          0 0 0 0 0 0
          0 0 0 0 0 0
          0 0 0 0 0 0
          0 0 0 0 0 0
          0 0 0 0 0 0
          0 0 0 0 0 0
          0 0 0 0 0 0
          0 0 0 0 0 0
          0 0 0 0 0 0
          0 0 0 0 0 0
          0 0 0 0 0 0
          0 0 0 0 0 0
          0 0 0 0 0 0
          0 0 0 0 0 0
          0 0 0 0 0 0
          0 0 0 0 0 0
          0 0 0 0 0 0
          0 0 0 0 0 0
          0 0 0 0 0 0
          0 0 0 0 0 0
          0 0 0 0 0 0
          0 0 0 0 0 0
          0 0 0 0 0 0
          0 0 0 0 0 0
          0 0 0 0 0 0
          0 0 0 0 0 0
          0 0 0 0 0 0
          0 0 0 0 0 0
          0 0 0 0 0 0
          0 0 0 0 0 0
          0 0 0 0 0 0
          0 0 0 0 0 0
          0 0 0 0 0 0
          0 0 0 0 0 0
          0 0 0 0 0 0
          0 0 0 0 0 0
          0 0 0 0 0 0
          0 0 0 0 0 0
          0 0 0 0 0 0
          0 0 0 0 0 0
          0 0 0 0 0 0
          0 0 0 0 0 0
          0 0 0 0 0 0
          0 0 0 0 0 0
          0 0 0 0 0 0
          0 0 0 0 0 0
          0 0 0 0 0 0
          0 0 0 0 0 0
          0 0 0 0 0 0
          0 0 0 0 0 0
          0 0 0 0 0 0
          0 0 0 0 0 0
          0 0 0 0 0 0
          0 0 0 0 0 0
          0 0 0 0 0 0
          0 0 0 0 0 0
          0 0 0 0 0 0
          0 0 0 0 0 0
          0 0 0 0 0 0
          0 0 0 0 0 0
          0 0 0 0 0 0
          0 0 0 0 0 0
          0 0 0 0 0 0
          0 0 0 0 0 0
          0 0 0 0 0 0
          0 0 0 0 0 0
          0 0 0 0 0 0
          0 0 0 0 0 0
          0 0 0
        </DataArray>
        <DataArray type="Float64" Name="initial_marker" format="ascii" RangeMin="0" RangeMax="2">
          2 2 2 0 0 1
          0.5 0 0 2 1.5 1.3333333333333333
          2 2 2 2 2 2
          2 2 2 2 2 2
          2 2 2 2 2 2
          2 2 2 2 2 2
          2 2 2 2 2 2
          2 2 2 2 2 2
          2 2 2 2 2 2
          2 2 2 2 2 2
          2 2 2 2 2 2
          2 2 2 2 2 2
          2 2 2 2 2 2
          2 2 2 2 2 2
          2 2 2 2 2 2
          2 2 2 2 2 2
          2 2 2 2 2 2
          2 2 2 2 2 2
          2 2 2 2 2 2
          2 2 2 2 2 2
          2 2 2 2 2 2
          2 2 2 2 2 2
          2 2 2 2 2 2
          2 2 2 2 2 2
          2 2 2 2 2 2
          2 2 2 2 2 2
          2 2 2 2 2 2
          2 2 2 2 2 2
          2 2 2 2 2 2
          2 2 2 2 2 2
          2 2 2 2 2 2
          2 2 2 2 2 2
          2 2 2 2 2 2
          2 2 2 2 2 2
          2 2 2 2 2 2
          2 2 2 2 2 2
          2 2 2 2 2 2
          2 2 2 2 2 2
          2 2 2 2 2 2
          2 2 2 2 2 2
          2 2 2 2 2 2
          2 2 2 2 2 2
          2 2 2 2 2 2
          2 2 2 2 2 2
          2 2 2 2 2 2
          2 2 2 2 2 2
          2 2 2 2 2 2
          2 2 2 2 2 2
          2 2 2 2 2 2
          2 2 2 2 2 2
          2 2 2 2 2 2
          2 2 2 2 2 2
          2 2 2 2 2 2
          2 2 2 2 2 2
          2 2 2 2 2 2
          2 2 2 2 2 2
          2 2 2 2 2 2
          2 2 2 2 2 2
          2 2 2 2 2 2
          2 2 2 2 2 2
          2 2 2 2 2 2
          2 2 2 2 2 2
          2 2 2 2 2 2
          2 2 2 2 2 2
          2 2 2 2 2 2
          2 2 2 2 2 2
          2 2 2 2 2 2
          2 2 2 2 2 2
          2 2 2 2 2 2
          2 2 2 2 2 2
          2 2 2 2 2 2
          2 2 2 2 2 2
          2 2 2 2 2 2
          2 2 2 2 2 2
          2 2 2 2 2 2
          2 2 2 2 2 2
          2 2 2 2 2 2
          2 2 2 2 2 2
          2 2 2 2 2 2
          2 2 2 2 2 2
          2 2 2 2 2 2
          2 2 2 2 2 2
          2 2 2 2 2 2
          2 2 2 2 2 2
          2 0 0 0 0 1
          1 0 0 0 0 0
          0 0 0 0 1 0.5
          0 1 0.5 0 0 2
          1.5 2 1.5 1.3333333333333333 1 1
          2 1 1 2 1 1
          1 1 0.6666666666666666 2 1 1
          2 1 2 2 2 2
          2 2 2 2 2 2
          2 2 2 2 2 2
          2 2 2 2 2 2
          2 2 2 2 2 2
          2 2 2 2 2 2
          2 2 2 2 2 2
          2 2 2 2 2 2
          2 2 2 2 2 2
          2 2 2 2 2 2
          2 2 2 2 2 2
          2 2 2 2 2 2
          2 2 2 2 2 2
          2 2 2 2 2 2
          2 2 2 2 2 2
          2 2 2 2 2 2
          2 2 2 2 2 2
          2 2 2
        </DataArray>
        <DataArray type="Float64" Name="markers_norefine" format="ascii" RangeMin="0" RangeMax="2">
          2 2 0 0 0 0
          0 0 0 0 0 0
          2 0.5 0 2 1 0.25
          1 0 0 2 2 2
          0 0 0 0 0 0
          0 0 0 0 0 0
          0 1 0 0 0 0
          0 0 0 2 2 1.75
          2 2 2 0 0 0
          0 0 0 0 0 0
          0 0 0 0 2 1
          1 0.5 0 0 0 0
          0 0 1 1 1 0
          0 0 0 0 0 0
          0 0 0 0 0 0
          0 0 0 0 0 0
          0 0 2 2 2 2
          2 2 2 2 2 2
          2 2 2 2 1.75 1.5
          2 2 2 2 0 0
          0 0 0 0 0 0
          0 0 0 0 0 0
          0 0 0 0 0 1
          0.5 0 1 0.5 1 0.5
          0 0 2 1.5 1.5 1.3333333333333333
          1 0 1.5 2 0.5 0
          0 0 0 2 2 2
          2 2 2 2 2 2
          2 1.5 1 1 2 2
          1.75 2 1.25 1.5 2 2
          2 2 2 2 2 2
          2 2 2 2 2 2
          2 2 2 2 2 2
          2 2 2 2 2 0.5
          0 1 1 0 0.5 0.5
          0 0 1 1 0 1
          1 0 0 1 1 0
          1 1 0 0 1 1
          0 0 0 0 0 0
          0 0 0 1 0.5 1
          0.5 0 0 2 1.5 1.5
          1.3333333333333333 0.5 0.25 0 0 0
          0 1.5 1.25 1.3333333333333333 1.3333333333333333 2
          2 1 2 1.5 1 2
          2 2 2 2 2 2
          2 1 1 0 1 1
          0 0 0 0 0 0
          0 0 0 0 2 2
          2 2 2 2 2 2
          2 2 2 2 2 2
          2 2 2 2 2 2
          2 2 1.5 1.5 2 2
          2 2 1.75 1.5 1.25 2
          2 2 2 2 2 2
          2 2 2 2 2 2
          2 2 2 2 2 2
          2 2 2 2 2 2
          2 2 2 2 2 2
          2 2 2 2 2 2
          2 2 2 2 2 2
          2 2 2 2 2 2
          2 2 2 2 2 2
          2 2 1.5 1.5 1 1
          2 2 2 1.5 1.5 1
          1 2 2 2 2 2
          2 2 2 2 2 2
          2 2 2 2 2 2
          2 2 2 2 2 2
          2 2 2 2 2 2
          2 2 2 2 2 2
          2 2 0.5 0.5 0 0
          1 1 0 0.5 0.5 0
          0 1 1 0 1 1
          0 0 1 1 0 1
          1 0 0 1 1 0
          0.5 0.5 0 0 1 1
          0 1 1 0 1 1
          0 0 1 1 0 1
          1 0 0 1 1 0
          2 2 2 1 0 2
          2 2 2 2 2 1.5
          1 2 2 2 2 2
          2 2 2 2 2 2
          2 1 0 1 0 1
          0 0 0 0 0 0
          0 0 0 0 0 0
          0 0 0 0 0 0
          0 0 0 0 0 0
          0 0 0 0 0 0
          0 0 0 0 0 0
          0 0 0 0 0 0
          0 0 0 0 0 0
          0 0 0 0 1 1
          0 0 0 0 0 0
          0 0 1.5 0 0 0
          0 0 0 0 0 0
          1 0.75 0 0 0 0
          0 0 0 1.5 0 0
          0 0 1.5 1.6666666666666667 2 2
          2 2 2 2 2 1