<?xml version="1.0"?>
<VTKFile type="UnstructuredGrid" version="0.1" byte_order="LittleEndian" header_type="UInt32" compressor="vtkZLibDataCompressor">
  <UnstructuredGrid>
    <Piece NumberOfPoints="394" NumberOfCells="222">
      <PointData>
        <DataArray type="Int32" Name="libmesh_node_id" format="ascii" RangeMin="194" RangeMax="3541">
          194 362 363 365 366 370
          371 372 748 749 752 755
          759 760 762 765 767 768
          769 770 771 772 773 774
          775 776 777 778 779 780
          991 992 994 995 997 998
          1500 1501 1502 1503 1504 1505
          1506 1507 1508 1509 1510 1511
          1512 1513 1524 1525 1526 1527
          1528 1529 1530 1531 1532 1533
          1544 1545 1546 1547 1548 1549
          1550 1551 1552 1553 1561 1562
          1563 1564 1565 1566 1567 1568
          1569 1570 1571 1572 1573 1574
          1575 1576 1577 1578 1579 1580
          1581 1582 1583 1584 1585 1586
          1587 1588 1589 1590 1591 1592
          1593 1594 1595 1596 1597 1598
          1599 1600 1601 1625 1626 1633
          1634 1656 1657 1659 1660 1662
          1663 1672 1674 1676 1677 1678
          1679 1680 1681 1682 1683 1684
          1685 1686 1687 1688 1689 1690
          1691 1692 1693 1694 1695 1696
          1697 1698 3037 3038 3039 3042
          3045 3047 3048 3049 3050 3051
          3052 3053 3054 3055 3056 3057
          3058 3059 3060 3063 3064 3067
          3069 3071 3072 3073 3074 3075
          3076 3077 3078 3079 3080 3083
          3084 3086 3089 3091 3092 3093
          3094 3095 3096 3097 3098 3099
          3100 3102 3104 3106 3108 3109
          3110 3111 3112 3113 3114 3177
          3180 3182 3184 3186 3187 3188
          3189 3190 3191 3192 3193 3194
          3195 3266 3267 3269 3272 3274
          3275 3276 3277 3278 3279 3280
          3281 3282 3283 3285 3287 3289
          3291 3292 3293 3294 3295 3296
          3297 3300 3301 3303 3306 3308
          3309 3310 3311 3312 3313 3314
          3315 3316 3317 3319 3321 3323
          3325 3326 3327 3328 3329 3330
          3331 3389 3391 3393 3395 3396
          3397 3398 3399 3400 3401 3413
          3415 3417 3419 3420 3421 3422
          3423 3424 3425 3433 3434 3435
          3436 3437 3438 3439 3440 3441
          3442 3443 3444 3445 3446 3447
          3448 3449 3450 3451 3452 3453
          3454 3455 3456 3457 3458 3459
          3460 3461 3462 3463 3464 3465
          3466 3467 3468 3469 3470 3471
          3472 3473 3474 3475 3476 3477
          3478 3479 3480 3481 3482 3483
          3484 3485 3486 3487 3488 3489
          3490 3491 3492 3493 3494 3495
          3496 3497 3498 3499 3500 3501
          3502 3503 3504 3505 3506 3507
          3508 3509 3510 3511 3512 3513
          3514 3515 3516 3517 3518 3519
          3520 3521 3522 3523 3524 3525
          3526 3527 3528 3529 3530 3531
          3532 3533 3534 3535 3536 3537
          3538 3539 3540 3541
        </DataArray>
        <DataArray type="Float64" Name="bounds" format="ascii" RangeMin="0" RangeMax="0">
          0 0 0 0 0 0
          0 0 0 0 0 0
          0 0 0 0 0 0
          0 0 0 0 0 0
          0 0 0 0 0 0
          0 0 0 0 0 0
          0 0 0 0 0 0
          0 0 0 0 0 0
          0 0 0 0 0 0
          0 0 0 0 0 0
          0 0 0 0 0 0
          0 0 0 0 0 0
          0 0 0 0 0 0
          0 0 0 0 0 0
          0 0 0 0 0 0
          0 0 0 0 0 0
          0 0 0 0 0 0
          0 0 0 0 0 0
          0 0 0 0 0 0
          0 0 0 0 0 0
          0 0 0 0 0 0
          0 0 0 0 0 0
          0 0 0 0 0 0
          0 0 0 0 0 0
          0 0 0 0 0 0
          0 0 0 0 0 0
          0 0 0 0 0 0
          0 0 0 0 0 0
          0 0 0 0 0 0
          0 0 0 0 0 0
          0 0 0 0 0 0
          0 0 0 0 0 0
          0 0 0 0 0 0
          0 0 0 0 0 0
          0 0 0 0 0 0
          0 0 0 0 0 0
          0 0 0 0 0 0
          0 0 0 0 0 0
          0 0 0 0 0 0
          0 0 0 0 0 0
          0 0 0 0 0 0
          0 0 0 0 0 0
          0 0 0 0 0 0
          0 0 0 0 0 0
          0 0 0 0 0 0
          0 0 0 0 0 0
          0 0 0 0 0 0
          0 0 0 0 0 0
          0 0 0 0 0 0
          0 0 0 0 0 0
          0 0 0 0 0 0
          0 0 0 0 0 0
          0 0 0 0 0 0
          0 0 0 0 0 0
          0 0 0 0 0 0
          0 0 0 0 0 0
          0 0 0 0 0 0
          0 0 0 0 0 0
          0 0 0 0 0 0
          0 0 0 0 0 0
          0 0 0 0 0 0
          0 0 0 0 0 0
          0 0 0 0 0 0
          0 0 0 0 0 0
          0 0 0 0 0 0
          0 0 0 0
        </DataArray>
        <DataArray type="Float64" Name="gradient_error" format="ascii" RangeMin="1.9538940631766626e-12" RangeMax="9.99659322745773e-10">
          2.8844104518506475e-12 2.3950339489950706e-11 4.760113299422411e-11 8.481382888656006e-12 2.1209877282689227e-11 1.8719721909357273e-10
          4.7515524189958456e-11 1.0142817323011553e-11 2.7406317190836605e-11 2.446278145730617e-11 3.474527588740428e-11 1.9024317141863327e-11
          6.616410464715774e-11 2.264583782676756e-11 4.4846389376930116e-11 5.235351159373622e-11 1.4143397612934597e-11 1.2107295712158665e-11
          1.0794568346828518e-11 1.2618620198572415e-11 7.67778941507216e-12 6.1817204314394786e-12 6.885584855369269e-12 1.2421448890908587e-11
          1.4727705042825606e-11 7.88692457294875e-12 7.1939733819220285e-12 9.666534441645838e-12 5.872939177418343e-12 1.7349977269206728e-11
          1.1879746795336462e-11 1.1061860639138309e-11 5.37796937051021e-12 6.196917603337955e-12 1.0243974482940153e-11 7.015865836165701e-12
          4.3436692984394674e-11 3.628496855908136e-11 8.996641810348964e-11 6.738589653323193e-11 1.8941142140028192e-11 2.3830188505582344e-11
          1.8682008879296694e-11 2.6578161116620626e-11 3.348954927022265e-11 1.672191800382668e-11 3.4478014596075963e-10 2.488874361035961e-10
          4.873207056693933e-11 9.644181522800675e-11 2.4336256269783374e-11 3.956223971653471e-11 1.5472407645728706e-11 1.9156142866209192e-11
          2.4597245024373617e-11 5.839783790315535e-11 1.795124895298328e-11 4.978314721195267e-11 2.4021574289537366e-11 5.5369776888374257e-11
          7.745290516606263e-10 5.627299449634347e-10 1.448462106291603e-10 1.0592910487192322e-10 2.0287004778642814e-10 4.1173062585948536e-11
          9.99659322745773e-10 7.374260789446469e-10 1.3740010359490315e-10 2.6166597713225867e-10 6.361539350354185e-11 3.4293563021986726e-11
          5.037637805633719e-11 4.341162354509964e-11 7.746350536514056e-11 4.0672692738154953e-11 5.889792180805893e-11 1.760402931589118e-11
          1.4967076878492193e-11 1.4953032893886276e-11 1.2437398277021795e-11 5.95138909947999e-12 1.2355836031692588e-11 1.0420239874273262e-11
          9.455236042494205e-12 1.066075309921825e-11 6.598451051045918e-12 1.418810402375446e-11 1.3820990072705678e-11 1.1652481058512764e-11
          1.257814879013175e-11 2.2721259076498545e-11 1.9327636400836517e-11 5.817545231954204e-12 8.030233556030523e-12 1.2541256677479036e-11
          1.0889105426342019e-11 2.9064095081223543e-11 2.1679543158105655e-11 5.680751249647964e-12 1.1948349041149977e-11 1.0736823866254366e-11
          1.1667482486834854e-11 6.447126210618201e-12 9.408476042582337e-12 9.963640219681808e-12 1.481974856344911e-11 6.024505634007203e-12
          1.3627543526577305e-11 1.0893005990750508e-11 1.6978593131039023e-11 2.013274815115492e-12 1.9538940631766626e-12 2.1477134711927344e-12
          2.0854884060689443e-12 3.8205975254444956e-11 3.313733102848075e-11 2.0560615718301615e-11 1.7933827331681475e-11 2.278569236292474e-11
          1.2235349740227165e-11 1.4962221717852747e-11 8.760812291154191e-12 1.2421745512372564e-11 8.35796404691539e-12 5.28802031912735e-12
          8.549368322605508e-12 3.2540030709982765e-12 4.1121546989102565e-12 3.9956929943594974e-12 5.631034718931959e-12 3.5120510125826118e-12
          3.9926148478687605e-12 3.449511036287519e-12 4.709608630716103e-12 4.035503101262281e-12 2.22146140008237e-12 2.377872383425976e-12
          2.2527295764032085e-12 2.906407224706277e-12 3.3613975718084593e-12 2.1275867693804406e-12 5.426602413563446e-12 4.6214951662370446e-12
          2.2839977527240466e-12 3.816387918910641e-12 2.138010874810515e-11 3.9163692056611694e-11 3.667981325832798e-11 3.0268316942136564e-11
          8.363910371232678e-11 1.1172724443502809e-11 1.0550492502684578e-11 1.8477462110156026e-11 1.7355802294554343e-11 7.259629242255551e-12
          1.1715931589997926e-11 1.1037843982449047e-11 8.938784006730855e-12 1.4457230173914583e-11 9.23924367604624e-12 4.173018015499348e-11
          3.889606304552185e-11 2.0732165111296507e-11 3.159275159347683e-11 1.3752491202633531e-11 2.214696659869911e-11 1.688527924934382e-11
          4.757495556932233e-11 7.022695113456482e-12 1.0723134011592866e-11 4.9850630057369365e-12 7.110350885704795e-12 6.0960827753175986e-12
          8.765950154309232e-12 6.101970794217276e-12 2.247983690485814e-11 1.2215574653885583e-11 1.6467933135637298e-11 1.868453286223263e-10
          1.7275425919299394e-10 1.366534326115463e-10 3.1805286266728863e-10 8.505237418595376e-11 7.882826487142453e-11 3.702957954306147e-11
          3.441837171352303e-11 6.283792619702963e-11 2.767675779116059e-11 1.5430130423258577e-10 1.4258608249900813e-10 6.13044134553732e-11
          1.1233853706018102e-10 9.349779053569662e-11 5.647235777957615e-11 1.6579849520177965e-10 4.3613636269735666e-11 1.9401713191535266e-11
          2.6672181362041337e-11 1.4216369524281078e-11 7.609160074964067e-11 3.349092246123767e-11 4.522817128600546e-11 2.0194698565135735e-11
          3.097528198767984e-11 2.1357754028169652e-11 5.09763048948927e-11 1.079171293098052e-11 1.4763357907040964e-11 7.2955488987108e-12
          9.553500429424124e-12 7.851859572674817e-12 1.0337928792306619e-11 6.9720416554728826e-12 2.4200952828945494e-11 1.2854790535717133e-11
          1.6322551230229795e-11 5.553644426516839e-10 5.129277505055615e-10 4.003387626709345e-10 7.181109465163636e-10 2.46773351306443e-10
          2.2802274718972105e-10 1.0462005092791729e-10 9.685721082561797e-11 1.7878940733434308e-10 7.653281273372429e-11 3.4362089750377067e-10
          3.1821869903232655e-10 1.3422268301994876e-10 2.497434947300713e-10 2.6249726102718717e-10 1.4827321160005043e-10 3.663496283912641e-10
          1.1890345655118283e-10 5.1761263661404244e-11 6.87019906169548e-11 3.052057460667627e-11 1.644817149008675e-10 7.090506624189423e-11
          9.313136132549133e-11 9.390835872379965e-10 8.744463905245304e-10 6.894395929201877e-10 9.326304924227645e-10 4.172469134706603e-10
          3.8748780036954557e-10 1.7566486786338097e-10 1.6301160236434666e-10 3.051133696110157e-10 1.2876193179246318e-10 4.446227139202235e-10
          4.134370477940936e-10 1.7382995855070792e-10 3.2610751585841683e-10 4.481027579074073e-10 2.454681810608904e-10 4.792909026106145e-10
          2.0026789564861135e-10 8.581162015020269e-11 1.121511764906987e-10 4.929618541289871e-11 2.1388724473805636e-10 9.145167400202855e-11
          1.1934764077959063e-10 7.588204519733943e-11 4.3016211696042566e-11 1.0130140638914221e-10 3.567895954665699e-11 1.616975590802218e-11
          2.3454179366082996e-11 1.0849635181370441e-11 4.721205026232347e-11 2.1343463046044925e-11 3.0454318776139084e-11 1.2069421109549025e-10
          6.606037422270668e-11 1.2795571810464115e-10 5.6024498769228225e-11 2.51671688898559e-11 3.5784383900681344e-11 1.6199680534705722e-11
          5.931591333233392e-11 2.661046368015934e-11 3.7747384532729344e-11 1.0493448851329373e-11 9.812665718402065e-12 1.5364943325538413e-11
          1.4328951674557136e-11 5.9717603744947354e-12 8.956573375616383e-12 8.380166057569252e-12 8.039424472411717e-12 1.1636384016006302e-11
          6.834227580432222e-12 2.7379623517866596e-11 2.5464584163988283e-11 1.192134901760811e-11 2.0434062067273022e-11 5.869666109722507e-12
          8.25530881914854e-12 3.7450182535780504e-12 5.046467414545917e-12 4.7923658600963365e-12 6.530809629860334e-12 4.2282384077495115e-12
          1.4158841919152965e-11 8.37911856693255e-12 9.85330677211373e-12 4.261522735138013e-11 3.963274692591103e-11 1.666652390306399e-11
          1.5390348147098923e-11 3.164663130218452e-11 1.4543740002369696e-11 5.836362710388945e-11 5.4270356793764e-11 2.1004217642062974e-11
          4.3246308228479054e-11 5.038861361385422e-12 4.701436597943813e-12 6.308867795999975e-12 5.845967681469786e-12 3.0660608565845916e-12
          3.528643024632302e-12 3.5920728115609994e-12 4.364011834502202e-12 5.383067566939596e-12 3.655502598489696e-12 8.617016029146222e-12
          7.957542503451686e-12 4.566462625817202e-12 6.915347711024938e-12 2.1747107862973e-11 1.2711144889703791e-11 1.3092589756440453e-11
          7.876923727723332e-12 2.9556825568974306e-11 1.3681128399218214e-11 1.765191032165981e-11 7.061261312084457e-11 6.55979512930797e-11
          2.7329663408401777e-11 2.5375781115030225e-11 5.2155643735683156e-11 2.0240777955520633e-11 7.520561750068472e-11 6.983675215318912e-11
          2.7036085584042064e-11 5.547715304383208e-11 1.0284399979044041e-11 9.552016421904017e-12 5.554406138029e-12 5.254339643174193e-12
          7.70949343166785e-12 4.447058436810439e-12 1.0913642130410169e-11 1.0179446601900418e-11 5.493838801251387e-12 8.247026946486791e-12
          3.5505368805298794e-11 1.400430417171372e-11 2.1009666880965135e-11 1.0186478088475634e-11 3.771456988886362e-11 1.4992900355128252e-11
          2.225535917313312e-11 5.1156612197838454e-12 5.428107356889119e-12 3.496799486485478e-12 3.3428110362281554e-12 4.081417262007187e-12
          4.25686071520653e-12 2.7457783471548173e-12 5.740553493994394e-12 3.188822585970833e-12 4.432304168405873e-12 5.965798541422169e-12
          7.186391746286168e-12 4.071889484573885e-12 4.603670667747375e-12 4.369885794242866e-12 5.038823601710327e-12 3.472908434614294e-12
          9.42550970582484e-12 5.787655672592618e-12 6.345319932959112e-12 1.1050881827273827e-11 6.787807989977839e-12 7.365169497163534e-12
          4.91408422261848e-12 1.1657729194048142e-11 7.135756485691309e-12 7.74746053758663e-12
        </DataArray>
        <DataArray type="Float64" Name="gradient_matprop_error" format="ascii" RangeMin="0" RangeMax="0">
          0 0 0 0 0 0
          0 0 0 0 0 0
          0 0 0 0 0 0
          0 0 0 0 0 0
          0 0 0 0 0 0
          0 0 0 0 0 0
          0 0 0 0 0 0
          0 0 0 0 0 0
          0 0 0 0 0 0
          0 0 0 0 0 0
          0 0 0 0 0 0
          0 0 0 0 0 0
          0 0 0 0 0 0
          0 0 0 0 0 0
          0 0 0 0 0 0
          0 0 0 0 0 0
          0 0 0 0 0 0
          0 0 0 0 0 0
          0 0 0 0 0 0
          0 0 0 0 0 0
          0 0 0 0 0 0
          0 0 0 0 0 0
          0 0 0 0 0 0
          0 0 0 0 0 0
          0 0 0 0 0 0
          0 0 0 0 0 0
          0 0 0 0 0 0
          0 0 0 0 0 0
          0 0 0 0 0 0
          0 0 0 0 0 0
          0 0 0 0 0 0
          0 0 0 0 0 0
          0 0 0 0 0 0
          0 0 0 0 0 0
          0 0 0 0 0 0
          0 0 0 0 0 0
          0 0 0 0 0 0
          0 0 0 0 0 0
          0 0 0 0 0 0
          0 0 0 0 0 0
          0 0 0 0 0 0
          0 0 0 0 0 0
          0 0 0 0 0 0
          0 0 0 0 0 0
          0 0 0 0 0 0
          0 0 0 0 0 0
          0 0 0 0 0 0
          0 0 0 0 0 0
          0 0 0 0 0 0
          0 0 0 0 0 0
          0 0 0 0 0 0
          0 0 0 0 0 0
          0 0 0 0 0 0
          0 0 0 0 0 0
          0 0 0 0 0 0
          0 0 0 0 0 0
          0 0 0 0 0 0
          0 0 0 0 0 0
          0 0 0 0 0 0
          0 0 0 0 0 0
          0 0 0 0 0 0
          0 0 0 0 0 0
          0 0 0 0 0 0
          0 0 0 0 0 0
          0 0 0 0 0 0
          0 0 0 0
        </DataArray>
        <DataArray type="Float64" Name="initial_marker" format="ascii" RangeMin="0" RangeMax="2">
          0 0 0 0 0 2
          0 0 0 0 0 0
          2 1 0 2 0 0
          0 0 0 0 0 0
          0 0 0 0 0 0
          0 0 0 0 0 0
          0.5 0.25 2 2 0 1.5
          0.75 0 1 0 2 2
          2 2 0 0 0 0
          0 0 0 0.75 0 0
          2 2 2 2 2 2
          2 2 2 2 1.5 0.5
          0 0 1.5 0.5 0 0
          0 0 0 0 0 0
          0 0 0 1 0.75 0
          0 2 1.75 0 0 0.5
          0 2 2 0 0.5 0
          0 0 0 0 0 0
          0 0 0 0 0 0
          0 0 0 0 0 0
          0 0 0 0 0 0
          0 0 0 0 0 0
          0 0 0 0 0 0
          0 0 0 0 0 0
          0 0 1 1.5 1.5 1.25
          2 0 0 1 0.75 0
          1 0.5 0 0.5 0 2
          1.75 1.6666666666666667 1.5 0 0.75 0.3333333333333333
          1.75 0 0.25 0 0 0
          0 0 1 0.3333333333333333 0.3333333333333333 2
          2 2 2 2 2 2
          2 2 1.75 2 2 2
          2 2 1.75 2 1.75 1
          1 0.3333333333333333 2 1.75 1.75 0.3333333333333333
          1 0.5 1.75 0 0.25 0
          0 0 0 0 1 0.3333333333333333
          0.5 2 2 2 2 2
          2 2 2 2 2 2
          2 2 2 2 2 2
          2 2 2 1.75 2 2
          2 2 2 2 2 2
          2 2 2 2 2 2
          2 2 2 2 2 2
          2 2 2 2 2 2
          2 2 1.6666666666666667 2 1.75 1
          1.5 0.5 2 1.5 2 2
          2 2 2 1.5 2 1
          2 1.5 2 1 1 1.5
          1.5 0 1 1 0.5 1
          0.5 2 2 1.3333333333333333 1.75 0
          0.25 0 0 0 0 0
          1 0.5 0.3333333333333333 2 2 1.5
          1.5 2 1.6666666666666667 2 2 2
          2 0 0 0.5 0.5 0
          0 0 0 0.5 0 1
          1 0 1 1.75 1.5 1
          0.5 2 1.6666666666666667 1.5 2 2
          2 2 2 2 2 2
          2 2 1 1 0 0
          1 0 1 1 0 1
          2 1.5 1.5 0.6666666666666666 2 1.5
          1.5 0.5 0.5 0 0 0
          0 0 0.5 0 0 0
          0.25 0 0 0 0 0
          0.5 0 0 0.5 0 0
          0 0.5 0 0
        </DataArray>
        <DataArray type="Float64" Name="markers_norefine" format="ascii" RangeMin="0" RangeMax="0">
          0 0 0 0 0 0
          0 0 0 0 0 0
          0 0 0 0 0 0
          0 0 0 0 0 0
          0 0 0 0 0 0
          0 0 0 0 0 0
          0 0 0 0 0 0
          0 0 0 0 0 0
          0 0 0 0 0 0
          0 0 0 0 0 0
          0 0 0 0 0 0
          0 0 0 0 0 0
          0 0 0 0 0 0
          0 0 0 0 0 0
          0 0 0 0 0 0
          0 0 0 0 0 0
          0 0 0 0 0 0
          0 0 0 0 0 0
          0 0 0 0 0 0
          0 0 0 0 0 0
          0 0 0 0 0 0
          0 0 0 0 0 0
          0 0 0 0 0 0
          0 0 0 0 0 0
          0 0 0 0 0 0
          0 0 0 0 0 0
          0 0 0 0 0 0
          0 0 0 0 0 0
          0 0 0 0 0 0
          0 0 0 0 0 0
          0 0 0 0 0 0
          0 0 0 0 0 0
          0 0 0 0 0 0
          0 0 0 0 0 0
          0 0 0 0 0 0
          0 0 0 0 0 0
          0 0 0 0 0 0
          0 0 0 0 0 0
          0 0 0 0 0 0
          0 0 0 0 0 0
          0 0 0 0 0 0
          0 0 0 0 0 0
          0 0 0 0 0 0
          0 0 0 0 0 0
          0 0 0 0 0 0
          0 0 0 0 0 0
          0 0 0 0 0 0
          0 0 0 0 0 0
          0 0 0 0 0 0
          0 0 0 0 0 0
          0 0 0 0 0 0
          0 0 0 0 0 0
          0 0 0 0 0 0
          0 0 0 0 0 0
          0 0 0 0 0 0
          0 0 0 0 0 0
          0 0 0 0 0 0
          0 0 0 0 0 0
          0 0 0 0 0 0
          0 0 0 0 0 0
          0 0 0 0 0 0
          0 0 0 0 0 0
          0 0 0 0 0 0
          0 0 0 0 0 0
          0 0 0 0 0 0
          0 0 0 0
        </DataArray>
        <DataArray type="Float64" Name="markers_mustrefine" format="ascii" RangeMin="0" RangeMax="2">
          0 0 0 0 0 2
          0 0 0 0 0 0
          2 1 0 2 0 0
          0 0 0 0 0 0
          0 0 0 0 0 0
          0 0 0 0 0 0
          0.5 0.25 2 2 0 1.5
          0.75 0 1 0 2 2
          2 2 0 0 0 0
          0 0 0 0.75 0 0
          2 2 2 2 2 2
          2 2 2 2 1.5 0.5
          0 0 1.5 0.5 0 0
          0 0 0 0 0 0
          0 0 0 1 0.75 0
          0 2 1.75 0 0 0.5
          0 2 2 0 0.5 0
          0 0 0 0 0 0
          0 0 0 0 0 0
          0 0 0 0 0 0
          0 0 0 0 0 0
          0 0 0 0 0 0
          0 0 0 0 0 0
          0 0 0 0 0 0
          0 0 1 1.5 1.5 1.25
          2 0 0 1 0.75 0
          1 0.5 0 0.5 0 2
          1.75 1.6666666666666667 1.5 0 0.75 0.3333333333333333
          1.75 0 0.25 0 0 0
          0 0 1 0.3333333333333333 0.3333333333333333 2
          2 2 2 2 2 2
          2 2 1.75 2 2 2
          2 2 1.75 2 1.75 1
          1 0.3333333333333333 2 1.75 1.75 0.3333333333333333
          1 0.5 1.75 0 0.25 0
          0 0 0 0 1 0.3333333333333333
          0.5 2 2 2 2 2
          2 2 2 2 2 2
          2 2 2 2 2 2
          2 2 2 1.75 2 2
          2 2 2 2 2 2
          2 2 2 2 2 2
          2 2 2 2 2 2
          2 2 2 2 2 2
          2 2 1.6666666666666667 2 1.75 1
          1.5 0.5 2 1.5 2 2
          2 2 2 1.5 2 1
          2 1.5 2 1 1 1.5
          1.5 0 1 1 0.5 1
          0.5 2 2 1.3333333333333333 1.75 0
          0.25 0 0 0 0 0
          1 0.5 0.3333333333333333 2 2 1.5
          1.5 2 1.6666666666666667 2 2 2
          2 0 0 0.5 0.5 0
          0 0 0 0.5 0 1
          1 0 1 1.75 1.5 1
          0.5 2 1.6666666666666667 1.5 2 2
          2 2 2 2 2 2
          2 2 1 1 0 0
          1 0 1 1 0 1
          2 1.5 1.5 0.6666666666666666 2 1.5
          1.5 0.5 0.5 0 0 0
          0 0 0.5 0 0 0
          0.25 0 0 0 0 0
          0.5 0 0 0.5 0 0
          0 0.5 0 0
        </DataArray>
        <DataArray type="Float64" Name="gradient_marker" format="ascii" RangeMin="1" RangeMax="1">
          1 1 1 1 1 1
          1 1 1 1 1 1
          1 1 1 1 1 1
          1 1 1 1 1 1
          1 1 1 1 1 1
          1 1 1 1 1 1
          1 1 1 1 1 1
          1 1 1 1 1 1
          1 1 1 1 1 1
          1 1 1 1 1 1
          1 1 1 1 1 1
          1 1 1 1 1 1
          1 1 1 1 1 1
          1 1 1 1 1 1
          1 1 1 1 1 1
          1 1 1 1 1 1
          1 1 1 1 1 1
          1 1 1 1 1 1
          1 1 1 1 1 1
          1 1 1 1 1 1
          1 1 1 1 1 1
          1 1 1 1 1 1
          1 1 1 1 1 1
          1 1 1 1 1 1
          1 1 1 1 1 1
          1 1 1 1 1 1
          1 1 1 1 1 1
          1 1 1 1 1 1
          1 1 1 1 1 1
          1 1 1 1 1 1
          1 1 1 1 1 1
          1 1 1 1 1 1
          1 1 1 1 1 1
          1 1 1 1 1 1
          1 1 1 1 1 1
          1 1 1 1 1 1
          1 1 1 1 1 1
          1 1 1 1 1 1
          1 1 1 1 1 1
          1 1 1 1 1 1
          1 1 1 1 1 1
          1 1 1 1 1 1
          1 1 1 1 1 1
          1 1 1 1 1 1
          1 1 1 1 1 1
          1 1 1 1 1 1
          1 1 1 1 1 1
          1 1 1 1 1 1
          1 1 1 1 1 1
          1 1 1 1 1 1
          1 1 1 1 1 1
          1 1 1 1 1 1
          1 1 1 1 1 1
          1 1 1 1 1 1
          1 1 1 1 1 1
          1 1 1 1 1 1
          1 1 1 1 1 1
          1 1 1 1 1 1
          1 1 1 1 1 1
          1 1 1 1 1 1
          1 1 1 1 1 1
          1 1 1 1 1 1
          1 1 1 1 1 1
          1 1 1 1 1 1
          1 1 1 1 1 1
          1 1 1 1
        </DataArray>
        <DataArray type="Float64" Name="gradient_matprop_marker" format="ascii" RangeMin="0" RangeMax="0">
          0 0 0 0 0 0
          0 0 0 0 0 0
          0 0 0 0 0 0
          0 0 0 0 0 0
          0 0 0 0 0 0
          0 0 0 0 0 0
          0 0 0 0 0 0
          0 0 0 0 0 0
          0 0 0 0 0 0
          0 0 0 0 0 0
          0 0 0 0 0 0
          0 0 0 0 0 0
          0 0 0 0 0 0
          0 0 0 0 0 0
          0 0 0 0 0 0
          0 0 0 0 0 0
          0 0 0 0 0 0
          0 0 0 0 0 0
          0 0 0 0 0 0
          0 0 0 0 0 0
          0 0 0 0 0 0
          0 0 0 0 0 0
          0 0 0 0 0 0
          0 0 0 0 0 0
          0 0 0 0 0 0
          0 0 0 0 0 0
          0 0 0 0 0 0
          0 0 0 0 0 0
          0 0 0 0 0 0
          0 0 0 0 0 0
          0 0 0 0 0 0
          0 0 0 0 0 0
          0 0 0 0 0 0
          0 0 0 0 0 0
          0 0 0 0 0 0
          0 0 0 0 0 0
          0 0 0 0 0 0
          0 0 0 0 0 0
          0 0 0 0 0 0
          0 0 0 0 0 0
          0 0 0 0 0 0
          0 0 0 0 0 0
          0 0 0 0 0 0
          0 0 0 0 0 0
          0 0 0 0 0 0
          0 0 0 0 0 0
          0 0 0 0 0 0
          0 0 0 0 0 0
          0 0 0 0 0 0
          0 0 0 0 0 0
          0 0 0 0 0 0
          0 0 0 0 0 0
          0 0 0 0 0 0
          0 0 0 0 0 0
          0 0 0 0 0 0
          0 0 0 0 0 0
          0 0 0 0 0 0
          0 0 0 0 0 0
          0 0 0 0 0 0
          0 0 0 0 0 0
          0 0 0 0 0 0
          0 0 0 0 0 0
          0 0 0 0 0 0
          0 0 0 0 0 0
          0 0 0 0 0 0
          0 0 0 0
        </DataArray>
        <DataArray type="Float64" Name="combo" format="ascii" RangeMin="1" RangeMax="1">
          1 1 1 1 1 1
          1 1 1 1 1 1
          1 1 1 1 1 1
          1 1 1 1 1 1
          1 1 1 1 1 1
          1 1 1 1 1 1
          1 1 1 1 1 1
          1 1 1 1 1 1
          1 1 1 1 1 1
          1 1 1 1 1 1
          1 1 1 1 1 1
          1 1 1 1 1 1
          1 1 1 1 1 1
          1 1 1 1 1 1
          1 1 1 1 1 1
          1 1 1 1 1 1
          1 1 1 1 1 1
          1 1 1 1 1 1
          1 1 1 1 1 1
          1 1 1 1 1 1
          1 1 1 1 1 1
          1 1 1 1 1 1
          1 1 1 1 1 1
          1 1 1 1 1 1
          1 1 1 1 1 1
          1 1 1 1 1 1
          1 1 1 1 1 1
          1 1 1 1 1 1
          1 1 1 1 1 1
          1 1 1 1 1 1
          1 1 1 1 1 1
          1 1 1 1 1 1
          1 1 1 1 1 1
          1 1 1 1 1 1
          1 1 1 1 1 1
          1 1 1 1 1 1
          1 1 1 1 1 1
          1 1 1 1 1 1
          1 1 1 1 1 1
          1 1 1 1 1 1
          1 1 1 1 1 1
          1 1 1 1 1 1
          1 1 1 1 1 1
          1 1 1 1 1 1
          1 1 1 1 1 1
          1 1 1 1 1 1
          1 1 1 1 1 1
          1 1 1 1 1 1
          1 1 1 1 1 1
          1 1 1 1 1 1
          1 1 1 1 1 1
          1 1 1 1 1 1
          1 1 1 1 1 1
          1 1 1 1 1 1
          1 1 1 1 1 1
          1 1 1 1 1 1
          1 1 1 1 1 1
          1 1 1 1 1 1
          1 1 1 1 1 1
          1 1 1 1 1 1
          1 1 1 1 1 1
          1 1 1 1 1 1
          1 1 1 1 1 1
          1 1 1 1 1 1
          1 1 1 1 1 1
          1 1 1 1
        </DataArray>
        <DataArray type="Float64" Name="dHdT" format="ascii" RangeMin="25.81153874911508" RangeMax="26.031112948147697">
          25.811585624356276 25.812378941768035 25.81200298749951 25.811572662188617 25.81158514012281 25.849351136098598
          25.812768406515346 25.811586189186833 25.81180833030106 25.811796569244507 25.81189608711757 25.812111088187706
          25.823200645883716 25.81493387596804 25.81241515739561 25.820425372373183 25.811683183297248 25.811662688813417
          25.8119125143725 25.811813589551246 25.81158362101969 25.811588836530888 25.81158696782873 25.811671055980582
          25.811700572333905 25.81159311405969 25.812232928694414 25.81187739251891 25.811589847575224 25.811727122005305
          25.811624394741575 25.81162627006448 25.811569652352535 25.81157571703671 25.811628145387388 25.811581781720882
          25.814527962920703 25.814003423399157 25.82664784490472 25.8227293298984 25.812439162524768 25.814568134014692
          25.81388001783608 25.813075779332223 25.816544870501723 25.8127995719228 25.873837076285817 25.854196264550545
          25.819843490580002 25.827467497832316 25.812631122844607 25.813715978294283 25.812142306941784 25.812353180593732
          25.81256817462052 25.8134270348784 25.812264025621282 25.816044531989412 25.812905609590754 25.81376912362673
          25.970117260341482 25.914921285840748 25.839433515369837 25.83047139956261 25.845344258390245 25.81849090588627
          26.031112948147697 25.952200648175214 25.836817809218893 25.855479241902458 25.81929889155529 25.81371567075885
          25.813985821290306 25.812929109254423 25.821030103802396 25.814118378494616 25.814310705329493 25.812084526018328
          25.8120118385617 25.812251114970785 25.812130987043666 25.811777315410886 25.81194777829142 25.811891442649355
          25.811885246672446 25.811977010239477 25.811795038357438 25.813391309341135 25.81290002793064 25.81198389861891
          25.8122734158882 25.815784273019215 25.814506956262587 25.812107201088235 25.81204460538443 25.812758156449263
          25.811960755330016 25.817109269743074 25.81548473763835 25.81208226770779 25.813085863893257 25.812006454668747
          25.8121334235844 25.811807833170334 25.81188979779226 25.81194642226691 25.812072576258693 25.811812559399506
          25.812222985998062 25.811933447098284 25.812135613960137 25.81153874911508 25.811538923092 25.811539509021024
          25.811539841039632 25.812799650907884 25.812666491289033 25.8122224402483 25.812158062186853 25.812415882232585
          25.81203491552346 25.81225523589658 25.811970951126654 25.812212038998165 25.81196575533179 25.811815365359188
          25.811895795523963 25.811720757431075 25.81174513764275 25.811799388478555 25.81184134722756 25.811735305577905
          25.811704759032637 25.811689987569075 25.81172050782775 25.811703004316676 25.811619475853448 25.811621263468137
          25.811619415398948 25.81167521610552 25.811685500805602 25.811617567329755 25.811736256622865 25.811716021064274
          25.811619354944444 25.81169578550568 25.815468212329908 25.818282408290298 25.81785553465479 25.81677399721057
          25.82552523206012 25.813661109370766 25.81354983619331 25.814809364151984 25.81461388991909 25.81289640071735
          25.813651135021868 25.813528916097834 25.813268051920122 25.81412108784154 25.813227099215304 25.818526463533033
          25.81803488383259 25.815050249057418 25.816807896561855 25.814147272805158 25.815454555701855 25.81466511123862
          25.819442105923706 25.812930939901417 25.813534945812464 25.81250848225109 25.812880805105877 25.812764338978443
          25.813246131628045 25.812714108954943 25.815360918780822 25.813691139157537 25.81447693637465 25.843725416714175
          25.841014052193763 25.83439063509094 25.86806446535808 25.82604011962671 25.82487984728334 25.817858792492537
          25.81738215937125 25.822026052883363 25.816207705930612 25.839012936509285 25.836585161770344 25.822224038483434