<?xml version="1.0"?>
<VTKFile type="UnstructuredGrid" version="0.1" byte_order="LittleEndian" header_type="UInt32" compressor="vtkZLibDataCompressor">
  <UnstructuredGrid>
    <Piece NumberOfPoints="429" NumberOfCells="222">
      <PointData>
        <DataArray type="Int32" Name="libmesh_node_id" format="ascii" RangeMin="127" RangeMax="3645">
          130 131 144 145 158 159
          160 161 174 175 188 189
          190 191 204 205 210 211
          212 213 214 215 216 217
          218 219 220 221 222 223
          224 225 226 227 228 257
          261 262 265 267 268 270
          285 286 287 288 289 290
          291 292 293 294 295 296
          297 298 299 300 301 302
          303 304 305 306 307 308
          309 310 311 312 313 314
          315 316 317 318 319 320
          321 325 326 329 331 376
          377 380 386 399 401 406
          409 424 425 426 427 428
          433 434 504 505 506 507
          508 509 510 511 512 513
          514 515 516 517 518 519
          520 521 522 523 524 525
          526 527 528 529 530 531
          532 533 534 535 536 537
          538 539 540 541 542 543
          544 545 546 547 548 549
          550 551 552 553 554 555
          556 557 558 559 560 561
          562 563 564 565 566 567
          568 583 584 585 586 587
          588 589 590 591 592 781
          782 783 784 785 786 787
          788 789 790 791 792 793
          794 795 796 797 798 799
          800 801 802 803 804 805
          806 807 808 809 810 811
          812 813 814 815 816 817
          818 819 820 821 822 823
          824 825 826 827 828 829
          830 831 832 833 834 835
          836 837 838 839 840 841
          842 843 844 845 846 849
          861 862 863 864 865 866
          867 868 869 870 871 872
          873 874 875 876 877 878
          879 880 881 882 883 884
          885 886 887 888 889 890
          891 892 893 894 895 896
          897 898 899 900 901 902
          903 904 905 906 907 908
          909 910 911 912 913 914
          915 916 917 918 919 920
          921 922 923 924 925 926
          927 928 929 930 931 932
          933 934 935 936 937 938
          939 940 941 942 943 944
          945 946 947 948 949 950
          951 952 953 954 955 956
          957 958 959 960 961 962
          1602 1603 1604 1605 1606 1607
          1608 1609 1610 1611 3594 3596
          3598 3599 3601 3603 3604 3605
          3608 3609 3611 3612 3613 3614
          3615 3617 3618 3619 3621 3623
          3624 3626 3628 3629 3631 3632
          3634 3636 3637 3638 3639 3641
          3642 3644 3645 127 129 143
          157 173 258 259 264 263
          266 128 3542 3543 3546 3547
          3549 3550 3545 3548 156 3595
          3597 3600 187 3602 203 3606
          3607 3610 3616 260 3620 3622
          3625 3627 186 3630 269 3633
          3635 3640 3643
        </DataArray>
        <DataArray type="Float64" Name="bounds" format="ascii" RangeMin="0" RangeMax="0">
          0 0 0 0 0 0
          0 0 0 0 0 0
          0 0 0 0 0 0
          0 0 0 0 0 0
          0 0 0 0 0 0
          0 0 0 0 0 0
          0 0 0 0 0 0
          0 0 0 0 0 0
          0 0 0 0 0 0
          0 0 0 0 0 0
          0 0 0 0 0 0
          0 0 0 0 0 0
          0 0 0 0 0 0
          0 0 0 0 0 0
          0 0 0 0 0 0
          0 0 0 0 0 0
          0 0 0 0 0 0
          0 0 0 0 0 0
          0 0 0 0 0 0
          0 0 0 0 0 0
          0 0 0 0 0 0
          0 0 0 0 0 0
          0 0 0 0 0 0
          0 0 0 0 0 0
          0 0 0 0 0 0
          0 0 0 0 0 0
          0 0 0 0 0 0
          0 0 0 0 0 0
          0 0 0 0 0 0
          0 0 0 0 0 0
          0 0 0 0 0 0
          0 0 0 0 0 0
          0 0 0 0 0 0
          0 0 0 0 0 0
          0 0 0 0 0 0
          0 0 0 0 0 0
          0 0 0 0 0 0
          0 0 0 0 0 0
          0 0 0 0 0 0
          0 0 0 0 0 0
          0 0 0 0 0 0
          0 0 0 0 0 0
          0 0 0 0 0 0
          0 0 0 0 0 0
          0 0 0 0 0 0
          0 0 0 0 0 0
          0 0 0 0 0 0
          0 0 0 0 0 0
          0 0 0 0 0 0
          0 0 0 0 0 0
          0 0 0 0 0 0
          0 0 0 0 0 0
          0 0 0 0 0 0
          0 0 0 0 0 0
          0 0 0 0 0 0
          0 0 0 0 0 0
          0 0 0 0 0 0
          0 0 0 0 0 0
          0 0 0 0 0 0
          0 0 0 0 0 0
          0 0 0 0 0 0
          0 0 0 0 0 0
          0 0 0 0 0 0
          0 0 0 0 0 0
          0 0 0 0 0 0
          0 0 0 0 0 0
          0 0 0 0 0 0
          0 0 0 0 0 0
          0 0 0 0 0 0
          0 0 0 0 0 0
          0 0 0 0 0 0
          0 0 0
        </DataArray>
        <DataArray type="Float64" Name="gradient_error" format="ascii" RangeMin="1.7547440482339538e-9" RangeMax="0.000001945471818785217">
          3.9917179806909515e-9 4.142703425691792e-9 9.456531126654765e-9 4.631766529996848e-9 4.88215566488217e-7 9.069669440605148e-8
          1.2264119639551773e-8 1.989578088439709e-8 1.0273337641667952e-8 4.478595555366096e-9 0.0000010444583630601514 7.220133156070313e-7
          3.85364688781297e-7 1.1299046220663679e-8 4.9174978603847546e-8 2.38330637202517e-9 4.8983601414738445e-8 6.52937245548063e-8
          3.165288523330223e-7 0.0000013709886984024634 2.3467993496986144e-7 3.933493197169905e-7 8.78194306195561e-7 2.068650706773519e-8
          1.6404064789889958e-7 1.81324574073437e-7 6.044645709897092e-8 7.062264638958851e-8 4.2376730240339234e-7 1.9756779996938683e-8
          2.2963234806381726e-7 3.4278058862634547e-7 0.000001680830201162289 2.5232430115605884e-7 6.62838707109222e-8 5.257853797563699e-7
          0.0000012834582492169579 9.159315379372652e-7 4.7240153662321045e-7 0.000001503521695554906 0.0000015598981719505807 7.619414908889258e-7
          6.706067854827048e-7 6.638316014540691e-7 0.000001103001048970308 0.0000014786932403503963 7.277942629017528e-7 9.519718853606876e-7
          0.0000015566439063216975 4.2192183973591457e-7 3.710166380853836e-7 5.33882021474869e-7 5.184541753553977e-7 7.515676844942702e-7
          0.000001198714367518575 4.908282374939146e-7 1.8970347932734767e-7 7.801186634509871e-7 0.000001562678742393376 3.862795538623749e-7
          8.093106860551084e-7 2.064393333103811e-7 3.7911316753797483e-7 4.331493298030439e-7 5.467569259297329e-7 2.2670858913289543e-7
          5.105282552358935e-7 4.696526946645505e-7 4.213235972788577e-7 4.406454780951415e-7 2.7861515837381544e-7 2.888742539808381e-7
          4.548106314786238e-7 5.425437158453928e-7 3.0705588982376407e-7 1.1859474692973833e-7 7.469768729462697e-8 6.062849661480382e-7
          4.0480818947159844e-7 4.0647342949475094e-8 1.1562754222477193e-7 6.534314126795178e-7 1.9005989884657978e-7 1.948070784798264e-9
          6.511586305606853e-9 6.0796936590045984e-9 5.6478010124023455e-9 3.8790347930947e-9 5.019521207418233e-9 1.7547440482339538e-9
          6.160007621741765e-9 1.033999646313481e-8 8.263568141374392e-8 4.8935130252710867e-8 3.313772516885129e-8 5.397927956915184e-8
          1.7340320084991724e-8 2.5322877724559777e-8 3.4276044198811194e-7 3.3241829783315545e-7 3.222586359219215e-7 2.678184425152841e-7
          2.8629733793590554e-7 3.2967086504006993e-7 3.069940392061305e-7 3.608770046718253e-7 3.103326556948475e-7 3.5676299887487947e-7
          3.100669154443005e-7 3.450370444880021e-7 3.3041502226621834e-7 3.7459865260636496e-7 2.061490284347635e-7 2.861453114732501e-7
          2.675463388043057e-7 3.1072344006817255e-7 3.5707627459938635e-7 4.0057657629791697e-7 3.880465951592474e-7 3.4195295568033987e-7
          3.914520431987955e-7 4.167437651006469e-7 3.805129047798291e-7 4.321139468383451e-7 3.591428102145076e-7 4.0372481425704555e-7
          4.349083510309945e-7 2.559705416152619e-7 3.4322110778427545e-7 3.830392201416562e-7 4.185367334723012e-7 4.696265259437842e-7
          4.486057819486295e-7 4.273664152787718e-7 4.803008210853164e-7 4.832985204584635e-7 4.856097052161304e-7 5.368638407445098e-7
          4.027271163389947e-7 4.6969432083709224e-7 5.076684130232087e-7 3.307990340723968e-7 4.316587640758078e-7 4.923899588522125e-7
          4.959070252669156e-7 1.6427215675422817e-7 1.4963659536323152e-7 1.6556747931949446e-7 3.059014684515635e-7 3.0832966470550825e-7
          2.7584389127206724e-7 2.754133987998072e-7 1.314301519567079e-7 3.0805688201248763e-7 2.726038473856293e-7 1.1178541377816276e-7
          1.9195220732107383e-7 2.117065521710647e-7 1.8306917689931962e-7 5.56275700092407e-7 5.207800646045079e-7 5.609109860312225e-7
          3.873065118101938e-7 5.582184027573476e-7 6.039664192716643e-7 5.162812565213042e-7 6.195172558695378e-7 5.488877052151128e-7
          5.93487130471709e-7 4.562725779866695e-7 5.684238965152159e-7 5.313627473522069e-7 5.952813876738228e-7 1.5262871435095468e-8
          9.6170632141184e-9 2.092658644819163e-8 1.1016162425475586e-7 4.551075011360041e-8 2.952225018516337e-8 6.72033753886305e-8
          3.971254993141331e-9 1.3533750256726331e-8 2.424512652250514e-8 9.328569760685595e-9 1.643999810866525e-8 3.4345162163615445e-8
          8.024809690577204e-8 2.6584839455921714e-9 1.1524104900908358e-8 2.678195339148949e-8 5.93617545665453e-8 1.4405619570287884e-7
          2.0389725856224543e-8 7.946345495379901e-8 6.432420996898395e-8 9.939763432164144e-8 1.8810238437696562e-7 1.7088877406740195e-7
          1.3315626394769964e-7 1.491252009532595e-7 2.114206387167883e-8 1.4330308162363788e-7 1.0560438159222994e-7 4.9184964984168893e-8
          9.542375382799732e-8 1.1014801752955335e-7 6.790568156082202e-8 1.4623369102185694e-8 1.2504118292884042e-8 1.1693525440490246e-7
          7.99787813494637e-8 1.038486748358239e-8 4.302230829402491e-8 1.462523047897866e-7 1.6609061575421262e-7 2.1484965996506898e-7
          2.3732895754230834e-7 1.0927034151842062e-7 1.7246318848419878e-7 6.995264314658894e-8 1.0218388515782295e-7 1.5640776383467995e-7
          3.0073817324932466e-8 2.8344701514035133e-7 3.08567299330404e-7 2.3565603544997693e-7 1.3441512716905696e-7 7.661187777562062e-8
          1.3341102184791283e-7 5.1017149458788564e-8 9.664800137792703e-8 1.1477666066085085e-8 1.1413114395292688e-8 9.842644717088559e-9
          1.9021016592020502e-7 1.4227885329706546e-7 1.1348562724500293e-8 3.397950229557729e-8 6.362462054337972e-8 9.326973879118213e-8
          0.0000018058893298023546 0.0000015061432033792783 0.000001039695108764043 0.000001594949703709649 0.0000017655699465047036 0.0000016707521971877064
          0.0000015395679749477277 0.0000012063970769562015 0.000001575934447870709 0.0000011132820029998025 0.0000017252505632070523 0.0000018353611909961345
          0.0000016497644854568905 0.000001945471818785217 2.2336507715331847e-7 2.086208075020651e-7 2.1877408557937235e-7 2.6822745267759447e-7
          2.7122015684624743e-7 2.5013049228074305e-7 2.463332570646132e-7 1.9486312416419378e-7 2.77981296787354e-7 2.5690728791312904e-7
          1.9387653785081172e-7 2.2904082771523867e-7 2.2443906145163182e-7 2.3583327903890412e-7 3.078011105921151e-7 3.025522184141692e-7
          2.734062648163284e-7 2.59686328778976e-7 2.594589174774105e-7 2.8101100462940286e-7 2.6666051285076104e-7 2.973033262362234e-7
          3.025630917813953e-7 2.73634696922546e-7 2.1111672436270584e-7 2.5946979084463654e-7 2.5991476088519365e-7 3.0782285732656725e-7
          2.5085375140144105e-7 2.441495178550589e-7 2.7760864230817346e-7 2.719863922731588e-7 2.6104059431630815e-7 2.878272071956384e-7
          2.1565906382637826e-7 2.381875877845771e-7 2.4506698954161626e-7 2.296504512334582e-7 3.04363533214906e-7 2.998232666912587e-7
          3.1461382007496863e-7 2.6071611174277595e-7 1.986624336879618e-7 1.893092645220727e-7 2.859401082691889e-7 2.62859738113626e-7
          1.8430617750300304e-7 2.9388931547020535e-7 2.6830251708463147e-7 1.7995609535618363e-7 2.3977936795806306e-7 2.4271571869905753e-7
          1.8636179351599829e-7 1.7687291979884434e-7 3.0084052445921005e-7 2.7257080280063916e-7 1.6738404608169037e-7 2.4430108114206827e-7
          2.6740483879207575e-7 2.969905298817979e-7 2.724927251040166e-7 3.056106343486062e-7 2.0841447498178464e-7 2.2748256196675568e-7
          2.251195555320844e-7 3.265762209715201e-7 3.3872854359319583e-7 2.465506489517267e-7 2.7600071134702646e-7 3.1297883458486206e-7
          2.3484166392988767e-7 3.1868626820350937e-7 1.9899014958401868e-7 2.198042543874007e-7 2.1015368663349053e-7 3.4995695782269766e-7
          3.5921224102775677e-7 2.406183591907827e-7 2.110144950825318e-7 3.216576022679797e-7 2.0281791310559638e-7 3.203080019354844e-7
          1.3270039566128505e-7 1.9525422989171512e-7 1.7641644909843658e-7 3.6550598411688127e-7 3.6829984151112995e-7 2.2102440792987923e-7
          6.568182826488351e-8 7.865759591575088e-8 1.0495079900543447e-7 1.1343099847344493e-7 4.729023739699375e-8 9.030495062417379e-8
          4.2793862945676354e-8 6.935530120734768e-8 8.159299872979755e-8 5.162236020847934e-8 1.9530948979449576e-8 8.621026789649334e-8
          4.3563323172356046e-9 2.517103259675572e-8 1.5288958681353705e-7 4.598573287627583e-8 1.9978831896076343e-7 1.6086963036600698e-7
          2.703685033230529e-7 2.2487703528266138e-7 1.6896963291419948e-7 2.5975889306618954e-7 2.1465601516459935e-7 1.2195094177125053e-7
          1.7938556724226988e-7 1.6955313726300916e-7 9.465940484767876e-7 8.136087423045691e-7 5.603039316918995e-7 0.0000014426532360467066
          0.0000014109286615927937 8.909706602496678e-7 0.000001333067062825181 0.000001483524278775765 0.000001059895519318131 2.4373917094641876e-7
          3.2094490163303527e-7 2.3344668246035176e-7 3.1069495874330214e-7 1.6781341908184033e-7 2.391525699056154e-7 2.499164008588104e-7
          3.981506323196518e-7 3.8794323502625246e-7 3.104917207293905e-7 1.0454156424414364e-8 8.981600836943775e-9 1.2388487337041751e-8
          1.599528724495615e-7 1.2086430735956315e-8 3.6792146661816443e-7 2.163611814961827e-7 1.6629461607247678e-7 5.604510264772368e-7
          2.2003255769940464e-7 2.2694157624371456e-8 3.63517787419323e-8 2.1911624775268303e-8 1.270549181106449e-7 7.91036709700314e-8
          7.471470808604307e-9 3.115242382941787e-8 8.92587083609461e-8 6.092901067050694e-8 1.6875831810216223e-7 1.7762071184139017e-8
          5.4159901645618625e-8 1.4414925591621377e-8 2.1922312876230084e-7 9.055773210709823e-8 2.495470801120301e-8 1.4860838418337805e-7
          2.9011223759534564e-7 2.439659084286265e-7 1.9781957926190731e-7 9.119184617515526e-7 7.937113900512716e-7 0.0000013072242539827422
          0.0000012925549073437473 8.669802172556433e-7 0.0000011922593342088284 0.0000013370104672588262 0.0000010159811296636458 2.627115916903122e-7
          3.39477335930175e-7 2.2287979805381545e-7 4.1624308017003776e-7
        </DataArray>
        <DataArray type="Float64" Name="gradient_matprop_error" format="ascii" RangeMin="0" RangeMax="0">
          0 0 0 0 0 0
          0 0 0 0 0 0
          0 0 0 0 0 0
          0 0 0 0 0 0
          0 0 0 0 0 0
          0 0 0 0 0 0
          0 0 0 0 0 0
          0 0 0 0 0 0
          0 0 0 0 0 0
          0 0 0 0 0 0
          0 0 0 0 0 0
          0 0 0 0 0 0
          0 0 0 0 0 0
          0 0 0 0 0 0
          0 0 0 0 0 0
          0 0 0 0 0 0
          0 0 0 0 0 0
          0 0 0 0 0 0
          0 0 0 0 0 0
          0 0 0 0 0 0
          0 0 0 0 0 0
          0 0 0 0 0 0
          0 0 0 0 0 0
          0 0 0 0 0 0
          0 0 0 0 0 0
          0 0 0 0 0 0
          0 0 0 0 0 0
          0 0 0 0 0 0
          0 0 0 0 0 0
          0 0 0 0 0 0
          0 0 0 0 0 0
          0 0 0 0 0 0
          0 0 0 0 0 0
          0 0 0 0 0 0
          0 0 0 0 0 0
          0 0 0 0 0 0
          0 0 0 0 0 0
          0 0 0 0 0 0
          0 0 0 0 0 0
          0 0 0 0 0 0
          0 0 0 0 0 0
          0 0 0 0 0 0
          0 0 0 0 0 0
          0 0 0 0 0 0
          0 0 0 0 0 0
          0 0 0 0 0 0
          0 0 0 0 0 0
          0 0 0 0 0 0
          0 0 0 0 0 0
          0 0 0 0 0 0
          0 0 0 0 0 0
          0 0 0 0 0 0
          0 0 0 0 0 0
          0 0 0 0 0 0
          0 0 0 0 0 0
          0 0 0 0 0 0
          0 0 0 0 0 0
          0 0 0 0 0 0
          0 0 0 0 0 0
          0 0 0 0 0 0
          0 0 0 0 0 0
          0 0 0 0 0 0
          0 0 0 0 0 0
          0 0 0 0 0 0
          0 0 0 0 0 0
          0 0 0 0 0 0
          0 0 0 0 0 0
          0 0 0 0 0 0
          0 0 0 0 0 0
          0 0 0 0 0 0
          0 0 0 0 0 0
          0 0 0
        </DataArray>
        <DataArray type="Float64" Name="initial_marker" format="ascii" RangeMin="0" RangeMax="2">
          0 0 0 0 0 0
          0 0 0 0 0 0
          2 0 0 0 0 0
          0 0 0 0 0 0
          0 0 0 0 0 0
          2 0 0 0 0 0
          0 0 0 0 0 0
          0 0 0 0 0 0
          0 0 1 0 0 0
          0 0 1 0 0 1
          0 0 0 1 0.5 0
          1 0.5 0 0 0 2
          1 1 0 0 0 2
          0.5 0 0 1 0 0
          0 0 0 0 0 0
          0 0 0 0 0 0
          0 0 0.5 0.25 0 0.5
          1.5 1 0.25 0.5 2 1.5
          0 0.25 0 0.5 2 1.5
          0.5 2 0.5 1 0.75 2
          1.75 1 2 2 0.3333333333333333 0.75
          1 2 2 2 1 1
          1 2 2 1 2 2
          0.6666666666666666 1 1 2 2 2
          1 0 0 0 0 0.5
          0.25 0 0 1 0.5 0
          0 0 0 1.5 1.25 1.5
          0.5 2 2 2 2 1
          1 2 2 2 1 0
          0 0 0 0 0 0
          0 0 0 0 0 0
          0 0 0 0 0 0
          0 0 0 0 0 0
          0 0 0 0 0 0
          0 0 0 0 0 0
          0 0 0 0 0 0
          0 0 0 0 0 0
          0 0 0 0 0 0
          0 0 0 0 0 0
          0 0 0 0 0 0
          0 0 0 0 0 0
          0 0 0 0 0 0
          0 0 0 0 0 0
          0 0 0 0 0 0
          0 0 0 0 0 0
          0 0 0 0 0 0
          0 0 0 0 0 0
          0 0 0 0 0 0
          0 0 0 0 0 0
          0 0 0 0 0 0
          0 0 0 0 0 0
          0 0 0 0 0 0
          0 0 0 0 0 0
          0 0 0 0 0 0
          0 0 0 0 0 0
          0 0 0 0 0 0
          0 0 0 0 0 0
          0 0 0 0 0 0
          0 0 0 0 0 0
          0 0 0 0 0 0
          0 0 0 0 0 0
          0 0 0 0 0 0
          0 0 0 0 0 0
          0 0 0 0 0 0
          0 0 0 0 0 0
          0 0 0 0 0 0
          0 0 0 0 0 0
          0 0 0 0 0 0
          0 0 0 0 0 0
          0 0 0 0 0 0
          0 0 0 0 0 0
          0 0 0
        </DataArray>
        <DataArray type="Float64" Name="markers_norefine" format="ascii" RangeMin="0" RangeMax="0">
          0 0 0 0 0 0
          0 0 0 0 0 0
          0 0 0 0 0 0
          0 0 0 0 0 0
          0 0 0 0 0 0
          0 0 0 0 0 0
          0 0 0 0 0 0
          0 0 0 0 0 0
          0 0 0 0 0 0
          0 0 0 0 0 0
          0 0 0 0 0 0
          0 0 0 0 0 0
          0 0 0 0 0 0
          0 0 0 0 0 0
          0 0 0 0 0 0
          0 0 0 0 0 0
          0 0 0 0 0 0
          0 0 0 0 0 0
          0 0 0 0 0 0
          0 0 0 0 0 0
          0 0 0 0 0 0
          0 0 0 0 0 0
          0 0 0 0 0 0
          0 0 0 0 0 0
          0 0 0 0 0 0
          0 0 0 0 0 0
          0 0 0 0 0 0
          0 0 0 0 0 0
          0 0 0 0 0 0
          0 0 0 0 0 0
          0 0 0 0 0 0
          0 0 0 0 0 0
          0 0 0 0 0 0
          0 0 0 0 0 0
          0 0 0 0 0 0
          0 0 0 0 0 0
          0 0 0 0 0 0
          0 0 0 0 0 0
          0 0 0 0 0 0
          0 0 0 0 0 0
          0 0 0 0 0 0
          0 0 0 0 0 0
          0 0 0 0 0 0
          0 0 0 0 0 0
          0 0 0 0 0 0
          0 0 0 0 0 0
          0 0 0 0 0 0
          0 0 0 0 0 0
          0 0 0 0 0 0
          0 0 0 0 0 0
          0 0 0 0 0 0
          0 0 0 0 0 0
          0 0 0 0 0 0
          0 0 0 0 0 0
          0 0 0 0 0 0
          0 0 0 0 0 0
          0 0 0 0 0 0
          0 0 0 0 0 0
          0 0 0 0 0 0
          0 0 0 0 0 0
          0 0 0 0 0 0
          0 0 0 0 0 0
          0 0 0 0 0 0
          0 0 0 0 0 0
          0 0 0 0 0 0
          0 0 0 0 0 0
          0 0 0 0 0 0
          0 0 0 0 0 0
          0 0 0 0 0 0
          0 0 0 0 0 0
          0 0 0 0 0 0
          0 0 0
        </DataArray>
        <DataArray type="Float64" Name="markers_mustrefine" format="ascii" RangeMin="0" RangeMax="2">
          0 0 0 0 0 0
          0 0 0 0 0 0
          2 0 0 0 0 0
          0 0 0 0 0 0
          0 0 0 0 0 0
          2 0 0 0 0 0
          0 0 0 0 0 0
          0 0 0 0 0 0
          0 0 1 0 0 0
          0 0 1 0 0 1
          0 0 0 1 0.5 0
          1 0.5 0 0 0 2
          1 1 0 0 0 2
          0.5 0 0 1 0 0
          0 0 0 0 0 0
          0 0 0 0 0 0
          0 0 0.5 0.25 0 0.5
          1.5 1 0.25 0.5 2 1.5
          0 0.25 0 0.5 2 1.5
          0.5 2 0.5 1 0.75 2
          1.75 1 2 2 0.3333333333333333 0.75
          1 2 2 2 1 1
          1 2 2 1 2 2
          0.6666666666666666 1 1 2 2 2
          1 0 0 0 0 0.5
          0.25 0 0 1 0.5 0
          0 0 0 1.5 1.25 1.5
          0.5 2 2 2 2 1
          1 2 2 2 1 0
          0 0 0 0 0 0
          0 0 0 0 0 0
          0 0 0 0 0 0
          0 0 0 0 0 0
          0 0 0 0 0 0
          0 0 0 0 0 0
          0 0 0 0 0 0
          0 0 0 0 0 0
          0 0 0 0 0 0
          0 0 0 0 0 0
          0 0 0 0 0 0
          0 0 0 0 0 0
          0 0 0 0 0 0
          0 0 0 0 0 0
          0 0 0 0 0 0
          0 0 0 0 0 0
          0 0 0 0 0 0
          0 0 0 0 0 0
          0 0 0 0 0 0
          0 0 0 0 0 0
          0 0 0 0 0 0
          0 0 0 0 0 0
          0 0 0 0 0 0
          0 0 0 0 0 0
          0 0 0 0 0 0
          0 0 0 0 0 0
          0 0 0 0 0 0
          0 0 0 0 0 0
          0 0 0 0 0 0
          0 0 0 0 0 0
          0 0 0 0 0 0
          0 0 0 0 0 0
          0 0 0 0 0 0
          0 0 0 0 0 0
          0 0 0 0 0 0
          0 0 0 0 0 0
          0 0 0 0 0 0
          0 0 0 0 0 0
          0 0 0 0 0 0
          0 0 0 0 0 0
          0 0 0 0 0 0
          0 0 0 0 0 0
          0 0 0
        </DataArray>
        <DataArray type="Float64" Name="gradient_marker" format="ascii" RangeMin="0" RangeMax="1">
          1 1 1 1 1 1
          1 1 1 1 1 1
          1 1 1 1 1 1
          1 1 1 1 1 1
          1 0.875 1 1 1 1
          1 1 1 1 1 1
          1 1 1 1 1 1
          1 1 1 1 1 1
          1 1 1 1 1 1
          1 1 1 1 1 1
          1 1 1 1 1 0.875
          1 1 1 1 0.875 1
          1 1 1 1 0.625 1
          1 0.6666666666666666 0.75 1 1 1
          1 1 1 1 1 1
          1 1 1 1 1 1
          1 1 1 1 1 1
          1 1 1 1 1 1
          1 1 1 1 1 1
          1 1 1 1 1 1
          1 1 1 1 1 1
          1 1 1 1 1 1
          1 1 1 1 1 1
          1 1 1 1 1 1
          1 1 1 1 1 1
          1 1 0.75 1 0.875 0.5
          0.75 0.8333333333333334 0.625 1 1 1
          1 1 1 0.75 0.875 1
          1 1 1 0.75 1 1
          1 1 1 1 1 1
          1 1 1 1 1 1
          1 1 1 1 1 1
          1 1 1 1 1 1
          1 1 1 1 1 1
          1 1 1 1 1 1
          1 1 1 1 1 1
          1 1 1 1 1 1
          1 1 1 1 1 1
          1 1 1 1 1 1
          1 1 1 1 1 1
          1 1 1 1 1 1
          1 1 1 1 1 1
          1 1 1 1 1 1
          1 1 1 1 1 1
          1 1 1 1 1 1
          1 1 1 1 1 1
          1 1 1 1 1 1
          1 1 1 1 1 1
          1 1 1 1 1 1
          1 1 1 1 1 1
          1 1 1 1 1 1
          1 1 1 1 1 1
          1 1 1 1 1 1
          1 1 1 1 1 1
          0.8333333333333334 1 1 1 1 1
          1 1 0.75 1 0.75 1
          0.5 1 1 1 1 1
          0 0 0.25 0.25 0 0.25
          0 0 0 0 1 1
          1 1 1 1 1 1
          1 1 1 1 1 1
          1 1 1 1 1 1
          1 1 1 1 1 1
          1 1 1 1 1 1
          1 1 1 1 1 1
          1 1 1 1 1 1
          1 1 1 1 1 1
          1 1 1 1 1 1
          1 1 1 1 1 1
          1 1 1 1 1 1
          1 1 1 1 1 1
          1 1 1
        </DataArray>
        <DataArray type="Float64" Name="gradient_matprop_marker" format="ascii" RangeMin="0" RangeMax="0">
          0 0 0 0 0 0
          0 0 0 0 0 0
          0 0 0 0 0 0
          0 0 0 0 0 0
          0 0 0 0 0 0
          0 0 0 0 0 0
          0 0 0 0 0 0
          0 0 0 0 0 0
          0 0 0 0 0 0
          0 0 0 0 0 0
          0 0 0 0 0 0
          0 0 0 0 0 0
          0 0 0 0 0 0
          0 0 0 0 0 0
          0 0 0 0 0 0
          0 0 0 0 0 0
          0 0 0 0 0 0
          0 0 0 0 0 0
          0 0 0 0 0 0
          0 0 0 0 0 0
          0 0 0 0 0 0
          0 0 0 0 0 0
          0 0 0 0 0 0
          0 0 0 0 0 0
          0 0 0 0 0 0
          0 0 0 0 0 0
          0 0 0 0 0 0
          0 0 0 0 0 0
          0 0 0 0 0 0
          0 0 0 0 0 0
          0 0 0 0 0 0
          0 0 0 0 0 0
          0 0 0 0 0 0
          0 0 0 0 0 0
          0 0 0 0 0 0
          0 0 0 0 0 0
          0 0 0 0 0 0
          0 0 0 0 0 0
          0 0 0 0 0 0
          0 0 0 0 0 0
          0 0 0 0 0 0
          0 0 0 0 0 0
          0 0 0 0 0 0
          0 0 0 0 0 0
          0 0 0 0 0 0
          0 0 0 0 0 0
          0 0 0 0 0 0
          0 0 0 0 0 0
          0 0 0 0 0 0
          0 0 0 0 0 0
          0 0 0 0 0 0
          0 0 0 0 0 0
          0 0 0 0 0 0
          0 0 0 0 0 0
          0 0 0 0 0 0
          0 0 0 0 0 0
          0 0 0 0 0 0
          0 0 0 0 0 0
          0 0 0 0 0 0
          0 0 0 0 0 0
          0 0 0 0 0 0
          0 0 0 0 0 0
          0 0 0 0 0 0
          0 0 0 0 0 0
          0 0 0 0 0 0
          0 0 0 0 0 0
          0 0 0 0 0 0
          0 0 0 0 0 0
          0 0 0 0 0 0
          0 0 0 0 0 0
          0 0 0 0 0 0
          0 0 0
        </DataArray>
        <DataArray type="Float64" Name="combo" format="ascii" RangeMin="0" RangeMax="1">
          1 1 1 1 1 1
          1 1 1 1 1 1
          1 1 1 1 1 1
          1 1 1 1 1 1
          1 0.875 1 1 1 1
          1 1 1 1 1 1
          1 1 1 1 1 1
          1 1 1 1 1 1
          1 1 1 1 1 1
          1 1 1 1 1 1
          1 1 1 1 1 0.875
          1 1 1 1 0.875 1
          1 1 1 1 0.625 1
          1 0.6666666666666666 0.75 1 1 1
          1 1 1 1 1 1
          1 1 1 1 1 1
          1 1 1 1 1 1
          1 1 1 1 1 1
          1 1 1 1 1 1
          1 1 1 1 1 1
          1 1 1 1 1 1
          1 1 1 1 1 1
          1 1 1 1 1 1
          1 1 1 1 1 1
          1 1 1 1 1 1
          1 1 0.75 1 0.875 0.5
          0.75 0.8333333333333334 0.625 1 1 1
          1 1 1 0.75 0.875 1
          1 1 1 0.75 1 1
          1 1 1 1 1 1
          1 1 1 1 1 1
          1 1 1 1 1 1
          1 1 1 1 1 1
          1 1 1 1 1 1
          1 1 1 1 1 1
          1 1 1 1 1 1
          1 1 1 1 1 1
          1 1 1 1 1 1
          1 1 1 1 1 1
          1 1 1 1 1 1
          1 1 1 1 1 1
          1 1 1 1 1 1
          1 1 1 1 1 1
          1 1 1 1 1 1
          1 1 1 1 1 1
          1 1 1 1 1 1
          1 1 1 1 1 1
          1 1 1 1 1 1
          1 1 1 1 1 1
          1 1 1 1 1 1
          1 1 1 1 1 1
          1 1 1 1 1 1
          1 1 1 1 1 1
          1 1 1 1 1 1
          0.8333333333333334 1 1 1 1 1
          1 1 0.75 1 0.75 1
          0.5 1 1 1 1 1
          0 0 0.25 0.25 0 0.25
          0 0 0 0 1 1
          1 1 1 1 1 1
          1 1 1 1 1 1
          1 1 1 1 1 1
          1 1 1 1 1 1
          1 1 1 1 1 1
          1 1 1 1 1 1
          1 1 1 1 1 1
          1 1 1 1 1 1
          1 1 1 1 1 1
          1 1 1 1 1 1
          1 1 1 1 1 1
          1 1 1 1 1 1
          1 1 1
        </DataArray>
        <DataArray type="Float64" Name="dHdT" format="ascii" RangeMin="25.790165754961517" RangeMax="39.205794038398565">
          25.811322311442 25.81153183354224 25.811644648536042 25.81155966093213 25.88461679599032 25.820244530740883
          25.803473199570632 25.813197700142116 25.811885919372738 25.81161660074199 36.748625610080694 25.931002032644997
          36.952131951347 25.80385434477742 25.817465112662862 25.811530016462328 25.796248370100187 25.813545217967956
          25.855546741823783 27.917285319489807 26.928570996064966 26.25538539463761 26.411817802047626 25.813000465762244
          26.566584071419868 26.022559416132243 25.817210590913948 25.815270038377562 25.875497792387034 25.813415631275717
          38.26349574970608 27.3221852359336 28.26607633095778 26.88122441201004 25.80314922617284 25.90271719451428
          27.91361679312521 26.496265581157047 25.888620831417995 34.33139079673325 28.254007888601194 25.962028430301647
          27.5181859966274 27.054262761325802 27.759402425499186 32.434274477305806 33.32916373369822 30.233247073277283
          30.27853472595628 26.660483945076713 33.9326820328491 30.365279745955203 26.507309515632638 27.24443486010276
          27.984362135781762 26.817277987953975 39.205794038398565 33.8655848210564 32.80011810795263 34.54963829613723
          27.912042866999478 26.75671295569909 26.520051405401464 33.89648017445499 30.25242356423275 26.339399027430808
          33.71234594586252 30.141537761835195 26.290181806451173 26.65709787726423 26.46614278105406 37.346366785085664
          34.49726950058894 34.28449452130649 27.11736298871204 26.366185351176007 26.129789753822134 33.39656655544079
          29.83253423941651 25.899322777864057 26.23858313415642 33.9393290976263 26.61802787597075 25.811536329331844
          25.810410716717936 25.810704377854478 25.81099803899102 25.81114006500081 25.810742996806866 25.811548879956014
          25.81034592861293 25.804800854289603 25.88170897422348 25.85119214625377 25.83932544659679 25.86035055336179
          25.82745874693982 25.8389921325001 33.860683731579726 32.89041844702077 33.47136947085274 37.70085265384576
          37.59695526219063 36.458784468577576 36.39706137269977 32.967038999870596 37.393031744574756 36.42715622258899
          31.379061346286168 33.281290207539286 33.80032847963159 33.36772322994112 38.78979904586306 37.774670497383966
          37.90733350425895 37.54259015849904 34.47329885759905 33.936952767950814 32.96672680501815 37.14130562806744
          36.30474399643379 32.91977877538613 36.89094824894951 36.149547306804095 31.39978440834396 33.368899029816994
          33.31984869082686 37.76954472962575 37.2667134161964 37.00077559837433 34.54838097578692 33.823135826362446
          32.83455071333956 36.6888887576424 35.99840015090829 32.71646877680719 36.57207149367885 35.880083912924846