<?xml version="1.0"?>
<VTKFile type="UnstructuredGrid" version="0.1" byte_order="LittleEndian" header_type="UInt32" compressor="vtkZLibDataCompressor">
  <UnstructuredGrid>
    <Piece NumberOfPoints="683" NumberOfCells="447">
      <PointData>
        <DataArray type="Int32" Name="libmesh_node_id" format="ascii" RangeMin="851" RangeMax="5414">
          851 859 929 938 939 940
          1067 1068 1074 1075 1273 1274
          1275 1281 1295 1296 1301 1323
          1324 1325 1326 1327 1328 1329
          1332 1333 1334 1335 1337 1338
          1343 1344 1893 1894 1895 1898
          1901 1915 1916 1921 2003 2004
          2006 2009 2019 2023 2037 2038
          2040 2043 2053 2057 2181 2182
          2183 2184 2185 2186 2187 2188
          2189 2190 2191 2192 2193 2194
          2195 2196 2197 2198 2199 2200
          2201 2202 2203 2204 2205 2206
          2207 2208 2209 2210 2211 2212
          2216 2217 2219 2220 2221 2222
          2223 2224 2225 2226 2227 2228
          2229 2230 2233 2235 2236 2238
          2239 2240 2246 2247 2256 2257
          2258 2259 2260 2261 2262 2263
          2264 2265 2266 2267 2270 2272
          2273 2275 2637 2638 2639 2640
          2641 2643 3319 3320 3321 3324
          3327 3341 3342 3345 3347 3401
          3402 3405 3407 3427 3818 3819
          3821 3824 3834 3836 3838 3852
          3853 3855 3858 3868 3870 3872
          3938 3940 3942 3952 3956 3966
          3968 3970 3980 4066 4067 4069
          4072 4082 4084 4086 4100 4101
          4103 4106 4116 4118 4120 4186
          4188 4190 4214 4216 4218 4823
          4824 4825 4826 4827 4828 4829
          4830 4831 4832 4833 4834 4835
          4836 4837 4838 4839 4840 4841
          4842 4843 4844 4845 4846 4847
          4848 4849 4850 4851 4852 4853
          4854 4855 4856 4857 4858 4859
          4860 4861 4862 4863 4864 4865
          4866 4867 4868 4869 4870 4871
          4872 4873 4874 4875 4876 4877
          4878 4879 4880 4881 4882 4883
          4884 4885 4886 4887 4888 4889
          4890 4891 4892 4893 4894 4895
          4896 4897 4898 4899 4900 4901
          4902 4903 4904 4905 4906 4907
          4908 4909 4910 4911 4912 4913
          4914 4915 4916 4917 4918 4919
          4920 4921 4922 4923 4924 4925
          4926 4927 4928 4929 4930 4931
          4932 4933 4934 4935 4936 4937
          4938 4939 4940 4941 4942 4943
          4944 4945 4946 4947 4948 4949
          4950 4951 4952 4953 4954 4955
          4956 4957 4958 4959 4960 4961
          4962 4963 4964 4965 4966 4967
          4968 4969 4970 4971 4972 4973
          4974 4975 4976 4977 4978 4979
          4980 4981 4982 4983 4984 4985
          4986 4987 4988 4989 4990 4991
          4992 4993 4994 4995 4996 5000
          5001 5003 5004 5006 5007 5008
          5009 5010 5011 5012 5013 5014
          5015 5018 5019 5021 5023 5024
          5025 5026 5027 5028 5029 5030
          5031 5032 5033 5034 5035 5038
          5040 5041 5043 5044 5045 5046
          5047 5048 5049 5050 5051 5053
          5055 5057 5058 5059 5060 5061
          5062 5063 5064 5065 5066 5067
          5068 5069 5070 5071 5072 5073
          5074 5075 5079 5080 5082 5083
          5084 5085 5089 5090 5092 5093
          5096 5097 5099 5100 5103 5104
          5120 5121 5122 5123 5124 5125
          5126 5127 5128 5129 5140 5141
          5142 5143 5147 5148 5160 5161
          5164 5165 5188 5189 5190 5191
          5192 5193 5194 5195 5196 5197
          5198 5199 5200 5201 5202 5203
          5204 5205 5206 5207 5208 5209
          5210 5211 5212 5213 5214 5215
          5216 5217 5218 5219 5220 5221
          5222 5223 5224 5225 5226 5227
          5228 5229 5230 5231 5232 5233
          5234 5235 5236 5237 5238 5239
          5240 5241 5242 5243 5244 5245
          5246 5247 5248 5249 5250 5251
          5252 5253 5254 5255 5256 5257
          5258 5259 5260 5261 5262 5263
          5264 5265 5266 5267 5270 5272
          5273 5275 5276 5277 5278 5279
          5280 5281 5282 5283 5285 5287
          5289 5290 5291 5292 5293 5294
          5295 5296 5297 5298 5299 5300
          5301 5304 5306 5307 5309 5310
          5311 5312 5313 5314 5315 5316
          5317 5319 5321 5323 5324 5325
          5328 5329 5331 5332 5335 5336
          5352 5353 5356 5357 5359 5360
          5363 5364 5380 5381 5384 5385
          5408 5409 5412 5413 928 1330
          1331 1278 2213 2214 1919 2215
          2218 930 1336 2642 2250 5076
          5077 3954 5078 5081 2021 2241
          5086 5087 5088 5091 2242 5094
          5095 5098 2243 5101 5102 5105
          2244 5106 5107 5108 3982 5109
          5113 5114 5115 5116 5144 5145
          5146 5149 2251 5162 5163 5166
          2253 5174 5175 5176 5177 5326
          5327 5330 2276 5333 5334 5337
          2277 5354 5355 5358 2280 5361
          5362 5365 2281 5382 5383 5386
          2283 5410 5411 5414 2287
        </DataArray>
        <DataArray type="Float64" Name="bounds" format="ascii" RangeMin="0" RangeMax="0">
          0 0 0 0 0 0
          0 0 0 0 0 0
          0 0 0 0 0 0
          0 0 0 0 0 0
          0 0 0 0 0 0
          0 0 0 0 0 0
          0 0 0 0 0 0
          0 0 0 0 0 0
          0 0 0 0 0 0
          0 0 0 0 0 0
          0 0 0 0 0 0
          0 0 0 0 0 0
          0 0 0 0 0 0
          0 0 0 0 0 0
          0 0 0 0 0 0
          0 0 0 0 0 0
          0 0 0 0 0 0
          0 0 0 0 0 0
          0 0 0 0 0 0
          0 0 0 0 0 0
          0 0 0 0 0 0
          0 0 0 0 0 0
          0 0 0 0 0 0
          0 0 0 0 0 0
          0 0 0 0 0 0
          0 0 0 0 0 0
          0 0 0 0 0 0
          0 0 0 0 0 0
          0 0 0 0 0 0
          0 0 0 0 0 0
          0 0 0 0 0 0
          0 0 0 0 0 0
          0 0 0 0 0 0
          0 0 0 0 0 0
          0 0 0 0 0 0
          0 0 0 0 0 0
          0 0 0 0 0 0
          0 0 0 0 0 0
          0 0 0 0 0 0
          0 0 0 0 0 0
          0 0 0 0 0 0
          0 0 0 0 0 0
          0 0 0 0 0 0
          0 0 0 0 0 0
          0 0 0 0 0 0
          0 0 0 0 0 0
          0 0 0 0 0 0
          0 0 0 0 0 0
          0 0 0 0 0 0
          0 0 0 0 0 0
          0 0 0 0 0 0
          0 0 0 0 0 0
          0 0 0 0 0 0
          0 0 0 0 0 0
          0 0 0 0 0 0
          0 0 0 0 0 0
          0 0 0 0 0 0
          0 0 0 0 0 0
          0 0 0 0 0 0
          0 0 0 0 0 0
          0 0 0 0 0 0
          0 0 0 0 0 0
          0 0 0 0 0 0
          0 0 0 0 0 0
          0 0 0 0 0 0
          0 0 0 0 0 0
          0 0 0 0 0 0
          0 0 0 0 0 0
          0 0 0 0 0 0
          0 0 0 0 0 0
          0 0 0 0 0 0
          0 0 0 0 0 0
          0 0 0 0 0 0
          0 0 0 0 0 0
          0 0 0 0 0 0
          0 0 0 0 0 0
          0 0 0 0 0 0
          0 0 0 0 0 0
          0 0 0 0 0 0
          0 0 0 0 0 0
          0 0 0 0 0 0
          0 0 0 0 0 0
          0 0 0 0 0 0
          0 0 0 0 0 0
          0 0 0 0 0 0
          0 0 0 0 0 0
          0 0 0 0 0 0
          0 0 0 0 0 0
          0 0 0 0 0 0
          0 0 0 0 0 0
          0 0 0 0 0 0
          0 0 0 0 0 0
          0 0 0 0 0 0
          0 0 0 0 0 0
          0 0 0 0 0 0
          0 0 0 0 0 0
          0 0 0 0 0 0
          0 0 0 0 0 0
          0 0 0 0 0 0
          0 0 0 0 0 0
          0 0 0 0 0 0
          0 0 0 0 0 0
          0 0 0 0 0 0
          0 0 0 0 0 0
          0 0 0 0 0 0
          0 0 0 0 0 0
          0 0 0 0 0 0
          0 0 0 0 0 0
          0 0 0 0 0 0
          0 0 0 0 0 0
          0 0 0 0 0 0
          0 0 0 0 0 0
          0 0 0 0 0 0
          0 0 0 0 0
        </DataArray>
        <DataArray type="Float64" Name="gradient_error" format="ascii" RangeMin="1.4130220401697367e-11" RangeMax="3.906127176526914e-9">
          1.466932097470021e-9 3.241736251754971e-9 2.2503421955007452e-10 2.713361129546076e-10 2.2759809855092808e-10 4.0005851901144e-11
          1.1602244298292059e-9 1.0014245675641604e-9 2.8926296994062563e-10 2.5347396838336396e-10 8.292966300324243e-10 6.181046958995309e-10
          5.559618486085949e-10 1.8196042888913233e-10 2.064090375637942e-9 1.543019718289346e-9 3.2994353873187216e-9 2.9148482078027557e-10
          2.6865946272844967e-10 1.9178950653160463e-10 1.7356751475706654e-10 8.512200598919221e-11 5.512419460146801e-11 5.17619446650474e-11
          4.9313287357250795e-11 6.319385948087279e-11 6.414175211856338e-11 3.3519324736190495e-11 6.963436827919641e-10 5.020420273816185e-10
          1.533902742835267e-9 1.3274686128576046e-9 3.1603885578569176e-10 2.079104569850531e-10 1.9992991182603529e-10 1.7810097481342772e-10
          2.1339726268997652e-10 2.3284720790531524e-10 1.9286585920348968e-10 1.8060308211855797e-10 7.09642698171107e-10 6.663293036191394e-10
          5.52564542818718e-10 1.919391269324862e-9 4.0667841628171114e-10 1.0748935324032029e-9 3.906127176526914e-9 3.694048880292749e-9
          3.0647774245936813e-9 3.379191452243187e-9 2.1527340164800483e-9 2.5797681464248562e-9 1.774945282746948e-10 1.7139947223810516e-10
          1.1256880870573829e-10 1.0843639512023463e-10 8.849482995701431e-11 5.797154528292711e-11 5.5673899098478575e-11 1.5278359759136917e-10
          9.650014818384961e-11 6.521565680006595e-11 1.2345524799332491e-10 1.1692510249677514e-10 5.969392981325597e-11 9.92066244482971e-11
          4.2628711694604335e-11 4.088050704172551e-11 4.6211579125707705e-11 4.432012502764331e-11 1.917491262067688e-11 4.121208455281479e-11
          3.973483319288517e-11 3.666789934822345e-11 5.5601349830570396e-11 3.589388088889689e-11 4.7055703209995855e-11 4.473809852610236e-11
          3.822376812323014e-11 5.3543434049830435e-11 1.2450632563388095e-10 1.5065706208908e-10 6.623607314862512e-11 9.460810248555324e-11
          1.4118120119527536e-10 8.74944669446853e-11 4.055567880377549e-10 3.798437958382106e-10 2.13074286009178e-10 1.9924283462018153e-10
          3.12763371418126e-10 1.6326285030133985e-10 1.2632929771548268e-9 1.168307762601679e-9 6.412955475014615e-10 9.249734192855628e-10
          1.0323465662201029e-10 9.643061271966823e-11 7.881509085247992e-11 3.471047454828663e-10 3.1884623422576817e-10 2.479487212440482e-10
          2.2775180942922668e-10 1.1810204995299473e-10 5.7534264479369686e-11 5.687284725537948e-11 2.5998984392029976e-9 2.4354317899872813e-9
          1.5429461305670959e-9 1.432031181921373e-9 1.9667415422738682e-9 1.1290404615195784e-9 2.366156875363718e-9 2.400541430141121e-9
          1.5124930783964563e-9 2.21785217743193e-9 8.140525936010355e-10 7.499009002318405e-10 5.802760090220022e-10 8.69748492584187e-10
          8.393567031426289e-10 7.0673191425531e-10 3.248926105480796e-11 6.219073517003911e-11 1.6987692483600615e-11 3.0148528185908866e-11
          2.8177770872587922e-11 2.6738551289452675e-11 8.683999613982181e-11 1.2444243295634302e-10 1.2290809206029904e-10 1.1845326817547475e-10
          2.220643214625059e-10 7.905816672333062e-11 1.1141975019117904e-10 1.0251037944330786e-10 1.9972821342198501e-10 6.884739280926345e-11
          9.156585902228447e-11 8.52630533240627e-11 1.6099161664004065e-10 1.3273700335856998e-10 4.016691923216164e-10 3.959028104043381e-10
          3.791268820925033e-10 6.985410372708154e-10 3.528257562580648e-10 3.1928968830088903e-10 6.161176594608051e-10 1.2334361222909422e-9
          1.2125035144919363e-9 1.1518809329070756e-9 2.0269450804516534e-9 1.0577463845076715e-9 9.392640558287732e-10 1.7525242492175977e-9
          2.8198031760019247e-10 2.4268882440206154e-10 4.809551619532784e-10 2.0260752340037383e-10 3.3449248707703476e-10 8.071503700946285e-10
          6.720277443848475e-10 1.310574735758808e-9 5.430039160849928e-10 3.134903333146923e-9 3.0797582380879697e-9 2.9188927886351692e-9
          3.85332310373432e-9 2.666050867836821e-9 2.343846994467691e-9 3.428458776028277e-9 3.675258966758563e-9 3.677364881089734e-9
          3.656319054171288e-9 3.288287990290143e-9 3.5541307804973016e-9 3.323916131430622e-9 3.4116311156014147e-9 1.9817536166493516e-9
          1.6115995034042785e-9 2.6265490766197916e-9 2.9566903409735613e-9 2.4885461579765606e-9 3.0112924339269363e-9 6.512108483933782e-11
          6.43479574422045e-11 9.239518175623986e-11 9.125158453137341e-11 4.706876677736571e-11 6.755139353275101e-11 6.670484239613169e-11
          6.211968665879776e-11 8.792564579180414e-11 6.426643333718517e-11 1.6814871953223791e-10 1.6590227506597083e-10 1.217857709767422e-10
          1.5934957819818338e-10 3.3765977920805594e-11 3.332277047675106e-11 4.83234252625117e-11 4.769696653284345e-11 2.3518865852079797e-11
          3.409107157485648e-11 3.363946269166625e-11 3.227100956520352e-11 4.594725943648983e-11 3.241736097008157e-11 8.909912243443562e-11
          8.787818776773612e-11 6.23163856138444e-11 8.429021593455599e-11 5.860251544011557e-11 8.267039980876137e-11 4.305211848437257e-11
          6.045723223581514e-11 5.459652800023744e-11 7.598018268976448e-11 5.5565611248219015e-11 1.4900573868016497e-10 1.0925954716315706e-10
          1.3547032697322795e-10 3.0911138377337795e-11 4.3187426336968956e-11 2.2422280355927814e-11 3.02795182007266e-11 2.9217346422598306e-11
          3.957513396800056e-11 2.956940880394608e-11 7.870746310500601e-11 5.532991851401075e-11 7.147594300525338e-11 1.7176639488939843e-11
          1.6955480314576005e-11 2.3545812134285332e-11 2.3245922541432035e-11 1.461668246951183e-11 1.910267607247417e-11 1.887258021347825e-11
          1.646433295982468e-11 2.2415063179001864e-11 1.820202419039124e-11 4.400880606715788e-11 4.339834004188161e-11 3.399576756296361e-11
          4.155395427599603e-11 1.6446179534357706e-11 2.1075678241249506e-11 1.4130220401697367e-11 1.7431960652877016e-11 1.6698014289278216e-11
          2.0267263073074022e-11 1.7102357279453882e-11 3.828593831046542e-11 3.0126392392281864e-11 3.8553529578822374e-11 5.211413116309478e-11
          6.783104295931772e-11 3.846463907597886e-11 4.974283193326634e-11 5.1575693933421473e-11 6.329921587952788e-11 4.659433042686697e-11
          1.1895844658399098e-10 8.692161834832538e-11 1.1418126820689877e-10 2.789741225854166e-11 3.54618104109194e-11 2.3918588917237726e-11
          2.95634884680006e-11 2.7519952328851782e-11 3.3324194489971083e-11 2.8243087063695165e-11 6.258477061336773e-11 5.0736192657309215e-11
          5.975046716418066e-11 3.0304142430665484e-10 2.9862239507929e-10 2.242793020153654e-10 2.2096576124561644e-10 2.8577341566266643e-10
          2.1135408819139156e-10 5.422734037267571e-10 5.336021519545212e-10 3.9895607949610576e-10 5.084684556685576e-10 1.6290597391475438e-10
          1.6046763048983876e-10 1.1624452657378281e-10 1.1448139170996636e-10 1.5341210506947553e-10 1.093668510457032e-10 2.969812881467908e-10
          2.92079597715834e-10 2.0951700332778585e-10 2.779062970138026e-10 2.656383951362667e-10 1.9632305768706004e-10 2.399483191855048e-10
          1.7711506285555038e-10 4.693639026312403e-10 3.5016254824052304e-10 4.199988107569128e-10 1.4258852311570768e-10 1.0163880797738163e-10
          1.2882582701986855e-10 9.186068973393666e-11 2.5591094144226875e-10 1.8330373900121334e-10 2.2822276409024345e-10 9.583263927384726e-10
          9.415622469335537e-10 7.269368828744243e-10 7.138926215865048e-10 8.930891639861132e-10 6.762297203398373e-10 1.6357385872107026e-9
          1.6051532607861277e-9 1.2388356632434688e-9 1.516773629654756e-9 5.384437063937063e-10 5.285827451285617e-10 3.8966259599112916e-10
          3.824141030721034e-10 5.001434536482938e-10 3.615278657004641e-10 9.50219671475798e-10 9.312789071638137e-10 6.821336425122066e-10
          8.767582452151233e-10 8.18054706156704e-10 6.180853321190174e-10 7.240307636199217e-10 5.45507031628216e-10 1.3801859583373824e-9
          1.0597436724242332e-9 1.2096592901435544e-9 4.5633944021107383e-10 3.2941862895878137e-10 4.0184040454707506e-10 2.895750333996335e-10
          7.93130587808257e-10 5.788472342468508e-10 6.898377929139816e-10 8.176912558388921e-11 8.051803824662727e-11 5.6234964258517605e-11
          5.5372499538080355e-11 7.686072820632812e-11 5.283396866804387e-11 1.4980040440860726e-10 1.4727673825404797e-10 1.014852716760858e-10
          1.3998718929820667e-10 2.6280098884732748e-11 2.5901421484119882e-11 3.757322525093518e-11 3.699739994586801e-11 2.477429758070185e-11
          3.531315088698632e-11 6.977902120769984e-11 6.859456221331296e-11 6.517129300988244e-11 7.119031896522825e-11 4.882613769303031e-11
          6.398958588308383e-11 4.374828314996106e-11 1.2870072051245378e-10 8.86125750433551e-11 1.1453921190899699e-10 2.298031611284724e-11
          3.2672397170143274e-11 2.0699148798288576e-11 2.9330077926417066e-11 5.98756380286824e-11 5.324330609468731e-11 2.757402643784273e-10
          2.705522410158283e-10 1.9096355422685304e-10 1.873427428115092e-10 2.556151838663634e-10 1.7692397981510367e-10 4.975972088991692e-10
          4.872592286000786e-10 3.397978066675637e-10 4.5758693467225477e-10 1.2953498581812975e-10 1.2706717225209627e-10 1.1996867048617284e-10
          2.3660879699858254e-10 2.3158219201825413e-10 2.171801125539557e-10 2.326829282784812e-10 1.609442157952891e-10 2.0428217763819057e-10
          1.4118174857344947e-10 4.1232374553695123e-10 2.8694704841019507e-10 3.5684265045548395e-10 1.0908874676497612e-10 9.564528669655042e-11
          1.9528370657602715e-10 1.6856490594668352e-10 2.1126104733304594e-10 1.5546688376846997e-10 1.810291195166319e-10 1.326805738403879e-10
          3.6457765365792783e-10 2.708762945089176e-10 3.0734262506574985e-10 1.128883354298514e-10 8.036390421850812e-11 9.592421747320843e-11
          6.813813490823703e-11 1.9730235223727225e-10 1.4094736980830013e-10 1.6556681096103147e-10 1.1182385773771663e-10 1.5052347664909768e-10
          8.086301698274987e-11 1.0998738415782401e-10 2.5198014123703795e-10 1.8622488829499363e-10 5.8034897190561225e-11 7.927508948347413e-11
          4.1180035155094356e-11 5.6267560718959665e-11 1.3510017148649036e-10 9.622074298079123e-11 6.197603409155312e-10 4.654076307003289e-10
          1.021831822810724e-9 7.775692028200485e-10 3.419305540272062e-10 2.4591129178726753e-10 5.775565624737434e-10 4.189773519040857e-10
          4.0115042718976994e-11 5.578144824984122e-11 2.715455255359124e-11 3.8077609083264435e-11 3.410446086261448e-11 4.7284993363530496e-11
          3.233313057108913e-11 9.879092133907135e-11 6.794255289184701e-11 8.270539395681759e-11 2.8430833365903123e-11 3.9129464192092405e-11
          1.95989571900825e-11 2.6906169519847685e-11 6.732584133867218e-11 4.6298054951824736e-11 1.7323454493744295e-10 1.1961326801058444e-10
          2.970810387850293e-10 2.0606918783774373e-10 2.537315850441426e-9 2.490320560609872e-9 1.9993440502191014e-9 1.9605206651236314e-9
          2.3536644361976346e-9 1.8479868027295202e-9 3.225962476148053e-9 3.1794407511148564e-9 2.5586669944446042e-9 3.038872924249185e-9
          1.5316841134041503e-9 1.5006762403317495e-9 1.1405545640042327e-9 1.1166444378243135e-9 1.4110560003443866e-9 1.047710443685584e-9
          2.0330359481507556e-9 1.9982987330546506e-9 1.5148606461726308e-9 1.8952261367611636e-9 2.1402381274020348e-9 1.673254277413712e-9
          1.87060184488659e-9 1.4542583221760997e-9 2.8050749402364696e-9 2.2340790197520286e-9 2.4884458637150205e-9 1.272665720607709e-9
          9.417725275298425e-10 1.100528690736196e-9 8.10879425568039e-10 1.7288920034965917e-9 1.2997730499844718e-9 1.511337109612986e-9
          3.104453822342404e-9 3.1021714590057597e-9 2.5809918059975123e-9 2.570701212535327e-9 3.071736214895863e-9 2.523678780397755e-9
          2.7816978850955563e-9 2.81531165703454e-9 2.382012422675215e-9 2.875328890868001e-9 2.074163762000955e-9 2.0602415452527894e-9
          1.6138810212642033e-9 1.5992605715188459e-9 2.0080508898897678e-9 1.5489139957726387e-9 1.9386039236157893e-9 1.942936633590745e-9
          1.531705712528776e-9 1.9365866173623316e-9 2.963483095361367e-9 2.4070728381802356e-9 2.7417323852541764e-9 2.200273367621899e-9
          2.8743058525196365e-9 2.3608437816274247e-9 2.7428418800942454e-9 1.896846318136887e-9 1.4504391877758316e-9 1.7154400062266767e-9
          1.2989628525623788e-9 1.879061726735108e-9 1.4501671770361052e-9 1.7414555593281056e-9 8.260670174895275e-10 8.082464706707605e-10
          5.825091106172579e-10 5.696519532417838e-10 7.569832220632592e-10 5.327374148685895e-10 1.1370002119275693e-9 1.115153388958369e-9
          7.976854791591844e-10 1.0510698773252987e-9 4.0035634288781856e-10 3.913635446205154e-10 3.6558455786443704e-10 5.667707052990366e-10
          5.549463144429609e-10 5.205614214162e-10 6.78529970453548e-10 4.764464273543062e-10 5.821520850826938e-10 4.076284078072275e-10
          9.497027660787744e-10 6.749394289568439e-10 8.20373525968275e-10 3.2638899553882345e-10 2.786581422172773e-10 4.669971742842589e-10
          3.9994166286472883e-10 1.2168575713392058e-9 1.203280250035685e-9 8.895619833415844e-10 8.779800401783407e-10 1.1587614774067712e-9
          8.411985223073672e-10 1.1739696797567238e-9 1.1685549729973368e-9 8.633279441680373e-10 1.1444111053401104e-9 6.309927474304004e-10
          6.21751886357206e-10 5.930551231905576e-10 6.243174568791971e-10 6.182124475181952e-10 5.972430533155296e-10 1.0765301014254988e-9
          7.759996488023667e-10 9.55592632336372e-10 6.834425484628464e-10 1.0855454743163644e-9 7.886120163328022e-10 9.826101467753696e-10
          5.437252599452985e-10 4.756382461664782e-10 5.564574449476986e-10 4.943446074029579e-10 1.5705536168055611e-9 1.2129328898085223e-9
          2.113477603903143e-9 1.6559689507773336e-9 9.125537228727359e-10 6.690820030590361e-10 1.2624094972001241e-9 9.364228406372616e-10
          2.409095011470471e-9 1.9105828259367546e-9 2.4671969338931885e-9 1.9671293523094546e-9 1.4733132547715435e-9 1.1044914766295043e-9
          1.5246915777169563e-9 1.1485021317127553e-9 4.784513000560061e-10 3.3399301845643705e-10 6.762909691841999e-10 4.75952494683802e-10
          8.052909511051593e-10 5.714862129465207e-10 8.410755873613207e-10 5.992571936132365e-10 1.1866544650418975e-9 2.1348359232805815e-10
          1.3438956005267648e-10 4.119378446919426e-10 9.87489397464727e-11 1.845357492336971e-10 2.52241095683344e-10 9.863263436473395e-11
          1.6807203379274151e-10 2.2629121693829744e-10 8.778451731762427e-11 4.8754531244302596e-11 4.2791296167637315e-11 9.088284212228157e-11
          1.2187146912834162e-10 1.6433388797282092e-10 8.899843079300549e-11 2.0125488917158825e-10 2.680028074735907e-10 1.4839290486523186e-10
          4.726616814894537e-11 6.408737564705109e-11 4.546714155653076e-11 1.0744322050226023e-10 7.637631740458708e-11 5.137827424508415e-10
          3.844424512568958e-10 8.330134703132365e-10 6.305609331898452e-10 2.816423079228064e-10 2.0212220936097883e-10 4.663398172718118e-10
          3.3715400867899783e-10 4.1327949594402046e-10 3.0810560781456915e-10 3.2332164401752596e-10 4.267085874668165e-10 2.4019581006253853e-10
          2.250658662793371e-10 1.6116634255350247e-10 1.7498461610426206e-10 1.2502402125597007e-10 2.3339966537357813e-11 3.1659764460152603e-11
          2.1847175740746667e-11 5.335249776515462e-11 3.6661253494916286e-11 1.4217570938999885e-10 9.807918116937491e-11 2.3846530125579263e-10
          1.6512276496694179e-10 1.1318980904535201e-10 7.80183032018409e-11 8.764431914837616e-11 6.034022831449152e-11 1.2671690522524116e-9
          9.715930540855564e-10 1.7153604078550422e-9 1.3315967619749473e-9 7.26439270453111e-10 5.298959223317907e-10 1.006637737608398e-9
          7.412801361420008e-10 2.0030941797894515e-9 1.570161539471564e-9 2.084956648153085e-9 1.6408280287201013e-9 1.1977588479074993e-9
          8.89227745050793e-10 1.256379073410042e-9 9.359853956986629e-10 3.773890729338112e-10 2.626447852542483e-10 5.321073417465674e-10
          3.726458930971927e-10 6.428790802706494e-10 4.5297410394100473e-10 6.787971771350099e-10 4.796030715589372e-10
        </DataArray>
        <DataArray type="Float64" Name="gradient_matprop_error" format="ascii" RangeMin="0" RangeMax="0">
          0 0 0 0 0 0
          0 0 0 0 0 0
          0 0 0 0 0 0
          0 0 0 0 0 0
          0 0 0 0 0 0
          0 0 0 0 0 0
          0 0 0 0 0 0
          0 0 0 0 0 0
          0 0 0 0 0 0
          0 0 0 0 0 0
          0 0 0 0 0 0
          0 0 0 0 0 0
          0 0 0 0 0 0
          0 0 0 0 0 0
          0 0 0 0 0 0
          0 0 0 0 0 0
          0 0 0 0 0 0
          0 0 0 0 0 0
          0 0 0 0 0 0
          0 0 0 0 0 0
          0 0 0 0 0 0
          0 0 0 0 0 0
          0 0 0 0 0 0
          0 0 0 0 0 0
          0 0 0 0 0 0
          0 0 0 0 0 0
          0 0 0 0 0 0
          0 0 0 0 0 0
          0 0 0 0 0 0
          0 0 0 0 0 0
          0 0 0 0 0 0
          0 0 0 0 0 0
          0 0 0 0 0 0
          0 0 0 0 0 0
          0 0 0 0 0 0
          0 0 0 0 0 0
          0 0 0 0 0 0
          0 0 0 0 0 0
          0 0 0 0 0 0
          0 0 0 0 0 0
          0 0 0 0 0 0
          0 0 0 0 0 0
          0 0 0 0 0 0
          0 0 0 0 0 0
          0 0 0 0 0 0
          0 0 0 0 0 0
          0 0 0 0 0 0
          0 0 0 0 0 0
          0 0 0 0 0 0
          0 0 0 0 0 0
          0 0 0 0 0 0
          0 0 0 0 0 0
          0 0 0 0 0 0
          0 0 0 0 0 0
          0 0 0 0 0 0
          0 0 0 0 0 0
          0 0 0 0 0 0
          0 0 0 0 0 0
          0 0 0 0 0 0
          0 0 0 0 0 0
          0 0 0 0 0 0
          0 0 0 0 0 0
          0 0 0 0 0 0
          0 0 0 0 0 0
          0 0 0 0 0 0
          0 0 0 0 0 0
          0 0 0 0 0 0
          0 0 0 0 0 0
          0 0 0 0 0 0
          0 0 0 0 0 0
          0 0 0 0 0 0
          0 0 0 0 0 0
          0 0 0 0 0 0
          0 0 0 0 0 0
          0 0 0 0 0 0
          0 0 0 0 0 0
          0 0 0 0 0 0
          0 0 0 0 0 0
          0 0 0 0 0 0
          0 0 0 0 0 0
          0 0 0 0 0 0
          0 0 0 0 0 0
          0 0 0 0 0 0
          0 0 0 0 0 0
          0 0 0 0 0 0
          0 0 0 0 0 0
          0 0 0 0 0 0
          0 0 0 0 0 0
          0 0 0 0 0 0
          0 0 0 0 0 0
          0 0 0 0 0 0
          0 0 0 0 0 0
          0 0 0 0 0 0
          0 0 0 0 0 0
          0 0 0 0 0 0
          0 0 0 0 0 0
          0 0 0 0 0 0
          0 0 0 0 0 0
          0 0 0 0 0 0
          0 0 0 0 0 0
          0 0 0 0 0 0
          0 0 0 0 0 0
          0 0 0 0 0 0
          0 0 0 0 0 0
          0 0 0 0 0 0
          0 0 0 0 0 0
          0 0 0 0 0 0
          0 0 0 0 0 0
          0 0 0 0 0 0
          0 0 0 0 0 0
          0 0 0 0 0 0
          0 0 0 0 0 0
          0 0 0 0 0 0
          0 0 0 0 0
        </DataArray>
        <DataArray type="Float64" Name="initial_marker" format="ascii" RangeMin="0" RangeMax="2">
          0 2 2 0 0 1
          0 0 0 0 0 0
          0 2 2 2 2 0
          0 0 0 0 0 0
          0 2 1.25 1 2 2
          2 2 0 0 0 0
          2 0 0 1.75 2 2
          2 2 2 2 2 2
          2 2 2 2 0 0
          0 0 0 0 0 0
          0 0 2 2 2 2
          0 0 0 0 0 0
          0 0 0 0 1 1
          1 1 0 0 0 0
          1.25 1 2 2 2 2
          2 2 2 2 2 2
          2 2 2 2 2 2
          2 2 1 2 2 2
          2 2 2 2 2 2
          2 2 2 2 2 2
          2 2 0 0 0 0
          0 0 0 1 1 1
          2 0 1 1 2 0
          1 1 2 1.6666666666666667 2 2
          2 2 2 2 2 2
          2 2 2 2 2 2
          2 2 2 2 2 2
          2 2 2 2 2 2
          2 2 2 2 2 2
          2 2 2 2 2 2
          2 2 2 2 2 0
          0 1 1 0 1 1
          0 1 1 2 2 2
          2 0 0 1 1 0
          1 1 0 1 1 2
          2 2 2 0 1 0
          1 0 1 1 2 2
          2 0 1 0 0.75 0
          0.75 0.3333333333333333 2 1.75 1.75 0
          0 0.5 0.5 0 0 0
          0 0.5 0 1.5 1.5 1.3333333333333333
          1.5 0 0.25 0 0 0
          0 0 1.25 1.3333333333333333 1.3333333333333333 0
          1 0 0.75 0 1 0.5
          2 1.75 2 0 0.25 0
          0 0 0 0 1.25 1.3333333333333333
          1.3333333333333333 2 2 2 2 2
          2 2 2 2 2 2
          2 2 2 2 2 2
          2 2 2 2 2 2
          2 2 2 2 2 2
          2 2 2 2 2 2
          2 2 2 2 2 2
          2 2 2 2 2 2
          2 2 2 2 2 2
          2 2 2 2 2 2
          2 2 2 2 2 2
          2 2 2 2 2 2
          2 2 2 2 2 2
          2 2 2 2 2 2
          2 2 2 2 2 2
          2 2 2 2 2 2
          2 2 2 2 2 2
          2 2 2 2 2 2
          2 2 2 2 2 2
          2 2 2 2 2 2
          2 2 2 2 2 2
          2 2 2 2 2 2
          2 2 2 2 2 2
          2 2 2 2 2 2
          2 2 2 2 2 2
          2 2 2 2 2 2
          2 2 2 2 2 2
          2 2 2 2 2 2
          2 2 2 2 1.5 1.75
          1 1.5 2 2 2 2
          2 2 2 2 2 2
          2 2 2 2 2 2
          2 2 2 2 2 2
          2 2 2 2 2 2
          2 2 2 2 2 2
          2 2 2 2 2 2
          2 2 2 2 2 2
          2 2 2 2 2 2
          2 2 2 2 2 2
          2 2 2 2 2 2
          2 2 2 2 2 2
          2 2 2 2 2 2
          2 2 2 2 2 2
          2 2 2 2 2 2
          2 2 2 2 2 2
          2 2 2 2 2 2
          2 2 2 2 2 2
          2 2 2 2 2 2
          2 2 2 2 2 2
          2 2 2 2 2 2
          2 2 2 2 2 2
          2 2 2 2 2 2
          2 2 2 2 2 2
          2 2 2 2 2 2
          2 2 2 2 0 0
          0 0 0 0 0 0
          1 1 0.5 0 0 2
          2 2 2 2 2 2
          1.5 1.75 1.5 2 2 2
          2 2 2 2 2 2
          2 2 2 2 2 2
          2 2 2 2 0.5 1.25
          1 2 2 2 2 2
          2 2 2 2 2 2
          2 2 2 2 2 2
          2 2 2 2 2 2
          2 2 2 2 2 2
          2 2 2 2 2
        </DataArray>
        <DataArray type="Float64" Name="markers_norefine" format="ascii" RangeMin="0" RangeMax="0">
          0 0 0 0 0 0
          0 0 0 0 0 0
          0 0 0 0 0 0
          0 0 0 0 0 0
          0 0 0 0 0 0
          0 0 0 0 0 0
          0 0 0 0 0 0
          0 0 0 0 0 0
          0 0 0 0 0 0
          0 0 0 0 0 0
          0 0 0 0 0 0
          0 0 0 0 0 0
          0 0 0 0 0 0
          0 0 0 0 0 0
          0 0 0 0 0 0
          0 0 0 0 0 0
          0 0 0 0 0 0
          0 0 0 0 0 0
          0 0 0 0 0 0
          0 0 0 0 0 0
          0 0 0 0 0 0
          0 0 0 0 0 0