<?xml version="1.0"?>
<VTKFile type="UnstructuredGrid" version="0.1" byte_order="LittleEndian" header_type="UInt32" compressor="vtkZLibDataCompressor">
  <UnstructuredGrid>
    <Piece NumberOfPoints="710" NumberOfCells="452">
      <PointData>
        <DataArray type="Int32" Name="libmesh_node_id" format="ascii" RangeMin="860" RangeMax="6312">
          860 928 930 933 1090 1278
          1298 1315 1316 1319 1321 1330
          1331 1336 1341 1346 1361 1362
          1365 1366 1368 1370 1516 1517
          1520 1531 1532 1536 1615 1616
          1619 1621 1623 1624 1628 1630
          1632 1919 2021 2123 2124 2125
          2126 2127 2128 2129 2130 2131
          2132 2143 2144 2145 2146 2148
          2149 2150 2151 2152 2160 2161
          2162 2163 2164 2165 2166 2174
          2175 2176 2177 2178 2179 2180
          2213 2214 2215 2218 2241 2242
          2243 2244 2245 2250 2251 2253
          2255 2276 2277 2278 2279 2280
          2281 2282 2283 2285 2287 2289
          2372 2373 2374 2375 2376 2377
          2378 2379 2380 2381 2382 2383
          2386 2387 2389 2391 2392 2393
          2394 2395 2396 2397 2398 2399
          2400 2401 2402 2403 2407 2409
          2411 2412 2413 2414 2415 2416
          2417 2418 2419 2421 2423 2425
          2426 2427 2428 2429 2430 2431
          2432 2433 2435 2437 2439 2642
          2696 2697 2698 2700 2701 2736
          2737 2738 2739 2740 2741 2742
          2744 2791 2792 2801 2802 2804
          2805 2806 2808 2809 2810 2811
          2812 2813 2814 2815 2816 2817
          2819 2825 3954 3982 4202 4464
          4470 4471 4472 4473 4474 4476
          4477 4480 4481 4484 4486 4488
          4489 4490 4491 4492 4493 4494
          4495 4496 4497 4501 4506 4507
          4508 4510 4511 4513 4515 4517
          4519 4520 4521 4522 4523 4524
          4525 4568 4569 4572 4574 4576
          4577 4578 4579 4580 4581 4582
          4583 4584 4585 4594 4655 4660
          4661 4662 4664 4665 4667 4669
          4671 4673 4674 4675 4676 4677
          4678 4679 4683 4688 4689 4690
          4692 4693 4695 4697 4699 4701
          4702 4703 4704 4705 4706 4707
          4765 4767 4769 4771 4772 4773
          4774 4775 4776 4777 4779 4781
          4783 4785 4786 4787 4788 4789
          4790 4791 4792 4793 4794 4796
          4798 4800 4802 4803 4804 4805
          4806 4807 4808 4810 4812 4814
          4816 4817 4818 4819 4820 4821
          4822 5076 5077 5078 5081 5086
          5087 5088 5091 5094 5095 5098
          5101 5102 5105 5106 5107 5108
          5109 5110 5111 5112 5113 5114
          5115 5116 5117 5118 5119 5144
          5145 5146 5149 5162 5163 5166
          5174 5175 5176 5177 5178 5179
          5180 5326 5327 5330 5333 5334
          5337 5338 5339 5340 5341 5342
          5343 5344 5345 5346 5347 5348
          5349 5350 5351 5354 5355 5358
          5361 5362 5365 5366 5367 5368
          5369 5370 5371 5372 5373 5374
          5375 5376 5377 5378 5379 5382
          5383 5386 5394 5395 5396 5397
          5398 5399 5400 5410 5411 5414
          5422 5423 5424 5425 5426 5427
          5428 5946 5947 5948 5949 5950
          5951 5952 5953 5954 5955 5956
          5957 5958 5959 5960 5961 5962
          5963 5964 5965 5966 5967 5968
          5969 5970 5971 5972 5973 5974
          5975 5976 5977 5978 5979 5980
          5981 5982 5983 5984 5985 5986
          5987 5988 5989 5990 5991 5992
          5993 5994 5995 5996 5997 5998
          5999 6000 6001 6002 6003 6004
          6005 6006 6007 6008 6009 6010
          6011 6012 6013 6014 6015 6016
          6017 6018 6019 6020 6021 6022
          6023 6034 6035 6036 6037 6038
          6039 6040 6048 6049 6050 6051
          6052 6053 6054 6055 6056 6057
          6068 6069 6070 6071 6072 6073
          6074 6075 6076 6077 6078 6079
          6080 6081 6082 6083 6084 6085
          6086 6087 6088 6089 6090 6091
          6092 6093 6094 6095 6096 6097
          6098 6099 6100 6101 6102 6103
          6104 6105 6106 6107 6108 6109
          6110 6111 6112 6113 6114 6115
          6116 6117 6118 6119 6120 6121
          6122 6123 6124 6125 6126 6127
          6128 6129 6130 6131 6132 6133
          6134 6135 6136 6137 6138 6139
          6140 6141 6142 6143 6144 6145
          6146 6147 6148 6149 6150 6151
          6152 6153 6154 6155 6156 6157
          6158 6159 6160 6168 6169 6170
          6171 6172 6173 6174 6182 6183
          6184 6185 6186 6187 6188 6196
          6197 6198 6199 6200 6201 6202
          6210 6211 6212 6213 6214 6215
          6216 6217 6218 6219 6220 6221
          6222 6223 6224 6225 6226 6227
          6228 6229 6230 6231 6232 6233
          6234 6235 6236 6237 6238 6239
          6240 6241 6242 6243 6244 6245
          6246 6247 6248 6249 6250 6251
          6252 6253 6254 6255 6256 6257
          6258 6259 6260 6261 6262 6263
          6264 6265 6266 6267 6268 6269
          6270 6271 6272 6273 6274 6275
          6276 6277 6278 6289 6290 6291
          6292 6293 6294 6295 6303 6304
          6305 6306 6307 6308 6309 6310
          6311 6312
        </DataArray>
        <DataArray type="Float64" Name="bounds" format="ascii" RangeMin="0" RangeMax="0">
          0 0 0 0 0 0
          0 0 0 0 0 0
          0 0 0 0 0 0
          0 0 0 0 0 0
          0 0 0 0 0 0
          0 0 0 0 0 0
          0 0 0 0 0 0
          0 0 0 0 0 0
          0 0 0 0 0 0
          0 0 0 0 0 0
          0 0 0 0 0 0
          0 0 0 0 0 0
          0 0 0 0 0 0
          0 0 0 0 0 0
          0 0 0 0 0 0
          0 0 0 0 0 0
          0 0 0 0 0 0
          0 0 0 0 0 0
          0 0 0 0 0 0
          0 0 0 0 0 0
          0 0 0 0 0 0
          0 0 0 0 0 0
          0 0 0 0 0 0
          0 0 0 0 0 0
          0 0 0 0 0 0
          0 0 0 0 0 0
          0 0 0 0 0 0
          0 0 0 0 0 0
          0 0 0 0 0 0
          0 0 0 0 0 0
          0 0 0 0 0 0
          0 0 0 0 0 0
          0 0 0 0 0 0
          0 0 0 0 0 0
          0 0 0 0 0 0
          0 0 0 0 0 0
          0 0 0 0 0 0
          0 0 0 0 0 0
          0 0 0 0 0 0
          0 0 0 0 0 0
          0 0 0 0 0 0
          0 0 0 0 0 0
          0 0 0 0 0 0
          0 0 0 0 0 0
          0 0 0 0 0 0
          0 0 0 0 0 0
          0 0 0 0 0 0
          0 0 0 0 0 0
          0 0 0 0 0 0
          0 0 0 0 0 0
          0 0 0 0 0 0
          0 0 0 0 0 0
          0 0 0 0 0 0
          0 0 0 0 0 0
          0 0 0 0 0 0
          0 0 0 0 0 0
          0 0 0 0 0 0
          0 0 0 0 0 0
          0 0 0 0 0 0
          0 0 0 0 0 0
          0 0 0 0 0 0
          0 0 0 0 0 0
          0 0 0 0 0 0
          0 0 0 0 0 0
          0 0 0 0 0 0
          0 0 0 0 0 0
          0 0 0 0 0 0
          0 0 0 0 0 0
          0 0 0 0 0 0
          0 0 0 0 0 0
          0 0 0 0 0 0
          0 0 0 0 0 0
          0 0 0 0 0 0
          0 0 0 0 0 0
          0 0 0 0 0 0
          0 0 0 0 0 0
          0 0 0 0 0 0
          0 0 0 0 0 0
          0 0 0 0 0 0
          0 0 0 0 0 0
          0 0 0 0 0 0
          0 0 0 0 0 0
          0 0 0 0 0 0
          0 0 0 0 0 0
          0 0 0 0 0 0
          0 0 0 0 0 0
          0 0 0 0 0 0
          0 0 0 0 0 0
          0 0 0 0 0 0
          0 0 0 0 0 0
          0 0 0 0 0 0
          0 0 0 0 0 0
          0 0 0 0 0 0
          0 0 0 0 0 0
          0 0 0 0 0 0
          0 0 0 0 0 0
          0 0 0 0 0 0
          0 0 0 0 0 0
          0 0 0 0 0 0
          0 0 0 0 0 0
          0 0 0 0 0 0
          0 0 0 0 0 0
          0 0 0 0 0 0
          0 0 0 0 0 0
          0 0 0 0 0 0
          0 0 0 0 0 0
          0 0 0 0 0 0
          0 0 0 0 0 0
          0 0 0 0 0 0
          0 0 0 0 0 0
          0 0 0 0 0 0
          0 0 0 0 0 0
          0 0 0 0 0 0
          0 0 0 0 0 0
          0 0 0 0 0 0
          0 0 0 0 0 0
          0 0 0 0 0 0
          0 0 0 0 0 0
          0 0
        </DataArray>
        <DataArray type="Float64" Name="gradient_error" format="ascii" RangeMin="1.2107285653201605e-11" RangeMax="2.084956648153085e-9">
          2.1827928032080747e-10 1.1866544650418975e-9 2.2629121693829744e-10 6.269044547124389e-10 1.3894225734918677e-9 4.119378446919426e-10
          6.56239029480152e-10 4.550579116455184e-10 1.8171203994988097e-10 2.7433237189657117e-10 3.610426189041835e-10 2.1348359232805815e-10
          1.3438956005267648e-10 8.778451731762427e-11 1.9813107339679555e-10 5.253028383509627e-10 1.4694038454372975e-10 5.141357992299418e-11
          2.515782470202462e-10 1.5076942602195718e-10 1.0632211510341147e-10 6.036062029234169e-11 4.446678332924806e-10 5.368998261808033e-10
          6.786236654625734e-10 1.5424716106886888e-10 1.7283761007035926e-10 2.3415967375679236e-10 4.279360283835449e-10 3.707557660063969e-10
          5.006809276155507e-10 3.780085901931976e-10 2.5370443601795314e-10 1.8925950619932415e-10 1.7647550388202407e-10 1.2583226412008277e-10
          2.02804160805242e-10 2.52241095683344e-10 2.680028074735907e-10 3.6399638563115826e-10 2.732113727668047e-10 2.082070946338235e-10
          1.6019183634628514e-10 4.018870786861999e-10 2.879290138069735e-10 1.6580862759898026e-10 5.924138326448969e-10 3.5941442902993675e-10
          3.0805686559558375e-10 5.144226554129812e-10 3.5929911771217424e-10 2.9745298267423933e-10 2.608330900883037e-10 2.973391057395192e-10
          2.638883646541501e-10 2.0101501350051079e-10 1.667579408231825e-10 3.033779785930567e-10 1.0310432326397715e-9 6.464126743376443e-10
          4.970363646641845e-10 3.0030742662371106e-10 1.2593441720383026e-9 8.006874613548574e-10 5.919895494099172e-10 2.2701558560396296e-10
          1.3318341841183988e-10 3.386939793198937e-10 1.9268759629945718e-10 2.6250557908501604e-10 1.5501312077315732e-10 3.770703508085205e-10
          9.87489397464727e-11 1.845357492336971e-10 9.863263436473395e-11 1.6807203379274151e-10 1.4839290486523186e-10 7.637631740458708e-11
          6.305609331898452e-10 3.3715400867899783e-10 3.761535195325721e-10 4.2791296167637315e-11 3.6661253494916286e-11 1.6512276496694179e-10
          9.624644362148274e-11 1.3315967619749473e-9 7.412801361420008e-10 7.54926002774854e-10 4.0807835832827195e-10 1.6408280287201013e-9
          9.359853956986629e-10 9.584425669891469e-10 3.726458930971927e-10 2.0131366951733545e-10 4.796030715589372e-10 2.616257779912069e-10
          1.1371772908703475e-10 8.777216926969323e-11 7.298542090950635e-11 5.671546609373757e-11 1.246544339210693e-10 8.931589598406649e-11
          5.7889801431414525e-11 2.0174861258709462e-10 1.0487044116540816e-10 1.0011361962942594e-10 4.870214123325082e-11 3.9835914091234915e-11
          5.769507540849438e-11 4.816934930373592e-11 5.0538830096972526e-11 3.0823477092590734e-11 1.5748579386608394e-10 1.389947485394379e-10
          7.843317338819088e-11 6.923245298768853e-11 1.1489682882113464e-10 1.6058228525259017e-10 7.975947067891867e-11 8.980534102304202e-11
          5.701646790134361e-11 1.2800853251394617e-10 3.924050826562249e-11 4.146446089134436e-11 4.001476966648765e-11 4.6848106687466496e-11
          5.619405018658879e-11 3.7167771060239246e-10 1.9633190492758477e-10 1.6825716166408425e-10 8.745481074392849e-11 4.6544873267805866e-10
          2.477488047423594e-10 2.0358448168220375e-10 9.556499453792246e-11 4.205916867876292e-11 1.2116838319300306e-10 5.139816428249291e-11
          7.306799059003079e-11 4.837360485958058e-11 1.0448348337844427e-10 6.59608593453011e-11 8.544981083921064e-11 4.403527086168126e-11
          1.1881373411301738e-10 4.254303097314633e-11 5.176550161580528e-11 3.5510998098364205e-11 4.40200144007608e-11 4.8754531244302596e-11
          4.249566675706264e-10 1.4693561866708286e-10 2.428932232180996e-10 3.48758779387849e-10 2.0157411459798835e-10 8.200029190233842e-11
          1.3381512315353658e-10 4.603629399298559e-11 7.194778833791774e-11 7.525257659827051e-11 1.106675195365956e-10 5.916297689620477e-11
          3.493935009526118e-11 3.1359558887396837e-10 2.0092179738146407e-10 4.1394041589739e-10 2.361934350285809e-10 1.5603604494106338e-10
          4.5418621633328544e-10 2.611098859140731e-10 1.1749859752839638e-10 1.3013981898217036e-10 6.197315025778422e-11 6.794314807676491e-11
          8.644395315184414e-11 8.855521061981025e-11 4.7842679695535905e-11 1.4278104043594437e-10 7.391314589574561e-11 9.066646808777636e-11
          3.232875247193157e-11 3.530728995000026e-11 1.6433388797282092e-10 4.267085874668165e-10 9.54503520914243e-10 1.7529913792680357e-10
          9.84196665454951e-11 1.301315450777833e-10 1.0299372546587003e-10 1.342418583690395e-10 1.0131066414013946e-10 2.0958202393580522e-10
          2.1100800598025458e-10 1.0532750036332128e-10 1.335394073843059e-10 1.1446700651640905e-10 2.0574086833621264e-10 8.12899168625635e-11
          1.025831759318382e-10 6.204596429797927e-11 7.783910045412102e-11 7.242567906844208e-11 8.832852484489429e-11 6.7405020251302e-11
          1.5807726388532793e-10 1.1959284763550797e-10 1.2801584999862025e-10 4.107549745188892e-10 3.269214054282862e-10 3.2003629869629317e-10
          2.44840568813974e-10 4.913992603642788e-10 4.659740497314415e-10 3.053557706602208e-10 2.2248541095399994e-10 4.306383010496695e-10
          2.363775971197408e-10 1.7980818719678497e-10 1.7083451167290281e-10 1.290699266053743e-10 3.36215366293986e-10 2.5767400604181026e-10
          2.386983697876961e-10 1.3420890012982812e-10 1.6084965108197166e-10 1.2482397788517652e-10 2.1844967795532195e-10 1.0085138155667514e-10
          1.2171652062654429e-10 7.518659287722053e-11 9.106012037455305e-11 8.609669411662428e-11 1.0154160903304325e-10 7.536804205304315e-11
          1.6727658681720207e-10 1.2605291004352974e-10 1.2554196415003586e-10 1.1167892796647983e-10 8.102226811376108e-10 6.999764300112877e-10
          6.432983871873611e-10 5.002884428159056e-10 9.194538008089203e-10 8.252429299395006e-10 5.769815984243357e-10 4.041037992400868e-10
          7.223655377202557e-10 4.540252998034833e-10 3.503476160807228e-10 3.1531331915150767e-10 2.415316241659432e-10 5.722357641041845e-10
          4.4416755755446654e-10 3.9005363230817383e-10 1.1976897859439758e-9 1.086562567659484e-9 9.63847671340416e-10 7.587046753705411e-10
          1.1478940595901787e-9 1.0154047344179566e-9 8.318747469976466e-10 5.662301206025771e-10 8.726861323574215e-10 6.619403732261767e-10
          5.158425819864162e-10 4.460023518623766e-10 3.4450669886869063e-10 6.955061867329177e-10 5.427601846745413e-10 4.668882714945772e-10
          2.7992821658525503e-10 1.9062408638245402e-10 3.3747897220738205e-10 2.1650808507695728e-10 1.645322458797736e-10 1.4614875340647969e-10
          1.1043895635269367e-10 2.6263251707275144e-10 2.0076721462939242e-10 1.7539972314517496e-10 1.289886326658416e-10 1.0529314978923248e-10
          1.511818651338477e-10 8.965700485119715e-11 9.907072606392777e-11 6.798378497725942e-11 7.488024574739971e-11 7.71193069287568e-11
          8.161839585472897e-11 6.174219848774115e-11 1.1593200313746649e-10 8.752355434385843e-11 9.164083054335713e-11 3.802833099184062e-10
          2.529663857661284e-10 3.960561547160297e-10 2.9685218548504654e-10 2.2754166020179448e-10 1.958905265117223e-10 1.4913438386318322e-10
          3.0948399304051404e-10 2.3744121068917744e-10 2.0345942929573133e-10 1.6673152065928508e-10 1.3199530129440612e-10 1.72568510255396e-10
          1.2806082299174328e-10 9.691146365050781e-11 1.0082370750797865e-10 7.605015417334137e-11 1.327420869852119e-10 1.0055252513083873e-10
          1.0448323870994415e-10 9.088284212228157e-11 1.2187146912834162e-10 8.899843079300549e-11 2.0125488917158825e-10 4.726616814894537e-11
          6.408737564705109e-11 4.546714155653076e-11 1.0744322050226023e-10 5.137827424508415e-10 3.844424512568958e-10 8.330134703132365e-10
          2.816423079228064e-10 2.0212220936097883e-10 4.663398172718118e-10 4.1327949594402046e-10 3.0810560781456915e-10 3.2332164401752596e-10
          2.4019581006253853e-10 6.567449773088504e-10 4.944717124347359e-10 5.022075872847834e-10 2.250658662793371e-10 1.6116634255350247e-10
          1.7498461610426206e-10 1.2502402125597007e-10 3.641076632533495e-10 2.623606283803118e-10 2.7584147676716246e-10 2.3339966537357813e-11
          3.1659764460152603e-11 2.1847175740746667e-11 5.335249776515462e-11 1.4217570938999885e-10 9.807918116937491e-11 2.3846530125579263e-10
          1.1318980904535201e-10 7.80183032018409e-11 8.764431914837616e-11 6.034022831449152e-11 1.8510915744358234e-10 1.2796167328684328e-10
          1.3945937375515267e-10 1.2671690522524116e-9 9.715930540855564e-10 1.7153604078550422e-9 7.26439270453111e-10 5.298959223317907e-10
          1.006637737608398e-9 9.841653779867359e-10 7.490560033151121e-10 7.381523924275363e-10 5.578142459203519e-10 1.3311316472505392e-9
          1.0236191561948313e-9 9.906760905504044e-10 5.565791178515688e-10 4.039598479980214e-10 4.1204103215770543e-10 2.976673991217743e-10
          7.67424590272399e-10 5.611851891964487e-10 5.616108208878785e-10 2.0030941797894515e-9 1.570161539471564e-9 2.084956648153085e-9
          1.1977588479074993e-9 8.89227745050793e-10 1.256379073410042e-9 1.5768434942114738e-9 1.2220510805731044e-9 1.1798071472101483e-9
          9.045959783236164e-10 1.6580863002520838e-9 1.2889056208893482e-9 1.247145329431271e-9 9.226528334676393e-10 6.788609033742665e-10
          6.765882778838976e-10 4.938782532123985e-10 9.75846066949e-10 7.197961530193022e-10 7.183453991222848e-10 3.773890729338112e-10
          2.626447852542483e-10 5.321073417465674e-10 2.865894448371132e-10 1.9889099157688722e-10 2.10443508982245e-10 1.4568048561204967e-10
          4.0054719258088015e-10 2.7927445910652083e-10 2.898151769129254e-10 6.428790802706494e-10 4.5297410394100473e-10 6.787971771350099e-10
          4.870826598497988e-10 3.4107902912645493e-10 3.5207164426758367e-10 2.4529201632167877e-10 5.175875397565403e-10 3.6312165496960123e-10
          3.750444103128917e-10 7.2523348510099e-11 9.656235154382327e-11 5.30781900121316e-11 7.07068127911736e-11 5.71367248533816e-11
          7.504976065102546e-11 5.4889836536139944e-11 1.5690744933457313e-10 1.154432681811518e-10 1.1956639482395927e-10 3.8301695972008023e-11
          5.0962681824933674e-11 2.7283010345523938e-11 3.5906332612652204e-11 3.040371571482158e-11 3.951082633407394e-11 3.0386951913266497e-11
          8.363265591825156e-11 5.922413990802394e-11 6.347806385117868e-11 4.4623570697410156e-11 5.692575181427113e-11 3.200224157156568e-11
          4.120944729197891e-11 3.9247396888814786e-11 4.868124251659412e-11 3.49634074359299e-11 8.892553949001153e-11 6.513218138743529e-11
          7.15720090783292e-11 2.3871705803678162e-11 2.991728528854662e-11 2.1151819556033812e-11 2.5479440985041433e-11 2.1244234028749587e-11
          2.577241426259511e-11 2.260969305495909e-11 4.6854955912067776e-11 3.699433707343574e-11 3.7551596517632424e-11 2.466485307454442e-10
          1.8264697592134319e-10 1.8395779644851439e-10 1.357915117604595e-10 3.7381155164734327e-10 2.786270802584247e-10 2.7188311173710037e-10
          1.328945839296466e-10 9.484605455039998e-11 9.867607182476922e-11 7.021569168398164e-11 2.0352808884118556e-10 1.4574091941388406e-10
          1.4683346407447488e-10 1.3457488406461248e-10 9.90647466329626e-11 9.625139718129134e-11 7.067452051643784e-11 1.9389676019336946e-10
          1.4326724093147643e-10 1.360353226365205e-10 7.166687636567771e-11 5.0727528203548027e-11 5.082220298840612e-11 3.5910332128888304e-11
          1.0392546142960828e-10 7.405055343058086e-11 7.239602508415862e-11 1.9082408564285037e-11 2.4881099386451e-11 1.3299243507252545e-11
          1.7187111942729744e-11 1.7210809933006885e-11 2.1641468670400938e-11 1.4978975035706013e-11 4.1057598787573e-11 2.8140907618799676e-11
          3.426548967138319e-11 6.628242978735033e-11 4.551060808218655e-11 4.884291043907666e-11 3.3452211812767334e-11 1.0235097333146504e-10
          7.051817852740235e-11 7.350362117503211e-11 2.802326228484531e-11 3.532203383095394e-11 1.9155747185927605e-11 2.4110045257093723e-11
          2.0152927282578474e-11 2.4970667102951402e-11 1.8914518091773294e-11 5.194855656824552e-11 3.562991479740208e-11 3.591607511414873e-11
          5.5929729684575075e-11 6.773816249821675e-11 4.097861434386279e-11 4.9658562685562894e-11 4.7499275954825e-11 5.6043326369276866e-11
          4.1103980917383174e-11 9.393372592242382e-11 6.899379450247153e-11 6.974028773369619e-11 2.891310357669342e-11 3.536470245476225e-11
          2.036094908885362e-11 2.4924943910299423e-11 2.4262914481581345e-11 2.9027716327599297e-11 2.0404883020842098e-11 4.9714769637163037e-11
          3.515747223757729e-11 3.659183215342319e-11 1.4253314989981316e-11 1.7292512170359135e-11 1.2107285653201605e-11 1.4296550285637189e-11
          1.2120131363701897e-11 1.4310798583194426e-11 1.2169771735516385e-11 2.4307059779521674e-11 1.8207974481794044e-11 1.9614398334848305e-11
          5.37070336243278e-10 4.03174762241085e-10 3.810864529131e-10 2.8437884167811176e-10 7.10962719036977e-10 5.372783789787484e-10
          4.95469928455712e-10 2.962254939980439e-10 2.1311882453205573e-10 2.0796223083934278e-10 1.4908474860389134e-10 3.9693745224159074e-10
          2.868362713377796e-10 2.7296023165859515e-10 2.651415521198258e-10 1.9682733161200426e-10 1.8171657045007625e-10 1.343108479952593e-10
          3.3782718368345265e-10 2.518271104526086e-10 2.2688170888548555e-10 1.433444321118661e-10 1.0243703569522426e-10 9.748336723732389e-11
          6.945034531080817e-11 1.8401933657816118e-10 1.3183977131114247e-10 1.2246737783313758e-10 8.447784549774767e-10 6.414706157885761e-10
          5.840656731633126e-10 4.397654207081658e-10 8.942325584721587e-10 6.802226886355742e-10 6.173437714649801e-10 4.758527533559632e-10
          3.450198496796846e-10 3.2395885483341203e-10 2.335932498957547e-10 5.05372936243111e-10 3.668964510846861e-10 3.4326873277987696e-10
          3.936836138299939e-10 2.9430049006353504e-10 2.609813116276549e-10 1.9394467625557168e-10 4.147290662263291e-10 3.1034872408635515e-10
          2.7376402592872565e-10 2.1556233942554494e-10 1.547373305346929e-10 1.4140383215611515e-10 1.0116006381903376e-10 2.275106527399182e-10
          1.634351649803547e-10 1.4851490140086955e-10 1.5020478032041172e-10 1.0375065303163745e-10 1.0479551233073766e-10 7.224126179449312e-11
          2.028539646603664e-10 1.4047386216165865e-10 1.3835872481152502e-10 7.19034652055327e-11 4.9495332538098104e-11 4.860481381683014e-11
          3.323401243147105e-11 9.260854587852235e-11 6.379984823663152e-11 6.123578189590158e-11 2.446579897445706e-10 1.6977584228165978e-10
          1.649386567358761e-10 1.140912519384637e-10 2.604451163544734e-10 1.8088329055345316e-10 1.750672962350893e-10 1.0887716515709993e-10
          7.510907265606537e-11 7.098847453619524e-11 4.883209122119023e-11 1.1506786120879207e-10 7.941362764851957e-11 7.467126960927446e-11
          1.230852801876592e-10 9.063393356886171e-11 8.203237485090077e-11 6.002902013283663e-11 1.5077237416284128e-10 1.1129644025172376e-10
          9.945145768993487e-11 6.582960580898262e-11 4.6790992997005476e-11 4.3333991343985634e-11 3.437744969357956e-11 8.10346427408179e-11
          5.777296953683151e-11 5.283972471400454e-11 4.9125124455186084e-11 5.475912778739516e-11 3.5071095757951276e-11 3.9537202553668044e-11
          4.149479223296037e-11 4.450585988679879e-11 3.178781161862037e-11 6.494167902942561e-11 4.75333983232581e-11 5.097855788578725e-11
          2.5579956112630273e-11 2.856497410686734e-11 2.2257280194186248e-11 2.4217359573253576e-11 2.1885949935025806e-11 2.3505335750794532e-11
          2.0662782111748103e-11 3.4097041980228214e-11 2.583672566265076e-11 2.7032368826045064e-11 1.7127864288710828e-10 1.2663700804103017e-10
          1.1162433821705144e-10 8.213520720552297e-11 1.7886224129086316e-10 1.322999247386562e-10 1.1609376754735478e-10 9.204849727902526e-11
          6.567747327289611e-11 5.940939876092004e-11 4.200158792136723e-11 9.607368275288501e-11 6.85649877227308e-11 6.181584163847613e-11
          7.21599132737958e-11 5.294628310984763e-11 5.645104737717158e-11 4.142296249112085e-11 7.482959960834459e-11 5.482907892256386e-11
          5.846190652340587e-11 3.806493789033743e-11 2.689186823796769e-11 2.978098184192869e-11 2.140080431444559e-11 3.9485783921322826e-11
          2.8117367458119682e-11 3.062194759833051e-11 3.2410793832725424e-11 2.2005835134467805e-11 2.586900284351375e-11 1.7626576513819425e-11
          4.022536428822848e-11 2.7514544837906854e-11 2.8089992602477673e-11 4.614122186910885e-11 3.1693117815533656e-11 2.926026018694232e-11
          2.2644213450155435e-11 4.8370892618905176e-11 3.3299761960534524e-11 3.0890868880177047e-11 1.796715258464285e-11 1.8734160725186988e-11
          1.5098752705267524e-11 1.546259350099607e-11 1.535095538210288e-11 1.534697700423103e-11 1.303829842591994e-11 1.950116886573113e-11
          1.5826434296724615e-11 1.5342998626359178e-11
        </DataArray>
        <DataArray type="Float64" Name="gradient_matprop_error" format="ascii" RangeMin="0" RangeMax="0">
          0 0 0 0 0 0
          0 0 0 0 0 0
          0 0 0 0 0 0
          0 0 0 0 0 0
          0 0 0 0 0 0
          0 0 0 0 0 0
          0 0 0 0 0 0
          0 0 0 0 0 0
          0 0 0 0 0 0
          0 0 0 0 0 0
          0 0 0 0 0 0
          0 0 0 0 0 0
          0 0 0 0 0 0
          0 0 0 0 0 0
          0 0 0 0 0 0
          0 0 0 0 0 0
          0 0 0 0 0 0
          0 0 0 0 0 0
          0 0 0 0 0 0
          0 0 0 0 0 0
          0 0 0 0 0 0
          0 0 0 0 0 0
          0 0 0 0 0 0
          0 0 0 0 0 0
          0 0 0 0 0 0
          0 0 0 0 0 0
          0 0 0 0 0 0
          0 0 0 0 0 0
          0 0 0 0 0 0
          0 0 0 0 0 0
          0 0 0 0 0 0
          0 0 0 0 0 0
          0 0 0 0 0 0
          0 0 0 0 0 0
          0 0 0 0 0 0
          0 0 0 0 0 0
          0 0 0 0 0 0
          0 0 0 0 0 0
          0 0 0 0 0 0
          0 0 0 0 0 0
          0 0 0 0 0 0
          0 0 0 0 0 0
          0 0 0 0 0 0
          0 0 0 0 0 0
          0 0 0 0 0 0
          0 0 0 0 0 0
          0 0 0 0 0 0
          0 0 0 0 0 0
          0 0 0 0 0 0
          0 0 0 0 0 0
          0 0 0 0 0 0
          0 0 0 0 0 0
          0 0 0 0 0 0
          0 0 0 0 0 0
          0 0 0 0 0 0
          0 0 0 0 0 0
          0 0 0 0 0 0
          0 0 0 0 0 0
          0 0 0 0 0 0
          0 0 0 0 0 0
          0 0 0 0 0 0
          0 0 0 0 0 0
          0 0 0 0 0 0
          0 0 0 0 0 0
          0 0 0 0 0 0
          0 0 0 0 0 0
          0 0 0 0 0 0
          0 0 0 0 0 0
          0 0 0 0 0 0
          0 0 0 0 0 0
          0 0 0 0 0 0
          0 0 0 0 0 0
          0 0 0 0 0 0
          0 0 0 0 0 0
          0 0 0 0 0 0
          0 0 0 0 0 0
          0 0 0 0 0 0
          0 0 0 0 0 0
          0 0 0 0 0 0
          0 0 0 0 0 0
          0 0 0 0 0 0
          0 0 0 0 0 0
          0 0 0 0 0 0
          0 0 0 0 0 0
          0 0 0 0 0 0
          0 0 0 0 0 0
          0 0 0 0 0 0
          0 0 0 0 0 0
          0 0 0 0 0 0
          0 0 0 0 0 0
          0 0 0 0 0 0
          0 0 0 0 0 0
          0 0 0 0 0 0
          0 0 0 0 0 0
          0 0 0 0 0 0
          0 0 0 0 0 0
          0 0 0 0 0 0
          0 0 0 0 0 0
          0 0 0 0 0 0
          0 0 0 0 0 0
          0 0 0 0 0 0
          0 0 0 0 0 0
          0 0 0 0 0 0
          0 0 0 0 0 0
          0 0 0 0 0 0
          0 0 0 0 0 0
          0 0 0 0 0 0
          0 0 0 0 0 0
          0 0 0 0 0 0
          0 0 0 0 0 0
          0 0 0 0 0 0
          0 0 0 0 0 0
          0 0 0 0 0 0
          0 0 0 0 0 0
          0 0 0 0 0 0
          0 0 0 0 0 0
          0 0 0 0 0 0
          0 0 0 0 0 0
          0 0
        </DataArray>
        <DataArray type="Float64" Name="initial_marker" format="ascii" RangeMin="0" RangeMax="2">
          1 0 1 0 0 0
          2 0 2 0 2 0
          0 0.5 2 2 0 2
          0 0 2 0 0 0
          0 0 0 0 0 0
          0 0 0 0 0 0
          0 0 2 0.5 2 0.25
          2 0 1.5 1.25 2 2
          2 0 0 0 0 0
          0 1.5 1.5 0 2 2
          2 2 2 2 2 2
          2 1 0.5 2 2 1
          0 0 0 1 2 2
          2 2 2 0 2 2
          2 2 2 2 2 2
          2 2 2 2 2 2
          0 2 0 1.75 0 0.75
          0.5 2 2 2 0 1.25
          0 0 2 1.75 0 0
          0 0 0 0 0 1.25
          0.5 0 0 0 0 0.25
          0 2 2 2 2 2
          2 2 2 2 2 2
          2 1.75 0 0 2 2
          0 1 0 1.5 0 0
          0 0 0 0 0 0
          0 0 0 0 0 0
          0 0 0 0 0 0
          0 0 0 0 0 0
          0 0 0 0 0 0
          0 0 2 2 2 1.5
          1.5 1.75 1 1.5 1.25 2
          2 0 1 1 2 0
          1 0 0.75 0 1 0.5
          2 1.75 2 2 2 2
          2 2 2 2 2 2
          2 2 2 2 2 2
          2 1 1.5 0.6666666666666666 2 1
          1.5 1 1.5 0 1 1
          2 2 2 0.6666666666666666 2 2
          2 2 2 2 2 2
          2 2 2 2 2 2
          2 2 2 2 2 2
          2 2 2 2 2 2
          2 2 2 2 2 2
          2 2 2 2 2 2
          2 2 2 2 1.5 1
          2 1 1.25 1 1 0
          0.5 0 1.75 1.5 1.5 2
          2 2 2 2 2 2
          2 2 2 2 2 2
          2 2 2 2 2 2
          2 2 2 2 2 1.5
          1.75 1.5 2 2 2 2
          2 2 2 2 2 2
          2 2 2 2 2 2
          2 2 2 2 2 0.5
          1.25 1 2 2 2 2
          2 2 2 2 2 2
          2 2 2 2 2 2
          2 2 2 2 2 2
          2 2 2 2 2 2
          2 2 2 2 2 2
          2 2 2 2 2 2
          2 2 2 2 2 2
          2 2 2 2 2 2
          2 2 2 2 2 2
          2 2 2 2 2 2
          2 2 2 2 2 2
          2 1 1.5 1 1.5 0
          1 1 2 2 2 0.5
          1.25 0 1 0 1 1
          2 2 2 0 0.5 0
          0.5 0 0 0 1.5 1.5
          1.3333333333333333 0 0.5 0 0.5 0
          0 0 1.5 1.6666666666666667 0.6666666666666666 2
          2 2 2 2 2 2
          2 2 2 2 2 2
          2 2 2 2 1.75 2
          2 2 2 2 1.5 1.5
          2 2 2 0 1 0
          0.75 0 1 0.5 2 1.75
          2 2 2 2 2 2
          2 2 1.5 1.75 1 1.5
          0.5 1.25 1 2 2 2
          1 1.5 0.5 1.25 0 1