<?xml version="1.0"?>
<VTKFile type="UnstructuredGrid" version="0.1" byte_order="LittleEndian" header_type="UInt32" compressor="vtkZLibDataCompressor">
  <UnstructuredGrid>
    <Piece NumberOfPoints="712" NumberOfCells="431">
      <PointData>
        <DataArray type="Int32" Name="libmesh_node_id" format="ascii" RangeMin="770" RangeMax="4046">
          770 915 922 926 934 1213
          1227 1228 1230 1233 1265 1283
          1285 1289 1290 1676 1677 1678
          1679 1683 1684 1685 1755 1756
          1757 1758 1759 1760 1761 1762
          1763 1764 1772 1773 1774 1775
          1776 1777 1778 1789 1790 1791
          1792 1793 1794 1795 1796 1797
          1798 1806 1807 1808 1809 1810
          1811 1812 1820 1821 1822 1830
          1831 1832 1833 1834 1835 1836
          1837 1838 1839 1841 1842 1843
          1844 1845 1846 1847 1848 1855
          1856 1857 1862 1864 1923 1924
          1925 1926 1927 1929 1930 1931
          1932 1933 1934 1935 1936 1939
          1940 1941 1943 1945 1947 1949
          1957 1958 1959 1960 1961 1962
          1963 1964 1965 1966 1967 1968
          1969 1970 1973 1974 1975 1977
          1979 1981 1983 2062 2064 2089
          2091 2093 2095 2985 2986 2987
          2988 2989 2990 2991 2992 2993
          2994 2995 2996 2997 2998 2999
          3000 3001 3002 3003 3004 3005
          3074 3075 3076 3077 3078 3079
          3080 3081 3082 3083 3084 3085
          3086 3087 3088 3089 3090 3091
          3092 3093 3094 3095 3096 3097
          3098 3099 3100 3101 3102 3103
          3104 3105 3106 3107 3108 3109
          3110 3111 3112 3113 3114 3115
          3116 3117 3118 3119 3120 3121
          3122 3123 3124 3125 3126 3127
          3128 3129 3130 3131 3132 3133
          3134 3135 3136 3137 3138 3139
          3140 3141 3145 3146 3164 3165
          3166 3167 3168 3169 3170 3171
          3172 3173 3174 3175 3176 3177
          3178 3179 3180 3181 3182 3183
          3184 3185 3186 3187 3188 3189
          3190 3191 3192 3193 3194 3195
          3196 3197 3198 3199 3200 3201
          3202 3203 3204 3205 3206 3207
          3208 3209 3210 3211 3212 3214
          3215 3216 3217 3218 3222 3223
          3429 3430 3431 3432 3433 3434
          3435 3436 3437 3438 3439 3440
          3441 3442 3443 3444 3445 3446
          3447 3448 3449 3450 3451 3452
          3453 3454 3455 3456 3457 3459
          3460 3461 3464 3465 3467 3468
          3469 3470 3471 3472 3473 3474
          3475 3476 3477 3478 3479 3480
          3481 3482 3483 3484 3486 3487
          3488 3489 3490 3493 3494 3536
          3537 3538 3539 3540 3541 3542
          3543 3544 3545 3546 3547 3548
          3549 3550 3551 3552 3553 3554
          3555 3556 3557 3558 3559 3560
          3561 3562 3563 3564 3565 3566
          3567 3568 3569 3570 3571 3572
          3573 3574 3575 3576 3577 3578
          3579 3580 3581 3582 3583 3584
          3585 3586 3587 3588 3589 3590
          3591 3592 3593 3594 3595 3596
          3597 3598 3599 3600 3601 3602
          3603 3604 3605 3606 3607 3608
          3609 3610 3611 3612 3613 3614
          3615 3616 3617 3618 3619 3620
          3621 3622 3623 3624 3625 3626
          3628 3629 3630 3631 3632 3635
          3636 3638 3639 3640 3641 3642
          3643 3644 3645 3646 3647 3648
          3649 3650 3651 3652 3653 3654
          3655 3656 3657 3658 3659 3660
          3662 3663 3664 3665 3666 3669
          3670 3672 3673 3674 3675 3676
          3677 3678 3679 3680 3681 3682
          3683 3684 3685 3686 3687 3688
          3689 3690 3691 3694 3696 3714
          3716 3718 3720 3772 3773 3776
          3778 3779 3781 3986 3987 3990
          3992 3993 3995 4020 4021 4024
          4026 4027 4029 1203 1206 1207
          1204 1211 1212 1210 1209 916
          1214 1247 1245 1229 1248 1246
          1251 1250 1252 1253 847 1254
          1255 924 1259 1256 1257 1260
          1261 1258 1266 1263 1268 1303
          1287 1304 1674 1747 1748 1750
          1225 1753 1226 1681 1766 1768
          1770 1800 1802 1804 1234 1818
          1824 1826 1828 1849 1850 1851
          1852 1853 1840 1854 1858 1928
          1284 1937 1942 1863 1944 1946
          1948 1978 1980 1982 1292 1954
          1971 1984 2063 2090 2092 2094
          1310 2977 3018 3019 3021 1781
          3024 1782 2983 3034 3036 3038
          1784 3052 3053 3055 1231 3058
          1787 3068 3070 3072 1232 3148
          3158 3160 3162 3219 3220 3213
          3221 3224 1267 3253 3254 3255
          3256 3260 3261 3263 3264 3266
          3281 3282 3285 3286 3288 3290
          3462 3458 3463 3466 1938 3491
          3485 3492 3495 1286 3627 3633
          3634 3637 1972 3661 1976 3667
          3668 3671 1291 3695 3715 3717
          3719 1988 3738 3739 3742 3744
          3745 3747 3758 3760 3762 3764
          1991 3746 3774 3775 1992 3777
          1997 3780 1998 3792 3763 3793
          3794 3796 3797 3798 3988 3989
          3991 2025 3994 2026 4006 4007
          4008 4010 4011 4012 4022 4023
          4025 2031 4028 2032 4040 4041
          4042 4044 4045 4046
        </DataArray>
        <DataArray type="Float64" Name="bounds" format="ascii" RangeMin="0" RangeMax="0">
          0 0 0 0 0 0
          0 0 0 0 0 0
          0 0 0 0 0 0
          0 0 0 0 0 0
          0 0 0 0 0 0
          0 0 0 0 0 0
          0 0 0 0 0 0
          0 0 0 0 0 0
          0 0 0 0 0 0
          0 0 0 0 0 0
          0 0 0 0 0 0
          0 0 0 0 0 0
          0 0 0 0 0 0
          0 0 0 0 0 0
          0 0 0 0 0 0
          0 0 0 0 0 0
          0 0 0 0 0 0
          0 0 0 0 0 0
          0 0 0 0 0 0
          0 0 0 0 0 0
          0 0 0 0 0 0
          0 0 0 0 0 0
          0 0 0 0 0 0
          0 0 0 0 0 0
          0 0 0 0 0 0
          0 0 0 0 0 0
          0 0 0 0 0 0
          0 0 0 0 0 0
          0 0 0 0 0 0
          0 0 0 0 0 0
          0 0 0 0 0 0
          0 0 0 0 0 0
          0 0 0 0 0 0
          0 0 0 0 0 0
          0 0 0 0 0 0
          0 0 0 0 0 0
          0 0 0 0 0 0
          0 0 0 0 0 0
          0 0 0 0 0 0
          0 0 0 0 0 0
          0 0 0 0 0 0
          0 0 0 0 0 0
          0 0 0 0 0 0
          0 0 0 0 0 0
          0 0 0 0 0 0
          0 0 0 0 0 0
          0 0 0 0 0 0
          0 0 0 0 0 0
          0 0 0 0 0 0
          0 0 0 0 0 0
          0 0 0 0 0 0
          0 0 0 0 0 0
          0 0 0 0 0 0
          0 0 0 0 0 0
          0 0 0 0 0 0
          0 0 0 0 0 0
          0 0 0 0 0 0
          0 0 0 0 0 0
          0 0 0 0 0 0
          0 0 0 0 0 0
          0 0 0 0 0 0
          0 0 0 0 0 0
          0 0 0 0 0 0
          0 0 0 0 0 0
          0 0 0 0 0 0
          0 0 0 0 0 0
          0 0 0 0 0 0
          0 0 0 0 0 0
          0 0 0 0 0 0
          0 0 0 0 0 0
          0 0 0 0 0 0
          0 0 0 0 0 0
          0 0 0 0 0 0
          0 0 0 0 0 0
          0 0 0 0 0 0
          0 0 0 0 0 0
          0 0 0 0 0 0
          0 0 0 0 0 0
          0 0 0 0 0 0
          0 0 0 0 0 0
          0 0 0 0 0 0
          0 0 0 0 0 0
          0 0 0 0 0 0
          0 0 0 0 0 0
          0 0 0 0 0 0
          0 0 0 0 0 0
          0 0 0 0 0 0
          0 0 0 0 0 0
          0 0 0 0 0 0
          0 0 0 0 0 0
          0 0 0 0 0 0
          0 0 0 0 0 0
          0 0 0 0 0 0
          0 0 0 0 0 0
          0 0 0 0 0 0
          0 0 0 0 0 0
          0 0 0 0 0 0
          0 0 0 0 0 0
          0 0 0 0 0 0
          0 0 0 0 0 0
          0 0 0 0 0 0
          0 0 0 0 0 0
          0 0 0 0 0 0
          0 0 0 0 0 0
          0 0 0 0 0 0
          0 0 0 0 0 0
          0 0 0 0 0 0
          0 0 0 0 0 0
          0 0 0 0 0 0
          0 0 0 0 0 0
          0 0 0 0 0 0
          0 0 0 0 0 0
          0 0 0 0 0 0
          0 0 0 0 0 0
          0 0 0 0 0 0
          0 0 0 0 0 0
          0 0 0 0 0 0
          0 0 0 0 0 0
          0 0 0 0
        </DataArray>
        <DataArray type="Float64" Name="gradient_error" format="ascii" RangeMin="4.2399949797011225e-10" RangeMax="9.029796213365841e-8">
          2.708036985144309e-9 5.460379688589559e-8 4.7051429045941826e-8 1.2741920029234622e-9 4.04093392926244e-9 4.9345818740026294e-8
          2.7739572821792436e-8 3.039985147702969e-8 5.899436767322172e-8 5.494935799092284e-9 3.129410558424671e-8 2.681368560905094e-8
          6.4802920051530444e-9 3.3080907616551003e-9 6.404921492532615e-9 2.8134583486683965e-8 2.7206932639036256e-8 2.593926881579366e-8
          2.4846169556543372e-8 2.1797631868859887e-8 2.0554442461604113e-8 2.0182206416021577e-8 3.699144600163835e-8 3.589127090938521e-8
          3.7148511332311483e-8 3.589704145434795e-8 3.27187938400168e-8 3.2314601072659284e-8 2.656854996151358e-8 2.589113423199691e-8
          2.6878433692676108e-8 2.3612832917434488e-8 2.777441920982232e-8 2.691238964039091e-8 2.490234655674312e-8 2.384114871184766e-8
          2.9633813323088868e-8 3.61978696251013e-8 3.561399501509028e-8 5.339263510222523e-9 5.530202644995956e-9 6.229285056346535e-9
          6.40664520110574e-9 6.173949302481631e-9 1.3125165826013302e-8 2.482559356298125e-9 3.6137595391348085e-9 4.102839530866541e-9
          4.817100896161417e-9 2.729430348931723e-8 3.502618788070414e-8 4.179930476515668e-8 4.315149552112795e-8 2.8466486310690267e-8
          3.047127413091357e-8 4.498886035641027e-8 2.813029218498782e-8 2.7590436407973112e-8 2.409739414828534e-8 3.077546676525269e-8
          3.053772169768182e-8 2.5759007987959184e-8 2.498889401487857e-8 3.3420641345517564e-8 3.348500698739052e-8 2.742062182763302e-8
          6.034117875826045e-9 7.57551386027799e-9 7.32450610608018e-9 2.4714200173040152e-8 2.382437523679166e-8 1.695053528007553e-8
          2.154605370950189e-8 4.75055269151732e-9 4.592106272727162e-9 4.840168769293519e-9 4.681368209437103e-9 8.165222243752243e-9
          7.880988107067488e-9 1.2220183783805445e-9 1.8675357982442385e-8 1.7193158846424167e-8 3.599030569470041e-8 3.4643238433910816e-8
          3.342515538938997e-8 3.207609136465834e-8 3.084168721763512e-8 2.7935484800454877e-8 2.6888514401788835e-8 2.571037863875107e-8
          3.644682207034914e-8 1.7721866238329278e-8 1.6973333639193276e-8 2.9678488735062755e-9 2.830994119065261e-9 1.643147690112525e-8
          1.565469406189998e-8 6.128715035282014e-9 2.5253813816112875e-8 2.2120424370076733e-8 4.198212705661507e-8 3.480761579059439e-8
          7.071094450687978e-9 7.2394236260294835e-9 7.813282044651913e-9 7.883172226211043e-9 1.9997491228624024e-8 2.0360342866264418e-8
          2.884424966508574e-9 4.535787854574978e-9 4.892565840964491e-9 6.0154385008274325e-9 8.217474132963092e-9 8.333860300300216e-9
          8.370830280877362e-9 8.441726567344222e-9 3.753610626031921e-9 5.102337231826137e-9 4.986532392513103e-9 4.195336332400839e-8
          4.312932215206239e-8 3.160011217955174e-8 4.757106556509783e-8 2.622000346550122e-8 2.1611323430862553e-8 2.9372781563765106e-8
          2.3458032030911092e-8 3.252555966202899e-8 2.5304740630959634e-8 6.878267666089327e-9 6.85447407984906e-9 7.260202159453186e-9
          6.814789451042853e-9 7.680874198431431e-9 7.644704297654425e-9 7.999755090827052e-9 7.57461642133825e-9 6.640298307670573e-9
          7.005302264984517e-9 6.316450279627199e-9 7.353209932918872e-9 7.650823772408789e-9 6.944945994560884e-9 5.797301526761347e-9
          5.939154318957398e-9 6.208064306752953e-9 5.727106285524632e-9 6.446866852184837e-9 6.558612202017219e-9 6.169563135286569e-9
          6.034201469714942e-9 6.051001329334589e-9 6.466530442770452e-9 6.4738882813124156e-9 6.14628227037802e-9 6.546623355132065e-9
          4.889663932227102e-9 4.938612432576224e-9 5.385640922820104e-9 5.097156328508919e-9 6.8899343153301264e-9 6.8911006810105e-9
          7.29503126489086e-9 7.293147769700063e-9 6.948971590982969e-9 7.340374470574193e-9 5.788581978444631e-9 5.833537122285948e-9
          6.272798199428997e-9 5.9708206191887e-9 6.284435138104898e-9 6.658257776215982e-9 6.3641380346611045e-9 6.698477098100597e-9
          5.373099553554751e-9 5.780488948494762e-9 5.816527762158045e-9 7.033799372135537e-9 7.392021900958072e-9 7.03778569150557e-9
          7.320275635232213e-9 6.196266044496805e-9 6.615682044831478e-9 6.5577492640219226e-9 3.4773971787527893e-9 3.651075371897884e-9
          3.758408448818349e-9 3.959665264870536e-9 4.0357210548024495e-9 4.3937887015611206e-9 2.3656017663919312e-9 2.672454457463442e-9
          2.835623087272509e-9 3.354904542300249e-9 4.036081619284032e-9 4.2611454886352185e-9 4.3118164923531125e-9 4.553608996845523e-9
          4.741014056172766e-9 5.068717142189806e-9 2.5939937139076254e-9 2.992713797065118e-9 3.1481620434061267e-9 3.863713634595819e-9
          4.418065420135128e-9 4.8063424265134946e-9 4.834458809454236e-9 5.201146508151117e-9 4.018503701699979e-9 4.362920243484909e-9
          4.447687884287393e-9 5.184202496091514e-9 5.546686859074883e-9 5.5778391443453946e-9 5.951794232370752e-9 4.6902617145416185e-9
          4.995229657994164e-9 5.170805149097202e-9 6.057014767501229e-9 5.874980800644325e-9 6.208303848766045e-9 6.504927242465831e-9
          6.032438552617875e-9 6.317415250752677e-9 6.27295667259135e-9 6.598615326707631e-9 6.45230520388362e-9 6.776733758948045e-9
          6.903205962995293e-9 6.53981874388096e-9 6.634703290847992e-9 6.92926743953447e-9 7.165295414708364e-9 7.072419467768572e-9
          5.7142746706907226e-9 6.0284968219527355e-9 6.349074018181311e-9 6.640730158430703e-9 5.360089374773438e-9 5.661553168668917e-9
          6.1313084483065035e-9 6.370074604352552e-9 6.723563642187958e-9 6.957057157838216e-9 7.294879754742497e-9 5.988214995347418e-9
          6.3230840243000535e-9 6.67934973261464e-9 9.503758666532254e-10 1.089054684158094e-9 1.0803279972674758e-9 1.0554311318009106e-9
          1.6686583355456501e-9 8.214693150569311e-10 8.13781520520821e-10 9.901928997480453e-10 9.814208728774028e-10 6.095382032637785e-10
          8.076910899028951e-10 7.994939527785449e-10 7.921470402704327e-10 9.560982331302117e-10 7.757169823341437e-10 1.5329228852149491e-9
          1.5178648330238855e-9 1.2610552126330637e-9 1.4757225496702555e-9 8.828844695246553e-10 1.007549758335904e-9 1.5493118783521036e-9
          7.556062818117524e-10 9.120067582378701e-10 5.64488469564582e-10 7.382646029995444e-10 1.40497926982398e-9 1.159942183236495e-9
          8.371875450891585e-9 8.305853293171017e-9 8.515592324737998e-9 8.157189533998765e-9 8.696992230199738e-9 8.600376469214035e-9
          8.605052664826327e-9 8.386692431274096e-9 7.864195350048677e-9 7.999189980524372e-9 7.653842767550272e-9 8.056209102404801e-9
          8.005891948977251e-9 7.842794050489745e-9 2.401897070494302e-9 2.3747379231205135e-9 2.310026615114166e-9 3.598497235149082e-9
          2.258178610563153e-9 2.2334541955572908e-9 1.9708380098807874e-9 1.9493124271141877e-9 2.1674639944282337e-9 1.8853799706464073e-9
          3.3971313588416776e-9 3.354258193374069e-9 2.9333384634224526e-9 3.2401789766068876e-9 2.2028938346273682e-9 3.277935631915699e-9
          2.060700465142491e-9 1.783909961329573e-9 3.0568706234508162e-9 2.6696738754282793e-9 5.155287072987187e-9 5.076177492260772e-9
          4.8938459924163945e-9 8.643344483017184e-9 8.541014574474816e-9 7.396270456777457e-9 8.262252111788744e-9 4.893890602386286e-9
          4.824188196679219e-9 4.418033646947869e-9 4.359275266395817e-9 4.642711628443433e-9 4.186375071123824e-9 6.832800676061412e-9
          6.735380451484897e-9 6.3915364594170225e-9 6.473976068402335e-9 4.589520960694696e-9 7.815316751551174e-9 6.697943135349707e-9
          7.544813945457306e-9 4.352556587639301e-9 3.919504895450467e-9 6.0726513343962086e-9 5.7092557176312394e-9 7.674531054249307e-9
          7.674779741379499e-9 8.03427776889785e-9 8.033164808510182e-9 7.705264244983154e-9 8.028357058818584e-9 6.655101532967578e-9
          6.700215682210259e-9 7.120647485747852e-9 6.8326798921275116e-9 8.364852758302451e-9 8.34426893014301e-9 8.596125555613268e-9
          8.558096476852842e-9 8.293316439145686e-9 8.483812917014301e-9 7.475454781951991e-9 7.518389292825983e-9 7.836895417665692e-9
          7.59751390535706e-9 7.700118784136813e-9 7.955184025997653e-9 7.664737506817004e-9 7.885705782480648e-9 7.0091828304599025e-9
          7.367691384817364e-9 7.088232614444944e-9 8.163611104345495e-9 8.298943115727232e-9 8.064274432383193e-9 8.150327795518276e-9
          7.699608646583467e-9 7.986255642546994e-9 7.763485398281487e-9 4.562878338299012e-9 4.8216402747158635e-9 4.781308357318958e-9
          5.057825151952633e-9 5.369814857886801e-9 5.636424080772234e-9 2.7927402682698986e-9 3.286555374599192e-9 3.4250926246919276e-9
          4.3276088874861215e-9 4.996461674630911e-9 5.278637406854156e-9 5.217815616601496e-9 5.487342577670497e-9 5.860230186863704e-9
          6.039107379744781e-9 3.074727071763002e-9 3.6086576191283344e-9 3.812034608888965e-9 4.725373010030562e-9 5.87426714316454e-9
          6.158381059956068e-9 6.287287185980376e-9 6.581771820772588e-9 5.266210843634225e-9 5.492557421748336e-9 5.7800415733352055e-9
          6.400434001519053e-9 6.5872575513134155e-9 6.856825975664116e-9 7.115469041436406e-9 5.672663816157361e-9 5.793998100010057e-9
          6.211301261044322e-9 8.714145962692018e-9 8.683608645019706e-9 8.780223635942386e-9 8.744998672626366e-9 8.596167796956493e-9
          8.600126983994138e-9 8.041153519481308e-9 8.062360446212593e-9 8.24933747791868e-9 8.122158452483e-9 8.746517054530428e-9
          8.682645886268412e-9 8.513896864566113e-9 8.426307466841713e-9 8.458755967176302e-9 8.150910032287406e-9 8.356273804231285e-9
          8.38621317344538e-9 8.39505847664161e-9 8.459342615045138e-9 8.314407575192246e-9 8.214686684374165e-9 8.089550883818902e-9
          8.209229206855016e-9 8.381801173921604e-9 8.271488046090605e-9 8.012473248884329e-9 7.670158750980949e-9 8.47608629040703e-9
          8.402909960060762e-9 5.409850694525091e-9 5.651965215016733e-9 5.5292486982575475e-9 5.7523714061354105e-9 6.1708287351591e-9
          6.272529865665627e-9 3.522341792454421e-9 4.0054122531728796e-9 4.190559425147428e-9 5.02742404747644e-9 5.610952081041761e-9
          5.838043624709111e-9 5.7111011389842826e-9 5.916729483835008e-9 6.361951466041384e-9 6.414278384964531e-9 3.9397357327837685e-9
          4.318290729005593e-9 4.330721766438463e-9 5.0833751187194624e-9 6.725372583189692e-9 6.853078065430275e-9 7.34894888129853e-9
          5.845785151502669e-9 5.856287257368946e-9 6.607809604551404e-9 6.993840551512406e-9 7.100059171550204e-9 5.886373904864977e-9
          5.975742822343337e-9 7.475815623645712e-9 7.786364910396112e-9 7.883604820192027e-9 8.021549867273058e-9 8.155586626072123e-9
          8.28367011200723e-9 7.0654257965911e-9 7.382194831807812e-9 7.645584002909642e-9 7.979101927024423e-9 6.6550359695364855e-9
          6.9780247532195145e-9 7.407563185627255e-9 7.651114739314255e-9 7.837757783213808e-9 8.229798295688379e-9 8.297747365431571e-9
          7.280679611355453e-9 7.519928940355493e-9 8.175926479369528e-9 8.174346803202983e-9 8.049647231509976e-9 7.912047945919132e-9
          8.12936556081076e-9 7.649749088635278e-9 8.209083890111545e-9 3.987969426077844e-9 3.933128340706084e-9 3.7746361890770285e-9
          5.987621725988138e-9 5.8986077124331444e-9 5.637934203425273e-9 8.09916429939429e-9 8.000183057298954e-9 7.701169687967847e-9
          8.258131975008717e-9 8.279917457596888e-9 8.293130943278446e-9 5.708462192483002e-9 5.902590769820677e-9 6.436230229686034e-9
          3.924328925257576e-9 4.179403845841524e-9 4.9430485273705046e-9 6.194121822834817e-8 4.9827724349040525e-8 4.560557150970059e-8
          5.705928881122568e-8 6.371361363546066e-8 5.813020301063417e-8 3.4474283911919346e-8 4.4292364950031235e-8 6.486976016356099e-8
          7.58200469516626e-8 6.530132117546693e-8 7.727970495753881e-8 6.164082873559515e-8 7.981393793511795e-8 9.029796213365841e-8
          5.7772303517501486e-8 6.868104342665109e-8 7.140100911471351e-8 6.464916067636216e-8 7.06144307467388e-8 8.21957253210412e-8
          1.0729754291788426e-8 6.5495427648310446e-9 5.43174659117234e-9 9.973352156262278e-9 2.503829575536797e-8 4.231542505504838e-9
          3.847472605356505e-9 2.2780606672201963e-8 2.7931802318223172e-8 1.6933928854634146e-8 3.3451187894367567e-8 3.285034895145776e-8
          4.178723369952265e-8 4.245420002435907e-8 2.7689225743932123e-8 3.58116481078858e-8 3.4888068490224086e-8 3.217688332496212e-8
          2.4777787294617167e-8 2.4249108507485383e-8 2.7284895761257804e-8 2.2504222457499633e-8 2.7816818877801513e-8 2.524435997824116e-8
          3.336609459786706e-8 2.993837652282116e-8 3.934873259994739e-8 2.598802431580297e-8 4.187171568169504e-8 2.7944275213219084e-8
          3.0237432554346417e-8 2.588832849805191e-8 3.2530589895473736e-8 2.4993107525955265e-9 1.5990755311647344e-9 1.5455955213254792e-9
          4.16131811066777e-9 4.27721721395988e-9 6.713687619828164e-9 1.3955065972981295e-9 7.13708639139968e-9 2.8323956535833263e-8
          3.5059238820545796e-8 1.491600306273212e-8 1.9810767208538327e-8 1.319839899454362e-8 2.2980926559653384e-8 1.8129503605890295e-8
          4.030777772564707e-8 4.12735789271292e-8 4.1653299892274044e-8 3.159793496837184e-8 4.638834092416143e-8 2.1788216511844258e-8
          1.4303897651340808e-8 2.3646916721239382e-8 2.118770880956301e-8 2.7412318028392647e-8 1.7966883921497778e-8 3.057063062299119e-8
          3.8102907444014665e-8 6.446382446744731e-9 5.61369252072005e-9 5.643573289934235e-9 5.761763496019389e-9 4.4497031466016085e-9
          4.506306473956309e-9 4.685011594432327e-9 6.262780958644928e-9 5.923438845372992e-9 6.0775527500231276e-9 4.993801987645023e-9
          1.029059601206817e-8 3.1886860300771346e-9 3.3354440559770796e-9 3.6733871661962748e-9 2.235965758407903e-9 2.49903929716528e-9
          3.088972357111958e-9 4.0331793785833656e-9 4.4971142909140535e-9 3.66285151397774e-9 4.083036445700545e-9 5.952347731983595e-9
          5.431320730305013e-9 6.070199385433127e-9 5.092483866755188e-9 7.0695703937099e-10 8.533320562107693e-10 9.437360118104788e-10
          6.88652986034752e-10 1.3114777204517034e-9 1.0783251056337983e-9 4.982675812711954e-10 4.92907051196622e-10 6.6069514137313e-10
          6.536348669801117e-10 4.780018407725106e-10 6.333290005641078e-10 1.0741368252737054e-9 1.0623067420052063e-9 1.0276603044876308e-9
          4.548264792400287e-10 6.012289535891589e-10 4.2399949797011225e-10 5.589085224633672e-10 9.724287960419806e-10 9.001183248619068e-10
          1.9207111993695606e-9 2.0621555924738187e-9 1.6512633252569403e-9 2.8218704370986638e-9 2.4602699809903326e-9 3.985475634970331e-9
          4.2016495826582455e-9 3.5832465807806683e-9 5.563814881715804e-9 5.161313268566124e-9 7.696454180027561e-9 7.374267223561002e-9
          6.996040957583326e-9 8.260466740514743e-9 8.09112469378051e-9 7.53912069066618e-9 6.8058182686854995e-9 7.670264362614588e-9
          7.679317353617032e-9 6.985884354519685e-9 7.087161733548316e-9 7.895354025684693e-9 7.90720043840351e-9 7.578675040436786e-9
          7.694028508976501e-9 1.9303413999997764e-8 1.6999173034537357e-9 1.6802173837110392e-9 1.622615970736347e-9 2.6250195832470573e-9
          2.5927670579625537e-9 2.4987304427685086e-9 1.5309991467976579e-9 1.4115196644091415e-9 2.3498015100515497e-9 2.156663494764377e-9
          2.299155262428514e-9 2.269782276337373e-9 3.555476574859565e-9 3.5057799317384683e-9 2.1839037444475136e-9 3.3615978871950413e-9
          5.421388573082756e-9 5.3359722888172444e-9 5.08755527485706e-9 3.527792038413987e-9 2.048071989310894e-9 3.1365233373316872e-9
          3.2144276685839216e-9 5.225359942213767e-9 4.7011543340244265e-9 4.699710632549955e-9 7.556926973154974e-9 7.453582533075528e-9
          7.14349225415562e-9 8.095374313509172e-9 8.09381152820813e-9 8.033759914856724e-9 7.202514270107854e-9 6.632018978195523e-9
          6.5156733559750675e-9 8.161220017129958e-9 7.794441307069691e-9 7.748820137897497e-9 5.711193095437479e-9 5.928199542327318e-9
          6.492283737233765e-9 3.807910887561222e-9 4.146464156140805e-9 5.090161991281901e-9 7.125393379548013e-9 7.081809493363047e-9
          7.547269093024815e-9 6.103408566798804e-9 6.216819166539852e-9 7.060971930795039e-9
        </DataArray>
        <DataArray type="Float64" Name="gradient_matprop_error" format="ascii" RangeMin="0" RangeMax="0">
          0 0 0 0 0 0
          0 0 0 0 0 0
          0 0 0 0 0 0
          0 0 0 0 0 0
          0 0 0 0 0 0
          0 0 0 0 0 0
          0 0 0 0 0 0
          0 0 0 0 0 0
          0 0 0 0 0 0
          0 0 0 0 0 0
          0 0 0 0 0 0
          0 0 0 0 0 0
          0 0 0 0 0 0
          0 0 0 0 0 0
          0 0 0 0 0 0
          0 0 0 0 0 0
          0 0 0 0 0 0
          0 0 0 0 0 0
          0 0 0 0 0 0
          0 0 0 0 0 0
          0 0 0 0 0 0
          0 0 0 0 0 0
          0 0 0 0 0 0
          0 0 0 0 0 0
          0 0 0 0 0 0
          0 0 0 0 0 0
          0 0 0 0 0 0
          0 0 0 0 0 0
          0 0 0 0 0 0
          0 0 0 0 0 0
          0 0 0 0 0 0
          0 0 0 0 0 0
          0 0 0 0 0 0
          0 0 0 0 0 0
          0 0 0 0 0 0
          0 0 0 0 0 0
          0 0 0 0 0 0
          0 0 0 0 0 0
          0 0 0 0 0 0
          0 0 0 0 0 0
          0 0 0 0 0 0
          0 0 0 0 0 0
          0 0 0 0 0 0
          0 0 0 0 0 0
          0 0 0 0 0 0
          0 0 0 0 0 0
          0 0 0 0 0 0
          0 0 0 0 0 0
          0 0 0 0 0 0
          0 0 0 0 0 0
          0 0 0 0 0 0
          0 0 0 0 0 0
          0 0 0 0 0 0
          0 0 0 0 0 0
          0 0 0 0 0 0
          0 0 0 0 0 0
          0 0 0 0 0 0
          0 0 0 0 0 0
          0 0 0 0 0 0
          0 0 0 0 0 0
          0 0 0 0 0 0
          0 0 0 0 0 0
          0 0 0 0 0 0
          0 0 0 0 0 0
          0 0 0 0 0 0
          0 0 0 0 0 0
          0 0 0 0 0 0
          0 0 0 0 0 0
          0 0 0 0 0 0
          0 0 0 0 0 0
          0 0 0 0 0 0
          0 0 0 0 0 0
          0 0 0 0 0 0
          0 0 0 0 0 0
          0 0 0 0 0 0
          0 0 0 0 0 0
          0 0 0 0 0 0
          0 0 0 0 0 0
          0 0 0 0 0 0
          0 0 0 0 0 0
          0 0 0 0 0 0
          0 0 0 0 0 0
          0 0 0 0 0 0
          0 0 0 0 0 0
          0 0 0 0 0 0
          0 0 0 0 0 0
          0 0 0 0 0 0
          0 0 0 0 0 0
          0 0 0 0 0 0
          0 0 0 0 0 0
          0 0 0 0 0 0
          0 0 0 0 0 0
          0 0 0 0 0 0
          0 0 0 0 0 0
          0 0 0 0 0 0
          0 0 0 0 0 0
          0 0 0 0 0 0
          0 0 0 0 0 0
          0 0 0 0 0 0
          0 0 0 0 0 0
          0 0 0 0 0 0
          0 0 0 0 0 0
          0 0 0 0 0 0
          0 0 0 0 0 0
          0 0 0 0 0 0
          0 0 0 0 0 0
          0 0 0 0 0 0
          0 0 0 0 0 0
          0 0 0 0 0 0
          0 0 0 0 0 0
          0 0 0 0 0 0
          0 0 0 0 0 0
          0 0 0 0 0 0
          0 0 0 0 0 0
          0 0 0 0 0 0
          0 0 0 0 0 0
          0 0 0 0 0 0
          0 0 0 0 0 0
          0 0 0 0
        </DataArray>
        <DataArray type="Float64" Name="initial_marker" format="ascii" RangeMin="0" RangeMax="2">
          2 2 2 2 2 2
          2 2 2 2 2 2
          2 2 2 2 2 2
          2 2 2 2 2 2
          2 2 2 2 2 2
          2 2 2 2 2 2
          2 2 2 2 2 2
          2 2 2 2 2 2
          2 2 2 2 2 2
          2 2 2 2 2 2
          2 2 2 2 2 2
          0 1 1 2 2 2
          2 0 0 1 0.75 2
          2 2 2 2 2 2
          2 2 2 2 2 2
          2 2 2 2 2 2
          2 2 2 2 2 2
          2 2 2 2 2 2
          2 2 2 2 2 2
          2 2 2 2 2 2
          2 2 2 2 2 2
          2 2 2 2 2 2
          2 2 2 2 2 2
          2 2 2 2 2 2
          2 2 2 2 2 2
          2 2 2 2 2 2
          2 2 2 2 2 2
          2 2 2 2 2 2
          2 2 2 2 2 2
          2 2 2 2 2 2
          2 2 2 2 2 2
          2 2 2 2 2 2
          2 2 2 2 2 2
          2 2 2 2 2 2
          2 2 2 2 2 2
          2 2 2 2 2 2
          2 2 2 2 2 2
          2 2 2 2 2 2
          2 2 2 2 2 2
          2 2 2 2 2 2
          2 2 2 2 2 2
          2 2 2 2 2 1.5
          2 2 2 2 2 2
          2 2 1 1.5 1.5 2
          2 2 2 0 1 2
          0 1 0 1 2 2
          2 2 2 2 2 2
          2 2 2 2 2 2
          2 2 2 2 2 2
          2 2 2 2 2 2
          2 2 2 2 2 2
          2 2 2 2 2 2
          2 2 2 2 2 2
          2 2 2 2 2 2
          2 2 2 2 2 2
          2 2 2 2 2 2
          2 2 2 2 2 2
          2 2 2 2 2 2
          2 2 2 2 2 2
          2 2 2 2 2 2
          2 2 2 2 2 2
          2 2 2 2 2 2
          2 2 2 2 2 2
          2 2 2 2 2 2
          2 2 2 2 2 2
          2 2 2 2 2 2
          2 2 2 2 2 2
          2 2 2 2 2 2
          2 2 2 2 2 2
          2 2 2 2 2 2
          2 2 2 2 2 2
          2 2 2 2 2 2
          2 2 2 2 2 2
          2 2 2 2 2 2
          2 2 2 2 2 2
          2 2 2 2 2 2
          2 2 2 2 2 2
          2 2 2 2 2 2
          2 2 2 2 2 2
          2 2 2 2 2 2
          2 2 2 2 2 2
          2 2 2 2 2 2
          2 2 2 2 2 2
          2 2 2 2 2 2
          2 2 2 1 1 1
          1 2 2 0.5 0.5 1.5
          1.5 1 1 2 2 2
          1 1 2 2 1 1
          0 0 0 0 0.5 0
          0 0.5 2 0.25 1.5 0.75
          2 2 2 2 2 2
          2 2 2 2 2 2
          2 2 2 2 2 2
          2 2 2 0 1 0.5
          0 0.5 1 0 2 2
          2 2 2 2 2 2
          2 2 2 2 2 2
          2 2 2 2 2 2
          2 2 2 2 2 2
          2 2 2 2 2 2
          2 2 2 2 2 2
          2 2 2 2 2 2
          2 2 2 0 1 1
          1 2 2 2 2 2
          2 1 1.5 2 2 2
          0 1 0 1 2 2
          2 2 2 2 2 2
          2 2 2 2 2 2
          2 2 2 2 2 2
          2 2 2 2 2 2
          2 2 2 2 2 2
          2 2 2 2 2 2
          2 2 2 2 2 2
          2 2 2 2 2 2
          2 2 2 2 2 2
          2 2 2 2 2 2
          2 2 2 2 2 2
          2 2 2 2 2 2
          2 2 2 2
        </DataArray>
        <DataArray type="Float64" Name="markers_norefine" format="ascii" RangeMin="0" RangeMax="2">
          2 0 0 0 2 0
          1 0 0 2 0 0
          0 2 2 0 0 0
          0 0 0 0 0 0
          0 0 0 0 1 0.5