<?xml version="1.0"?>
<VTKFile type="UnstructuredGrid" version="0.1" byte_order="LittleEndian" header_type="UInt32" compressor="vtkZLibDataCompressor">
  <UnstructuredGrid>
    <Piece NumberOfPoints="593" NumberOfCells="358">
      <PointData>
        <DataArray type="Int32" Name="libmesh_node_id" format="ascii" RangeMin="559" RangeMax="5513">
          559 839 840 1427 1431 1432
          1433 1439 1461 1462 1463 1464
          1468 1489 1944 1946 1948 1949
          1950 1953 1964 1965 1966 1967
          1971 1972 2670 2671 2672 2673
          2674 2675 2676 2677 2678 2679
          2682 2694 2695 2696 2697 2700
          2702 2716 2717 2719 2722 2732
          2736 2779 2780 2781 2782 2783
          2784 2785 2786 2787 2788 2789
          2790 2791 2792 2807 2808 2809
          2810 2811 2812 2813 2814 2827
          2828 2831 2833 2834 2836 2847
          2851 3018 3019 3059 3060 3066
          3067 3068 3070 3071 3076 3077
          3078 3079 3080 3081 3082 3083
          3084 3085 3093 3094 3095 3096
          3097 3098 3099 3100 3101 3102
          3103 3104 3105 3106 3107 3108
          3109 3120 3121 3122 3123 3124
          3125 3126 4601 4602 4603 4604
          4605 4606 4607 4608 4609 4610
          4611 4612 4613 4614 4615 4616
          4617 4618 4619 4620 4621 4622
          4623 4624 4625 4626 4627 4628
          4629 4630 4631 4632 4633 4634
          4635 4636 4637 4638 4639 4640
          4641 4642 4643 4644 4645 4646
          4647 4648 4651 4652 4654 4659
          4660 4661 4662 4663 4664 4665
          4666 4667 4668 4676 4677 4678
          4679 4680 4681 4682 4731 4732
          4733 4734 4735 4736 4737 4738
          4739 4740 4741 4742 4743 4744
          4745 4746 4747 4748 4749 4750
          4751 4752 4753 4754 4755 4756
          4757 4758 4759 4768 4769 4770
          4771 4772 4773 4774 4782 4783
          4784 4785 4786 4787 4788 4789
          4790 4870 4871 4872 4873 4874
          4875 4878 4887 4888 4889 4890
          4892 4906 4907 4909 4912 4922
          4924 4926 4981 4982 4983 4984
          4986 4995 4996 5010 5012 5014
          5112 5113 5114 5115 5116 5117
          5118 5119 5120 5121 5122 5123
          5124 5125 5126 5127 5128 5129
          5130 5131 5132 5133 5134 5135
          5136 5137 5138 5139 5140 5141
          5142 5143 5144 5145 5146 5147
          5148 5149 5150 5151 5152 5153
          5154 5155 5156 5157 5158 5159
          5160 5161 5162 5163 5164 5165
          5166 5167 5168 5169 5170 5171
          5172 5173 5174 5175 5176 5177
          5178 5179 5180 5181 5182 5183
          5184 5185 5186 5187 5188 5189
          5190 5191 5192 5193 5259 5260
          5261 5262 5263 5264 5265 5266
          5267 5268 5269 5270 5271 5272
          5273 5274 5275 5276 5277 5278
          5279 5280 5281 5282 5283 5284
          5285 5286 5287 5288 5289 5290
          5292 5293 5294 5295 5296 5297
          5298 5299 5300 5301 5303 5304
          5305 5306 5307 5308 5309 5310
          5343 5344 5345 5346 5347 5348
          5349 5350 5351 5352 5353 5354
          5357 5359 5360 5362 5363 5364
          5365 5366 5367 5368 5369 5370
          5372 5374 5376 5377 5378 5379
          5380 5381 5382 5383 5384 5385
          5386 5397 5398 5399 5400 5401
          5402 5403 5479 5480 5481 5482
          5483 5484 5485 5493 5494 5507
          5508 5509 5510 5511 5512 5513
          834 1945 1938 1939 1947 1940
          666 838 1951 1952 1959 1957
          1960 1958 1434 1453 1451 2698
          2699 3069 3061 3072 3073 3074
          3062 3075 836 2656 2657 2592
          2660 1428 3088 3089 3092 2686
          4544 4548 4545 4546 4549 4550
          4547 4553 2661 4556 2662 4564
          4565 4568 4570 2665 4581 4649
          4650 4582 4653 4584 4655 2680
          4657 4656 2681 4658 4669 4595
          4670 4671 4597 4672 4674 4673
          2683 4689 4690 4693 4695 2687
          4703 4704 4707 4709 4760 2690
          4761 4715 4762 4763 4717 4764
          4766 2701 4775 4725 4776 4777
          4727 4778 4780 4862 4863 4865
          2714 4876 4877 4868 4879 2715
          4881 4883 4891 4885 4893 2718
          4904 4905 4908 4910 4911 4913
          4921 4923 4925 4927 4975 4977
          4985 4979 4987 2731 4989 4999
          4993 5009 5011 5013 5015
        </DataArray>
        <DataArray type="Float64" Name="bounds" format="ascii" RangeMin="0" RangeMax="0">
          0 0 0 0 0 0
          0 0 0 0 0 0
          0 0 0 0 0 0
          0 0 0 0 0 0
          0 0 0 0 0 0
          0 0 0 0 0 0
          0 0 0 0 0 0
          0 0 0 0 0 0
          0 0 0 0 0 0
          0 0 0 0 0 0
          0 0 0 0 0 0
          0 0 0 0 0 0
          0 0 0 0 0 0
          0 0 0 0 0 0
          0 0 0 0 0 0
          0 0 0 0 0 0
          0 0 0 0 0 0
          0 0 0 0 0 0
          0 0 0 0 0 0
          0 0 0 0 0 0
          0 0 0 0 0 0
          0 0 0 0 0 0
          0 0 0 0 0 0
          0 0 0 0 0 0
          0 0 0 0 0 0
          0 0 0 0 0 0
          0 0 0 0 0 0
          0 0 0 0 0 0
          0 0 0 0 0 0
          0 0 0 0 0 0
          0 0 0 0 0 0
          0 0 0 0 0 0
          0 0 0 0 0 0
          0 0 0 0 0 0
          0 0 0 0 0 0
          0 0 0 0 0 0
          0 0 0 0 0 0
          0 0 0 0 0 0
          0 0 0 0 0 0
          0 0 0 0 0 0
          0 0 0 0 0 0
          0 0 0 0 0 0
          0 0 0 0 0 0
          0 0 0 0 0 0
          0 0 0 0 0 0
          0 0 0 0 0 0
          0 0 0 0 0 0
          0 0 0 0 0 0
          0 0 0 0 0 0
          0 0 0 0 0 0
          0 0 0 0 0 0
          0 0 0 0 0 0
          0 0 0 0 0 0
          0 0 0 0 0 0
          0 0 0 0 0 0
          0 0 0 0 0 0
          0 0 0 0 0 0
          0 0 0 0 0 0
          0 0 0 0 0 0
          0 0 0 0 0 0
          0 0 0 0 0 0
          0 0 0 0 0 0
          0 0 0 0 0 0
          0 0 0 0 0 0
          0 0 0 0 0 0
          0 0 0 0 0 0
          0 0 0 0 0 0
          0 0 0 0 0 0
          0 0 0 0 0 0
          0 0 0 0 0 0
          0 0 0 0 0 0
          0 0 0 0 0 0
          0 0 0 0 0 0
          0 0 0 0 0 0
          0 0 0 0 0 0
          0 0 0 0 0 0
          0 0 0 0 0 0
          0 0 0 0 0 0
          0 0 0 0 0 0
          0 0 0 0 0 0
          0 0 0 0 0 0
          0 0 0 0 0 0
          0 0 0 0 0 0
          0 0 0 0 0 0
          0 0 0 0 0 0
          0 0 0 0 0 0
          0 0 0 0 0 0
          0 0 0 0 0 0
          0 0 0 0 0 0
          0 0 0 0 0 0
          0 0 0 0 0 0
          0 0 0 0 0 0
          0 0 0 0 0 0
          0 0 0 0 0 0
          0 0 0 0 0 0
          0 0 0 0 0 0
          0 0 0 0 0 0
          0 0 0 0 0 0
          0 0 0 0 0
        </DataArray>
        <DataArray type="Float64" Name="gradient_error" format="ascii" RangeMin="4.933428088781151e-13" RangeMax="3.197105543254157e-8">
          1.9919176276171338e-8 5.145411659750176e-11 6.006065730592294e-11 2.7363815728111613e-10 2.843168664282076e-11 7.321066251111003e-9
          2.7734630779660544e-9 1.406266821384319e-8 6.286726506764504e-12 6.425089119280213e-12 1.0052449866001188e-9 3.44544674315912e-10
          7.55064690459739e-12 1.5912572461558104e-11 1.1437804005561921e-10 6.853476466931511e-11 4.078740336856808e-11 1.2295122944294376e-11
          2.179503426911349e-11 5.2835691719854454e-11 4.925023209657202e-12 7.757575041256334e-12 2.7309275825826093e-12 4.385147372188051e-12
          1.1566185656468136e-11 8.287020333116686e-12 1.346020268707136e-10 1.1605262809283556e-10 1.63946251693702e-9 1.3007022736847588e-9
          4.425983660663343e-11 7.132813765326386e-10 5.617927506684037e-10 7.569888234905392e-11 6.51608394600747e-10 2.741736897222149e-10
          5.84530409968886e-9 5.975040307844492e-11 2.2819969680101077e-10 4.401123092600455e-11 1.1065243498764938e-10 6.690096572752122e-11
          7.476500121640584e-10 1.9800677136728885e-8 1.7616551525624043e-8 9.879412163919317e-9 2.1621014463869815e-8 2.780577672228601e-9
          4.240690244296213e-9 1.8634870966598533e-11 1.604972607971453e-11 2.661049690583491e-10 2.084920761370722e-10 5.392106694141716e-12
          8.412486715654824e-11 6.577935314625486e-11 1.0311901100498132e-11 1.004203401931646e-10 3.3408557000765625e-11 3.0419550783303046e-9
          2.3744964126958887e-9 7.758262623108238e-10 1.076999761665969e-9 1.6436460777220812e-11 4.0667351780964076e-11 1.0262102201910313e-11
          1.5209921684959493e-11 2.079833973756271e-11 3.857685487417503e-11 1.302309127171413e-11 2.7885207970695915e-10 9.50847712901954e-9
          8.198883677241764e-9 4.196795283987723e-9 1.0606827518886922e-8 1.0596104027746852e-8 6.264641610213528e-9 1.0740925987970018e-9
          1.6669505537439523e-9 1.078024655859668e-11 1.2339712946264898e-11 2.106231286307233e-10 3.4071984012906323e-10 1.4263495608873228e-10
          1.2419333324929186e-10 2.7302775220776805e-10 2.0055824707595938e-11 1.5731781537669926e-10 2.7173398588935823e-12 2.585273378696333e-12
          7.524603544592426e-11 6.703529402003904e-11 2.1171631887914592e-12 2.8435903884705248e-11 2.5393470651029285e-11 5.8872974249659595e-12
          4.937588090499382e-11 1.8402063669586173e-11 1.3197115025406375e-11 3.0755081457497147e-11 5.3291541629177506e-12 1.091807757280665e-11
          1.7072842099379916e-11 2.1582953699160477e-11 7.383065223794274e-12 1.1011430945630744e-12 9.936796350255012e-13 1.054061881443501e-11
          9.41610431433518e-12 4.933428088781151e-13 3.5628682259085326e-12 3.178775081230346e-12 9.793991634876088e-13 6.583900348187981e-12
          2.634893428494835e-12 1.475729664000541e-12 3.424410584989517e-12 9.388450049512327e-13 1.7910226819392445e-12 1.8788771765137928e-12
          1.9726102878384217e-12 1.266728951498303e-12 1.8083763944621822e-10 1.730289836949844e-10 5.594254321882584e-10 5.314055101464252e-10
          1.1589932619023796e-10 3.7035186034994836e-10 3.514948018288189e-10 1.512718782977843e-10 4.5566310011546367e-10 3.003655812819557e-10
          2.372082058924845e-9 2.243536794085203e-9 1.5473352669588657e-9 1.8964799792687185e-9 7.77238937821321e-11 7.415173441310199e-11
          2.409547801721129e-10 2.2837965257000892e-10 4.605248076130522e-11 1.5231148014949427e-10 1.4425112356414235e-10 6.425928481898446e-11
          1.9444869008160948e-10 1.2258446623757965e-10 1.0999191149215311e-9 1.0372475607955767e-9 6.720840833189944e-10 8.694811790704736e-10
          1.2102289581083845e-10 3.5333330943599597e-10 7.96265560671409e-11 2.312801942821001e-10 8.975897856239768e-11 2.4878191061282304e-10
          1.614381808795326e-10 1.4317207147488527e-9 9.743152250559184e-10 9.6800296263559e-10 5.06372573996254e-11 1.4896884297168022e-10
          3.13487086275821e-11 9.365920071762789e-11 3.7036279831845116e-11 1.0335608015956723e-10 6.465300958721356e-11 6.476506753800754e-10
          4.1632425483585526e-10 4.293417505463688e-10 5.66411234884737e-9 5.3573414423231014e-9 4.51651872645798e-9 3.9976101309107934e-9
          3.769069802669407e-9 2.67799578432598e-9 2.5191200747524115e-9 3.1497583410259845e-9 2.0927286389931336e-9 1.0432018185267026e-8
          9.904998028299056e-9 6.932259368940897e-9 8.426296511830545e-9 2.3192057579684056e-9 1.5289520183263434e-9 1.5005008864026759e-9
          9.800762076692847e-10 6.329279332643512e-9 4.3241360018984745e-9 4.1340886114568065e-9 6.371206282734275e-11 1.6007080976921479e-10
          4.254988227301991e-11 1.0257185884399293e-10 4.399478398593674e-11 9.413451276871974e-11 6.798536237516296e-11 5.902332733705763e-10
          3.913198518418739e-10 3.259707428111414e-10 2.7726550612229694e-11 6.502784174481274e-11 1.7242706863894748e-11 4.039014007991259e-11
          2.4716061766122932e-11 4.818835391853733e-11 2.9814496924284924e-11 2.543886884614548e-10 1.6090004993684303e-10 1.679941830675373e-10
          2.7894177752287613e-11 5.1645790576308795e-11 2.435241336404388e-11 3.9581477900653464e-11 2.0427319032450687e-11 3.6326360673618355e-11
          2.8675519149615815e-11 1.6635785957703478e-10 1.2865670263352997e-10 8.573471864113167e-10 5.537212322929239e-10 4.368849563754837e-10
          2.787639243832452e-10 2.3346663583928845e-9 1.5398043723130443e-9 1.1518039056526077e-9 1.049398352285922e-10 2.0208350000725323e-10
          6.504389278896579e-11 1.272030639606829e-10 4.8719238199452064e-11 8.572114620953945e-11 6.294687703304398e-11 5.075353613131564e-10
          3.250145763016204e-10 1.9622804295712874e-8 1.883262691867919e-8 1.4131674028546876e-8 1.3528946112720292e-8 1.6459204182310796e-8
          1.1751822647181986e-8 1.935132871203891e-8 1.2794291563033196e-8 9.036640983262884e-9 8.646536756808125e-9 5.986186304312709e-9
          1.42507524934845e-8 2.0856779235580934e-8 2.1246380866257464e-8 2.0886944803053513e-8 2.0919999545229716e-8 1.7911082433421892e-8
          1.293889847251804e-8 1.9126895062392248e-8 4.989288970088053e-9 3.365429731212284e-9 2.451862498858658e-9 1.6164592753385946e-9
          5.737766052878403e-9 1.049978238638369e-9 6.79687225108212e-10 7.765893211483696e-9 3.821121526801344e-9 8.556684973017156e-9
          2.927982160702274e-11 2.7898007844080774e-11 9.336932102438982e-11 8.841162864982785e-11 1.6470761093031652e-11 5.5370613556959645e-11
          5.240314005257969e-11 2.4117792270416446e-11 7.505413301301435e-11 4.442695916859665e-11 4.448145145567979e-10 4.1868785231845394e-10
          2.50377018078093e-10 3.4906669603500915e-10 1.0075912220594456e-11 9.575763891326707e-12 3.1647733513002525e-11 2.994014827694101e-11
          5.662004167586614e-12 1.7408026850574966e-11 1.6459127579388353e-11 8.311412273814749e-12 2.5381594763380304e-11 1.39735265922128e-11
          1.5284119730563054e-10 1.4376596596546404e-10 7.911847232730131e-11 1.1959066777818753e-10 1.9001516209297725e-11 5.7191417428994983e-11
          1.1329069792282984e-11 3.3778795028452474e-11 1.3900169797205048e-11 3.931862477457894e-11 2.3145285482975988e-11 2.578171809432384e-10
          1.5366446010234256e-10 1.6907148438553613e-10 6.815129816048105e-12 1.9282003173547384e-11 4.313431159490756e-12 1.0630029633176276e-11
          5.448193944278155e-12 1.314571176538975e-11 8.300027929464593e-12 8.80204383417233e-11 4.832089973079038e-11 5.7315409156808016e-11
          1.7065596658805666e-9 1.603580808533232e-9 1.0376197055234058e-9 9.738997932031872e-10 1.3276066790139619e-9 8.037799543130998e-10
          4.864380037172832e-9 4.5889511004292256e-9 2.862620759471503e-9 3.831918579399525e-9 6.013533996717145e-10 5.639894300308192e-10
          3.326835843676086e-10 3.1187052339883113e-10 4.645387823186691e-10 2.5655614994879023e-10 1.7972905362761735e-9 1.6883104828585571e-9
          9.430556434714461e-10 1.3936059294818545e-9 9.643357862249062e-10 5.813663887683718e-10 6.136953617156509e-10 3.683045147019355e-10
          2.798857533041414e-9 1.7185633448621814e-9 1.7712846443279393e-9 3.3523338998223515e-10 1.8493257506413025e-10 2.1192897889062855e-10
          1.1683052130013086e-10 1.0019740545706175e-9 5.554745628728577e-10 6.238106619525371e-10 1.0539370367633016e-11 2.449514053352496e-11
          6.445971731913874e-12 1.4436298771289713e-11 9.562043099757309e-12 1.8081536625119193e-11 1.0721364844538831e-11 9.862450955094003e-11
          5.838594315270362e-11 6.398273576512604e-11 4.220310284863885e-12 8.21036187179263e-12 3.5460606097897244e-12 5.904731560608235e-12
          3.627283327697131e-12 6.162680074019408e-12 4.555848113080078e-12 3.3206312751139655e-11 2.272724368921149e-11 2.1586309963310558e-11
          3.440890686121333e-10 2.055361127796937e-10 1.7183382387059623e-10 1.0211773382057732e-10 9.708733233070518e-10 5.850966266156799e-10
          4.661185851763535e-10 1.1796629277313174e-10 6.49584297666658e-11 5.842970005529976e-11 3.2120988807677635e-11 3.371088412938011e-10
          1.5999771882122492e-10 3.9321797847749295e-11 7.740066084111481e-11 2.3151035082302974e-11 4.5597095071725005e-11 2.5031808854872855e-11
          4.598125334178769e-11 2.677466845132438e-11 2.002132942440208e-10 1.1869695236707066e-10 1.3232869461381187e-11 2.5992035273132037e-11
          7.438989009679613e-12 1.4342393407438473e-11 8.37097491489541e-12 1.5213973917726734e-11 8.50893879332523e-12 6.781455185172523e-11
          9.765964909091833e-9 9.325638947521913e-9 6.384942312660433e-9 6.067813365757001e-9 8.023244462426333e-9 5.152278321027662e-9
          1.3930978780539144e-8 1.3588127174051179e-8 9.218661736774777e-9 1.2294444333766611e-8 3.897499224482566e-9 3.689479557188454e-9
          3.101160588493628e-9 6.082346155418675e-9 5.850692654584947e-9 5.102226514857945e-9 6.057070914510917e-9 3.820482269589914e-9
          3.920935218215233e-9 2.428149154391441e-9 9.813340849913249e-9 6.379286073887044e-9 6.638948961949316e-9 2.2695803076778727e-9
          1.423767118762245e-9 3.877733632042505e-9 2.496872339706182e-9 1.525649358465693e-8 1.532895333211452e-8 1.0650663127810303e-8
          1.0645337388586236e-8 1.4748800261535029e-8 1.0086569407021686e-8 1.5135148475162872e-8 1.5473739172197185e-8 1.079911758545623e-8
          1.537443406130397e-8 1.249365693016094e-8 8.316069627155687e-9 8.85262235852017e-9 5.691154936711322e-9 1.3385477452646418e-8
          8.989037333589428e-9 9.680632775328478e-9 2.157968866624037e-9 1.3156719247244645e-9 1.0188093854475611e-9 6.138024369719725e-10
          3.742285071582611e-9 2.310028246324996e-9 1.7706104844875878e-9 4.226794893912947e-10 2.523529784279372e-10 5.1315186131082415e-9
          3.198314255146197e-9 2.4514106962417253e-9 1.4949611940017417e-9 5.682038198507035e-9 3.554449578924617e-9 2.7279760832194343e-9
          5.420080476112994e-10 1.643075480434138e-10 3.675925575788316e-10 1.4161770742049072e-9 9.31291549290458e-11 1.3403450489284046e-9
          1.5771699718798263e-10 1.8195719909544543e-10 2.2463527910281714e-10 2.1901727731103832e-10 5.381944353409833e-11 1.733707750600629e-10
          6.77182549394002e-11 2.583862270193258e-10 2.2087938999702733e-10 8.051294322583314e-11 3.1224777220271355e-10 6.982554806901949e-11
          8.702510030173863e-11 2.4128187310676876e-10 3.0137274898035195e-10 1.3921476344510262e-10 9.907272049920544e-11 1.852668001261373e-10
          2.378886254331079e-10 1.0221309660634446e-10 7.862333071388962e-9 2.8182791968663434e-9 2.606529369200067e-9 8.184229571928036e-9
          2.389331296368423e-10 1.6061273510264e-10 3.413675083911622e-11 7.810683274398583e-11 7.289918378878873e-11 9.397267758462997e-11
          4.915990137665957e-10 2.460490428808409e-10 4.76356949638267e-10 1.0292852921347505e-9 8.319184121431037e-10 7.913862460389912e-10
          9.840580035645113e-10 6.822049925790314e-10 3.4195275430205917e-9 3.2417793896618352e-9 2.760164614647016e-9 1.8135245048176964e-10
          5.346206797471279e-10 3.8212714351008476e-10 2.107484322947611e-9 1.4435899773471394e-9 1.0103785288209292e-8 7.688663972433909e-9
          7.2887636875479935e-9 9.601135535350936e-9 6.192244521082983e-9 8.217083706081176e-9 1.8759128565500898e-8 1.4255772261777889e-8
          1.355158283293523e-8 1.7852674496593258e-8 1.1587656297418285e-8 1.532551068153967e-8 4.68079974008464e-9 6.301476527382149e-9
          3.3658958545494744e-9 3.1259775596663975e-9 4.305057668567235e-9 2.2064687803421567e-9 8.810380415988881e-9 1.1752421031516205e-8
          5.8681643100964535e-9 9.851538436287771e-11 2.504000496508972e-10 1.5127882076622959e-10 8.952205629431847e-10 5.095526239129238e-10
          4.4116646391648075e-11 8.646219683139572e-11 6.259801868302886e-11 2.682568376799285e-10 9.837588596318188e-11 2.1036509867890933e-10
          1.8482305086064864e-9 2.618098914735341e-9 1.2790807170216924e-9 9.796629023907954e-10 1.4348866933684225e-9 6.629777444635015e-10
          3.3886183100635874e-9 1.707212767264571e-9 4.732110761585053e-10 7.187416742618298e-10 3.1205420384805317e-10 2.118215762717695e-10
          3.333576079090364e-10 1.359122303045132e-10 7.670058341351051e-10 2.5900915820536315e-8 2.4993906873737036e-8 2.208227604958386e-8
          3.189342857007155e-8 2.612386650464429e-8 2.581291450425214e-8 3.197105543254157e-8 2.4014797918013327e-8 3.078124558861906e-8
          1.7344326575012695e-8 1.1897136962986703e-8 1.9769315062365776e-8 2.6187852937585403e-8 1.3945960396693347e-8 1.885320575695484e-8
          2.468356063417389e-8 2.6033243835551e-8 2.7306409579777232e-8 2.1700528178491506e-8 2.4142168497832563e-8 2.7534231083743564e-8
          2.4519587446589765e-8 1.8088151541051746e-8 2.6020979822947746e-8 1.9621272731619333e-8 7.0382050696620765e-9 3.5597481047979954e-9
          8.32512780645373e-9 1.1491988593512577e-8 4.15964236715015e-9 5.929458504410962e-9 1.5623069141358076e-9 1.7653625089375636e-9
          2.594551068033709e-9 1.1100845434719492e-8 5.659920308664927e-9 1.2168926608698978e-8 6.2582820306267926e-9
        </DataArray>
        <DataArray type="Float64" Name="gradient_matprop_error" format="ascii" RangeMin="0" RangeMax="0">
          0 0 0 0 0 0
          0 0 0 0 0 0
          0 0 0 0 0 0
          0 0 0 0 0 0
          0 0 0 0 0 0
          0 0 0 0 0 0
          0 0 0 0 0 0
          0 0 0 0 0 0
          0 0 0 0 0 0
          0 0 0 0 0 0
          0 0 0 0 0 0
          0 0 0 0 0 0
          0 0 0 0 0 0
          0 0 0 0 0 0
          0 0 0 0 0 0
          0 0 0 0 0 0
          0 0 0 0 0 0
          0 0 0 0 0 0
          0 0 0 0 0 0
          0 0 0 0 0 0
          0 0 0 0 0 0
          0 0 0 0 0 0
          0 0 0 0 0 0
          0 0 0 0 0 0
          0 0 0 0 0 0
          0 0 0 0 0 0
          0 0 0 0 0 0
          0 0 0 0 0 0
          0 0 0 0 0 0
          0 0 0 0 0 0
          0 0 0 0 0 0
          0 0 0 0 0 0
          0 0 0 0 0 0
          0 0 0 0 0 0
          0 0 0 0 0 0
          0 0 0 0 0 0
          0 0 0 0 0 0
          0 0 0 0 0 0
          0 0 0 0 0 0
          0 0 0 0 0 0
          0 0 0 0 0 0
          0 0 0 0 0 0
          0 0 0 0 0 0
          0 0 0 0 0 0
          0 0 0 0 0 0
          0 0 0 0 0 0
          0 0 0 0 0 0
          0 0 0 0 0 0
          0 0 0 0 0 0
          0 0 0 0 0 0
          0 0 0 0 0 0
          0 0 0 0 0 0
          0 0 0 0 0 0
          0 0 0 0 0 0
          0 0 0 0 0 0
          0 0 0 0 0 0
          0 0 0 0 0 0
          0 0 0 0 0 0
          0 0 0 0 0 0
          0 0 0 0 0 0
          0 0 0 0 0 0
          0 0 0 0 0 0
          0 0 0 0 0 0
          0 0 0 0 0 0
          0 0 0 0 0 0
          0 0 0 0 0 0
          0 0 0 0 0 0
          0 0 0 0 0 0
          0 0 0 0 0 0
          0 0 0 0 0 0
          0 0 0 0 0 0
          0 0 0 0 0 0
          0 0 0 0 0 0
          0 0 0 0 0 0
          0 0 0 0 0 0
          0 0 0 0 0 0
          0 0 0 0 0 0
          0 0 0 0 0 0
          0 0 0 0 0 0
          0 0 0 0 0 0
          0 0 0 0 0 0
          0 0 0 0 0 0
          0 0 0 0 0 0
          0 0 0 0 0 0
          0 0 0 0 0 0
          0 0 0 0 0 0
          0 0 0 0 0 0
          0 0 0 0 0 0
          0 0 0 0 0 0
          0 0 0 0 0 0
          0 0 0 0 0 0
          0 0 0 0 0 0
          0 0 0 0 0 0
          0 0 0 0 0 0
          0 0 0 0 0 0
          0 0 0 0 0 0
          0 0 0 0 0 0
          0 0 0 0 0 0
          0 0 0 0 0
        </DataArray>
        <DataArray type="Float64" Name="initial_marker" format="ascii" RangeMin="0" RangeMax="2">
          2 1 0 1 0.25 2
          2 2 0 0 2 2
          0 0 0 0 0 0
          0 0 0 0 0 0
          0 0 1 1 2 2
          1 2 2 0.5 2 2
          2 0 1.75 0 1.5 0.25
          2 2 2 2 2 2
          2 0.5 0.25 2 2 0
          2 2 0 2 1.75 2
          2 2 2 0 1 0
          0.5 0 0 0 2 2
          2 2 2 2 2 2
          2 0 0 0 0 0
          0 0 0 0 0 0
          0 0 0 0 0 0
          0 0 0 0 0 0
          0 0 0 0 0 0
          0 0 0 0 0 0
          0 0 0 0 0 0
          0 0 2 2 2 2
          2 2 2 2 2 2
          2 2 2 2 2 2
          2 2 2 2 2 2
          2 2 2 2 2 2
          2 2 2 2 1.5 1.75
          1.5 2 2 2 2 2
          1.5 1.75 1 1.5 1.25 2
          2 2 2 2 2 2
          2 2 2 2 2 2
          2 2 2 2 2 2
          2 2 2 2 0.5 1.25
          0 1 0 1 1 2
          2 2 0 1 0 1
          0 1 1 2 2 2
          0 0.5 0 0.5 0 0
          0 1.5 1.6666666666666667 2 2 2
          2 2 2 2 2 2
          1.5 1.75 1 1.5 1.3333333333333333 2
          2 2 2 2 2 2
          2 2 2 2 2 2
          2 2 2 2 2 2
          2 2 2 2 2 2
          2 2 2 2 2 2
          2 2 2 2 1 1.5
          1.5 1.5 1.75 1.25 2 2
          2 2 0 0 1 1
          0 1 1 0 1 1
          2 2 2 2 0.5 1.25
          0 1 0 1 1 2
          2 2 0 1 0 1
          0 1 1 2 2 2
          2 2 2 2 2 2
          2 2 2 2 2 2
          2 2 2 2 2 2
          2 2 2 2 2 2
          2 2 2 2 2 2
          2 2 2 2 0 0.75
          0 0.5 0 0.5 0 1.75
          1.5 1.6666666666666667 0 0.5 0 0.5
          0 0 0 1.5 1.6666666666666667 1
          2 2 2 2 2 2
          2 2 2 1.75 1.5 2
          2 1 1.5 1 1.5 0
          1 1 2 2 0.5 1.25
          0 0.75 0 1 0.5 2
          2 2 2 2 2 2
          2 2 2 2 2 2
          2 2 2 2 2 2
          2 2 2 2 2 2
          2 2 2 2 2 2
          2 2 2 2 2 2
          2 2 2 2 2 2
          2 2 2 2 2 2
          2 2 2 2 2 2
          2 2 2 2 2 2
          0 0 0 0 0 0
          0 0 0 0 0 0
          0 0 0 0 0 0
          0.5 0 0 0 0 0
          0 0 1 1 1 1.3333333333333333
          1 1 0 0 0 0
          2 2 2 2 2 2
          2 2 2 2 2 2
          2 2 2 2 2 2
          2 2 2 2 2 2
          2 2 2 2 2 2
          2 2 2 2 2 2
          2 1 1.5 1 2 2
          0 0.5 0 1.5 0.6666666666666666 0.5
          2 2 2 2 2 2
          2 2 2 2 2 1.5
          1.5 1.5 2 2 2 2
          2 2 2 2 2 2
          2 2 2 2 2 2
          2 2 2 2 2 2
          2 2 2 2 2 2
          2 2 2 2 2 2
          2 2 2 2 2
        </DataArray>
        <DataArray type="Float64" Name="markers_norefine" format="ascii" RangeMin="0" RangeMax="1">
          0 0 0 0 0 0
          0 0 0 0 0 0
          0 0 0 0 0 0
          0 0 0 0 0 0
          0 0 0 0 0 0
          0 0 0 0 0 0
          0 0 0 0 0 0
          0 0 0 0 0 0
          0 0 0 0 0 0
          0 0 0 0 0 0
          0 0 0 0 0 0
          0 0 0 0 0 0
          0 0 0 0 0 0
          0 0 0 0 0 0
          0 0 0 0 0 0
          0 0 0 0 0 0
          0 0 0 0 0 0
          0 0 0 0 0 0
          0 0 0 0 0 0
          0 0 0 0 0 0
          0 0 0 0 0 0
          0 0 0 0 0 0
          0 0 0 0 0 0
          0 0 0 0 0 0
          0 0 0 0 0 0
          0 0 0 0 0 0
          0 0 0 0 0 0
          0 0 0 0 0 0
          0 0 0 0 0 0
          0 0 0 0 0 0
          0 0 0 0 0 0
          0 0 0 0 0 0
          0 0 0 0 0 0
          0 0 0 0 0 0
          0 0 0 0 0 0
          0 0 0 0 0 0
          0 0 0 0 0 0
          0 0 0 0 0 0
          0 0 0 0 0 0
          0 0 0 0 0 0
          0 0 0 0 0 0
          0 0 0 0 0 0
          0 0 0 0 0 0
          0 0 0 0 0 0
          0 0 0 0 0 0
          0 0 0 0 0 0
          0 0 0 0 0 0
          0 0 0 0 0 0
          0 0 0 0 0 0
          0 0 0 0 0 0
          0 0 0 0 0 0
          0 0 0 0 0 0
          0 0 0 0 0 0
          0 0 0 0 0 0
          0 0 0 0 0 0
          0 0 0 0 0 0
          0 0 0 0 0 0
          0 0 0 0 0 0
          0 0 0 0 0 0
          0 0 0 0 0 0
          0 0 0 0 0 0
          0 0 0 0 0 0
          0 0 0 0 0 0
          0 0 0 0 0 0
          0 0 0 0 0 0
          0 0 0 0 0 0
          0 0 0 0 0 0
          0 0 0 0 0 0
          0 0 0 0 0 0
          0 0 0 0 0 0
          0 0 0 0 0 0
          0 0 0 0 0 0
          0 0 0 0 0 0
          0 0 0 0 0 0
          0 0 0 0 0 0
          0 0 0 0 0 0
          0 0 0 0 0 0
          0 0 0 0 0 0
          0 0 0 0 0 0
          0 0 0 0 0 0
          0 0 0 0 0 0
          0 0 0 0 0 0
          0 0 0 0 0 0
          0 0 0 0 0 0
          0 0 0 0 0 0
          0 0 0 0 0 0
          0 0 0 0 0 0
          0 0 0 0 0 0
          0 0 0 0 0 0
          0 0 0 0 0 0
          0 0 0 0 0 0
          0 0 0 0 0 0
          0 0 0 0 0 0
          0.5 0 0 0.5 0 0.25
          0 0 0 0 0 0
          0.5 0.5 0.25 1 1 0.5
          0 0 0 0 0 0
          0 0 0 0 0 0
          0 0 0 0 0
        </DataArray>
        <DataArray type="Float64" Name="markers_mustrefine" format="ascii" RangeMin="0" RangeMax="2">
          2 1 0 1 0.25 2
          2 2 0 0 2 2
          0 0 0 0 0 0
          0 0 0 0 0 0
          0 0 1 1 2 2
          1 2 2 0.5 2 2
          2 0 1.75 0 1.5 0.25
          2 2 2 2 2 2
          2 0.5 0.25 2 2 0
          2 2 0 2 1.75 2
          2 2 2 0 1 0
          0.5 0 0 0 2 2
          2 2 2 2 2 2
          2 0 0 0 0 0
          0 0 0 0 0 0
          0 0 0 0 0 0
          0 0 0 0 0 0
          0 0 0 0 0 0
          0 0 0 0 0 0
          0 0 0 0 0 0
          0 0 2 2 2 2
          2 2 2 2 2 2
          2 2 2 2 2 2
          2 2 2 2 2 2
          2 2 2 2 2 2
          2 2 2 2 1.5 1.75
          1.5 2 2 2 2 2
          1.5 1.75 1 1.5 1.25 2
          2 2 2 2 2 2
          2 2 2 2 2 2
          2 2 2 2 2 2
          2 2 2 2 0.5 1.25
          0 1 0 1 1 2
          2 2 0 1 0 1
          0 1 1 2 2 2
          0 0.5 0 0.5 0 0
          0 1.5 1.6666666666666667 2 2 2
          2 2 2 2 2 2
          1.5 1.75 1 1.5 1.3333333333333333 2
          2 2 2 2 2 2
          2 2 2 2 2 2
          2 2 2 2 2 2
          2 2 2 2 2 2
          2 2 2 2 2 2
          2 2 2 2 1 1.5
          1.5 1.5 1.75 1.25 2 2
          2 2 0 0 1 1
          0 1 1 0 1 1
          2 2 2 2 0.5 1.25
          0 1 0 1 1 2
          2 2 0 1 0 1
          0 1 1 2 2 2
          2 2 2 2 2 2
          2 2 2 2 2 2
          2 2 2 2 2 2
          2 2 2 2 2 2
          2 2 2 2 2 2
          2 2 2 2 0 0.75
          0 0.5 0 0.5 0 1.75
          1.5 1.6666666666666667 0 0.5 0 0.5
          0 0 0 1.5 1.6666666666666667 1
          2 2 2 2 2 2
          2 2 2 1.75 1.5 2
          2 1 1.5 1 1.5 0
          1 1 2 2 0.5 1.25
          0 0.75 0 1 0.5 2
          2 2 2 2 2 2
          2 2 2 2 2 2
          2 2 2 2 2 2
          2 2 2 2 2 2
          2 2 2 2 2 2
          2 2 2 2 2 2
          2 2 2 2 2 2
          2 2 2 2 2 2
          2 2 2 2 2 2
          2 2 2 2 2 2
          0 0 0 0 0 0
          0 0 0 0 0 0
          0 0 0 0 0 0
          0.5 0 0 0 0 0