<?xml version="1.0"?>
<VTKFile type="UnstructuredGrid" version="0.1" byte_order="LittleEndian" header_type="UInt32" compressor="vtkZLibDataCompressor">
  <UnstructuredGrid>
    <Piece NumberOfPoints="434" NumberOfCells="208">
      <PointData>
        <DataArray type="Int32" Name="libmesh_node_id" format="ascii" RangeMin="87" RangeMax="3342">
          114 141 142 156 169 170
          171 172 183 184 192 193
          194 195 197 201 203 204
          205 207 236 237 238 239
          240 241 242 244 245 246
          247 248 250 251 252 253
          254 321 322 323 325 326
          327 328 329 330 331 332
          333 334 349 350 351 352
          353 354 355 359 360 361
          363 364 365 366 367 368
          369 370 371 372 373 374
          375 376 421 422 423 424
          425 426 427 428 429 430
          431 432 433 435 436 437
          438 439 440 441 442 443
          444 445 446 447 448 449
          450 451 452 453 454 455
          456 457 458 459 460 461
          462 463 464 465 466 467
          468 469 633 635 638 640
          652 653 654 655 656 657
          658 659 660 661 682 683
          684 685 686 687 688 689
          690 691 692 693 694 695
          696 697 698 699 700 701
          702 703 704 705 706 707
          708 709 710 711 763 764
          765 766 767 768 769 770
          771 772 773 774 775 776
          777 778 779 780 781 782
          783 784 785 786 787 788
          789 790 791 792 793 794
          796 801 803 828 829 832
          834 835 837 848 850 852
          854 862 863 866 868 869
          871 882 884 886 888 1292
          1293 1294 1295 1296 1297 1298
          1463 1467 1468 1470 1471 1472
          1473 1474 1475 1476 1479 1481
          1482 1484 3205 3206 3207 3208
          3209 3210 3211 3212 3213 3214
          3257 3258 3259 3260 3261 3262
          3263 3264 3265 3266 3267 3268
          3269 3271 3272 3273 3274 3275
          3276 3277 3278 3279 3280 3281
          3282 3283 3284 3285 3286 3287
          3288 3289 3290 3291 3292 3293
          3294 3295 3296 3297 3298 3301
          3302 3303 3304 3305 3306 3307
          3309 3310 3311 3312 3313 3314
          3315 3316 3317 3318 3319 3320
          3321 3322 3323 3324 3325 3326
          3327 3328 3329 3330 3331 3332
          3333 3334 3335 3336 3337 3338
          3339 3340 3341 3342 87 89
          90 88 116 117 115 130
          129 144 157 143 189 190
          191 199 200 196 146 198
          202 145 356 357 358 362
          243 379 380 255 256 434
          470 471 472 473 474 475
          476 477 478 479 481 516
          517 500 518 519 505 526
          527 632 634 636 637 639
          338 173 346 641 398 249
          400 405 206 408 524 714
          715 795 830 831 833 496
          836 497 802 849 851 853
          864 865 867 870 503 883
          885 887 713 720 1469 1477
          1478 1480 502 1483 299 300
          303 309
        </DataArray>
        <DataArray type="Float64" Name="bounds" format="ascii" RangeMin="0" RangeMax="0">
          0 0 0 0 0 0
          0 0 0 0 0 0
          0 0 0 0 0 0
          0 0 0 0 0 0
          0 0 0 0 0 0
          0 0 0 0 0 0
          0 0 0 0 0 0
          0 0 0 0 0 0
          0 0 0 0 0 0
          0 0 0 0 0 0
          0 0 0 0 0 0
          0 0 0 0 0 0
          0 0 0 0 0 0
          0 0 0 0 0 0
          0 0 0 0 0 0
          0 0 0 0 0 0
          0 0 0 0 0 0
          0 0 0 0 0 0
          0 0 0 0 0 0
          0 0 0 0 0 0
          0 0 0 0 0 0
          0 0 0 0 0 0
          0 0 0 0 0 0
          0 0 0 0 0 0
          0 0 0 0 0 0
          0 0 0 0 0 0
          0 0 0 0 0 0
          0 0 0 0 0 0
          0 0 0 0 0 0
          0 0 0 0 0 0
          0 0 0 0 0 0
          0 0 0 0 0 0
          0 0 0 0 0 0
          0 0 0 0 0 0
          0 0 0 0 0 0
          0 0 0 0 0 0
          0 0 0 0 0 0
          0 0 0 0 0 0
          0 0 0 0 0 0
          0 0 0 0 0 0
          0 0 0 0 0 0
          0 0 0 0 0 0
          0 0 0 0 0 0
          0 0 0 0 0 0
          0 0 0 0 0 0
          0 0 0 0 0 0
          0 0 0 0 0 0
          0 0 0 0 0 0
          0 0 0 0 0 0
          0 0 0 0 0 0
          0 0 0 0 0 0
          0 0 0 0 0 0
          0 0 0 0 0 0
          0 0 0 0 0 0
          0 0 0 0 0 0
          0 0 0 0 0 0
          0 0 0 0 0 0
          0 0 0 0 0 0
          0 0 0 0 0 0
          0 0 0 0 0 0
          0 0 0 0 0 0
          0 0 0 0 0 0
          0 0 0 0 0 0
          0 0 0 0 0 0
          0 0 0 0 0 0
          0 0 0 0 0 0
          0 0 0 0 0 0
          0 0 0 0 0 0
          0 0 0 0 0 0
          0 0 0 0 0 0
          0 0 0 0 0 0
          0 0 0 0 0 0
          0 0
        </DataArray>
        <DataArray type="Float64" Name="gradient_error" format="ascii" RangeMin="3.502227684016634e-9" RangeMax="0.000001971883976143341">
          2.3543728762017648e-8 1.7565083319398192e-7 2.7750679272248137e-7 3.577629435467953e-8 1.957340081684792e-7 0.0000015513398582473203
          6.613061842419216e-7 3.016566109916626e-7 3.877127418048231e-8 3.007610435238385e-8 0.0000014523731343681133 0.000001136818982516599
          9.3018129074677e-7 0.000001009899043258002 2.0921810206818664e-7 4.6900064566664636e-7 2.2995823248245347e-7 0.0000011625754234394494
          0.0000014882654321109132 6.231505670420035e-7 2.618767067452988e-7 3.24142893655997e-7 8.618198870439701e-7 7.861014004571451e-7
          4.665353914279344e-7 4.6947861434395493e-7 9.80828857560469e-7 4.4686636851759376e-7 3.2917680360941637e-7 3.11629139022056e-7
          3.245080580841034e-7 8.682473148340683e-7 3.4713663055315193e-7 4.775693005302612e-7 7.994547737532445e-7 4.486428422079103e-7
          2.6142996405515943e-7 1.7447986661734895e-7 2.7416659240131013e-7 3.2816391658918496e-7 9.068097218736778e-7 6.421929493442827e-7
          6.705965397468782e-7 2.812215235939044e-7 2.767364314552763e-7 3.382913946733644e-7 0.0000010408908888105758 9.281194977071604e-7
          7.938573709999215e-7 1.8400835921424912e-7 1.0148536709793749e-7 8.159732601116906e-8 1.2741903549397318e-7 2.4034010080240033e-7
          2.0097934168804013e-7 1.5514078348710396e-7 1.8723027100504325e-7 6.17092849244006e-8 1.0930222528616781e-7 1.341204412076862e-7
          0.000001941059749652349 0.000001589389978692826 0.0000010898230438026126 0.0000016396873498205919 0.0000014731144343432986 0.0000015365642564038829
          0.000001555419893441487 0.000001237720207733303 0.0000016048020919383219 0.0000011042194103695955 9.837201881680507e-7 0.000001489550972355759
          0.0000016543765043796263 0.000001971883976143341 2.103208505753626e-7 1.9044181408441098e-7 2.0660798227881122e-7 3.220161656638906e-7
          3.3565358854349616e-7 3.024297434890445e-7 2.9317363569162747e-7 1.6934713569466564e-7 3.4508961853524226e-7 3.056761117569211e-7
          1.3914684504690176e-7 2.1452947457095386e-7 2.310048449638053e-7 5.418266544305406e-7 5.08683882555664e-7 4.458395559622495e-7
          4.068514605637602e-7 3.8183025691245465e-7 4.0382671876376356e-7 3.881688093064481e-7 3.5874106616188155e-7 3.0779460220474575e-7
          3.576283871155312e-7 4.0272511220459394e-7 3.4819128903544787e-7 4.297275896468472e-7 4.751326853215518e-7 3.485660306094924e-7
          3.928282223295733e-7 3.629236825341764e-7 4.510202574766052e-7 2.7700112305669065e-7 3.639944855017667e-7 3.125516974207412e-7
          4.383255478230483e-7 4.1299038527380527e-7 5.373905872135004e-7 5.758158141144573e-7 3.5107791360502763e-7 3.6781012066568427e-7
          5.133674449524105e-7 4.0573256361608857e-7 4.521141920775495e-7 5.486815360112647e-7 3.594058815215676e-7 5.529864801749177e-7
          1.6136215715364098e-7 1.412416395319787e-7 1.515217100638925e-8 5.7783073588849856e-8 1.7551701517434168e-8 1.0041397617131046e-7
          1.1000511115854833e-7 1.3590008324548767e-7 1.5689183864348312e-7 1.908305853505107e-7 6.347236982763875e-8 8.44619176717679e-8
          1.3158165130513528e-7 2.0377856612841787e-7 2.4576108745553376e-7 1.0545146551589706e-7 2.461247798294073e-7 2.2642576904737704e-7
          2.38717015448666e-7 3.007588160739419e-7 3.0776128309128135e-7 2.80653824376426e-7 2.736392263170008e-7 2.0672675826534677e-7
          2.535463656615707e-7 2.465196365600597e-7 2.5467337244814697e-7 2.486050095752675e-7 2.828352375669457e-7 2.7656711310749854e-7
          2.30618381050764e-7 2.933298531303054e-7 2.0867045276608198e-7 2.2783586776840155e-7 2.415391303447678e-7 2.0515697230365675e-7
          3.1099710268574436e-7 3.0452921663972947e-7 3.231891986684789e-7 2.4700128277072107e-7 2.1275453489281897e-7 2.991626172358116e-7
          1.3738966664151617e-7 1.8583138558221631e-7 3.3259959117547987e-7 2.0447510194610415e-7 3.240559775107713e-7 3.173455786116219e-7
          2.78388361751108e-7 2.6651545783262e-7 2.764467332602684e-7 2.984350320382742e-7 2.734763345588286e-7 3.1063517971247246e-7
          3.2042333081627995e-7 2.8043721128503716e-7 2.2883748900976552e-7 2.7952448546492645e-7 2.685643073665492e-7 3.3021148192008744e-7
          9.911435564888112e-8 1.0599447698004917e-7 1.0249476978025593e-7 9.615470688347083e-8 1.0028605992705935e-7 7.73573377289623e-8
          8.561626417795642e-8 7.791817716943384e-8 9.769973952271297e-8 8.999146543334554e-8 9.312193333195743e-8 1.0291398239416329e-7
          9.154693072142688e-8 1.0565941612052294e-7 1.0174326868328857e-7 1.097945438225705e-7 1.0961118231048431e-7 1.0513753039283817e-7
          9.395145780954988e-8 7.883491031377607e-8 7.043078348364442e-8 1.1244794011974888e-7 1.0976821856442186e-7 1.0209665180673154e-7
          1.0916017207567915e-7 1.1072682891881411e-7 1.1193529207337718e-7 8.812817394563559e-8 7.915154128690292e-8 1.0320317443374756e-7
          9.482925048268981e-8 7.630915428621468e-8 9.293254521433689e-8 1.1433572894470441e-7 4.9438507247536546e-8 7.902532796209711e-8
          1.1504271954656767e-7 1.1268827040645146e-7 1.064383504917725e-7 1.163916295229029e-7 1.1109049910832681e-7 8.187869851379399e-8
          9.556103794510183e-8 1.2083106250164438e-7 1.3023758295656502e-7 5.6026484527243814e-8 8.180907429597384e-8 9.612284246044288e-8
          1.2146795115583373e-8 1.2367241318990763e-8 1.2440122054615126e-8 1.2513002790239487e-8 1.2357302864674031e-8 1.228970619935537e-8
          1.2222109534036707e-8 1.2432617283127367e-8 1.0997478051283712e-8 1.1788090410544498e-8 1.2578702769805283e-8 9.62771478357666e-9
          1.113605876647387e-8 1.264440274937108e-8 2.2475075928190392e-8 1.4443628824044982e-8 1.9699977927297704e-8 7.163261660497941e-8
          6.329372571846066e-8 3.958580814261859e-8 4.6204511192293495e-8 6.412181719899571e-9 1.5877890566776522e-8 2.0776405779607583e-8
          1.5323972713975033e-8 2.482090106844438e-8 4.218270916200024e-8 5.677538963611053e-8 7.288477497391657e-9 1.788548661881851e-8
          2.4663700930268607e-8 6.904144561002544e-8 8.872987820377668e-8 2.8482495740245362e-8 2.3659521042026887e-7 2.079127455382507e-7
          2.1337556083507844e-7 3.992473895150121e-7 3.4433599624219113e-7 3.5223753365802705e-7 2.08548124485661e-7 3.874058658871438e-7
          3.2997076047263754e-7 1.7923028065623256e-7 2.8942460296937026e-7 3.0040070049527437e-7 2.725356550581314e-7 8.398665385329338e-7
          7.546823448835533e-7 7.083978197347942e-7 8.006800355687214e-7 5.837410941199772e-7 2.708963952452471e-7 2.2154690340508182e-7
          3.669663200391084e-7 3.0762378005140897e-7 2.319256022275947e-7 3.5434064146249744e-7 2.9423408431436887e-7 1.7219741156491655e-7
          2.482812400637095e-7 2.3412752716624024e-7 9.773943402803801e-7 8.451806394136529e-7 5.867357631526466e-7 0.0000010139662535919454
          8.938022084403973e-7 0.0000011622729792548055 0.0000011604933423793917 7.67481094350129e-7 7.200555021974479e-7 8.143067176207607e-7
          9.993270643629157e-7 8.619082838921815e-7 0.0000011710200100809548 8.59160010161546e-7 0.0000013753738565747307 0.0000013418289341633687
          8.589260708734543e-7 0.0000012589952774216715 0.000001386997246197167 9.999310312991898e-7 2.994581109702757e-7 3.107852488282467e-7
          3.592114542737664e-7 3.671411930894381e-7 2.8186697719266957e-7 3.443100353492547e-7 1.8668924204896516e-7 2.1875976155533954e-7
          2.2500671089742564e-7 2.1872034096096627e-7 4.18964797577257e-7 4.2349713735062944e-7 4.067530935058399e-7 2.508302810617139e-7
          2.564572854952388e-7 3.2064648990443105e-7 2.415931587531114e-7 3.0635337312816915e-7 1.78641158626389e-7 2.3172484981395951e-7
          2.423533892723158e-7 3.8483569431362337e-7 3.711135875032269e-7 2.8480854100153003e-7 1.062377315309213e-8 5.397317651437092e-9
          4.802432457204752e-9 8.842683900039358e-9 1.7407025555882573e-8 1.3540536630199196e-8 2.4902474912807374e-8 2.062927472986493e-8
          3.619588851087858e-8 1.7008871992937892e-7 1.9927722351632558e-8 6.439705765040882e-7 6.070519457695933e-7 3.910185272307748e-7
          4.626752932107548e-7 1.3588165520002897e-7 3.9780740347097625e-7 6.130448510096294e-8 4.668741753710243e-8 1.0215317289515591e-7
          6.076733295696786e-8 4.2194488527378605e-8 2.212946123110333e-8 1.2487814546338413e-7 9.549029672095467e-8 6.61024479785252e-8
          1.4189269973372191e-7 6.427773381192568e-8 4.941097721548082e-8 1.2365362230709313e-7 8.085594882716145e-8 2.0611849803901738e-7
          3.437789574783612e-7 2.9782641628696966e-7 1.0779856757152605e-7 3.2240543537431656e-7 2.726195916975424e-7 9.267142847227043e-8
          1.8797059081066628e-7 1.5989634505497927e-7 3.2423549970362797e-7 2.7820596476184777e-7 2.511873495861705e-7 1.8118065413512492e-7
          2.0197089645693803e-7 2.6683584161002167e-7 2.817130246143389e-7 2.97021843647544e-7 3.097734584671242e-7 3.2384251421656243e-7
          3.351309384873211e-7 1.2309701408579223e-8 5.367797104381555e-8 3.502227684016634e-9 1.6044365124037098e-8 9.504624067905187e-8
          2.114813132047457e-8 4.2427529157065094e-8 3.670619935718915e-8 2.858650256405756e-8 6.543372943808634e-8 1.3842866246656144e-7
          9.468025488454459e-8 2.3341153995028433e-8 2.0270408740065578e-7 1.239267803310028e-7 1.615214714599329e-7 8.41342009822551e-8
          1.0265536315880687e-7 1.1719793746438625e-7 1.2796258244087936e-7 1.2533756997094831e-7 1.1404011705617433e-7 9.927180691269216e-8
          1.1713728916691334e-7 1.3112278813132184e-7 8.189130851900437e-8 9.357047472661931e-8 8.17732728419073e-8 1.1416959980056546e-7
          3.7855185040937565e-8 8.627628426377143e-8 1.357949486110566e-7 7.11108729259253e-8 1.3542381859008332e-7 1.2695164801825886e-7
          1.1595210122304845e-7 1.3081373736962106e-7 6.028168221150452e-8 5.9336335218178826e-8 1.3595291336242454e-8 8.575080544437208e-9
          1.0572485615774302e-8 1.2569890687111397e-8 5.904588660936267e-9 8.937927067842052e-9 1.565397680103597e-8 1.0138214909775157e-7
          5.9524140617640016e-8 1.7666132137528455e-8
        </DataArray>
        <DataArray type="Float64" Name="gradient_matprop_error" format="ascii" RangeMin="0" RangeMax="0">
          0 0 0 0 0 0
          0 0 0 0 0 0
          0 0 0 0 0 0
          0 0 0 0 0 0
          0 0 0 0 0 0
          0 0 0 0 0 0
          0 0 0 0 0 0
          0 0 0 0 0 0
          0 0 0 0 0 0
          0 0 0 0 0 0
          0 0 0 0 0 0
          0 0 0 0 0 0
          0 0 0 0 0 0
          0 0 0 0 0 0
          0 0 0 0 0 0
          0 0 0 0 0 0
          0 0 0 0 0 0
          0 0 0 0 0 0
          0 0 0 0 0 0
          0 0 0 0 0 0
          0 0 0 0 0 0
          0 0 0 0 0 0
          0 0 0 0 0 0
          0 0 0 0 0 0
          0 0 0 0 0 0
          0 0 0 0 0 0
          0 0 0 0 0 0
          0 0 0 0 0 0
          0 0 0 0 0 0
          0 0 0 0 0 0
          0 0 0 0 0 0
          0 0 0 0 0 0
          0 0 0 0 0 0
          0 0 0 0 0 0
          0 0 0 0 0 0
          0 0 0 0 0 0
          0 0 0 0 0 0
          0 0 0 0 0 0
          0 0 0 0 0 0
          0 0 0 0 0 0
          0 0 0 0 0 0
          0 0 0 0 0 0
          0 0 0 0 0 0
          0 0 0 0 0 0
          0 0 0 0 0 0
          0 0 0 0 0 0
          0 0 0 0 0 0
          0 0 0 0 0 0
          0 0 0 0 0 0
          0 0 0 0 0 0
          0 0 0 0 0 0
          0 0 0 0 0 0
          0 0 0 0 0 0
          0 0 0 0 0 0
          0 0 0 0 0 0
          0 0 0 0 0 0
          0 0 0 0 0 0
          0 0 0 0 0 0
          0 0 0 0 0 0
          0 0 0 0 0 0
          0 0 0 0 0 0
          0 0 0 0 0 0
          0 0 0 0 0 0
          0 0 0 0 0 0
          0 0 0 0 0 0
          0 0 0 0 0 0
          0 0 0 0 0 0
          0 0 0 0 0 0
          0 0 0 0 0 0
          0 0 0 0 0 0
          0 0 0 0 0 0
          0 0 0 0 0 0
          0 0
        </DataArray>
        <DataArray type="Float64" Name="initial_marker" format="ascii" RangeMin="0" RangeMax="2">
          0 0 0 0 0 0
          0 2 0 0 0 0
          0 0 0 0 1 0
          0 0 0 0 0 0.5
          1 0.5 0 2 0.5 0
          0 0 2 1 0 1
          0 0 0 0 0 0
          0 0 0 0 0 0
          0 0 0 0 0 0
          0 0 0 0 0 0
          0 0 0 0 0 0
          0 0 0 0 0 0
          0 0 0 0 0 0
          0.5 0.25 0 0 1 0.75
          0 0 0 1.5 1.25 1
          1.75 0.5 1 0.75 0.3333333333333333 1
          2 1.5 0.5 2 2 0.3333333333333333
          0.5 0 1 2 1.5 0.5
          2 0.5 2 2 2 2
          1 1 2 2 2 1
          0 0 0 0 0 0
          0 0 0 0 0 0
          0 0 0 0 0 0
          0 0 0 0 0 0
          0 0 0 0 0 0
          0 0 0 0 0 0
          0 0 0 0 0 0
          0 0 0 0 0 0
          0 0 0 0 0 0
          0 0 0 0 0 0
          2 2 2 2 2 1
          1.5 1 2 2 2 2
          2 2 2 2 2 2
          2 1 0 2 2 2
          2 2 2 1.5 1 2
          2 2 2 2 2 2
          2 2 2 2 2 0
          0 0 0 0 0 0
          2 2 2 2 2 2
          2 2 2 2 2 2
          2 2 0 0 0 0
          0 0 0 0 0 0
          0 0 0 0 0 0
          0 0 0 0 0 0
          0 0 0 0 0 0
          0 0 0 0 0 0
          0 0 0 0 0 0
          0 0 0 0 0 0
          0 0 0 0 0 0
          0 0 0 0 0 0
          0 0 0 0 0 0
          0 0 0 0 0 0
          0 0 0 0 0 0
          0 0 0 0 0 0
          0 0 0 0 0 0
          0 0 0 0 0 0
          0 0 0 0 0 0
          0 0 0 0 0 0
          0 0 0 0 0 0
          0 0 0 0 0 0
          0 0 0 0 0 0.25
          1 1 0 1 1 0
          0.5 0.5 2 2 0.75 0
          0 1.25 0.25 0 1.5 0.5
          0 0 0 0 0 0
          0 0 0 0 0 0
          0 0 0 0 0 0
          0 2 2 2 2 2
          2 2 1.5 1.75 1.5 2
          2 2 2 2 2 2
          2 2 0 0 2 2
          2 2 2 2 0 0
          0 0
        </DataArray>
        <DataArray type="Float64" Name="markers_norefine" format="ascii" RangeMin="0" RangeMax="2">
          0 0 0 0 0 0
          0 0 0 0 0 0
          0 0 0 0 0 0
          0 0 0 0 0 0
          0 0 0 0 0 0
          0 0 0 0 0 0
          0 0 0 0 0 0
          0 0 0 0 0 0
          0 0 0 0 0 0
          0 0 0 0 0 0
          0 0 0 0 0 0
          0 0 0 0 0 0
          0 0 0 0 0 0
          0 0 0 0 0 0
          0 0 0 0 0 0
          0 0 0 0 0 0
          0 0 0 0 0 0
          0 0 0 0 0 0
          0 0 0 0 0 0
          0 0 0 0 0 0
          0 0 0 0 0 0
          0 0 0 0 0 0
          0 0 0 0 0 0
          0 0 0 0 0 0
          0 0 0 0 0 0
          0 0 0 0 0 0
          0 0 0 0 0 0
          0 0 0 0 0 0
          0 0 0 0 0 0
          0 0 0 0 0 0
          0 0 0 0 0 0
          0 0 0 0 0 0
          0 0 0 0 0 0
          0 0 0 0 0 0
          0 0 0 0 0 0
          0 0 0 0 0 0
          0 0 0 0 0 0
          0 0 0 0 0 0
          0 1 0.5 0 0 0
          0 0 1 0.75 0.5 1
          1 1 0 0 0 0
          0 0 0 0 0 0
          0 0 0 0 0 0
          0 0 0 0 0 0
          0 0 0 0 0 0
          0 0 0 0 0 0
          0 0 0 0 0 0
          0 0 0 0 0 0
          0 0 0 0 0 0
          0 0 0 0 0 0
          0 0 0 0 0 0
          0 0 0 0 0 0
          0 0 0 0 0 0
          0 0 0 0 0 0
          0 0 0 0 0 0
          0 0 0 0 0 0
          0 0 0 0 0 0
          0 0 0 0 0 0
          0 0 0 0 0 0
          0 0 0 0 0 0
          0 0 0 0 0 0
          0 0 0 0 0 0
          0 0 0 0 0 0
          0 0 0 0 0 0
          0 0 0 0 0 0
          0 0 0 0 0 0
          0 0 0 0 0 0
          0 0 0 0 0 0
          0 0 0 0 0 0
          1 0.25 0 1 0 0
          0 0 0 0 1 2
          1.75 1.5 2 2 0 0
          0 0
        </DataArray>
        <DataArray type="Float64" Name="markers_mustrefine" format="ascii" RangeMin="0" RangeMax="2">
          0 0 0 0 0 0
          0 2 0 0 0 0
          0 0 0 0 1 0
          0 0 0 0 0 0.5
          1 0.5 0 2 0.5 0
          0 0 2 1 0 1
          0 0 0 0 0 0
          0 0 0 0 0 0
          0 0 0 0 0 0
          0 0 0 0 0 0
          0 0 0 0 0 0
          0 0 0 0 0 0
          0 0 0 0 0 0
          0.5 0.25 0 0 1 0.75
          0 0 0 1.5 1.25 1
          1.75 0.5 1 0.75 0.3333333333333333 1
          2 1.5 0.5 2 2 0.3333333333333333
          0.5 0 1 2 1.5 0.5
          2 0.5 2 2 2 2
          1 1 2 2 2 1
          0 0 0 0 0 0
          0 0 0 0 0 0
          0 0 0 0 0 0
          0 0 0 0 0 0
          0 0 0 0 0 0
          0 0 0 0 0 0
          0 0 0 0 0 0
          0 0 0 0 0 0
          0 0 0 0 0 0
          0 0 0 0 0 0
          2 2 2 2 2 1
          1.5 1 2 2 2 2
          2 2 2 2 2 2
          2 1 0 2 2 2
          2 2 2 1.5 1 2
          2 2 2 2 2 2
          2 2 2 2 2 0
          0 0 0 0 0 0
          2 2 2 2 2 2
          2 2 2 2 2 2
          2 2 0 0 0 0
          0 0 0 0 0 0
          0 0 0 0 0 0
          0 0 0 0 0 0
          0 0 0 0 0 0
          0 0 0 0 0 0
          0 0 0 0 0 0
          0 0 0 0 0 0
          0 0 0 0 0 0
          0 0 0 0 0 0
          0 0 0 0 0 0
          0 0 0 0 0 0
          0 0 0 0 0 0
          0 0 0 0 0 0
          0 0 0 0 0 0
          0 0 0 0 0 0
          0 0 0 0 0 0
          0 0 0 0 0 0
          0 0 0 0 0 0
          0 0 0 0 0 0
          0 0 0 0 0 0.25
          1 1 0 1 1 0
          0.5 0.5 2 2 0.75 0
          0 1.25 0.25 0 1.5 0.5
          0 0 0 0 0 0
          0 0 0 0 0 0
          0 0 0 0 0 0
          0 2 2 2 2 2
          2 2 1.5 1.75 1.5 2
          2 2 2 2 2 2
          2 2 0 0 2 2
          2 2 2 2 0 0
          0 0
        </DataArray>
        <DataArray type="Float64" Name="gradient_marker" format="ascii" RangeMin="0" RangeMax="1">
          1 1 1 1 1 1
          1 0.5 1 1 1 1
          1 1 1 1 1 1
          1 1 1 1 1 1
          1 1 1 1 0.875 0.8333333333333334
          1 1 1 1 1 1
          1 1 1 1 1 1
          1 1 1 1 1 1
          1 1 1 1 1 1
          1 1 1 1 1 1
          1 1 1 1 1 1
          1 1 1 1 1 1
          1 1 1 1 1 1
          1 1 1 1 1 1
          0.75 0.875 1 1 1 1
          0.75 1 1 1 1 1
          1 1 1 1 1 1
          1 1 1 1 1 1
          1 1 1 1 0.75 0.875
          1 0.75 1 1 0.75 1
          1 1 1 1 1 1
          1 1 1 1 1 1
          1 1 1 1 1 1
          1 1 1 1 1 1
          1 1 1 1 1 1
          1 1 1 1 1 1
          1 1 1 1 0.875 1
          0.75 1 1 1 1 1
          1 1 1 1 1 1
          1 1 1 1 1 1
          0.5 1 0.75 0.5 0.5 0
          0.25 0 0.5 0 0 0.5
          0 0.75 0.5 1 1 0.75
          0.25 0 0 1 0.875 0.625
          0.75 0.75 0.875 0.25 0 0.625
          0.25 0.25 0.375 0.75 0 0.25
          0.75 0.875 0.75 1 1 0.25
          0.5 0.5 0.75 0 0.25 0.5
          0 0 0 0 0 0
          0 0 0 0 0 0
          0 0 1 1 1 1
          1 1 1 1 1 1
          1 1 1 1 1 1
          1 1 1 1 1 1
          1 1 1 1 1 1
          1 1 1 1 1 1
          1 1 1 1 1 1
          1 1 1 1 1 1
          1 1 1 1 1 1
          1 1 1 1 1 1
          1 1 1 1 1 1
          1 1 1 1 1 1
          1 1 1 1 1 1
          1 1 1 1 1 1
          1 1 1 1 1 1
          1 1 1 1 1 1
          1 1 1 1 1 1
          1 1 1 1 1 1
          1 1 1 1 1 0.75
          1 1 1 1 1 1
          0.75 1 1 1 0.625 0.75
          1 1 0.75 1 0.875 0.5
          0.75 0.625 1 0.75 0.75 0.625
          0.75 0.75 0.875 1 1 1
          1 1 1 1 1 1
          1 1 1 1 1 0.75
          1 1 1 1 1 0.25
          0.25 1 1 1 0.75 0.75
          0.875 1 0 0.25 0 0.75
          0.25 0.625 1 0.5 1 1
          1 1 0 0 0 0
          0 0 0 0 1 1
          1 1
        </DataArray>
        <DataArray type="Float64" Name="gradient_matprop_marker" format="ascii" RangeMin="0" RangeMax="0">
          0 0 0 0 0 0
          0 0 0 0 0 0
          0 0 0 0 0 0
          0 0 0 0 0 0
          0 0 0 0 0 0
          0 0 0 0 0 0
          0 0 0 0 0 0
          0 0 0 0 0 0
          0 0 0 0 0 0
          0 0 0 0 0 0
          0 0 0 0 0 0
          0 0 0 0 0 0
          0 0 0 0 0 0
          0 0 0 0 0 0
          0 0 0 0 0 0
          0 0 0 0 0 0
          0 0 0 0 0 0
          0 0 0 0 0 0
          0 0 0 0 0 0
          0 0 0 0 0 0
          0 0 0 0 0 0
          0 0 0 0 0 0
          0 0 0 0 0 0
          0 0 0 0 0 0
          0 0 0 0 0 0
          0 0 0 0 0 0
          0 0 0 0 0 0
          0 0 0 0 0 0
          0 0 0 0 0 0
          0 0 0 0 0 0
          0 0 0 0 0 0
          0 0 0 0 0 0
          0 0 0 0 0 0
          0 0 0 0 0 0
          0 0 0 0 0 0
          0 0 0 0 0 0
          0 0 0 0 0 0
          0 0 0 0 0 0
          0 0 0 0 0 0
          0 0 0 0 0 0
          0 0 0 0 0 0
          0 0 0 0 0 0
          0 0 0 0 0 0
          0 0 0 0 0 0
          0 0 0 0 0 0
          0 0 0 0 0 0
          0 0 0 0 0 0
          0 0 0 0 0 0
          0 0 0 0 0 0
          0 0 0 0 0 0
          0 0 0 0 0 0
          0 0 0 0 0 0
          0 0 0 0 0 0
          0 0 0 0 0 0
          0 0 0 0 0 0
          0 0 0 0 0 0
          0 0 0 0 0 0
          0 0 0 0 0 0
          0 0 0 0 0 0
          0 0 0 0 0 0
          0 0 0 0 0 0
          0 0 0 0 0 0
          0 0 0 0 0 0
          0 0 0 0 0 0
          0 0 0 0 0 0
          0 0 0 0 0 0
          0 0 0 0 0 0
          0 0 0 0 0 0
          0 0 0 0 0 0
          0 0 0 0 0 0
          0 0 0 0 0 0
          0 0 0 0 0 0
          0 0
        </DataArray>
        <DataArray type="Float64" Name="combo" format="ascii" RangeMin="0" RangeMax="2">
          1 1 1 1 1 1
          1 0.5 1 1 1 1
          1 1 1 1 1 1
          1 1 1 1 1 1
          1 1 1 1 0.875 0.8333333333333334
          1 1 1 1 1 1
          1 1 1 1 1 1
          1 1 1 1 1 1
          1 1 1 1 1 1
          1 1 1 1 1 1
          1 1 1 1 1 1
          1 1 1 1 1 1
          1 1 1 1 1 1
          1 1 1 1 1 1
          0.75 0.875 1 1 1 1
          0.75 1 1 1 1 1
          1 1 1 1 1 1
          1 1 1 1 1 1
          1 1 1 1 0.75 0.875
          1 0.75 1 1 0.75 1
          1 1 1 1 1 1
          1 1 1 1 1 1
          1 1 1 1 1 1
          1 1 1 1 1 1
          1 1 1 1 1 1
          1 1 1 1 1 1
          1 1 1 1 0.875 1
          0.75 1 1 1 1 1
          1 1 1 1 1 1
          1 1 1 1 1 1
          0.5 1 0.75 0.5 0.5 0
          0.25 0 0.5 0 0 0.5
          0 0.75 0.5 1 1 0.75
          0.25 0 0 1 0.875 0.625
          0.75 0.75 0.875 0.25 0 0.625
          0.25 0.25 0.375 0.75 0 0.25
          0.75 0.875 0.75 1 1 0.25
          0.5 0.5 0.75 0 0.25 0.5
          0 1 0.5 0 0 0
          0 0 1 0.75 0.5 1
          1 1 1 1 1 1
          1 1 1 1 1 1
          1 1 1 1 1 1
          1 1 1 1 1 1
          1 1 1 1 1 1
          1 1 1 1 1 1
          1 1 1 1 1 1
          1 1 1 1 1 1
          1 1 1 1 1 1
          1 1 1 1 1 1
          1 1 1 1 1 1
          1 1 1 1 1 1
          1 1 1 1 1 1
          1 1 1 1 1 1
          1 1 1 1 1 1
          1 1 1 1 1 1
          1 1 1 1 1 1
          1 1 1 1 1 1
          1 1 1 1 1 0.75
          1 1 1 1 1 1
          0.75 1 1 1 0.625 0.75
          1 1 0.75 1 0.875 0.5
          0.75 0.625 1 0.75 0.75 0.625
          0.75 0.75 0.875 1 1 1
          1 1 1 1 1 1
          1 1 1 1 1 0.75
          1 1 1 1 1 0.25
          0.25 1 1 1 0.75 0.75
          0.875 1 0 0.25 0 0.75
          1.25 0.875 1 1.5 1 1
          1 1 0 0 1 2
          1.75 1.5 2 2 1 1
          1 1
        </DataArray>
        <DataArray type="Float64" Name="dHdT" format="ascii" RangeMin="25.797425769608267" RangeMax="121.69819115179195">
          25.809144204668712 25.99431521515485 25.870398414106994 25.812727550858934 26.01049806886573 33.933287337750826
          25.971135313252535 37.70328680227995 25.807600799727147 25.81556581902594 28.048279276438866 27.6512879895019
          26.404127604816367 26.55907767264989 26.714068465390437 25.90721574337958 38.93605760980633 27.657490109629645
          28.077799059818446 25.931395699394646 27.07294517904154 26.692438154598698 27.454699094835536 33.50854255206733
          34.13033232378812 30.36434005051681 30.17675498725747 34.075515855826005 29.65824542301491 26.30011775499504
          26.685773556739292 27.45851561249953 37.53217707307424 33.980291791699685 33.46644286480638 33.758684990178864
          27.048052190334378 25.94482178642873 25.898952206847138 25.93670373053227 28.133128927421943 26.72774604503201
          26.82216976279828 25.867312299213157 25.9029255311346 25.94242350540585 32.21233266891609 28.173783346825267
          28.111454508271578 25.956410244163273 25.865331956143308 25.86032939520063 25.890264252774067 26.16088378550471
          26.08431788776129 26.021623062351125 26.08082396431702 25.85532683425795 25.958928236940974 26.000764143129338
          29.700864737731585 28.617194784656835 27.942461726044517 31.738108095765647 32.29853179833633 30.126615369019575
          30.171022145020437 27.533524831582085 28.630019739022323 27.961894446490614 36.44370060583111 32.308944320373676
          31.756440554853505 29.726514646462565 27.60773732583648 27.386259327911375 27.617653085600608 29.80706838817618
          29.662189559512274 29.04924757402805 29.23179190904292 27.123510721602457 29.410369286217502 28.78128517499275
          26.90601138494697 27.82580584234354 28.223497117261974 34.000872052911305 32.9231452906681 33.06261779158686
          32.825406304432924 30.271116935236613 34.11165053865139 33.036612081642225 33.55396200908563 37.619746164401946
          37.373762723981535 36.26222610516436 36.24388062980066 37.01064574150096 36.110076901438546 31.308876210421957
          32.98149295981207 33.51987563079811 32.972363356290224 38.23208413723785 37.32295746463201 37.587458480295254