<?xml version="1.0"?>
<VTKFile type="UnstructuredGrid" version="0.1" byte_order="LittleEndian" header_type="UInt32" compressor="vtkZLibDataCompressor">
  <UnstructuredGrid>
    <Piece NumberOfPoints="496" NumberOfCells="286">
      <PointData>
        <DataArray type="Int32" Name="libmesh_node_id" format="ascii" RangeMin="404" RangeMax="4573">
          503 615 622 754 1067 1069
          1070 1071 1072 1073 1076 1077
          1078 1079 1080 1455 1456 1459
          1461 1477 1478 1479 1480 1481
          1482 1483 1484 1485 1486 1487
          1488 1489 1490 2119 2120 2121
          2122 2123 2124 2125 2128 2129
          2130 2131 2133 2134 2135 2136
          2137 2138 2139 2140 2141 2142
          2143 2144 2145 2146 2149 2150
          2153 2155 2157 2158 2159 2160
          2162 2163 2164 2165 2167 2168
          2169 2170 2171 2172 2173 2174
          2175 2176 2178 2180 2182 2184
          2185 2186 2187 2188 2189 2190
          2191 2192 2193 2315 2316 2317
          2318 2319 2320 2321 2404 2405
          2406 2407 2408 2409 2410 2411
          2412 2413 2414 2415 2416 2417
          4260 4261 4262 4263 4264 4265
          4266 4267 4268 4269 4270 4271
          4272 4273 4274 4275 4276 4277
          4278 4279 4280 4281 4282 4283
          4284 4285 4286 4287 4288 4289
          4290 4291 4295 4296 4298 4299
          4300 4301 4302 4303 4304 4305
          4306 4307 4308 4309 4310 4311
          4312 4313 4314 4315 4316 4317
          4318 4319 4320 4321 4322 4323
          4324 4325 4326 4327 4328 4329
          4330 4331 4342 4343 4344 4345
          4346 4347 4348 4349 4350 4351
          4352 4353 4354 4355 4356 4357
          4358 4359 4360 4361 4362 4363
          4364 4365 4366 4367 4368 4369
          4370 4371 4372 4373 4376 4377
          4379 4380 4381 4382 4383 4384
          4385 4386 4387 4388 4389 4390
          4391 4392 4393 4394 4395 4396
          4397 4398 4399 4400 4401 4402
          4403 4404 4405 4406 4407 4410
          4411 4413 4414 4415 4416 4417
          4418 4419 4420 4421 4422 4423
          4424 4425 4426 4427 4428 4429
          4430 4431 4432 4433 4434 4435
          4436 4437 4438 4439 4440 4441
          4442 4443 4444 4445 4446 4447
          4448 4449 4450 4451 4452 4453
          4454 4455 4456 4457 4458 4459
          4460 4461 4462 4463 4464 4465
          4466 4467 4468 4469 4470 4471
          4472 4473 4474 4475 4476 4477
          4478 4479 4480 4481 4482 4483
          4484 4485 4486 4487 4488 4489
          4490 4491 4492 4493 4494 4502
          4503 4504 4505 4506 4507 4508
          4519 4520 4521 4522 4523 4524
          4525 4526 4527 4528 4536 4537
          4538 4539 4540 4541 4542 4550
          4551 4552 4553 4554 4555 4556
          4557 4558 4559 4560 4561 4562
          4563 4564 4565 4566 4567 4568
          4569 4570 4571 4572 4573 495
          744 745 614 746 747 616
          749 750 404 756 755 752
          619 757 504 1438 1445 1446
          1439 612 1068 1057 1448 1449
          1452 1451 1074 1453 1075 1454
          1457 1458 1460 1462 2055 2056
          2057 2126 2127 2060 2147 2148
          2151 2152 2154 2156 2396 2394
          2179 2397 2395 2183 2402 2401
          3855 3889 3890 3892 1058 3895
          2063 3875 3905 4292 4293 3907
          4294 3909 4297 1059 2132 4334
          4335 4338 4340 4092 4093 4095
          2097 4098 2098 4108 4374 4110
          4375 4112 4378 2100 2161 4126
          4127 4129 620 4132 2103 4142
          4408 4144 4409 4146 4412 1065
          2166 4496 4498 4500 2177 4511
          4512 4515 4517 4530 4532 4534
          2181 4544 4546 4548
        </DataArray>
        <DataArray type="Float64" Name="bounds" format="ascii" RangeMin="0" RangeMax="0">
          0 0 0 0 0 0
          0 0 0 0 0 0
          0 0 0 0 0 0
          0 0 0 0 0 0
          0 0 0 0 0 0
          0 0 0 0 0 0
          0 0 0 0 0 0
          0 0 0 0 0 0
          0 0 0 0 0 0
          0 0 0 0 0 0
          0 0 0 0 0 0
          0 0 0 0 0 0
          0 0 0 0 0 0
          0 0 0 0 0 0
          0 0 0 0 0 0
          0 0 0 0 0 0
          0 0 0 0 0 0
          0 0 0 0 0 0
          0 0 0 0 0 0
          0 0 0 0 0 0
          0 0 0 0 0 0
          0 0 0 0 0 0
          0 0 0 0 0 0
          0 0 0 0 0 0
          0 0 0 0 0 0
          0 0 0 0 0 0
          0 0 0 0 0 0
          0 0 0 0 0 0
          0 0 0 0 0 0
          0 0 0 0 0 0
          0 0 0 0 0 0
          0 0 0 0 0 0
          0 0 0 0 0 0
          0 0 0 0 0 0
          0 0 0 0 0 0
          0 0 0 0 0 0
          0 0 0 0 0 0
          0 0 0 0 0 0
          0 0 0 0 0 0
          0 0 0 0 0 0
          0 0 0 0 0 0
          0 0 0 0 0 0
          0 0 0 0 0 0
          0 0 0 0 0 0
          0 0 0 0 0 0
          0 0 0 0 0 0
          0 0 0 0 0 0
          0 0 0 0 0 0
          0 0 0 0 0 0
          0 0 0 0 0 0
          0 0 0 0 0 0
          0 0 0 0 0 0
          0 0 0 0 0 0
          0 0 0 0 0 0
          0 0 0 0 0 0
          0 0 0 0 0 0
          0 0 0 0 0 0
          0 0 0 0 0 0
          0 0 0 0 0 0
          0 0 0 0 0 0
          0 0 0 0 0 0
          0 0 0 0 0 0
          0 0 0 0 0 0
          0 0 0 0 0 0
          0 0 0 0 0 0
          0 0 0 0 0 0
          0 0 0 0 0 0
          0 0 0 0 0 0
          0 0 0 0 0 0
          0 0 0 0 0 0
          0 0 0 0 0 0
          0 0 0 0 0 0
          0 0 0 0 0 0
          0 0 0 0 0 0
          0 0 0 0 0 0
          0 0 0 0 0 0
          0 0 0 0 0 0
          0 0 0 0 0 0
          0 0 0 0 0 0
          0 0 0 0 0 0
          0 0 0 0 0 0
          0 0 0 0 0 0
          0 0 0 0
        </DataArray>
        <DataArray type="Float64" Name="gradient_error" format="ascii" RangeMin="4.150735960419562e-13" RangeMax="2.552402870169229e-9">
          4.472928183768956e-12 2.0487553048772875e-12 5.374714017757373e-12 9.006836789646032e-13 7.087943252653536e-12 2.2936423750615493e-11
          8.412162933309655e-12 1.7049250258736942e-12 2.6622515091307128e-12 2.699968817426225e-12 3.6159908808101565e-12 1.265041682358688e-10
          4.5162173503121566e-11 5.366333680714357e-12 9.635209249951979e-12 3.2873899628557997e-12 4.376752501746407e-12 2.761699936891765e-12
          5.466115040637013e-12 1.5350675750186607e-12 1.2271821381336705e-12 1.206225686054993e-12 1.6828927936264293e-12 4.3974428382603086e-13
          7.223287572300161e-13 6.883499848381464e-13 9.1929670124868e-13 2.187799615138093e-12 6.543712124462767e-13 1.138524642067786e-12
          2.2422898361620043e-12 9.36955685850262e-13 3.4563025290275052e-12 3.255820536034788e-11 2.7751927928915506e-11 2.540441579678126e-11
          2.1064713992338085e-11 7.816469754449553e-12 6.432563122555956e-12 5.387656066109514e-12 3.959155297552683e-12 1.195818084993457e-10
          9.100570471335682e-11 1.7544139738508554e-11 1.8738764710116433e-12 1.622416335261258e-12 2.233741770631457e-12 1.8765053749623134e-12
          4.978739770266301e-13 2.3283008393022034e-12 1.9604903823797198e-12 1.043947827428707e-12 1.9442086608251954e-12 1.1988638890051426e-12
          4.3985786088606586e-12 3.4468996079399415e-12 2.1923224556016464e-12 2.989469852589212e-12 2.3667728990460096e-12 3.65042480530061e-12
          3.767560843513189e-12 4.891118139862497e-12 4.595730704720568e-10 3.576226010446336e-10 8.750665593158386e-11 6.762291590659883e-11
          2.932608105342805e-11 6.454489292802488e-10 5.29444658099369e-10 1.0130123307013964e-10 1.3516729458513575e-11 1.0433568069964387e-11
          3.2550258909116177e-12 2.617434804082114e-12 6.058189362721727e-12 3.843942451626128e-12 1.9845787306578525e-11 1.5659956213424154e-11
          3.590462158854918e-12 8.881758753575428e-12 9.177115177398701e-12 7.756892566925272e-12 1.335253804760763e-11 3.2135182686263747e-12
          5.7269275524385385e-12 2.165399222906865e-12 4.937910563373944e-12 2.8363744931589955e-12 6.3920801586250725e-12 2.088116616796457e-12
          7.661834167108615e-12 6.488497269898761e-12 8.39149060710522e-12 6.462319124844944e-13 1.647931243778623e-12 4.150735960419562e-13
          6.792740925032804e-13 5.755243696224475e-13 9.27801822897757e-13 5.535003324535115e-13 1.7651119711230304e-12 1.499168731370538e-12
          2.471980842127451e-12 2.087488922371078e-12 6.716985871915835e-13 9.893188600484986e-13 9.0595539672263e-13 1.2332254916180458e-12
          1.7029970026147052e-12 8.225919333967613e-13 3.178849713131871e-12 2.675809113371618e-12 1.1402122062536766e-12 2.1727685136113646e-12
          3.9085573215167004e-11 3.6814938141572505e-11 8.685947367904217e-11 8.139372793709431e-11 1.7199297268770963e-11 4.09966318544432e-11
          3.843548220681126e-11 3.065281083710561e-11 6.691953517255266e-11 3.1665037475053506e-11 2.5396859382770516e-10 2.372489580004929e-10
          1.1172459644087936e-10 1.930995941833987e-10 8.297966747267544e-12 7.821509829169394e-12 1.8551640107930242e-11 1.7404497813956506e-11
          3.499600222257213e-12 8.057206622228042e-12 7.56489005102578e-12 6.5719478906638334e-12 1.4379597464787144e-11 6.2774215040847635e-12
          5.3627014925998014e-11 5.01263973863615e-11 2.1454489591355776e-11 4.089308589981388e-11 2.2632446563138723e-11 4.8342285948934224e-11
          1.0735700070170462e-11 2.2978713654257893e-11 1.3662028708966682e-10 6.45388127287953e-11 4.983503696831382e-12 1.0491020016071941e-11
          2.302570206322559e-12 4.589398004607534e-12 3.424932973075773e-12 6.757322308302224e-12 3.4875472607215003e-12 2.912268085382581e-11
          1.2528793261512649e-11 1.8109139121971504e-11 1.6578777944372913e-12 1.562465826812563e-12 3.332215704418809e-12 3.1318222162042702e-12
          9.927346286521197e-13 1.8954710953935887e-12 1.784364922351532e-12 1.3221695271730587e-12 2.6121340421608477e-12 1.4914256853276155e-12
          9.366869219263114e-12 8.768432495819099e-12 4.201984177231592e-12 7.194714007234831e-12 1.0627278009850897e-12 1.927268368746798e-12
          6.856048099312013e-13 1.140154178672361e-12 9.481704068118964e-13 1.5616973811616318e-12 9.70715735998966e-13 5.1417093600750105e-12
          2.4977326557348388e-12 3.8135070787121534e-12 2.1721624931209763e-12 3.885722192847363e-12 1.4710850518832882e-12 2.4241198549626494e-12
          1.6626235634967499e-12 2.7370003916426404e-12 1.7786508894989058e-12 9.895102414409476e-12 5.238365726197294e-12 5.771146152242094e-12
          5.73644582773945e-10 5.369065937272854e-10 2.7000164378003617e-10 2.5253706099642784e-10 4.3798905817768544e-10 2.057587702771105e-10
          9.677549613510447e-10 9.132811903253708e-10 4.3274693480223045e-10 7.583523138089745e-10 1.2053787161770542e-10 1.1271292024203441e-10
          5.116626756525308e-11 4.784961577855844e-11 9.183208252428519e-11 3.9021271436473846e-11 2.0606918522683586e-10 1.9374399726274153e-10
          8.219134433732241e-11 1.5963828696717913e-10 3.084344079054324e-10 1.4490379777814098e-10 5.415250892810733e-10 2.54397580472377e-10
          6.481652671126273e-11 2.7646002344630496e-11 3.9568899344665394e-11 1.6968370945230252e-11 1.1340953347914382e-10 4.8086508668190275e-11
          6.8900663030597e-11 1.245006470172656e-9 1.190624580116282e-9 6.000063810936548e-10 5.711873802283583e-10 1.0168198711102706e-9
          4.831155770833912e-10 1.3284883696786195e-9 1.2799745687680236e-9 6.181774871082041e-10 1.1099003020991658e-9 2.7191711101855554e-10
          2.579622661386246e-10 1.1632850671339127e-10 1.1007086351238195e-10 2.1666288708628517e-10 9.199840042850334e-11 2.943228784354472e-10
          2.8059706926185563e-10 1.2017947060431873e-10 2.3811444052606515e-10 7.438455417462e-10 3.5051818063104596e-10 8.223212718965143e-10
          3.881928976543747e-10 1.5641932955766008e-10 6.628857338882975e-11 9.561837026413262e-11 4.059329875676248e-11 1.7340582020721874e-10
          7.351477341040716e-11 1.0644464655598768e-10 2.0718359190898406e-11 1.93830122596121e-11 7.986380109721627e-12 7.476391547676617e-12
          1.5831756656672636e-11 6.122586001674805e-12 3.526805962436003e-11 3.310873257717786e-11 1.2685832634257126e-11 2.7222124016982185e-11
          1.9529122562726573e-12 1.830669256481502e-12 2.908410356953224e-12 2.725324405864887e-12 9.954911697674983e-13 1.5219749583812737e-12
          1.4281895251766226e-12 1.5108442767195547e-12 2.2436269687445125e-12 1.179194052303869e-12 4.9290147161521435e-12 4.622388536116743e-12
          2.3945742376431535e-12 3.806846054720217e-12 1.1264858840163167e-11 4.363851322105053e-12 6.921578945410145e-12 3.2208237053848058e-12
          1.9453827166054657e-11 7.464539421136784e-12 1.1907691067296045e-11 1.1134265787847407e-12 1.6100208233788348e-12 6.372090381071358e-13
          8.817695818472161e-13 9.135908608207188e-13 1.2750261640451959e-12 7.395551510586658e-13 2.699640931586103e-12 1.429337787857117e-12
          2.101352109813116e-12 4.713011940803931e-11 4.4508643283813224e-11 1.813303088859383e-11 1.7096518886359173e-11 3.70628821200129e-11
          1.4195890753743071e-11 5.143365312502948e-11 4.8730159546452706e-11 1.875917694173542e-11 4.085770006208567e-11 6.648007982753306e-12
          6.25252017228259e-12 3.4823300599387057e-12 3.267228997003861e-12 5.1778498567466795e-12 2.68502310821229e-12 7.301894990836114e-12
          6.880242827579968e-12 3.606197399307162e-12 5.7184172648223954e-12 2.678374778806604e-11 1.02552736334282e-11 1.6439030368253638e-11
          7.561879193641671e-12 2.969794914070758e-11 1.1359923858897439e-11 1.8273188052422924e-11 3.685072982225279e-12 1.9402703391814493e-12
          2.871478612769075e-12 1.5626223960073363e-12 4.07747916925128e-12 2.148195228235961e-12 3.176714473181591e-12 2.1090920862259303e-11
          9.105131992019816e-12 9.86942424313343e-12 5.215577397553159e-12 3.616250194909419e-11 1.5518965242268385e-11 1.6541399082111888e-11
          2.931974779944252e-12 4.160333177615633e-12 1.948450663421061e-12 2.6242900547530795e-12 1.8643037824117574e-12 2.4827181444707357e-12
          1.7137437203591238e-12 6.732629295171937e-12 4.1011163870252e-12 3.867440585691129e-12 4.997096375413087e-11 2.1378729126471222e-11
          2.2541816092373507e-11 1.1815965406446761e-11 5.560784239834675e-11 2.376082049217037e-11 2.498865188832122e-11 8.982360729187973e-12
          5.4581742323115496e-12 5.1065824550687774e-12 3.397306188168601e-12 9.888154443319089e-12 6.014245136657796e-12 5.579416245285011e-12
          2.5490089121010005e-12 3.710584898189234e-12 1.51816942911823e-12 2.1204938415359222e-12 1.785469544176424e-12 2.491881600865031e-12
          1.4763838199016353e-12 6.247225805275225e-12 3.4735706493985594e-12 4.091881304098996e-12 8.567098158682423e-12 4.74708464398103e-12
          5.585034076551003e-12 3.166076994026593e-12 9.511905591091865e-12 5.269846243118556e-12 6.1845992024576534e-12 2.140462741117658e-12
          1.0479684317097045e-12 1.179520695055995e-12 5.531705239522233e-12 8.221956443968556e-13 1.5120648590140734e-12 4.212879511689408e-12
          5.679386896938988e-13 8.612480157255267e-13 1.0168982130803678e-12 1.1182845924833193e-12 1.9410843130439687e-12 2.1910958993929854e-12
          1.1659282621732729e-11 3.0711188403836846e-12 1.0608731848053835e-11 3.992309204402466e-12 2.9018579473983485e-12 2.727683697661346e-12
          3.7480389535994074e-12 1.9758635846085876e-11 4.6310928357044185e-12 1.791745643678207e-11 1.7770099483473296e-12 1.5804386447305306e-12
          1.3838673411137319e-12 2.553509447924343e-12 7.061813419840869e-12 9.570354909129709e-12 8.375888927523249e-12 7.666510827892191e-12
          3.598408334527763e-12 4.8334804092458375e-12 5.740912943686629e-12 6.068552483963912e-12 2.0346958061136982e-11 5.770867112826471e-11
          4.6217954100218674e-11 1.7312486153646954e-11 1.2256131418381596e-11 3.0528682322009365e-11 8.161467296530439e-12 1.1014557829673995e-11
          4.6436127832500945e-12 1.4479963960666802e-11 1.5495309978172037e-11 1.4951105434658566e-11 5.140857927567492e-12 1.0469844125666032e-11
          1.550334657488475e-11 6.373710122932842e-12 1.3502075295952401e-11 2.0454851421488356e-11 7.606562318298191e-12 1.653430646623877e-11
          5.678281593809613e-11 1.753844658685095e-10 1.642961096711085e-10 1.3495969473040468e-10 5.129465700543263e-10 4.792786805858159e-10
          3.9016406295600686e-10 3.5079683000585807e-11 9.728466785681312e-11 1.4956023078955166e-11 3.0865602396613174e-11 6.185568031492882e-11
          1.4751027837990376e-11 2.758397101504987e-10 8.421338655601984e-11 1.6961087727085906e-10 3.993992838126311e-11 4.477083310318579e-12
          8.423059327790343e-12 5.845747897188023e-12 2.169959941279844e-11 1.1529000016037843e-9 1.0803906686094065e-9 8.837651672150745e-10
          1.9169017654964e-9 1.814560784194155e-9 1.5174170383462935e-9 6.237416853292556e-10 1.8681001745791328e-10 3.7776533543976797e-10
          8.800290999141324e-11 1.0910958935295298e-9 3.2839807015600017e-10 6.641667100949971e-10 1.5422729385337538e-10 2.41747536172597e-9
          2.3256805667065994e-9 2.012166624680656e-9 2.552402870169229e-9 2.4782995200019364e-9 2.1844363225798834e-9 1.4902085526197082e-9
          4.563814290557011e-10 9.212522109188849e-10 2.1433436170198042e-10 1.6428416079795932e-9 5.0793516131746e-10 1.0242034839954718e-9
          2.386423779103748e-10 4.649481936963839e-11 2.1635970857089986e-11 8.02232927723023e-11 3.648387814861878e-11 6.319729013542421e-12
          9.043537161962426e-12 5.16148458107564e-12 1.4785470643490382e-11 1.1112961094330049e-10 4.986476812319441e-11 1.2377211160093838e-10
          5.533751637944113e-11 1.9826253604971297e-11 1.0687055904565285e-11 2.184891123334426e-11
        </DataArray>
        <DataArray type="Float64" Name="gradient_matprop_error" format="ascii" RangeMin="0" RangeMax="0">
          0 0 0 0 0 0
          0 0 0 0 0 0
          0 0 0 0 0 0
          0 0 0 0 0 0
          0 0 0 0 0 0
          0 0 0 0 0 0
          0 0 0 0 0 0
          0 0 0 0 0 0
          0 0 0 0 0 0
          0 0 0 0 0 0
          0 0 0 0 0 0
          0 0 0 0 0 0
          0 0 0 0 0 0
          0 0 0 0 0 0
          0 0 0 0 0 0
          0 0 0 0 0 0
          0 0 0 0 0 0
          0 0 0 0 0 0
          0 0 0 0 0 0
          0 0 0 0 0 0
          0 0 0 0 0 0
          0 0 0 0 0 0
          0 0 0 0 0 0
          0 0 0 0 0 0
          0 0 0 0 0 0
          0 0 0 0 0 0
          0 0 0 0 0 0
          0 0 0 0 0 0
          0 0 0 0 0 0
          0 0 0 0 0 0
          0 0 0 0 0 0
          0 0 0 0 0 0
          0 0 0 0 0 0
          0 0 0 0 0 0
          0 0 0 0 0 0
          0 0 0 0 0 0
          0 0 0 0 0 0
          0 0 0 0 0 0
          0 0 0 0 0 0
          0 0 0 0 0 0
          0 0 0 0 0 0
          0 0 0 0 0 0
          0 0 0 0 0 0
          0 0 0 0 0 0
          0 0 0 0 0 0
          0 0 0 0 0 0
          0 0 0 0 0 0
          0 0 0 0 0 0
          0 0 0 0 0 0
          0 0 0 0 0 0
          0 0 0 0 0 0
          0 0 0 0 0 0
          0 0 0 0 0 0
          0 0 0 0 0 0
          0 0 0 0 0 0
          0 0 0 0 0 0
          0 0 0 0 0 0
          0 0 0 0 0 0
          0 0 0 0 0 0
          0 0 0 0 0 0
          0 0 0 0 0 0
          0 0 0 0 0 0
          0 0 0 0 0 0
          0 0 0 0 0 0
          0 0 0 0 0 0
          0 0 0 0 0 0
          0 0 0 0 0 0
          0 0 0 0 0 0
          0 0 0 0 0 0
          0 0 0 0 0 0
          0 0 0 0 0 0
          0 0 0 0 0 0
          0 0 0 0 0 0
          0 0 0 0 0 0
          0 0 0 0 0 0
          0 0 0 0 0 0
          0 0 0 0 0 0
          0 0 0 0 0 0
          0 0 0 0 0 0
          0 0 0 0 0 0
          0 0 0 0 0 0
          0 0 0 0 0 0
          0 0 0 0
        </DataArray>
        <DataArray type="Float64" Name="initial_marker" format="ascii" RangeMin="0" RangeMax="2">
          1 0 0 0 0 2
          1 0 0 0 0 2
          2 0 0 0 0 0
          0 0 0 0 0 0
          0 0 0 0 0 0
          0 0 0 0 0 1
          1 0 0 0 0 2
          2 2 0 0 0 0
          0 0 0 0 0 0
          0.5 0.5 0 0 0 0
          0 0 2 2 2 2
          2 2 2 2 2 2
          0.5 0.5 1.25 0 2 2
          1 1.5 1 0 1.5 0
          0 0 0 0 0 0
          0 0 0 0 0 0
          0 0 0 0 0 0
          0 0 0 0 0 0
          0 0 0 0 0 0
          2 2 2 2 2 2
          2 2 2 2 2 2
          2 2 1 1 1.5 1.5
          0 1 1 1 1.5 1
          2 2 2 2 2 2
          1.5 1.75 2 2 0.5 1.25
          0 0.75 0 0.75 0.3333333333333333 2
          1.75 1.75 0 0 0.5 0.5
          0 0 0 0 0.5 0
          1.5 1.5 0.6666666666666666 1.5 0 0.25
          0 0 0 0 0 1
          0.3333333333333333 0.3333333333333333 0 0.25 0 0
          0 0 0 1 0.3333333333333333 0.3333333333333333
          2 2 2 2 2 2
          2 2 2 2 2 2
          2 2 2 2 2 2
          2 2 2 2 2 2
          2 2 2 1.75 2 2
          2 2 2 2 2 2
          2 2 2 2 2 2
          2 2 2 2 2 2
          2 2 2 2 2 2
          2 2 2 2 2 2
          2 2 2 2 1.5 1.5
          2 1.5 2 2 2 2
          0 0 0.5 0.5 0 0
          0 0 0.5 0 1.5 1.5
          1 1.5 1.75 1 1.25 0.6666666666666666
          2 1.75 2 0 0.25 0
          0 0 0 0 1 0.5
          0.5 2 2 2 2 2
          2 2 2 2 2 2
          2 2 2 2 2 2
          2 2 2 2 2 2
          2 2 2 2 1.5 1
          1 0 1.5 1 1 1.75
          1 1 0.3333333333333333 2 1.75 1.75
          0 0.25 0 0 0 0
          0 0.75 0.5 0 2 2
          2 2 2 2 2 1
          1 0 0 1 1 0
          0 0.5 0 0.5 0 0
          0 1.25 1 0.5 1.5 1
          1 0 1.5 1 1 0
          0 0 0 0 0 0
          0 0 0 0 0 0
          0 0 0 0 0 0
          0 0 0 0 0 0
          0 0 0 0 0 0
          0 0 0 0 0 1.5
          1.25 0 0.25 1 0 0
          0 0 0.75 0 0 0
          0.25 0 0 0.5 0 0
          2 2 2 2 2 2
          2 1.3333333333333333 2 1.5 1.75 2
          1.25 2 2 2 2 0
          0.5 0 1.5 2 2 2
          2 2 2 2 2 2
          2 2 2 2 2 2
          2 2 2 2 2 2
          2 2 2 2 2 2
          2 2 1.75 2 2 0.5
          0.75 0 1.25 2 2 2
          2 1.5 1 1.5
        </DataArray>
        <DataArray type="Float64" Name="markers_norefine" format="ascii" RangeMin="0" RangeMax="0">
          0 0 0 0 0 0
          0 0 0 0 0 0
          0 0 0 0 0 0
          0 0 0 0 0 0
          0 0 0 0 0 0
          0 0 0 0 0 0
          0 0 0 0 0 0
          0 0 0 0 0 0
          0 0 0 0 0 0
          0 0 0 0 0 0
          0 0 0 0 0 0
          0 0 0 0 0 0
          0 0 0 0 0 0
          0 0 0 0 0 0
          0 0 0 0 0 0
          0 0 0 0 0 0
          0 0 0 0 0 0
          0 0 0 0 0 0
          0 0 0 0 0 0
          0 0 0 0 0 0
          0 0 0 0 0 0
          0 0 0 0 0 0
          0 0 0 0 0 0
          0 0 0 0 0 0
          0 0 0 0 0 0
          0 0 0 0 0 0
          0 0 0 0 0 0
          0 0 0 0 0 0
          0 0 0 0 0 0
          0 0 0 0 0 0
          0 0 0 0 0 0
          0 0 0 0 0 0
          0 0 0 0 0 0
          0 0 0 0 0 0
          0 0 0 0 0 0
          0 0 0 0 0 0
          0 0 0 0 0 0
          0 0 0 0 0 0
          0 0 0 0 0 0
          0 0 0 0 0 0
          0 0 0 0 0 0
          0 0 0 0 0 0
          0 0 0 0 0 0
          0 0 0 0 0 0
          0 0 0 0 0 0
          0 0 0 0 0 0
          0 0 0 0 0 0
          0 0 0 0 0 0
          0 0 0 0 0 0
          0 0 0 0 0 0
          0 0 0 0 0 0
          0 0 0 0 0 0
          0 0 0 0 0 0
          0 0 0 0 0 0
          0 0 0 0 0 0
          0 0 0 0 0 0
          0 0 0 0 0 0
          0 0 0 0 0 0
          0 0 0 0 0 0
          0 0 0 0 0 0
          0 0 0 0 0 0
          0 0 0 0 0 0
          0 0 0 0 0 0
          0 0 0 0 0 0
          0 0 0 0 0 0
          0 0 0 0 0 0
          0 0 0 0 0 0
          0 0 0 0 0 0
          0 0 0 0 0 0
          0 0 0 0 0 0
          0 0 0 0 0 0
          0 0 0 0 0 0
          0 0 0 0 0 0
          0 0 0 0 0 0
          0 0 0 0 0 0
          0 0 0 0 0 0
          0 0 0 0 0 0
          0 0 0 0 0 0
          0 0 0 0 0 0
          0 0 0 0 0 0
          0 0 0 0 0 0
          0 0 0 0 0 0
          0 0 0 0
        </DataArray>
        <DataArray type="Float64" Name="markers_mustrefine" format="ascii" RangeMin="0" RangeMax="2">
          1 0 0 0 0 2
          1 0 0 0 0 2
          2 0 0 0 0 0
          0 0 0 0 0 0
          0 0 0 0 0 0
          0 0 0 0 0 1
          1 0 0 0 0 2
          2 2 0 0 0 0
          0 0 0 0 0 0
          0.5 0.5 0 0 0 0
          0 0 2 2 2 2
          2 2 2 2 2 2
          0.5 0.5 1.25 0 2 2
          1 1.5 1 0 1.5 0
          0 0 0 0 0 0
          0 0 0 0 0 0
          0 0 0 0 0 0
          0 0 0 0 0 0
          0 0 0 0 0 0
          2 2 2 2 2 2
          2 2 2 2 2 2
          2 2 1 1 1.5 1.5
          0 1 1 1 1.5 1
          2 2 2 2 2 2
          1.5 1.75 2 2 0.5 1.25
          0 0.75 0 0.75 0.3333333333333333 2
          1.75 1.75 0 0 0.5 0.5
          0 0 0 0 0.5 0
          1.5 1.5 0.6666666666666666 1.5 0 0.25
          0 0 0 0 0 1
          0.3333333333333333 0.3333333333333333 0 0.25 0 0
          0 0 0 1 0.3333333333333333 0.3333333333333333
          2 2 2 2 2 2
          2 2 2 2 2 2
          2 2 2 2 2 2
          2 2 2 2 2 2
          2 2 2 1.75 2 2
          2 2 2 2 2 2
          2 2 2 2 2 2
          2 2 2 2 2 2
          2 2 2 2 2 2
          2 2 2 2 2 2
          2 2 2 2 1.5 1.5
          2 1.5 2 2 2 2
          0 0 0.5 0.5 0 0
          0 0 0.5 0 1.5 1.5
          1 1.5 1.75 1 1.25 0.6666666666666666
          2 1.75 2 0 0.25 0
          0 0 0 0 1 0.5
          0.5 2 2 2 2 2
          2 2 2 2 2 2
          2 2 2 2 2 2
          2 2 2 2 2 2
          2 2 2 2 1.5 1
          1 0 1.5 1 1 1.75
          1 1 0.3333333333333333 2 1.75 1.75
          0 0.25 0 0 0 0
          0 0.75 0.5 0 2 2
          2 2 2 2 2 1
          1 0 0 1 1 0
          0 0.5 0 0.5 0 0
          0 1.25 1 0.5 1.5 1
          1 0 1.5 1 1 0
          0 0 0 0 0 0
          0 0 0 0 0 0
          0 0 0 0 0 0
          0 0 0 0 0 0
          0 0 0 0 0 0
          0 0 0 0 0 1.5
          1.25 0 0.25 1 0 0
          0 0 0.75 0 0 0
          0.25 0 0 0.5 0 0
          2 2 2 2 2 2
          2 1.3333333333333333 2 1.5 1.75 2
          1.25 2 2 2 2 0
          0.5 0 1.5 2 2 2
          2 2 2 2 2 2
          2 2 2 2 2 2
          2 2 2 2 2 2
          2 2 2 2 2 2
          2 2 1.75 2 2 0.5
          0.75 0 1.25 2 2 2
          2 1.5 1 1.5
        </DataArray>
        <DataArray type="Float64" Name="gradient_marker" format="ascii" RangeMin="1" RangeMax="1">
          1 1 1 1 1 1
          1 1 1 1 1 1
          1 1 1 1 1 1
          1 1 1 1 1 1
          1 1 1 1 1 1
          1 1 1 1 1 1
          1 1 1 1 1 1
          1 1 1 1 1 1
          1 1 1 1 1 1
          1 1 1 1 1 1
          1 1 1 1 1 1
          1 1 1 1 1 1
          1 1 1 1 1 1
          1 1 1 1 1 1
          1 1 1 1 1 1
          1 1 1 1 1 1
          1 1 1 1 1 1
          1 1 1 1 1 1
          1 1 1 1 1 1
          1 1 1 1 1 1
          1 1 1 1 1 1
          1 1 1 1 1 1
          1 1 1 1 1 1
          1 1 1 1 1 1
          1 1 1 1 1 1
          1 1 1 1 1 1
          1 1 1 1 1 1
          1 1 1 1 1 1
          1 1 1 1 1 1
          1 1 1 1 1 1
          1 1 1 1 1 1
          1 1 1 1 1 1
          1 1 1 1 1 1
          1 1 1 1 1 1
          1 1 1 1 1 1
          1 1 1 1 1 1
          1 1 1 1 1 1
          1 1 1 1 1 1
          1 1 1 1 1 1
          1 1 1 1 1 1
          1 1 1 1 1 1
          1 1 1 1 1 1
          1 1 1 1 1 1
          1 1 1 1 1 1
          1 1 1 1 1 1
          1 1 1 1 1 1
          1 1 1 1 1 1
          1 1 1 1 1 1
          1 1 1 1 1 1
          1 1 1 1 1 1
          1 1 1 1 1 1
          1 1 1 1 1 1
          1 1 1 1 1 1
          1 1 1 1 1 1
          1 1 1 1 1 1
          1 1 1 1 1 1
          1 1 1 1 1 1
          1 1 1 1 1 1
          1 1 1 1 1 1
          1 1 1 1 1 1
          1 1 1 1 1 1
          1 1 1 1 1 1
          1 1 1 1 1 1
          1 1 1 1 1 1
          1 1 1 1 1 1
          1 1 1 1 1 1
          1 1 1 1 1 1
          1 1 1 1 1 1
          1 1 1 1 1 1
          1 1 1 1 1 1
          1 1 1 1 1 1
          1 1 1 1 1 1
          1 1 1 1 1 1
          1 1 1 1 1 1
          1 1 1 1 1 1
          1 1 1 1 1 1
          1 1 1 1 1 1
          1 1 1 1 1 1
          1 1 1 1 1 1
          1 1 1 1 1 1
          1 1 1 1 1 1
          1 1 1 1 1 1
          1 1 1 1
        </DataArray>
        <DataArray type="Float64" Name="gradient_matprop_marker" format="ascii" RangeMin="0" RangeMax="0">
          0 0 0 0 0 0
          0 0 0 0 0 0
          0 0 0 0 0 0
          0 0 0 0 0 0
          0 0 0 0 0 0
          0 0 0 0 0 0
          0 0 0 0 0 0
          0 0 0 0 0 0
          0 0 0 0 0 0
          0 0 0 0 0 0
          0 0 0 0 0 0
          0 0 0 0 0 0
          0 0 0 0 0 0
          0 0 0 0 0 0
          0 0 0 0 0 0
          0 0 0 0 0 0
          0 0 0 0 0 0
          0 0 0 0 0 0
          0 0 0 0 0 0
          0 0 0 0 0 0
          0 0 0 0 0 0
          0 0 0 0 0 0
          0 0 0 0 0 0
          0 0 0 0 0 0
          0 0 0 0 0 0
          0 0 0 0 0 0
          0 0 0 0 0 0
          0 0 0 0 0 0
          0 0 0 0 0 0
          0 0 0 0 0 0
          0 0 0 0 0 0
          0 0 0 0 0 0
          0 0 0 0 0 0
          0 0 0 0 0 0
          0 0 0 0 0 0
          0 0 0 0 0 0
          0 0 0 0 0 0
          0 0 0 0 0 0
          0 0 0 0 0 0
          0 0 0 0 0 0
          0 0 0 0 0 0
          0 0 0 0 0 0
          0 0 0 0 0 0
          0 0 0 0 0 0
          0 0 0 0 0 0
          0 0 0 0 0 0
          0 0 0 0 0 0
          0 0 0 0 0 0
          0 0 0 0 0 0
          0 0 0 0 0 0
          0 0 0 0 0 0
          0 0 0 0 0 0
          0 0 0 0 0 0
          0 0 0 0 0 0
          0 0 0 0 0 0
          0 0 0 0 0 0
          0 0 0 0 0 0
          0 0 0 0 0 0
          0 0 0 0 0 0
          0 0 0 0 0 0
          0 0 0 0 0 0
          0 0 0 0 0 0
          0 0 0 0 0 0
          0 0 0 0 0 0
          0 0 0 0 0 0
          0 0 0 0 0 0
          0 0 0 0 0 0
          0 0 0 0 0 0
          0 0 0 0 0 0
          0 0 0 0 0 0
          0 0 0 0 0 0
          0 0 0 0 0 0
          0 0 0 0 0 0
          0 0 0 0 0 0
          0 0 0 0 0 0
          0 0 0 0 0 0
          0 0 0 0 0 0
          0 0 0 0 0 0
          0 0 0 0 0 0
          0 0 0 0 0 0
          0 0 0 0 0 0
          0 0 0 0 0 0
          0 0 0 0
        </DataArray>