<?xml version="1.0"?>
<VTKFile type="UnstructuredGrid" version="0.1" byte_order="LittleEndian" header_type="UInt32" compressor="vtkZLibDataCompressor">
  <UnstructuredGrid>
    <Piece NumberOfPoints="1247" NumberOfCells="813">
      <PointData>
        <DataArray type="Int32" Name="libmesh_node_id" format="ascii" RangeMin="2321" RangeMax="9100">
          2321 2436 2441 2444 2446 2601
          2604 2606 2612 2615 2617 2623
          2629 2630 2636 2637 2638 2639
          2640 2641 2642 2643 2644 2645
          2646 2647 2650 2651 2653 2655
          2969 2970 2971 2972 2973 2975
          2976 3005 3006 3007 3008 3009
          3010 3011 3012 3013 3014 3025
          3026 3027 3028 3029 3030 3031
          3032 3033 3034 3035 3036 3037
          3038 3039 3040 3041 3042 3043
          3044 3045 3046 3047 3048 3049
          3050 3051 3052 3053 3054 3275
          3277 3278 3282 3287 3290 3292
          3294 3295 3297 3301 3352 3354
          3358 3359 3362 3368 3502 3509
          3512 3513 3514 3515 3516 3524
          3525 3526 3537 3538 3539 3540
          3541 3542 3543 3551 3552 3553
          3554 3555 3556 3557 3558 3559
          3560 3561 3562 3563 3564 3565
          3566 3567 3568 3569 3570 3571
          3572 3573 3574 3575 3576 3577
          3578 3579 3580 3581 3589 3590
          3591 3592 3593 3594 3595 3596
          3597 3598 4036 4040 4046 4047
          4050 4052 4054 4055 4056 4057
          4058 4059 4060 4061 4062 4063
          4074 4079 4081 4083 4085 4086
          4087 4088 4089 4090 4091 4256
          4257 4258 4259 4260 4261 4262
          4263 4264 4265 4266 4267 4268
          4269 4270 4271 4272 4273 4274
          4275 4276 4277 4278 4279 4280
          4281 4282 4283 4284 4285 4286
          4287 4288 4289 4290 4291 4292
          4293 4294 4295 4296 4297 4298
          4299 4300 4301 4302 4303 4305
          4306 4307 4309 4310 4311 4312
          4313 4314 4315 4316 4317 4318
          4319 4321 4322 4323 4397 4399
          4400 4401 4402 4405 4406 4409
          4411 4412 4413 4414 4415 4416
          4417 4418 4419 4420 4421 4422
          4424 4425 4426 4428 4429 4430
          4431 4432 4433 4434 4435 4436
          4437 4438 4439 4440 4441 4442
          4443 4444 4445 4446 4447 4448
          4449 4450 4451 4452 4453 4454
          4455 4456 4457 4458 4459 4460
          4461 4462 4463 4464 4465 4466
          4467 4468 4469 4470 4471 4472
          4473 4474 4475 4476 4477 4478
          4479 4480 4481 4482 4483 4484
          4485 4486 4487 4488 4489 4490
          4491 4492 4493 4494 4495 4496
          4497 4498 4499 4500 4501 4502
          4503 4504 4505 4506 4507 4508
          4509 4510 5390 5406 5407 5410
          5413 5414 5417 5418 5419 5420
          5421 5422 5423 5424 5449 5450
          5451 5456 5457 5458 5493 5494
          5495 5496 5497 5498 5499 5500
          5501 5502 5503 5504 5505 5506
          5507 5508 5509 5510 5511 5512
          5513 5514 5515 5516 5517 5518
          5519 5520 6390 6406 6407 6410
          6412 6436 6438 6440 6462 6472
          6473 6476 6478 6482 6483 6486
          6488 6489 6490 6491 6492 6493
          6494 6495 6496 6497 6498 6499
          6501 6502 6503 6505 6506 6507
          6508 6509 6510 6511 6512 6513
          6514 6515 6516 6517 6518 6519
          6520 6521 6522 6523 6524 6525
          6526 6527 6528 6529 6530 6531
          6532 6533 6596 6598 6600 6624
          6626 6628 6636 6644 6646 6648
          6656 6664 6666 6668 6671 6672
          6673 6675 6676 6677 6678 6679
          6680 6681 6682 6683 6684 6685
          6686 6687 6688 6689 6690 6691
          6692 6693 6694 6695 6696 6697
          6699 6700 6701 6703 6704 6705
          6706 6707 6708 6709 6710 6711
          6712 6713 6714 6715 6716 6717
          6718 6719 6720 6721 6722 6723
          6724 6725 7826 7827 7828 7831
          7836 7837 7838 7841 7842 7843
          7844 7845 7846 7847 7848 7849
          7850 7851 7852 7853 7854 7855
          7856 7857 7858 7859 7860 7861
          7864 7865 7871 7872 7875 7876
          7877 7878 7879 7880 7881 7882
          7883 7884 7885 7886 7887 7888
          7889 7894 7895 7896 7899 7904
          7905 7906 7909 7910 7911 7912
          7913 7914 7915 7916 7917 7918
          7919 7920 7921 7922 7923 7924
          7925 7926 7927 7928 7929 7932
          7933 7936 7939 7940 7943 7944
          7945 7946 7947 7948 7949 7950
          7951 7952 7953 7954 7955 7956
          7957 7958 7959 7960 7961 7962
          7963 7964 7965 7966 7967 7968
          7969 7970 7971 7972 7973 7974
          7975 7976 7977 7978 7979 7980
          7981 7982 7983 7984 7985 7986
          7987 7988 7989 7990 7991 7992
          7993 7994 7995 7996 7997 7998
          7999 8000 8001 8002 8003 8004
          8005 8006 8007 8008 8009 8010
          8011 8012 8013 8014 8015 8016
          8017 8018 8019 8020 8021 8022
          8023 8024 8025 8026 8027 8028
          8029 8030 8031 8032 8033 8034
          8035 8036 8037 8038 8039 8040
          8041 8042 8043 8044 8045 8046
          8047 8048 8049 8050 8051 8052
          8053 8054 8055 8056 8057 8058
          8062 8068 8069 8072 8073 8074
          8075 8076 8077 8078 8079 8080
          8081 8082 8083 8084 8085 8086
          8090 8096 8097 8100 8101 8102
          8103 8104 8105 8106 8107 8108
          8109 8110 8111 8112 8113 8114
          8117 8118 8121 8124 8128 8129
          8130 8131 8132 8133 8134 8135
          8136 8137 8138 8139 8140 8141
          8142 8145 8146 8149 8152 8156
          8157 8158 8159 8160 8161 8162
          8163 8164 8165 8166 8167 8168
          8169 8170 8171 8172 8173 8174
          8175 8176 8177 8178 8179 8180
          8181 8182 8183 8184 8185 8186
          8187 8188 8189 8190 8191 8192
          8193 8194 8195 8196 8197 8198
          8199 8200 8201 8202 8203 8204
          8205 8206 8207 8208 8209 8210
          8211 8212 8213 8214 8215 8216
          8217 8218 8219 8220 8221 8222
          8223 8224 8225 8226 8227 8228
          8229 8230 8231 8232 8233 8234
          8235 8236 8237 8238 8239 8240
          8241 8242 8243 8244 8245 8246
          8247 8248 8249 8250 8251 8252
          8254 8255 8256 8257 8258 8259
          8260 8261 8262 8263 8264 8265
          8266 8267 8268 8269 8270 8271
          8272 8273 8274 8275 8276 8278
          8280 8282 8729 8730 8733 8735
          8737 8738 8739 8740 8741 8742
          8743 8744 8745 8746 8747 8748
          8749 8750 8751 8752 8753 8754
          8755 8756 8761 8763 8765 8771
          8772 8773 8774 8775 8776 8777
          8778 8779 8780 8785 8787 8789
          8792 8794 8795 8796 8797 8798
          8799 8800 8801 8802 8803 8804
          8805 8806 8807 8808 8809 8810
          8811 8812 8813 8814 8815 8816
          8817 8818 8819 8820 8821 8822
          8823 8824 8825 8826 8827 8828
          8829 8830 8831 8832 8833 8834
          8835 8836 8837 8838 8839 8840
          8841 8842 8843 8844 8845 8846
          8847 8848 8849 8850 8851 8852
          8853 8854 8855 8856 8857 8858
          8859 8860 8861 8862 8863 8864
          8865 8866 8867 8868 8869 8870
          8871 8872 8873 8874 8875 8876
          8877 8878 8879 8880 8881 8882
          8883 8884 8885 8886 8887 8888
          8889 8890 8891 8892 8893 8894
          8895 8896 8897 8898 8899 8900
          8901 8902 8903 8904 8905 8906
          8907 8908 8909 8910 8911 8912
          8913 8914 8915 8916 8917 8918
          8919 8920 8921 8922 8923 8924
          8925 8926 8927 8928 8929 8930
          8931 8932 8933 8934 8935 8936
          8937 8938 8939 8940 8941 8942
          8943 8944 8945 8946 8947 8948
          8949 8950 8951 8952 8953 8954
          8955 8956 8957 8958 8959 8960
          8961 8962 8963 8964 8965 8966
          8967 8968 8969 8970 8971 8972
          8973 8974 8975 8976 8977 8978
          8979 8980 8981 8982 8983 8984
          8985 8986 8987 8988 8989 8990
          8991 8992 8993 8994 8995 8996
          8997 8998 8999 9000 9001 9002
          9003 9004 9005 9006 9007 9008
          9009 9010 9012 9013 9014 9015
          9016 9017 9018 9019 9020 9021
          9022 9023 9024 9025 9026 9027
          9028 9029 9030 9031 9032 9033
          9034 9035 9036 9037 9038 9039
          9040 9042 9043 9044 9046 9047
          9048 9049 9050 9051 9052 9053
          9054 9055 9056 9057 9058 9059
          9060 9061 9062 9063 9064 9065
          9066 9067 9068 9069 9070 9071
          9072 9073 9074 9075 9076 9077
          9078 9079 9080 9081 9082 9083
          9084 9085 9086 9087 9088 9089
          9090 9091 9092 9093 9094 9095
          9096 9097 9098 9099 9100
        </DataArray>
        <DataArray type="Float64" Name="bounds" format="ascii" RangeMin="0" RangeMax="0">
          0 0 0 0 0 0
          0 0 0 0 0 0
          0 0 0 0 0 0
          0 0 0 0 0 0
          0 0 0 0 0 0
          0 0 0 0 0 0
          0 0 0 0 0 0
          0 0 0 0 0 0
          0 0 0 0 0 0
          0 0 0 0 0 0
          0 0 0 0 0 0
          0 0 0 0 0 0
          0 0 0 0 0 0
          0 0 0 0 0 0
          0 0 0 0 0 0
          0 0 0 0 0 0
          0 0 0 0 0 0
          0 0 0 0 0 0
          0 0 0 0 0 0
          0 0 0 0 0 0
          0 0 0 0 0 0
          0 0 0 0 0 0
          0 0 0 0 0 0
          0 0 0 0 0 0
          0 0 0 0 0 0
          0 0 0 0 0 0
          0 0 0 0 0 0
          0 0 0 0 0 0
          0 0 0 0 0 0
          0 0 0 0 0 0
          0 0 0 0 0 0
          0 0 0 0 0 0
          0 0 0 0 0 0
          0 0 0 0 0 0
          0 0 0 0 0 0
          0 0 0 0 0 0
          0 0 0 0 0 0
          0 0 0 0 0 0
          0 0 0 0 0 0
          0 0 0 0 0 0
          0 0 0 0 0 0
          0 0 0 0 0 0
          0 0 0 0 0 0
          0 0 0 0 0 0
          0 0 0 0 0 0
          0 0 0 0 0 0
          0 0 0 0 0 0
          0 0 0 0 0 0
          0 0 0 0 0 0
          0 0 0 0 0 0
          0 0 0 0 0 0
          0 0 0 0 0 0
          0 0 0 0 0 0
          0 0 0 0 0 0
          0 0 0 0 0 0
          0 0 0 0 0 0
          0 0 0 0 0 0
          0 0 0 0 0 0
          0 0 0 0 0 0
          0 0 0 0 0 0
          0 0 0 0 0 0
          0 0 0 0 0 0
          0 0 0 0 0 0
          0 0 0 0 0 0
          0 0 0 0 0 0
          0 0 0 0 0 0
          0 0 0 0 0 0
          0 0 0 0 0 0
          0 0 0 0 0 0
          0 0 0 0 0 0
          0 0 0 0 0 0
          0 0 0 0 0 0
          0 0 0 0 0 0
          0 0 0 0 0 0
          0 0 0 0 0 0
          0 0 0 0 0 0
          0 0 0 0 0 0
          0 0 0 0 0 0
          0 0 0 0 0 0
          0 0 0 0 0 0
          0 0 0 0 0 0
          0 0 0 0 0 0
          0 0 0 0 0 0
          0 0 0 0 0 0
          0 0 0 0 0 0
          0 0 0 0 0 0
          0 0 0 0 0 0
          0 0 0 0 0 0
          0 0 0 0 0 0
          0 0 0 0 0 0
          0 0 0 0 0 0
          0 0 0 0 0 0
          0 0 0 0 0 0
          0 0 0 0 0 0
          0 0 0 0 0 0
          0 0 0 0 0 0
          0 0 0 0 0 0
          0 0 0 0 0 0
          0 0 0 0 0 0
          0 0 0 0 0 0
          0 0 0 0 0 0
          0 0 0 0 0 0
          0 0 0 0 0 0
          0 0 0 0 0 0
          0 0 0 0 0 0
          0 0 0 0 0 0
          0 0 0 0 0 0
          0 0 0 0 0 0
          0 0 0 0 0 0
          0 0 0 0 0 0
          0 0 0 0 0 0
          0 0 0 0 0 0
          0 0 0 0 0 0
          0 0 0 0 0 0
          0 0 0 0 0 0
          0 0 0 0 0 0
          0 0 0 0 0 0
          0 0 0 0 0 0
          0 0 0 0 0 0
          0 0 0 0 0 0
          0 0 0 0 0 0
          0 0 0 0 0 0
          0 0 0 0 0 0
          0 0 0 0 0 0
          0 0 0 0 0 0
          0 0 0 0 0 0
          0 0 0 0 0 0
          0 0 0 0 0 0
          0 0 0 0 0 0
          0 0 0 0 0 0
          0 0 0 0 0 0
          0 0 0 0 0 0
          0 0 0 0 0 0
          0 0 0 0 0 0
          0 0 0 0 0 0
          0 0 0 0 0 0
          0 0 0 0 0 0
          0 0 0 0 0 0
          0 0 0 0 0 0
          0 0 0 0 0 0
          0 0 0 0 0 0
          0 0 0 0 0 0
          0 0 0 0 0 0
          0 0 0 0 0 0
          0 0 0 0 0 0
          0 0 0 0 0 0
          0 0 0 0 0 0
          0 0 0 0 0 0
          0 0 0 0 0 0
          0 0 0 0 0 0
          0 0 0 0 0 0
          0 0 0 0 0 0
          0 0 0 0 0 0
          0 0 0 0 0 0
          0 0 0 0 0 0
          0 0 0 0 0 0
          0 0 0 0 0 0
          0 0 0 0 0 0
          0 0 0 0 0 0
          0 0 0 0 0 0
          0 0 0 0 0 0
          0 0 0 0 0 0
          0 0 0 0 0 0
          0 0 0 0 0 0
          0 0 0 0 0 0
          0 0 0 0 0 0
          0 0 0 0 0 0
          0 0 0 0 0 0
          0 0 0 0 0 0
          0 0 0 0 0 0
          0 0 0 0 0 0
          0 0 0 0 0 0
          0 0 0 0 0 0
          0 0 0 0 0 0
          0 0 0 0 0 0
          0 0 0 0 0 0
          0 0 0 0 0 0
          0 0 0 0 0 0
          0 0 0 0 0 0
          0 0 0 0 0 0
          0 0 0 0 0 0
          0 0 0 0 0 0
          0 0 0 0 0 0
          0 0 0 0 0 0
          0 0 0 0 0 0
          0 0 0 0 0 0
          0 0 0 0 0 0
          0 0 0 0 0 0
          0 0 0 0 0 0
          0 0 0 0 0 0
          0 0 0 0 0 0
          0 0 0 0 0 0
          0 0 0 0 0 0
          0 0 0 0 0 0
          0 0 0 0 0 0
          0 0 0 0 0 0
          0 0 0 0 0 0
          0 0 0 0 0 0
          0 0 0 0 0 0
          0 0 0 0 0 0
          0 0 0 0 0 0
          0 0 0 0 0 0
          0 0 0 0 0 0
          0 0 0 0 0 0
          0 0 0 0 0 0
          0 0 0 0 0 0
          0 0 0 0 0 0
          0 0 0 0 0
        </DataArray>
        <DataArray type="Float64" Name="gradient_error" format="ascii" RangeMin="4.285450781052031e-13" RangeMax="5.055454172559869e-9">
          4.81234751873763e-10 4.1821148846431814e-11 9.195596458568304e-12 3.701453072180464e-11 1.0383466196535851e-11 3.2225533081493594e-9
          2.73154960029252e-10 5.055454172559869e-9 1.4665615853426268e-10 5.072884434732591e-10 5.056595729344364e-11 3.779615394666092e-11
          1.2127673900755225e-11 1.6499408242768348e-11 2.880746495213637e-10 4.0522341767965184e-10 1.508650731441637e-11 2.1523483508859817e-11
          2.2233120127723548e-11 9.296498374151773e-11 1.0311724333333706e-11 2.6048054182401286e-10 6.2338471845764785e-12 1.677277652563155e-10
          4.6926154736452765e-12 5.0941712692444355e-12 3.5251924717772168e-12 2.670124897236341e-12 1.3068945203901548e-12 9.845240481451917e-13
          5.7019120940741974e-11 1.1605860987600958e-10 1.0674251334055373e-10 3.182303994174217e-11 1.7882881411688456e-11 2.686518789138274e-10
          5.978434187562793e-11 2.898638347987183e-11 6.957347569071713e-11 2.711778825387998e-11 3.7911338247575434e-11 2.4891470629061204e-11
          9.987529333324769e-12 5.1454787439096506e-12 1.7569823886898547e-10 1.0366449745239163e-10 2.2145767408108924e-11 8.904051273735422e-10
          1.2028535118480654e-9 3.19761161584897e-10 5.241245497642643e-10 5.265318458214805e-10 7.201060033296204e-10 1.61034260624496e-10
          1.5153018963225882e-9 6.465127134313168e-10 9.136801608377601e-10 8.73510819987551e-11 4.280567656785158e-11 3.665939845813011e-11
          1.9130374644390505e-11 6.045311210746479e-11 3.3790185736721114e-11 1.4877644304985377e-11 6.272086791120842e-12 3.403560196039471e-12
          1.2133918241648501e-11 1.6062689320708653e-11 9.082726212213299e-12 7.331292632305376e-12 4.365346693934129e-12 9.323268588157744e-12
          6.739191010341439e-12 3.1647191700631896e-12 1.845299452044477e-12 1.5309057768785796e-12 2.927703014018866e-12 6.723751396454919e-11
          1.9425875227163713e-10 3.0153817249974557e-11 2.0968424378228323e-11 1.1145451013966387e-11 2.077872468204963e-11 9.289539876853589e-12
          1.542607488012492e-11 6.9605171679164904e-12 3.157153473669665e-12 1.3604931907451368e-12 1.9674534565625523e-11 6.173547078827444e-12
          3.6169949005427784e-11 1.0988815776151784e-11 8.732331008438167e-13 1.0508820008207086e-12 1.3284298576889123e-10 4.107723591727615e-10
          8.892320125188099e-11 6.075550270492769e-11 9.853343224413818e-11 9.384567985061038e-11 3.931941285011747e-11 8.464788999791774e-11
          6.357764283297015e-11 2.942028865242977e-11 3.963842385031647e-11 2.7876545693263798e-11 1.7575283076938534e-11 1.765313299055064e-11
          1.4291227386475743e-11 1.699185320890945e-11 1.2471232103786636e-11 7.758091389106478e-11 1.1759987570528495e-10 7.968945552071153e-11
          5.0505778027105314e-11 8.100589830684171e-11 1.5585886606852295e-11 3.105529067008414e-11 3.157946606902204e-11 5.162439421817506e-11
          1.5621665252055166e-11 8.023175622036602e-12 1.222741930347456e-11 9.406042624131784e-12 1.6431662984912522e-11 6.30480186167279e-12
          9.399370471561797e-12 3.671086562665081e-12 4.76419679955384e-12 4.069676602643806e-12 6.900453574344795e-12 2.9667455416019764e-12
          1.2493939081450809e-11 5.8573070364425995e-12 9.731230546045784e-12 5.422702192392183e-12 1.2755730067489132e-11 2.2314522907799014e-12
          5.61322227831857e-12 3.776658011428503e-12 5.453060511449628e-12 2.3489447540321503e-12 2.0784076323268226e-12 2.190788660193878e-12
          9.434698064074486e-13 9.929431783493434e-13 1.5020703452351477e-12 1.1607920164689159e-12 5.239678266442533e-13 2.303169688060934e-12
          1.0424165502912384e-12 8.195136877026845e-13 1.0463726489991777e-10 4.800387402703432e-11 9.325855767284621e-11 7.144919424047682e-11
          6.355412154595708e-11 8.039414094180893e-11 6.222561490050068e-11 4.911679975783925e-11 4.4343023066482566e-11 3.6246477504422524e-11
          6.049457523121791e-11 4.236512000205129e-11 3.0675703840689156e-11 6.158889886471645e-11 4.798850681280297e-11 2.3484736013623134e-11
          2.2116696848261099e-10 1.3474834484089692e-10 5.044839804928158e-11 1.6161215005803255e-10 1.082530999585585e-10 8.719761061226172e-11
          3.89059224413626e-11 3.049040559695372e-11 1.315458667782463e-10 1.0709051507309581e-10 4.6740620089917726e-11 7.612592008106856e-11
          7.402497579215899e-11 5.450121048886022e-11 5.526353785782704e-11 4.1036942131355306e-11 3.615982886913465e-11 2.664346400732839e-11
          1.9751636129371616e-10 1.5374799573667012e-10 9.087465812909746e-11 3.818215547693523e-11 4.027809220174513e-11 2.610241500363863e-11
          2.8659817992731993e-11 2.553866224464991e-11 2.4318917051778147e-11 2.2430322446364765e-11 1.1659454546433757e-10 8.612799157959787e-11
          5.1981954326169137e-11 3.184688705253915e-11 2.6721696452367663e-11 2.2360841945157252e-11 1.9313095944388372e-11 3.120574447317819e-11
          2.2350494984003517e-11 1.5981667879460536e-11 3.688266561358374e-11 2.7779743254910576e-11 1.3486158590680343e-11 2.1093192394464536e-11
          1.936990386421074e-11 2.4605018034863623e-11 1.9288832911913046e-11 1.5542005636757644e-11 1.1211480354611948e-11 7.809596939108852e-12
          2.0455145455560635e-11 1.472346455025616e-11 7.245894260234676e-12 3.9958648221622934e-10 3.234034553168596e-10 1.7930433430891398e-10
          1.4185734125522686e-10 4.68531524152237e-10 3.8327714575219136e-10 2.199828640939198e-10 2.5450304013009204e-10 1.0941854916165362e-10
          8.224639261800676e-11 3.047877438024364e-10 1.3674665475120341e-10 6.905256780540226e-11 5.3511266588557345e-11 2.359522411321993e-11
          1.7910674495509002e-11 8.562889902121334e-11 6.696760307251756e-11 2.891438893955949e-11 4.0521278674058205e-11 2.9962895389690735e-11
          1.3309774719545731e-11 5.115527154619737e-11 3.813972149009521e-11 1.659911607210917e-11 9.474466181453397e-11 2.5136887802345535e-11
          2.8578594059967256e-11 2.2734319860365274e-11 3.202030031758897e-11 4.2218965148826944e-11 3.426074941697196e-11 3.410369743835931e-11
          2.0166376989102473e-11 5.904953141011594e-11 2.808912830605755e-11 2.310013735788514e-11 1.9920783436656358e-11 1.654610426228001e-11
          1.706871829269476e-11 2.3275608783071304e-11 1.67505703565533e-11 1.416768248974365e-11 1.0449110260174892e-11 1.5973518571675552e-11
          1.7173206415478433e-11 5.3913499218689223e-11 9.7542624777093e-12 1.994938676289785e-11 5.706476387838817e-11 1.279980302699727e-11
          9.761758382509191e-12 6.7986664357620036e-12 4.96941180588938e-12 1.5064560150406144e-11 1.1593581484600236e-11 4.554572716548081e-12
          2.20223674385267e-11 2.0951140937591774e-11 1.5625363948279893e-11 1.0787413873395203e-11 1.6464732152698095e-11 1.718067487926066e-11
          9.612635120701751e-12 1.9908563134591976e-11 5.7794425441171574e-12 1.7896617605823225e-11 1.060297913812768e-11 7.269056633990638e-12
          7.517983814577652e-12 5.151986662193182e-12 6.989240227392041e-12 6.434273698851524e-12 4.46608111737246e-12 3.815344517028146e-12
          2.6971623138605985e-12 5.879307170311009e-12 1.4196712366389638e-11 1.1912477024192462e-11 1.0088800397663216e-11 8.482981939054585e-12
          8.413747473812785e-12 1.2053541333729839e-11 8.553149514461569e-12 7.694437773874918e-12 5.552393649564725e-12 8.443318520094098e-12
          7.096033344461739e-12 5.972651167393621e-12 4.885626209971334e-12 4.1095075043370704e-12 4.004318524680651e-12 5.946649379174598e-12
          4.055371362875614e-12 3.938013279006506e-12 2.733286135880579e-12 4.246383080842951e-12 7.377740477556246e-12 5.479849181410177e-12
          3.6155472556786255e-12 2.6065828299404012e-12 8.836226991850715e-12 6.618327189982684e-12 2.5260557691349888e-12 3.990860449123137e-12
          2.8445594196848712e-12 1.8433890881236014e-12 1.5964258420435102e-12 4.861497022162797e-12 3.4927089958033345e-12 1.3162240289561536e-12
          5.3179779595189044e-12 3.6586167120197685e-12 3.78269082978748e-12 2.5966901931494534e-12 3.318799519589238e-12 3.130581377528575e-12
          2.1990879697813184e-12 1.9348258466313875e-12 1.3649704728454904e-12 2.9423632354679123e-12 2.635911800432507e-12 1.804549552210602e-12
          1.813106055215784e-12 1.561888094762623e-12 1.5970104524453248e-12 1.503980929223307e-12 9.961029275219015e-13 9.460437688390344e-13
          1.3099266908287916e-12 1.4109514060012898e-12 1.7917318427703255e-10 5.5182978185573476e-11 1.1104466219472987e-10 6.232273690818163e-11
          3.7825715187143676e-11 6.696493902174856e-11 4.383347593415977e-11 2.5607488621503998e-11 4.5065602406499126e-11 1.779766771019785e-11
          3.1501806346272374e-11 1.8096065199074344e-11 2.8985822139034327e-11 2.0132676684499763e-11 6.061579426307743e-11 1.2994361179637497e-10
          9.278421618157089e-11 2.9313013100190585e-11 6.496960435426997e-11 4.457229035329726e-11 3.8934574453283905e-11 7.992304100914946e-11
          2.72724967052974e-11 5.676490641157662e-11 2.2859425269090254e-11 4.441061732721497e-11 3.119050092651681e-11 1.8936299378713034e-11
          3.95733401111725e-11 1.3027946732254139e-11 2.70097044671353e-11 1.1629804343484697e-11 2.13239189797693e-11 1.6593208230057687e-11
          1.2425247792671528e-11 2.2199885179189868e-11 8.903059030491838e-12 1.5474325173648024e-11 8.754265314328569e-12 1.4094490336324597e-11
          9.950222685676416e-12 6.80447011420318e-12 1.0576160308993142e-11 6.1019232831645115e-12 8.55751994383074e-12 4.904211154692441e-12
          7.214332180168385e-12 6.211628976905402e-12 5.758793785937302e-11 3.0893522831442596e-11 4.165984920184839e-11 2.9324030615858024e-11
          6.925656531300137e-11 1.113729333684749e-10 7.609230401324916e-11 1.7234405680618182e-10 5.706759349304183e-11 3.038164610341209e-11
          3.688268115098499e-11 2.3440361949692782e-11 5.1195845298124514e-11 2.0806518499010977e-11 2.6860954718318054e-11 2.1620449486581246e-11
          4.2666846338415365e-11 3.63976923660224e-11 1.779252534848402e-11 2.3104555014124153e-11 1.5248858348578145e-11 1.9902181446025802e-11
          1.479400150773185e-11 1.8538285512618644e-11 1.5926323967910046e-11 3.7100241241270125e-11 3.225584094557625e-11 2.7166355518356868e-11
          6.551329821325693e-11 4.878930470506305e-11 4.24575256584678e-11 9.608514771941787e-11 6.991132962871124e-11 5.7594833293581246e-11
          5.056347890345541e-11 3.713900350970085e-11 3.24607957314341e-11 8.539624448866926e-11 7.571586974405985e-11 5.4409522646142175e-11
          2.5338150393463915e-11 3.114819982142852e-11 2.1771411714985088e-11 2.6924943882355278e-11 1.6284008536659e-11 1.963394598798937e-11
          1.6860702771549755e-11 4.400352152668543e-11 3.846086160801862e-11 2.7084460770573597e-11 1.8813494535450998e-11 2.3411810412167783e-11
          1.62700680805786e-11 2.0361172076237443e-11 1.1952699073606173e-11 1.4569065577911038e-11 1.2605417194430499e-11 3.377030470955877e-11
          2.962770174565102e-11 2.0492480127954186e-11 2.518388166376476e-10 1.676405814208746e-10 3.3297487849309474e-10 3.8378740764753175e-10
          2.574887619041343e-10 3.97273489655007e-10 1.0760574226169527e-10 6.749167778837954e-11 4.127194248986386e-11 8.356155556923636e-11
          1.5459051161264788e-10 9.54783767591817e-11 5.72720443361371e-11 9.980902355895861e-11 1.3411327452582815e-10 9.503409334147696e-11
          8.468394223117824e-11 1.7303421504294167e-10 1.2041915027685073e-10 1.204365121314192e-10 1.0780663226212883e-10 7.55392398528216e-11
          6.721383176353589e-11 1.5665256336791503e-10 1.4129149166572274e-10 9.730470910009435e-11 5.88844591633863e-11 5.20353318026807e-11
          3.5635358399581474e-11 3.122505643075047e-11 7.375095389866063e-11 6.572776049713722e-11 4.4044874283232225e-11 4.6101363616593114e-11
          4.0775361005778966e-11 2.7474219468875855e-11 2.4154212498633198e-11 5.865627394171125e-11 5.2227177198425794e-11 3.446654728726813e-11
          2.0063839980827644e-10 1.3893241212264579e-10 1.2549449199443468e-10 2.0987291783079833e-10 1.4543859576270857e-10 1.8243129571797567e-10
          1.6521619500281632e-10 1.1328627439908523e-10 1.0192599169173837e-10 1.9104376877000762e-10 1.7320171216955692e-10 1.1889232351195975e-10
          8.475472039693903e-11 7.589927614722654e-11 5.029562069444441e-11 4.4638292646030815e-11 8.872765751935168e-11 7.957044773922828e-11
          5.258717151975987e-11 6.802095125179138e-11 6.080392563852912e-11 3.97083838156671e-11 3.5261546066983855e-11 7.14015987231135e-11
          6.390109147235885e-11 4.163258382085717e-11 3.6523015219800845e-11 4.99417512795349e-11 4.310458785090319e-11 8.494767079833543e-11
          2.6765870429790308e-11 3.701218681824391e-11 3.1609946835070264e-11 6.414581484543205e-11 2.6562613243364546e-11 3.602518223030064e-11
          2.2746033191825727e-11 3.1015689730204076e-11 1.8852208064894703e-11 2.5283883617414015e-11 2.1710013040046123e-11 6.045982478199524e-11
          5.2524107323129204e-11 4.176016003322196e-11 1.9400805903687405e-11 2.657443732462453e-11 1.651074222922424e-11 2.2660813055976928e-11
          1.3722854435373279e-11 1.8549507219494446e-11 1.5762431752229632e-11 4.538694460632318e-11 3.900466843380522e-11 3.1141272383329506e-11
          1.3992148481986973e-10 1.2322265145564412e-10 1.0786827798764842e-10 9.384954119825423e-11 1.748293358282608e-10 9.822923547942756e-11
          8.617832605738247e-11 6.683472597931758e-11 5.841320801116566e-11 1.5367463415998407e-10 1.3624348549119303e-10 1.0297230473609093e-10
          7.51831875321421e-11 6.52256906125679e-11 5.078164177702154e-11 4.391608346839428e-11 1.2006671324721064e-10 1.051631048430315e-10
          7.974588572181156e-11 1.9218338360646427e-11 2.6843849610534388e-11 2.2672101145717325e-11 4.732306480610506e-11 1.3496992447151362e-11
          1.9032619886376185e-11 1.587975253961895e-11 3.4079227063419524e-11 1.4047561929695707e-11 1.9227181520135773e-11 1.194407161576567e-11
          1.6213437897047164e-11 1.0112534592094753e-11 1.32610325495954e-11 1.2104111335736374e-11 3.335842876524637e-11 2.8330965197178337e-11
          2.2599432479225912e-11 1.0115181814639734e-11 1.3610270234665651e-11 8.471615266909812e-12 1.1363318263729461e-11 8.793360257262987e-12
          1.12222868551806e-11 9.384527013663188e-12 2.3849679127349e-11 1.9958801185218206e-11 1.8302547420682066e-11 8.113885256775353e-11
          6.970545464474532e-11 1.3432854304833804e-10 5.951291452942527e-11 5.049699461679196e-11 1.0053848707343394e-10 5.629803470025766e-11
          4.829419005722598e-11 3.7828288077632194e-11 3.236871667273523e-11 9.152938311285227e-11 7.915682450317747e-11 6.032491409291186e-11
          4.110037150044e-11 3.474098547699941e-11 2.741231365222343e-11 2.305974648908145e-11 6.802981088854147e-11 5.810159547676223e-11
          4.452740536650684e-11 1.3055701354146359e-11 1.711196791714255e-11 1.1145304291452457e-11 1.465783924372716e-11 1.0823048200205454e-11
          1.3669332962601372e-11 1.1693888270851838e-11 2.796174573258369e-11 2.4131666348898324e-11 2.038221108963506e-11 9.473320458629736e-12
          1.2489133177211441e-11 8.087279106913336e-12 1.0597834512788574e-11 7.838005686432444e-12 9.950248118360323e-12 8.467381513795043e-12
          2.0715083022083712e-11 1.7668957593841916e-11 1.505431829759684e-11 4.422969755862004e-11 3.850841546081277e-11 2.8283907297532428e-11
          2.4537306676736773e-11 6.685341202139565e-11 5.873493778436379e-11 4.2168532917480864e-11 3.3356472559688847e-11 2.8746108216328435e-11
          2.1182511083567395e-11 1.8204402859708618e-11 5.1325977965850414e-11 4.460109046751575e-11 3.209564748308768e-11 1.4059343680225826e-11
          1.7670669515863684e-11 1.2106115845181947e-11 1.52754128683304e-11 8.859501566060706e-12 1.0896960630247852e-11 9.385425643513156e-12
          2.590918549278009e-11 2.2559304933373827e-11 1.55612288133565e-11 1.035698244275494e-11 1.3134421343304107e-11 8.820363162855262e-12
          1.12390897061056e-11 6.481610521575655e-12 8.035255351366653e-12 6.8418369955612565e-12 1.9548161068384467e-11 1.6851960744678147e-11
          1.1634624421764796e-11 7.1000529926075304e-12 8.951244122850402e-12 6.7371612656378675e-12 8.189618959620343e-12 5.898117535380141e-12
          7.30474065722817e-12 6.827219280359367e-12 1.4910722185354244e-11 1.395783994868537e-11 1.0986149369358011e-11 2.465950724258249e-11