<?xml version="1.0"?>
<VTKFile type="UnstructuredGrid" version="0.1" byte_order="LittleEndian" header_type="UInt32" compressor="vtkZLibDataCompressor">
  <UnstructuredGrid>
    <Piece NumberOfPoints="1235" NumberOfCells="774">
      <PointData>
        <DataArray type="Int32" Name="libmesh_node_id" format="ascii" RangeMin="48" RangeMax="12593">
          52 53 54 55 56 57
          58 59 60 61 62 63
          64 65 66 67 68 69
          70 71 72 73 74 75
          76 77 78 79 80 81
          82 83 84 85 86 87
          88 89 90 91 92 93
          94 95 96 97 98 99
          100 101 102 103 104 105
          106 107 108 109 110 111
          112 113 114 115 116 117
          118 119 146 147 148 149
          150 151 152 153 154 155
          156 157 158 159 160 161
          162 163 164 165 166 167
          168 169 170 171 172 173
          174 175 176 177 178 179
          206 207 208 209 210 211
          212 213 214 215 216 217
          218 219 220 221 222 223
          224 225 226 227 228 229
          230 231 232 233 234 235
          236 237 238 239 266 267
          268 269 270 271 272 273
          274 275 276 277 278 279
          280 281 282 283 284 285
          286 287 288 289 290 291
          292 293 294 295 296 297
          298 299 313 314 315 316
          317 318 319 320 321 322
          323 324 325 326 327 328
          329 343 344 345 346 347
          348 349 350 351 352 353
          354 355 356 357 358 359
          386 387 388 389 390 391
          392 393 394 395 396 397
          398 399 400 401 402 403
          404 405 406 407 408 409
          410 411 412 413 414 415
          416 417 418 419 433 434
          435 436 437 438 439 440
          441 442 443 444 445 446
          447 448 449 463 464 465
          466 467 468 469 470 471
          472 473 474 475 476 477
          478 479 506 507 508 509
          510 511 512 513 514 515
          516 517 518 519 520 521
          522 523 524 525 526 527
          528 529 530 531 532 533
          534 535 536 537 538 539
          553 554 555 556 557 558
          559 560 561 562 563 564
          565 566 567 568 569 583
          584 585 586 587 588 589
          590 591 592 593 594 595
          596 597 598 599 626 627
          628 629 630 631 632 633
          634 635 636 637 638 639
          640 641 642 643 644 645
          646 647 648 649 650 651
          652 653 654 655 656 657
          658 659 673 674 675 676
          677 678 679 680 681 682
          683 684 685 686 687 688
          689 703 704 705 706 707
          708 709 710 711 712 713
          714 715 716 717 718 719
          744 745 746 747 748 749
          750 751 752 753 754 755
          756 757 758 759 760 761
          762 763 764 765 766 767
          768 769 770 771 772 773
          774 775 776 777 778 779
          792 793 794 795 796 797
          798 799 800 801 802 803
          804 805 806 807 808 809
          822 823 824 825 826 827
          828 829 830 831 832 833
          834 835 836 837 838 839
          862 863 864 865 866 867
          868 869 870 871 872 873
          874 875 876 877 878 879
          880 881 882 883 884 885
          886 887 888 889 890 891
          892 893 894 895 896 897
          898 899 911 912 913 914
          915 916 917 918 919 920
          921 922 923 924 925 926
          927 928 929 941 942 943
          944 945 946 947 948 949
          950 951 952 953 954 955
          956 957 958 959 982 983
          984 985 986 987 988 989
          990 991 992 993 994 995
          996 997 998 999 1000 1001
          1002 1003 1004 1005 1006 1007
          1008 1009 1010 1011 1012 1013
          1014 1015 1016 1017 1018 1019
          1031 1032 1033 1034 1035 1036
          1037 1038 1039 1040 1041 1042
          1043 1044 1045 1046 1047 1048
          1049 1061 1062 1063 1064 1065
          1066 1067 1068 1069 1070 1071
          1072 1073 1074 1075 1076 1077
          1078 1079 1102 1103 1104 1105
          1106 1107 1108 1109 1110 1111
          1112 1113 1114 1115 1116 1117
          1118 1119 1120 1121 1122 1123
          1124 1125 1126 1127 1128 1129
          1130 1131 1132 1133 1134 1135
          1136 1137 1138 1139 1151 1152
          1153 1154 1155 1156 1157 1158
          1159 1160 1161 1162 1163 1164
          1165 1166 1167 1168 1169 1181
          1182 1183 1184 1185 1186 1187
          1188 1189 1190 1191 1192 1193
          1194 1195 1196 1197 1198 1199
          1222 1223 1224 1225 1226 1227
          1228 1229 1230 1231 1232 1233
          1234 1235 1236 1237 1238 1239
          1240 1241 1242 1243 1271 1272
          1273 1274 1275 1276 1277 1278
          1279 1280 1281 1301 1302 1303
          1304 1305 1306 1307 1308 1309
          1310 1311 1342 1343 1344 1345
          1346 1347 1348 1349 1350 1351
          1352 1353 1354 1355 1356 1357
          1358 1359 1360 1361 1362 1363
          1391 1392 1393 1394 1395 1396
          1397 1398 1399 1400 1401 1421
          1422 1423 1424 1425 1426 1427
          1428 1429 1430 1431 1462 1463
          1464 1465 1466 1467 1468 1469
          1470 1471 1472 1473 1474 1475
          1476 1477 1478 1479 1480 1481
          1482 1483 1511 1512 1513 1514
          1515 1516 1517 1518 1519 1520
          1521 1541 1542 1543 1544 1545
          1546 1547 1548 1549 1550 1551
          1582 1583 1584 1585 1586 1587
          1588 1589 1590 1591 1592 1593
          1594 1595 1596 1597 1598 1599
          1600 1601 1602 1603 1631 1632
          1633 1634 1635 1636 1637 1638
          1639 1640 1641 1661 1662 1663
          1664 1665 1666 1667 1668 1669
          1670 1671 1702 1703 1704 1705
          1706 1707 1708 1709 1710 1711
          1712 1713 1714 1715 1716 1717
          1718 1719 1720 1721 1722 1723
          1751 1752 1753 1754 1755 1756
          1757 1758 1759 1760 1761 1781
          1782 1783 1784 1785 1786 1787
          1788 1789 1790 1791 1822 1823
          1824 1825 1826 1827 1828 1829
          1830 1831 1840 1841 1842 1843
          1871 1872 1873 1874 1875 1880
          1881 1901 1902 1903 1904 1905
          1910 1911 1944 1945 1946 1947
          1992 1993 1994 2022 2023 2024
          2064 2065 2112 2113 2142 2143
          2184 2185 2232 2262 2263 2304
          2305 2306 2352 2382 2383 12242
          12243 12244 12245 12246 12247 12248
          12249 12250 12251 12252 12253 12254
          12255 12256 12257 12258 12259 12260
          12261 12262 12263 12264 12265 12266
          12267 12268 12269 12533 12534 12535
          12536 12537 12538 12539 12540 12541
          12542 12543 12544 12545 12546 12547
          12548 12549 12550 12551 12552 12553
          12554 12555 12556 12557 12558 12559
          12560 12561 12562 12563 12564 12565
          12566 12567 12568 12569 12570 12571
          12572 12573 12574 12575 12576 12577
          12578 12579 12580 12581 12582 12583
          12587 12588 12590 12591 12593 48
          49 50 51 144 145 204
          205 264 265 312 342 384
          385 432 462 504 505 552
          582 624 625 672 702 622
          623 742 743 671 791 701
          821 740 741 860 861 790
          910 820 940 980 981 1030
          1060 1100 1101 1150 1180 1220
          1221 1270 1300 1340 1341 1390
          1420 1460 1461 1510 1540 1580
          1581 1630 1660 1700 1701 1750
          1780 1820 1821 1832 1833 1834
          1835 1836 1837 1838 1839 1870
          1876 1877 1878 1879 1900 1906
          1907 1908 1909 1940 1942 1943
          1941 1948 1949 1950 1951 1952
          1953 1958 1960 1961 1959 1962
          1963 1991 1990 1995 1996 2000
          1999 2001 2021 2020 2025 2026
          2030 2029 2031 2062 2063 2066
          2067 2068 2069 2111 2114 2071
          2115 2141 2144 2145 2182 2183
          2186 2187 2231 2233 2189 2234
          2261 2264 2303 2351 2307 2353
          2381 2354 2384 12232 12233 12234
          12237 2302 12240 12270 12271 12272
          12273 12277 12278 12281 12283 12584
          12585 12586 12589 12280 12592
        </DataArray>
        <DataArray type="Float64" Name="bounds" format="ascii" RangeMin="0" RangeMax="0">
          0 0 0 0 0 0
          0 0 0 0 0 0
          0 0 0 0 0 0
          0 0 0 0 0 0
          0 0 0 0 0 0
          0 0 0 0 0 0
          0 0 0 0 0 0
          0 0 0 0 0 0
          0 0 0 0 0 0
          0 0 0 0 0 0
          0 0 0 0 0 0
          0 0 0 0 0 0
          0 0 0 0 0 0
          0 0 0 0 0 0
          0 0 0 0 0 0
          0 0 0 0 0 0
          0 0 0 0 0 0
          0 0 0 0 0 0
          0 0 0 0 0 0
          0 0 0 0 0 0
          0 0 0 0 0 0
          0 0 0 0 0 0
          0 0 0 0 0 0
          0 0 0 0 0 0
          0 0 0 0 0 0
          0 0 0 0 0 0
          0 0 0 0 0 0
          0 0 0 0 0 0
          0 0 0 0 0 0
          0 0 0 0 0 0
          0 0 0 0 0 0
          0 0 0 0 0 0
          0 0 0 0 0 0
          0 0 0 0 0 0
          0 0 0 0 0 0
          0 0 0 0 0 0
          0 0 0 0 0 0
          0 0 0 0 0 0
          0 0 0 0 0 0
          0 0 0 0 0 0
          0 0 0 0 0 0
          0 0 0 0 0 0
          0 0 0 0 0 0
          0 0 0 0 0 0
          0 0 0 0 0 0
          0 0 0 0 0 0
          0 0 0 0 0 0
          0 0 0 0 0 0
          0 0 0 0 0 0
          0 0 0 0 0 0
          0 0 0 0 0 0
          0 0 0 0 0 0
          0 0 0 0 0 0
          0 0 0 0 0 0
          0 0 0 0 0 0
          0 0 0 0 0 0
          0 0 0 0 0 0
          0 0 0 0 0 0
          0 0 0 0 0 0
          0 0 0 0 0 0
          0 0 0 0 0 0
          0 0 0 0 0 0
          0 0 0 0 0 0
          0 0 0 0 0 0
          0 0 0 0 0 0
          0 0 0 0 0 0
          0 0 0 0 0 0
          0 0 0 0 0 0
          0 0 0 0 0 0
          0 0 0 0 0 0
          0 0 0 0 0 0
          0 0 0 0 0 0
          0 0 0 0 0 0
          0 0 0 0 0 0
          0 0 0 0 0 0
          0 0 0 0 0 0
          0 0 0 0 0 0
          0 0 0 0 0 0
          0 0 0 0 0 0
          0 0 0 0 0 0
          0 0 0 0 0 0
          0 0 0 0 0 0
          0 0 0 0 0 0
          0 0 0 0 0 0
          0 0 0 0 0 0
          0 0 0 0 0 0
          0 0 0 0 0 0
          0 0 0 0 0 0
          0 0 0 0 0 0
          0 0 0 0 0 0
          0 0 0 0 0 0
          0 0 0 0 0 0
          0 0 0 0 0 0
          0 0 0 0 0 0
          0 0 0 0 0 0
          0 0 0 0 0 0
          0 0 0 0 0 0
          0 0 0 0 0 0
          0 0 0 0 0 0
          0 0 0 0 0 0
          0 0 0 0 0 0
          0 0 0 0 0 0
          0 0 0 0 0 0
          0 0 0 0 0 0
          0 0 0 0 0 0
          0 0 0 0 0 0
          0 0 0 0 0 0
          0 0 0 0 0 0
          0 0 0 0 0 0
          0 0 0 0 0 0
          0 0 0 0 0 0
          0 0 0 0 0 0
          0 0 0 0 0 0
          0 0 0 0 0 0
          0 0 0 0 0 0
          0 0 0 0 0 0
          0 0 0 0 0 0
          0 0 0 0 0 0
          0 0 0 0 0 0
          0 0 0 0 0 0
          0 0 0 0 0 0
          0 0 0 0 0 0
          0 0 0 0 0 0
          0 0 0 0 0 0
          0 0 0 0 0 0
          0 0 0 0 0 0
          0 0 0 0 0 0
          0 0 0 0 0 0
          0 0 0 0 0 0
          0 0 0 0 0 0
          0 0 0 0 0 0
          0 0 0 0 0 0
          0 0 0 0 0 0
          0 0 0 0 0 0
          0 0 0 0 0 0
          0 0 0 0 0 0
          0 0 0 0 0 0
          0 0 0 0 0 0
          0 0 0 0 0 0
          0 0 0 0 0 0
          0 0 0 0 0 0
          0 0 0 0 0 0
          0 0 0 0 0 0
          0 0 0 0 0 0
          0 0 0 0 0 0
          0 0 0 0 0 0
          0 0 0 0 0 0
          0 0 0 0 0 0
          0 0 0 0 0 0
          0 0 0 0 0 0
          0 0 0 0 0 0
          0 0 0 0 0 0
          0 0 0 0 0 0
          0 0 0 0 0 0
          0 0 0 0 0 0
          0 0 0 0 0 0
          0 0 0 0 0 0
          0 0 0 0 0 0
          0 0 0 0 0 0
          0 0 0 0 0 0
          0 0 0 0 0 0
          0 0 0 0 0 0
          0 0 0 0 0 0
          0 0 0 0 0 0
          0 0 0 0 0 0
          0 0 0 0 0 0
          0 0 0 0 0 0
          0 0 0 0 0 0
          0 0 0 0 0 0
          0 0 0 0 0 0
          0 0 0 0 0 0
          0 0 0 0 0 0
          0 0 0 0 0 0
          0 0 0 0 0 0
          0 0 0 0 0 0
          0 0 0 0 0 0
          0 0 0 0 0 0
          0 0 0 0 0 0
          0 0 0 0 0 0
          0 0 0 0 0 0
          0 0 0 0 0 0
          0 0 0 0 0 0
          0 0 0 0 0 0
          0 0 0 0 0 0
          0 0 0 0 0 0
          0 0 0 0 0 0
          0 0 0 0 0 0
          0 0 0 0 0 0
          0 0 0 0 0 0
          0 0 0 0 0 0
          0 0 0 0 0 0
          0 0 0 0 0 0
          0 0 0 0 0 0
          0 0 0 0 0 0
          0 0 0 0 0 0
          0 0 0 0 0 0
          0 0 0 0 0 0
          0 0 0 0 0 0
          0 0 0 0 0 0
          0 0 0 0 0 0
          0 0 0 0 0 0
          0 0 0 0 0 0
          0 0 0 0 0 0
          0 0 0 0 0 0
          0 0 0 0 0 0
          0 0 0 0 0
        </DataArray>
        <DataArray type="Float64" Name="gradient_error" format="ascii" RangeMin="4.676299612493366e-16" RangeMax="2.5520902186470747e-7">
          5.043884978269335e-16 5.041980498211148e-16 5.031823038414334e-16 5.036035103659265e-16 5.042895969215648e-16 5.041468594462058e-16
          5.034278739286311e-16 5.037299367959858e-16 5.039522579247776e-16 5.039787060704127e-16 5.041508899090809e-16 5.04089981766274e-16
          5.038315326127362e-16 5.039228935730247e-16 5.044004290489856e-16 5.042049883553071e-16 5.039642006388257e-16 5.039909308453293e-16
          5.041161802562005e-16 5.04059217179435e-16 5.040877531238062e-16 5.040506443160346e-16 5.038563904811598e-16 5.039336032234136e-16
          5.040370183457715e-16 5.040250244925286e-16 5.039609426744764e-16 5.039864871868477e-16 5.039907425535195e-16 5.04001740418459e-16
          5.040576289411443e-16 5.040350586750314e-16 5.040133921704782e-16 5.040126678034436e-16 5.040123156840796e-16 5.040131640893264e-16
          5.04013495187076e-16 5.040131503514546e-16 5.040115544439861e-16 5.040120853607219e-16 5.04012858082276e-16 5.040128780573877e-16
          5.040124753998847e-16 5.040126499198348e-16 5.040127277175914e-16 5.040127108963761e-16 5.040128076184071e-16 5.040127540007633e-16
          5.040125090416786e-16 5.040124964257683e-16 5.040126225849193e-16 5.040125663389666e-16 5.040123976010517e-16 5.040124491160375e-16
          5.040125395300988e-16 5.040125437354038e-16 5.040125195548955e-16 5.040125510946823e-16 5.040126068149782e-16 5.040126073406411e-16
          5.040123976010515e-16 5.040124711938873e-16 5.040124943230704e-16 5.04012525337194e-16 5.040122756472063e-16 5.040123912930917e-16
          5.040124270381896e-16 5.040124659372601e-16 5.040113811876451e-16 5.040157609726947e-16 5.040093899847797e-16 5.040201324025405e-16
          5.040093835827518e-16 5.040200254986203e-16 5.040131452567755e-16 5.040119247598077e-16 5.040146193391764e-16 5.040087080661521e-16
          5.04012986546758e-16 5.0401210839477e-16 5.040128592088987e-16 5.040124775158289e-16 5.040127025146243e-16 5.040125912581354e-16
          5.040123839381783e-16 5.040132155632121e-16 5.040127193070296e-16 5.040126457143964e-16 5.040128223369842e-16 5.040127913229438e-16
          5.040128181316711e-16 5.040127718733292e-16 5.04012531119565e-16 5.040125500434417e-16 5.040124491160779e-16 5.040125437354238e-16
          5.040125847371748e-16 5.040126157512891e-16 5.040125910451501e-16 5.040125600310075e-16 5.040125637106727e-16 5.040125185036112e-16
          5.040151605599942e-16 5.040068050549698e-16 5.040146579987126e-16 5.040082651417405e-16 5.040136129494557e-16 5.040109773737733e-16
          5.040120359802378e-16 5.040143018579867e-16 5.0401157762652e-16 5.040151620296347e-16 5.04012437585253e-16 5.040134008238728e-16
          5.040126877785119e-16 5.040129233324387e-16 5.040126667458501e-16 5.040126941073524e-16 5.040128244399476e-16 5.04012418631851e-16
          5.040126330982261e-16 5.040126751513352e-16 5.040127466414693e-16 5.040127582061029e-16 5.040129421881812e-16 5.040128433635391e-16
          5.040125784292718e-16 5.040125899938696e-16 5.040123976011326e-16 5.040125395301389e-16 5.040125868398807e-16 5.040126236362743e-16
          5.040126373035772e-16 5.040125637106974e-16 5.040126204823683e-16 5.04012532170892e-16 5.073776041284616e-16 5.05671032057029e-16
          5.062782348804984e-16 5.051087190728353e-16 5.034861982390857e-16 5.037188107516489e-16 5.025494266585145e-16 5.032872898888341e-16
          5.03636677283465e-16 5.038451784686432e-16 5.046093624565756e-16 5.043159453995746e-16 5.042197958496083e-16 5.041181259800565e-16
          5.038520340724392e-16 5.03932735451847e-16 5.040109615160869e-16 5.040091636114832e-16 5.040167049706508e-16 5.040148745712714e-16
          5.040141081166692e-16 5.040136339653225e-16 5.040129989599643e-16 5.04012919059194e-16 5.040126677920245e-16 5.0401267147167e-16
          5.040125668646301e-16 5.040125963017649e-16 5.040127045883957e-16 5.040126719972682e-16 5.040126972293285e-16 5.04012636252332e-16
          5.040126415092251e-16 5.040125763268769e-16 5.039998437442333e-16 5.039845478274158e-16 5.039855472822149e-16 5.040159030683161e-16
          5.040284056877089e-16 5.040161928267414e-16 5.040142386166457e-16 5.040130840860916e-16 5.040106155099513e-16 5.040128975097006e-16
          5.040129001357775e-16 5.040127950026362e-16 5.040126325725968e-16 5.040125963017648e-16 5.040126467654361e-16 5.040125531974415e-16
          5.040124606807604e-16 5.040352275028703e-16 5.040298923896592e-16 5.040196713002177e-16 5.040066530174787e-16 5.040031317215968e-16
          5.040098573109094e-16 5.040120211227867e-16 5.040127313409286e-16 5.040138653130232e-16 5.040127508475089e-16 5.040126404575794e-16
          5.040127508468491e-16 5.040125899938781e-16 5.040125668646299e-16 5.040126541247314e-16 5.040125311195478e-16 5.040124102169918e-16
          4.907760701123206e-16 4.974961702802144e-16 4.958016190085898e-16 5.000569324694539e-16 5.066642769349239e-16 5.054605075787385e-16
          5.100109964271993e-16 5.069861173730227e-16 5.056802693574149e-16 5.047627364975194e-16 5.018831142982254e-16 5.029243552994251e-16
          5.032735224778242e-16 5.036343974340128e-16 5.046289135492899e-16 5.043198828864185e-16 5.040299589463929e-16 5.040322273009178e-16
          5.039996996967443e-16 5.040061307032763e-16 5.040077087910719e-16 5.040096368757504e-16 5.040120780002884e-16 5.040123282153497e-16
          5.040128454661979e-16 5.040129332519344e-16 5.040129148536172e-16 5.040129726765571e-16 5.040129884465136e-16 5.04012982138523e-16
          5.040129484963779e-16 5.040130000112475e-16 5.040128559798695e-16 5.04012991600785e-16 5.040712472216095e-16 5.041309469460084e-16
          5.041237395332652e-16 5.040014277845824e-16 5.039499691733369e-16 5.039968461419682e-16 5.0400658324163e-16 5.040122114728421e-16
          5.040216703018849e-16 5.040124113242226e-16 5.040121452877211e-16 5.040127734508837e-16 5.040129958058116e-16 5.040129726765527e-16
          5.040129821384889e-16 5.040130094730118e-16 5.040130105243774e-16 5.039262239951107e-16 5.03949647961699e-16 5.039907408439773e-16
          5.040416172503187e-16 5.040547347090498e-16 5.040280959833116e-16 5.040178940930586e-16 5.040135707221373e-16 5.040088449483271e-16
          5.04012260938637e-16 5.040127256150133e-16 5.040129684713566e-16 5.040129705739525e-16 5.040129148536086e-16 5.040129884464455e-16
          5.040129674199065e-16 5.040128938270544e-16 5.724819469143844e-16 5.378421432369394e-16 5.490014835417747e-16 5.259154468821843e-16
          4.997792671341428e-16 5.014213588420874e-16 4.825179330313465e-16 4.933854078285488e-16 5.001143644609699e-16 5.024237266937785e-16
          5.154676069707232e-16 5.09860576378249e-16 5.084483999329948e-16 5.062753220825226e-16 5.017791385896922e-16 5.02900429553659e-16
          5.039058116202929e-16 5.039159292039742e-16 5.040539812511643e-16 5.040326174720396e-16 5.040317266343609e-16 5.040243193701707e-16
          5.040159490130466e-16 5.040148703432882e-16 5.040131566592916e-16 5.040130704504943e-16 5.040127277175466e-16 5.040127676679437e-16
          5.040126877671753e-16 5.0401268145920955e-16 5.040127445388749e-16 5.040128428378544e-16 5.040127256150236e-16 5.040129516501306e-16
          5.03772914517162e-16 5.035377122526384e-16 5.035732257608552e-16 5.040688896289227e-16 5.042843883699135e-16 5.04098083729976e-16
          5.040453725236011e-16 5.040154824960486e-16 5.039770109916192e-16 5.040126247491148e-16 5.040146853422393e-16 5.04013289132832e-16
          5.040129411370859e-16 5.040128134006222e-16 5.040127313971721e-16 5.040128596589949e-16 5.040129768818657e-16 5.043434894748294e-16
          5.042460142826829e-16 5.040830009716783e-16 5.038848966320944e-16 5.038356878132398e-16 5.039426216741775e-16 5.03988500815152e-16
          5.040092444744712e-16 5.040279751955826e-16 5.040139958053147e-16 5.04012458578498e-16 5.040127865921345e-16 5.040128980324747e-16
          5.040128191829037e-16 5.040127876431007e-16 5.040127781811558e-16 5.040127760784937e-16 6.832651136131903e-16 5.95252427795122e-16
          6.495309222816027e-16 5.7915120652765225e-16 6.2006095593669885e-16 5.63914554463432e-16 6.19567531514856e-16 5.613438177688281e-16
          5.591395455999046e-16 5.302194553888827e-16 5.103705370487906e-16 5.067112192389553e-16 5.111636250040388e-16 5.073977834393059e-16
          5.137469483722848e-16 5.088728239891415e-16 5.045863113678849e-16 5.044746141950303e-16 5.038952063305869e-16 5.039621411398573e-16
          5.039434153223408e-16 5.0397091562181075e-16 5.039990263131406e-16 5.040034869165675e-16 5.040108258804125e-16 5.040112763717229e-16
          5.040125542490444e-16 5.040125227091956e-16 5.040127540008245e-16 5.040126168027971e-16 5.040127676680865e-16 5.040126809337586e-16
          5.040126919726227e-16 5.040127108965623e-16 5.050339919680283e-16 5.059902550603583e-16 5.058086018435001e-16 5.038826221125206e-16
          5.030656575983613e-16 5.037074989950943e-16 5.038834523567795e-16 5.040156659794706e-16 5.041577592938733e-16 5.040172870043978e-16
          5.040057652668037e-16 5.04010501626067e-16 5.040122220337463e-16 5.040125484665912e-16 5.040125531975597e-16 5.040126073409046e-16
          5.040126688434751e-16 5.028282419590031e-16 5.032090193470148e-16 5.038490506968349e-16 5.046451402022414e-16 5.048319500188619e-16
          5.043630965610686e-16 5.041349628389859e-16 5.040326323529431e-16 5.039526015655709e-16 5.040054980596679e-16 5.040131146123267e-16
          5.040130557321396e-16 5.040127172044593e-16 5.040126057638355e-16 5.040126267903497e-16 5.040126204823784e-16 5.040126078664485e-16
          1.8968920455635638e-15 1.1926302530947642e-15 2.4667250584450343e-15 1.4805401026480238e-15 1.9084547753961064e-15 1.1982983066147204e-15
          1.20249205208837e-15 8.470406733408186e-16 9.5494467704171e-16 7.333812040367612e-16 8.659160939954663e-16 6.93322312951192e-16
          8.778534669086831e-16 6.946116660789711e-16 6.779833913055315e-16 5.922967707582251e-16 4.9159681818082475e-16 4.980359949348593e-16
          5.012638313829373e-16 5.019618130092188e-16 5.042938062550625e-16 5.041002267226294e-16 5.042565794085597e-16 5.041570296729991e-16
          5.040680997703589e-16 5.040492286307042e-16 5.040226577309863e-16 5.040198059632198e-16 5.040141848613385e-16 5.040138915416335e-16
          5.040130241917778e-16 5.040129768824064e-16 5.040129211616614e-16 5.040128875194411e-16 5.040129737279692e-16 5.040129474449566e-16
          4.99248205881096e-16 5.011239112715598e-16 4.973458852375297e-16 4.979699903775384e-16 5.068234212525418e-16 5.110296470464715e-16
          5.07065511047961e-16 5.050493282242191e-16 5.042111745114184e-16 5.034556638140216e-16 5.039771370587048e-16 5.040351691475089e-16
          5.040208939371625e-16 5.040146769499276e-16 5.040131666495297e-16 5.040128307481388e-16 5.040128239142812e-16 5.040128801600818e-16
          5.101279511362275e-16 5.078926756921065e-16 5.065499326417249e-16 5.043506861618096e-16 5.01829111473271e-16 5.013307621860254e-16
          5.02761156846663e-16 5.034885062375195e-16 5.03947177333943e-16 5.04251532992543e-16 5.040476269272133e-16 5.040128583575791e-16
          5.040114303832754e-16 5.04012399704402e-16 5.040127350771309e-16 5.040127319232427e-16 5.040127939513416e-16 5.040128391582196e-16
          4.336565550274085e-15 2.6388618669440587e-15 8.040310316308154e-15 4.3215373826571605e-15 1.0162101872955723e-14 5.35072652785963e-15
          7.385813063643055e-15 3.979348399310725e-15 4.505738744796776e-15 2.535076798473528e-15 3.5592067899955046e-15 2.0488187407098457e-15
          2.806090904221765e-15 1.6707214803551533e-15 2.4756795958578327e-15 1.4977152645006521e-15 1.615902553750423e-15 1.0598084908437737e-15
          7.099487056938728e-16 6.090669253264265e-16 5.176175143767279e-16 5.138212665620851e-16 5.037059048747811e-16 5.041654530162027e-16
          5.032062161063915e-16 5.035484139021353e-16 5.038038799206297e-16 5.038777360543274e-16 5.039701469264989e-16 5.039832516581699e-16
          5.04006316858345e-16 5.04007891202564e-16 5.040128023655165e-16 5.040126357297617e-16 5.040137170159997e-16 5.040133706041851e-16
          5.040138862793324e-16 5.040134909809056e-16 7.080876210619986e-16 5.456269033795408e-16 5.178203217660518e-16 5.366716080092656e-16
          5.381940825543184e-16 5.336384757251786e-16 5.331940803041751e-16 5.17929546842322e-16 5.056842525889391e-16 5.06561854094644e-16
          5.065752771396657e-16 5.042389193609048e-16 5.039464046367509e-16 5.039833206270015e-16 5.040050361785407e-16 5.040110577333759e-16
          5.040123923460593e-16 5.0401264571468e-16 5.040126709463992e-16 4.750170585099652e-16 4.884893577529133e-16 4.962894607685666e-16
          5.004594810401371e-16 5.119733129583554e-16 5.288462600261707e-16 5.31036104119809e-16 5.16108160541173e-16 5.076540772407538e-16
          5.049385632303077e-16 5.03125535531889e-16 5.038528375641854e-16 5.040021975756227e-16 5.04015049065978e-16 5.040137159672405e-16
          5.04012649919969e-16 5.040123155981114e-16 5.040122672369893e-16 5.040122462103196e-16 2.080832338493431e-14 1.1626573789244593e-14
          3.7768094292542575e-14 1.9345704236338115e-14 4.369783948815269e-14 2.219975219877398e-14 3.023215223010473e-14 1.5414075374280152e-14
          1.7963434919562883e-14 9.296208157330515e-15 1.409435699400868e-14 7.554727672221032e-15 1.073862161056161e-14 5.9627828593475755e-15
          9.260070445075536e-15 5.055206720793335e-15 5.502631652320652e-15 3.068310964801461e-15 1.3583645377221218e-15 9.585797974740598e-16
          4.676299612493366e-16 4.793278884876207e-16 5.026446746871558e-16 5.019503834434891e-16 5.065323987289572e-16 5.053931664086467e-16
          5.047610870870978e-16 5.044855582704412e-16 5.041905843168384e-16 5.041324607768557e-16 5.040490032439556e-16 5.040381099887493e-16
          5.040188349623499e-16 5.040169415272776e-16 5.040133343368705e-16 5.040129048735727e-16 5.040126288941225e-16 5.040123608080249e-16
          1.5914287915532795e-15 7.934798871567345e-16 6.615496893969665e-16 5.915389802790202e-16 6.162539901152732e-16 8.440729685543756e-16
          9.286205341353568e-16 7.06767159175455e-16 5.707264574471056e-16 5.340092079800522e-16 4.994274182771586e-16 5.02996040086884e-16
          5.041704950876182e-16 5.041097193519483e-16 5.040407044310694e-16 5.040183016720268e-16 5.040127445888446e-16 5.040116243571881e-16
          5.04011465078621e-16 7.380333895516857e-16 6.636455941798131e-16 6.214344693986587e-16 5.870794421024644e-16 6.035265851323968e-16
          6.730475866753665e-16 6.702969601371742e-16 5.631913218397768e-16 5.074626376119416e-16 5.092233587341062e-16 5.078290208284124e-16
          5.047359879739455e-16 5.040870560869001e-16 5.040094092501122e-16 5.040070716252658e-16 5.040093866105108e-16 5.040104410854837e-16
          5.040107733041014e-16 5.040108374353146e-16 1.0853678282525756e-13 5.84952374890882e-14 1.7833288095751159e-13 9.113211604227195e-14
          1.8945418771922847e-13 9.640153184578341e-14 1.2496840669193423e-13 6.355438747192662e-14 7.213495830625184e-14 3.713596713681613e-14
          5.648157314314198e-14 3.0201037357626125e-14 4.214407555136279e-14 2.3315804376758144e-14 3.563018709511455e-14 1.9103557869596766e-14
          2.0911095237849522e-14 1.113653746237808e-14 4.662843029680598e-15 2.8501739084637072e-15 8.29527862581852e-16 7.353415748312772e-16
          5.283335862388278e-16 5.255140986809476e-16 4.97873539973592e-16 5.010070824944911e-16 5.016230797561725e-16 5.025479710935533e-16
          5.033655224575937e-16 5.035849343368332e-16 5.038700139832525e-16 5.039127781880078e-16 5.039937216973848e-16 5.039973561499225e-16
          5.040204488029454e-16 5.040164122154403e-16 5.040247739010848e-16 5.040195898262717e-16 5.476668548530689e-15 3.3070878168567856e-15
          2.7910444606940016e-15 1.9616556370608514e-15 1.974410309733999e-15 3.0282840934702776e-15 3.2264895616218966e-15 1.8850257150455656e-15
          1.0468459239219385e-15 8.133174258566746e-16 5.684372708915922e-16 5.119581024563232e-16 5.038562424631524e-16 5.037206685349206e-16
          5.039072222155353e-16 5.03982487650923e-16 5.040042492515779e-16 5.040096000875075e-16 5.040105441868861e-16 2.49964494414253e-15
          2.682824506681274e-15 2.2332129490496507e-15 1.7829430222026684e-15 1.811844652087587e-15 2.1360666148302843e-15 1.9654459210902874e-15
          1.1931227860121423e-15 7.317121609372352e-16 5.891300644665324e-16 4.957192547024821e-16 5.01221593789579e-16 5.035718599109144e-16
          5.039684746389072e-16 5.040100982149979e-16 5.040094329090829e-16 5.040075079006953e-16 5.040068245470796e-16 5.040066826223138e-16
          5.969221477028426e-13 3.151916414741063e-13 8.459375020493463e-13 4.371780121697136e-13 8.287497043119432e-13 4.2651675434182083e-13
          5.210870488732041e-13 2.67226440793213e-13 2.900189274358069e-13 1.505395476551835e-13 2.2562367246674272e-13 1.2194410290724097e-13
          1.6595242434656604e-13 9.274512075383026e-14 1.3866380116497003e-13 7.477501615726485e-14 8.049650087787237e-14 4.277312554669434e-14