<?xml version="1.0"?>
<VTKFile type="UnstructuredGrid" version="0.1" byte_order="LittleEndian" header_type="UInt32" compressor="vtkZLibDataCompressor">
  <UnstructuredGrid>
    <Piece NumberOfPoints="907" NumberOfCells="491">
      <PointData>
        <DataArray type="Int32" Name="libmesh_node_id" format="ascii" RangeMin="486" RangeMax="7479">
          486 487 488 489 490 491
          492 493 509 510 511 512
          539 540 541 542 543 544
          545 546 547 548 549 550
          564 565 566 567 568 569
          596 597 598 599 600 601
          602 603 604 605 606 607
          621 622 623 624 625 626
          653 654 655 656 657 658
          659 660 661 662 663 664
          678 679 680 681 682 683
          711 712 713 714 715 716
          717 718 719 720 721 735
          736 737 738 739 740 792
          793 794 797 800 802 803
          804 805 806 807 808 809
          810 811 814 815 830 831
          832 833 834 835 836 837
          838 839 840 841 842 843
          951 953 956 959 961 962
          964 965 968 969 970 972
          974 975 976 979 980 981
          982 983 984 987 988 1007
          1008 1009 1012 1049 1050 1053
          1055 1057 1058 1059 1060 1061
          1062 1063 1064 1065 1066 1159
          1160 1161 1164 1176 1177 1178
          1180 1181 1182 1183 1184 1185
          1186 1187 1188 1189 1190 1191
          1192 1193 1194 1601 1621 1638
          1639 1642 1644 1653 1654 1655
          1659 1674 1675 1676 1677 1678
          1679 1680 1681 1682 1683 1684
          1688 1728 1729 1730 1731 1732
          1733 1734 1735 1736 1737 1788
          1789 1790 1791 1792 1793 1794
          1795 1796 1797 1798 1799 1800
          1801 1802 1803 1804 1805 1806
          1807 1808 1809 1810 1811 1812
          1813 1814 1815 1816 1817 1818
          1819 1820 1821 1822 1823 1824
          1825 1826 1827 1828 1829 1830
          1831 1996 1997 2000 2008 2009
          2010 2011 2012 2015 2018 2021
          2022 2023 2024 2025 2026 2027
          2028 2029 2032 2033 2034 2035
          2037 2038 2039 2042 2043 2044
          2045 2047 2050 2054 2056 2058
          2068 2069 2072 2074 2076 2077
          2078 2079 2080 2081 2082 2083
          2084 2085 2768 2769 2772 2806
          2876 2877 2880 2882 2892 2894
          2896 2936 2937 2938 2939 2940
          2941 2942 2943 2944 2945 2946
          2950 2951 2952 2955 2976 2977
          2978 2979 2980 2981 2982 2985
          2986 2989 3072 3073 3074 3075
          3076 3077 3078 3079 3080 3081
          3082 3083 3084 3085 3086 3087
          3088 3089 3090 3091 3092 3093
          3094 3095 3096 3097 3098 3099
          3100 3101 3102 3103 3104 3105
          3106 3107 3110 3111 3113 3115
          3208 3209 3210 3211 3212 3213
          3214 3215 3216 3217 3218 3219
          3220 3221 3222 3223 3224 3238
          3241 3271 3274 3276 3278 3280
          3281 3282 3283 3284 3285 3286
          3287 3288 3289 3290 3291 3292
          3293 3294 3295 3296 3297 3298
          3299 3300 3301 3302 3304 3305
          3306 3307 3309 3311 3383 3385
          3387 3388 3390 3394 5535 5551
          5552 5555 5557 5581 5583 5585
          5801 5803 5805 5829 5831 5833
          6130 6131 6134 6136 6156 6222
          6224 6226 6236 6238 6240 6250
          6252 6254 6264 6266 6268 6458
          6459 6460 6463 6468 6469 6470
          6473 6474 6475 6476 6477 6478
          6479 6480 6481 6482 6483 6484
          6485 6486 6487 6488 6489 6490
          6491 6492 6493 6496 6497 6500
          6503 6504 6507 6508 6509 6510
          6511 6512 6513 6514 6515 6516
          6517 6518 6519 6520 6521 6526
          6527 6531 6542 6543 6544 6545
          6546 6547 6548 6549 6550 6551
          6554 6558 6566 6567 6568 6569
          6570 6571 6572 6573 6574 6575
          6576 6577 6578 6579 6580 6581
          6582 6721 6722 6725 6728 6729
          6732 6733 6734 6735 6736 6737
          6738 6739 6740 6741 6742 6743
          6744 6745 6746 6749 6750 6753
          6756 6757 6760 6761 6762 6763
          6764 6765 6766 6767 6768 6769
          6770 6771 6772 6773 6774 6777
          6781 6789 6790 6791 6792 6793
          6794 6795 6796 6797 6798 6799
          6800 6801 6802 6805 6809 6817
          6818 6819 6820 6821 6822 6823
          6824 6825 6826 6827 6828 6829
          6830 6988 6989 6992 6993 6995
          6997 7188 7190 7192 7194 7216
          7218 7220 7222 7289 7290 7291
          7292 7293 7294 7295 7296 7297
          7298 7299 7300 7301 7302 7303
          7304 7305 7306 7307 7308 7309
          7310 7311 7312 7313 7314 7315
          7316 7317 7318 7319 7320 7321
          7322 7323 7324 7325 7326 7327
          7328 7329 7330 7331 7332 7333
          7334 7335 7336 7337 7338 7339
          7340 7341 7342 7343 7344 7345
          7346 7347 7348 7349 7350 7351
          7352 7353 7354 7355 7356 7357
          7358 7359 7360 7361 7362 7363
          7364 7365 7366 7367 7368 7369
          7370 7371 7372 7373 7374 7375
          7376 7377 7378 7379 7380 7381
          7382 7383 7384 7385 7386 7387
          7388 7389 7390 7391 7392 7393
          7394 7395 7396 7397 7398 7399
          7400 7401 7402 7403 7404 7405
          7406 7407 7408 7409 7410 7411
          7412 7413 7414 7415 7416 7417
          7418 7419 7420 7421 7422 7423
          7424 7425 7426 7427 7428 7429
          7430 7431 7432 7433 7434 7435
          7436 7437 7438 7439 7440 7441
          7442 7443 7444 7445 7446 7447
          7448 7449 7450 7451 7452 7453
          7454 7455 7456 7457 7458 7459
          7460 7461 7462 7463 7465 7466
          7467 7468 7469 7470 7471 7472
          7473 7475 7477 7479 977 978
          967 986 813 1685 1689 1686
          1687 1690 1691 1693 2013 2016
          2017 2014 2020 2019 2030 2031
          2036 1694 1698 1695 1701 1699
          2040 2041 1700 2046 1703 2048
          2049 2051 2052 1702 2055 2053
          2057 2059 2060 2061 3108 3109
          3112 3114 1667 3022 3023 3024
          3303 3027 1668 3032 3033 3308
          3034 3310 3312 3313 3116 3120
          6990 6991 6994 6996 7189 7191
          7193 3060 7217 7219 7221 3064
          7007 7197 7198 7201 3061 7464
          7225 7226 7474 7476 7229 1673
          7478
        </DataArray>
        <DataArray type="Float64" Name="bounds" format="ascii" RangeMin="0" RangeMax="0">
          0 0 0 0 0 0
          0 0 0 0 0 0
          0 0 0 0 0 0
          0 0 0 0 0 0
          0 0 0 0 0 0
          0 0 0 0 0 0
          0 0 0 0 0 0
          0 0 0 0 0 0
          0 0 0 0 0 0
          0 0 0 0 0 0
          0 0 0 0 0 0
          0 0 0 0 0 0
          0 0 0 0 0 0
          0 0 0 0 0 0
          0 0 0 0 0 0
          0 0 0 0 0 0
          0 0 0 0 0 0
          0 0 0 0 0 0
          0 0 0 0 0 0
          0 0 0 0 0 0
          0 0 0 0 0 0
          0 0 0 0 0 0
          0 0 0 0 0 0
          0 0 0 0 0 0
          0 0 0 0 0 0
          0 0 0 0 0 0
          0 0 0 0 0 0
          0 0 0 0 0 0
          0 0 0 0 0 0
          0 0 0 0 0 0
          0 0 0 0 0 0
          0 0 0 0 0 0
          0 0 0 0 0 0
          0 0 0 0 0 0
          0 0 0 0 0 0
          0 0 0 0 0 0
          0 0 0 0 0 0
          0 0 0 0 0 0
          0 0 0 0 0 0
          0 0 0 0 0 0
          0 0 0 0 0 0
          0 0 0 0 0 0
          0 0 0 0 0 0
          0 0 0 0 0 0
          0 0 0 0 0 0
          0 0 0 0 0 0
          0 0 0 0 0 0
          0 0 0 0 0 0
          0 0 0 0 0 0
          0 0 0 0 0 0
          0 0 0 0 0 0
          0 0 0 0 0 0
          0 0 0 0 0 0
          0 0 0 0 0 0
          0 0 0 0 0 0
          0 0 0 0 0 0
          0 0 0 0 0 0
          0 0 0 0 0 0
          0 0 0 0 0 0
          0 0 0 0 0 0
          0 0 0 0 0 0
          0 0 0 0 0 0
          0 0 0 0 0 0
          0 0 0 0 0 0
          0 0 0 0 0 0
          0 0 0 0 0 0
          0 0 0 0 0 0
          0 0 0 0 0 0
          0 0 0 0 0 0
          0 0 0 0 0 0
          0 0 0 0 0 0
          0 0 0 0 0 0
          0 0 0 0 0 0
          0 0 0 0 0 0
          0 0 0 0 0 0
          0 0 0 0 0 0
          0 0 0 0 0 0
          0 0 0 0 0 0
          0 0 0 0 0 0
          0 0 0 0 0 0
          0 0 0 0 0 0
          0 0 0 0 0 0
          0 0 0 0 0 0
          0 0 0 0 0 0
          0 0 0 0 0 0
          0 0 0 0 0 0
          0 0 0 0 0 0
          0 0 0 0 0 0
          0 0 0 0 0 0
          0 0 0 0 0 0
          0 0 0 0 0 0
          0 0 0 0 0 0
          0 0 0 0 0 0
          0 0 0 0 0 0
          0 0 0 0 0 0
          0 0 0 0 0 0
          0 0 0 0 0 0
          0 0 0 0 0 0
          0 0 0 0 0 0
          0 0 0 0 0 0
          0 0 0 0 0 0
          0 0 0 0 0 0
          0 0 0 0 0 0
          0 0 0 0 0 0
          0 0 0 0 0 0
          0 0 0 0 0 0
          0 0 0 0 0 0
          0 0 0 0 0 0
          0 0 0 0 0 0
          0 0 0 0 0 0
          0 0 0 0 0 0
          0 0 0 0 0 0
          0 0 0 0 0 0
          0 0 0 0 0 0
          0 0 0 0 0 0
          0 0 0 0 0 0
          0 0 0 0 0 0
          0 0 0 0 0 0
          0 0 0 0 0 0
          0 0 0 0 0 0
          0 0 0 0 0 0
          0 0 0 0 0 0
          0 0 0 0 0 0
          0 0 0 0 0 0
          0 0 0 0 0 0
          0 0 0 0 0 0
          0 0 0 0 0 0
          0 0 0 0 0 0
          0 0 0 0 0 0
          0 0 0 0 0 0
          0 0 0 0 0 0
          0 0 0 0 0 0
          0 0 0 0 0 0
          0 0 0 0 0 0
          0 0 0 0 0 0
          0 0 0 0 0 0
          0 0 0 0 0 0
          0 0 0 0 0 0
          0 0 0 0 0 0
          0 0 0 0 0 0
          0 0 0 0 0 0
          0 0 0 0 0 0
          0 0 0 0 0 0
          0 0 0 0 0 0
          0 0 0 0 0 0
          0 0 0 0 0 0
          0 0 0 0 0 0
          0 0 0 0 0 0
          0 0 0 0 0 0
          0 0 0 0 0 0
          0 0 0 0 0 0
          0
        </DataArray>
        <DataArray type="Float64" Name="gradient_error" format="ascii" RangeMin="8.26095308203421e-15" RangeMax="8.754275950714872e-10">
          3.6536711456088923e-13 3.412342280836309e-13 3.157707393235696e-13 3.1016080645875266e-13 3.06072215575136e-13 3.037448883996706e-13
          3.0435975990755784e-13 3.025789598072635e-13 3.1710134160637255e-13 3.045508735939358e-13 3.014175612242052e-13 3.0079815970696917e-13
          2.073175881281686e-11 2.062595431376398e-11 3.0368356944474905e-12 2.4791154893664554e-12 6.222477942243907e-13 5.602580832146412e-13
          3.0424052169806e-13 3.028336040771598e-13 2.6131500126804327e-13 2.6380898271514465e-13 2.569714917597967e-13 2.5917428774552557e-13
          2.0520149814711097e-11 1.92139528428542e-12 4.982683722048915e-13 3.014266864562596e-13 2.66302964162246e-13 2.613770837312545e-13
          2.1124604164028477e-11 4.7301748950266447e-11 3.0084881538596893e-12 3.6689221624611045e-12 8.274017411534385e-13 7.211029029095492e-13
          2.4726470316516793e-13 2.367940420705015e-13 1.6995908126784455e-13 1.6381372893333208e-13 1.6192390716516992e-13 1.5586279499055908e-13
          7.180145660962326e-11 4.4160979004215016e-12 6.148040646656596e-13 2.263233809758352e-13 1.576683765988196e-13 1.4980168281594823e-13
          3.3545440182035926e-11 9.475760140854485e-11 8.550925540945083e-13 2.370885703758241e-12 5.284527632546264e-13 5.127636212822826e-13
          1.694481304024151e-13 1.5911223262778928e-13 8.546628955618569e-14 8.404987485469552e-14 7.394002617432205e-14 7.398041864667239e-14
          6.054439637892041e-11 3.0930301595080884e-12 5.192582321315446e-13 1.487763348531634e-13 8.263346015320533e-14 7.402081111902272e-14
          2.795222162484112e-11 1.703136047650712e-13 5.340188429185932e-13 1.0234864272296423e-13 2.857021565246853e-13 1.0824555950408668e-13
          1.1891988159438506e-13 3.7973931331085875e-14 5.674719360036055e-14 2.7367873036673537e-14 4.685519067130529e-14 7.732603845760555e-12
          6.33789880227961e-13 4.457384447621505e-13 1.2959420368468342e-13 7.552045586963523e-14 6.634250830593705e-14 7.301743496532166e-11
          2.498980750404643e-11 5.903718599028835e-11 6.856524772109359e-11 4.1294747419744725e-12 2.7342506143279176e-12 5.176176218457555e-12
          4.524818857491952e-13 3.028722543749534e-12 1.0192516241755037e-12 1.32485383817856e-13 3.9629050747465676e-13 6.244670351724542e-12
          4.544419619896191e-12 8.811404509142882e-13 1.1117929822853937e-13 2.349463850122523e-12 2.493242375534309e-13 1.7705037491870795e-13
          1.3596095425014004e-13 1.3089145561016057e-13 1.0724553205578205e-13 9.419959688112354e-14 8.367445684164566e-14 1.0477651228398498e-13
          1.2589607334438642e-13 7.314931680216778e-14 3.373071392283043e-14 8.536216115914795e-14 6.010338162750927e-14 1.4701563440478786e-13
          1.8883083725957952e-11 2.291591790209865e-11 1.230482180246138e-11 3.0362022964811977e-10 2.642126500574064e-12 2.4838372398067705e-12
          3.1193163226329342e-12 6.06352987285079e-13 3.1395716820871436e-12 2.230604868435676e-12 5.130831185756509e-13 1.6169998074214334e-11
          9.153479327805642e-13 1.1337383277658945e-13 1.7935454370204083e-13 7.945095300203894e-14 8.620286483356914e-14 8.094530661746536e-14
          2.392993854221527e-13 1.7023666220103732e-13 8.693587404026025e-14 1.0841736042873255e-13 1.0844381140639306e-13 1.0199369957570954e-11
          3.1092853536663005e-11 3.2348141881247945e-11 3.3603430225832884e-11 2.8661318504818084e-11 2.823292624061279e-11 9.694582886597577e-12
          2.7804533976407488e-11 2.7225487848852947e-12 2.818738751606891e-12 1.1809444256959204e-12 9.938068562457896e-13 1.4742251174328155e-12
          1.6323600400923466e-12 6.118839458062267e-13 2.914928718328487e-12 8.06669286795659e-13 1.790494962751878e-12 1.3950486009257263e-11
          1.8602109070894802e-11 2.096092879930889e-11 2.331974852772298e-11 5.0719608011747283e-11 2.1746297567022956e-11 1.3392567375451269e-11
          5.2684578144069994e-11 1.0072192241694148e-11 4.876311947863266e-11 5.100696759559876e-12 6.973312000260555e-11 3.224006755194182e-12
          2.0980183471978278e-12 1.0350186490082924e-12 7.80587419424511e-13 2.24180107302969e-12 1.8479900293112937e-12 7.689862051648944e-13
          9.412588597536238e-13 5.261561898407295e-13 1.4541789855928975e-12 9.744295518499301e-12 7.787185541445598e-11 9.970830058705173e-12
          1.2159545578824538e-11 5.03463968937136e-12 1.7542634414266817e-11 7.756532329680083e-12 1.929799853820386e-11 4.146256852165393e-12
          8.04058958113719e-11 7.020128956687275e-12 6.0359989334099145e-12 2.1223519357198064e-12 2.74596779699206e-12 4.182061199654404e-12
          3.3428758061350714e-12 1.6865767888387448e-12 4.277183761157755e-12 2.2454711839824585e-12 1.2244004394767027e-12 5.701167145421802e-13
          5.999467089191355e-13 1.7497113016177409e-12 1.4940145424980502e-12 3.3523837260936447e-12 3.3542968672623613e-12 9.477502076054233e-13
          1.2818198319771638e-12 1.3162530451293993e-12 1.2383177833783596e-12 3.3562100084310787e-12 1.350686258281635e-12 1.516902353605197e-12
          2.000371398898736e-12 2.5797641333624194e-12 3.0633356315954386e-12 7.499775992555542e-13 6.575201768349436e-13 9.037741101492336e-13
          2.4838404441922756e-12 3.5469071298284574e-12 1.1500280434635237e-12 2.0615024542169327e-13 2.6923305918219584e-13 1.8029498024286245e-13
          2.377630830914384e-13 1.8878545861105705e-13 1.0605489912373148e-13 1.4709549366827396e-13 3.323158729426984e-13 2.952311859400143e-13
          1.8813608821281644e-13 2.3796124650524107e-13 2.063503812403578e-13 1.4789561869049015e-13 1.2039536502692037e-13 2.5182090152870136e-13
          2.39517616455476e-13 1.482874146861398e-13 1.7473951597547449e-13 9.289511136335056e-14 2.2721433138225062e-13 1.3277452408888067e-14
          1.1954692429476562e-14 5.179943696624346e-14 3.3783206540274e-14 8.26095308203421e-15 1.954222880642624e-14 1.445709942755967e-14
          1.0631932450065058e-14 1.5766976114304548e-14 9.371970048693096e-15 9.032142152359886e-14 5.561172065107145e-14 2.0653245773085128e-14
          2.0902019778544038e-14 4.2647153622112075e-12 6.7107375135182496e-12 5.328954577019047e-12 2.503424354094608e-12 5.0910962987924955e-12
          1.4778359553384134e-12 4.157405537883904e-13 3.591957618156255e-13 8.620585697466123e-14 2.6870711483393384e-13 9.668854356320139e-13
          4.316328297098661e-12 5.74887233779629e-13 1.4692206899079626e-12 8.799947723827114e-13 1.3393353833104512e-12 7.779246578618984e-13
          3.983862018988042e-14 3.796545473219751e-14 3.630108306656332e-14 4.597461725760212e-14 4.2630397341390224e-14 3.6092289274514594e-14
          3.928617742517832e-14 1.462115529991473e-13 1.088275389844551e-13 5.4580596749760193e-14 1.3108452248273452e-13 9.736856697518383e-14
          7.144352496976289e-14 6.365261146763316e-14 1.401565372006075e-13 6.406943819568114e-14 4.9686135511466294e-14 3.067759862945909e-14
          2.222731691731237e-11 2.8577779922839437e-11 2.045191055403979e-11 3.49282429283665e-11 7.194785526010707e-12 9.000102404943841e-12
          2.5881661764888295e-12 3.0619683667938174e-12 5.260521952974511e-12 6.134795969862067e-12 2.111554800811637e-12 1.0805419283876975e-11
          3.5357705570988054e-12 7.009069986749622e-12 2.582996140136324e-11 5.567938503916507e-11 2.7228238704371637e-11 2.1540766904758982e-10
          2.063147909186177e-11 1.974403746868688e-11 1.064202011472183e-11 1.9008221153605302e-11 3.941098638373308e-11 1.427079222194792e-11
          5.350954751416838e-11 1.2845235749329374e-11 2.7976542157358142e-11 6.049209461111506e-12 1.3269469074455131e-11 1.251861723333219e-11
          1.3636104878750924e-11 6.379911885102958e-12 1.4469023196077243e-10 7.077190685756057e-11 3.9952350589253594e-11 3.638899020073022e-12
          3.7810962977574956e-12 3.709486277926737e-12 3.044570321064185e-12 8.74702794162611e-12 4.592698326715202e-10 2.3123057408320224e-10
          1.1354892651167944e-10 5.6014371715233096e-11 6.445218883968772e-10 3.291262956671861e-10 1.616836275262439e-10 2.5839224911161788e-11
          1.1132681061643106e-11 3.733935402327725e-11 1.3971367278341635e-11 1.2932184192980931e-11 6.630819249345238e-12 6.181801094844181e-12
          5.9983843266990595e-12 1.2649841362175149e-11 6.238054288018191e-12 1.2161986075980768e-11 5.829486871229751e-12 1.0008783255578986e-11
          2.9462543940221115e-12 2.7409003282702306e-12 1.2598025306819038e-12 1.7427516952949728e-12 1.476925976222709e-12 2.8013319021439294e-12
          1.2028323639716692e-12 3.297748685970695e-12 2.698105739095149e-12 3.106764635767385e-12 2.0256323038177642e-11 9.784622105214167e-12
          7.1628549879583e-12 3.4315343385877584e-12 2.773029111362017e-11 1.3507557766340712e-11 8.920572322551227e-12 5.017297004055886e-12
          3.3066850040558643e-12 2.299284285869647e-12 2.8715807444685465e-12 6.161758071483036e-12 3.5346629096442925e-12 1.907872158998441e-12
          1.7122783086259322e-12 1.9080182538570434e-12 1.413734005025338e-12 2.7290238190179043e-12 2.452874965500839e-12 3.381839516169626e-12
          3.0876898047121034e-13 4.654579720922416e-13 2.200141170677543e-13 2.3200848536906574e-13 3.8277470111741355e-13 3.599148683764341e-13
          2.326243556634734e-13 8.866470305686782e-13 9.446462344602666e-13 5.818937300699905e-13 5.223562385844595e-13 6.895589137332266e-13
          6.271909163679078e-13 3.3719662419670825e-13 1.0026454383518548e-12 4.628187470989285e-13 5.648229190025889e-13 2.287547053802315e-11
          1.3081049874251362e-11 8.458796305181035e-12 1.1684456246599959e-11 3.3552651048063815e-12 1.3716852186039527e-11 4.956373768476835e-12
          6.0308611297413454e-12 2.433976710606692e-12 2.9433159811733173e-12 2.104864747715727e-12 2.0113414187502238e-12 1.095930291683214e-12
          7.105348491005856e-12 3.4526552517399434e-12 1.9178180897847206e-12 1.0871143551531433e-12 1.3235866353937109e-12 6.567613517017014e-13
          7.852834582087542e-13 6.556130224626407e-13 6.001663892855089e-13 4.470171285477136e-13 1.560058915634279e-12 9.13805564715807e-13
          5.44719756108377e-13 5.697070454460505e-13 1.3326783570234908e-12 2.840960292496797e-13 3.02643926682063e-13 5.269519074332786e-13
          2.609523610832609e-13 1.2778034649099386e-13 8.044337123041438e-14 8.734657311612973e-14 1.1669205405544301e-11 5.5950353961894816e-12
          7.828596301368712e-12 3.7396595140220575e-12 2.521727072954303e-12 1.6378570690448028e-12 2.326696504539418e-11 9.060460798473774e-12
          1.454773957512005e-11 1.0879117038845555e-11 3.3301632507886695e-11 7.375690667671002e-11 3.9407715771217516e-11 1.5261458818114205e-10
          2.8404080564674786e-10 1.3926078672076896e-10 4.484383591173593e-10 5.821661975668449e-10 2.7921049710448825e-10 6.312536785195958e-10
          1.3233248053682228e-11 1.9769840656140243e-11 1.0815883418351121e-11 3.728318848801003e-11 8.036364217090242e-12 6.355874902857606e-11
          2.7210523228378583e-11 9.520078547365432e-11 1.1153856733608566e-11 6.6219701690294915e-12 1.550310959112471e-11 1.2195839890766645e-10
          4.955343539824051e-11 1.3237278120775463e-10 1.9043330639244838e-11 1.0292099352364998e-11 2.0439789903830067e-11 9.459340955421954e-12
          1.6465574059929998e-11 1.1496747533988566e-11 3.974703559828259e-11 4.5102573730478415e-12 7.918566289910298e-12 5.3781206697512645e-12
          1.9413614593000814e-11 6.3283556337576994e-12 1.0249512596615573e-11 4.3384145170802825e-12 7.115497149725885e-12 5.140500130376481e-12
          7.634206620967932e-12 5.2722340649512625e-12 2.3691249330663723e-11 1.664155204223728e-11 1.5483554741543658e-11 2.9768385065174166e-12
          4.887355353760012e-12 2.0590351362954248e-12 3.3215172936562055e-12 2.3930880601560035e-12 3.614410927577405e-12 2.470822769272596e-12
          1.1517399644923152e-11 7.851706514781453e-12 7.500109188591171e-12 9.237859178389668e-11 6.559189415983812e-11 2.0186422919921572e-10
          4.5878650658435984e-11 3.161875195012446e-11 1.0202180488842175e-10 5.2967775776734415e-11 3.750394535456101e-11 2.818039495695996e-11
          1.9892265829376187e-11 1.1067432198748799e-10 7.900893739427581e-11 5.619865594142475e-11 2.6167019608286247e-11 1.799385197764204e-11
          1.3832973359159663e-11 9.484871909531619e-12 5.552678360961837e-11 3.841531281865208e-11 2.7979738420430522e-11 2.1626619426758277e-12
          3.5837426973350125e-12 8.920833952352506e-12 1.4565927497323622e-12 2.2062361520759445e-12 1.241661444798785e-12 1.7524319546843052e-12
          1.1542408302912484e-12 1.6586268803121935e-12 1.3452560512088477e-12 5.2531925870675554e-12 4.1109748420962365e-12 3.447271626066654e-12
          2.1491239324723278e-11 4.829562123529527e-11 1.2207916450976422e-11 8.147179822344146e-12 6.417897689020494e-12 4.271309507334165e-12
          2.6157208172375147e-11 1.7531340968405887e-11 1.3101191182651796e-11 3.2633264929118715e-12 5.3320396494723135e-12 2.0871127814613662e-12
          3.426909177401116e-12 1.7996521451792172e-12 2.7706550804341402e-12 2.0489084116651287e-12 1.1574714275779852e-11 7.509418077410323e-12
          5.736359682428587e-12 3.9161292771153755e-10 2.834168415438366e-10 6.291446889788106e-10 2.014891090651468e-10 1.407437265186336e-10
          3.2893928929861174e-10 2.0789396807981885e-10 1.4961570521682378e-10 1.0130484803140408e-10 7.25338497581541e-11 3.307629486120607e-10
          2.396547777815341e-10 1.5769682533451963e-10 1.058827208505331e-10 7.368907200909233e-11 5.1113708722588484e-11 3.5448304031101016e-11
          1.7060266892674886e-10 1.1933383089016136e-10 8.041676785261304e-11 8.127423282343993e-10 5.969767578054357e-10 8.754275950714872e-10
          4.298967124772532e-10 3.0364085386464537e-10 4.6510640204837604e-10 4.315953657748574e-10 3.1412601412815097e-10 2.052250523913414e-10
          1.4830284318024947e-10 4.688278489618699e-10 3.4177337474534866e-10 2.2346825265098636e-10 2.2450902356973594e-10 1.575941744082502e-10
          1.0536495516727563e-10 7.359807752872851e-11 2.446216958955324e-10 1.7193649579379638e-10 1.1499796506657307e-10 9.661014873201652e-11
          1.5957546767770068e-10 5.0435000214582953e-11 3.39495604225533e-11 2.4188342286097726e-11 1.62395162410757e-11 8.202551849489723e-11
          5.540520637613857e-11 3.8366850011599544e-11 2.2480830466739152e-11 1.46365463285482e-11 1.0734829523807175e-11 6.96844216150025e-12
          3.677389369546629e-11 2.3983458171119852e-11 1.7107616247457995e-11 2.1042358021639637e-10 2.2847091426756955e-10 1.0865867909655504e-10
          7.359196019974107e-11 5.053947735679849e-11 3.411560705671034e-11 1.1868723256996842e-10 8.046944516932867e-11 5.5265951301397333e-11
          4.89620099306646e-11 3.200032587213424e-11 2.263280834352485e-11 1.4754411464219002e-11 5.358921765834796e-11 3.5054697477645404e-11
          2.478898189057995e-11 1.3256985386813366e-12 2.1692874914312333e-12 9.686429119134668e-13 1.4963994902080446e-12 4.7766963622047344e-12
          2.783312757026537e-12 9.357680299027655e-12 4.432551053815643e-12 1.5371141498859296e-11 7.12051334313838e-12 2.05452108880634e-11
          9.452392901715067e-12 2.252298309623518e-11 1.0365970123496166e-11 9.349752888585276e-12 1.40308378012981e-11 6.535970340116487e-12
          9.83491430821021e-12 6.4660602704859e-12 9.170412292630085e-12 6.3686873801656845e-12 2.6719542235901907e-11 1.886290820830537e-11
          1.398599454404145e-11 4.488081579290474e-12 6.799279944005694e-12 3.0537054301291964e-12 4.646433954543971e-12 3.061564385918761e-12
          4.375878323776801e-12 2.9828512102872937e-12 1.3142781094432844e-11 9.035220482636845e-12 6.775874463986331e-12 2.0635271461190634e-12
          3.1374112325913535e-12 1.3950748364076416e-12 2.092898671310109e-12 1.393034704331591e-12 2.01382136963968e-12 1.3602810135451998e-12
          6.124273437014473e-12 4.080637480737713e-12 3.129805873471126e-12 9.452823072006764e-13 1.3639066993002091e-12 7.792474220654035e-13
          1.0704168505850877e-12 6.639858326636342e-13 9.290335505669727e-13 7.720966739184984e-13 2.650280572876147e-12 1.951766969093007e-12
          1.6833706439639951e-12 4.5950069042796413e-11 3.2707718095486115e-11 1.948930369698881e-11 1.3767513667733045e-11 6.922848336144324e-11
          4.9564235311282996e-11 2.8467903730313686e-11 2.2939775727639533e-11 1.5855514474736275e-11 9.595985791106172e-12 6.588435593930401e-12
          3.493455244805084e-11 2.4244522008097227e-11 1.4194115988000625e-11 6.3091979517927866e-12 7.932838756438972e-12 4.398811583246475e-12
          5.563550343291102e-12 4.193037456110718e-12 4.754096244883543e-12 3.3181914988093176e-12 1.111546258757048e-11 7.855580328594487e-12
          6.07398347959322e-12 3.04789191305127e-12 3.859677437720356e-12 2.08787444372483e-12 2.6405725179906045e-12 2.027673410066323e-12
          2.3044255589610446e-12 1.605103492495063e-12 5.470214062930841e-12 3.752018799534762e-12 2.973557249186886e-12 8.899428153141062e-11
          6.39140204816845e-11 3.590653328575384e-11 2.5627448668137097e-11 9.670457266773473e-11 6.952304839146842e-11 3.8814256846182884e-11
          4.517301622870113e-11 3.141993621847244e-11 1.8011321890887166e-11 1.2458964368842392e-11 4.918139513643489e-11 3.423057888390802e-11
          1.9507667822823354e-11 1.3690902760415192e-11 9.708475923209682e-12 7.349546433979648e-12 5.189854802736435e-12 1.4707359906774588e-11
          1.0434080292566113e-11 7.866280942429224e-12 6.781998672430405e-12 4.668347301707271e-12 3.6137111959453523e-12 2.4984034808013544e-12
          7.29503218138857e-12 5.025927596601397e-12 3.8614856013726996e-12 1.0808765916257923e-11 7.244997162458013e-12 4.434010158271261e-12
          3.515058579546265e-12 1.6584167706293492e-11 1.1157136009346858e-11 6.621884672789862e-12 4.754423042437152e-12 3.057995004510471e-12
          2.847568451896688e-12 1.8271713931328736e-12 7.358666897805598e-12 4.7666836874563345e-12 3.397395883749219e-12 1.3920841764182246e-12
          1.7625990799500875e-12 1.1198464709111272e-12 1.403294384085604e-12 9.767611951178345e-13 1.1568696814517567e-12 1.0006491749067955e-12
          2.524991148308036e-12 1.8538378239038807e-12 1.5029187722982822e-12 2.151232635289454e-11 1.4493159505405478e-11 8.476994339758447e-12
          5.652262385493072e-12 2.343659757075264e-11 1.579148886177041e-11 9.200834857746889e-12 9.609852717971095e-12 6.256560465261949e-12
          3.68930471428189e-12 2.8682351454180345e-12 1.0493187670852746e-11 6.84888625054505e-12 4.0437540451078e-12 3.163514010931777e-12
          2.1085667592279578e-12 1.7381760078839993e-12 1.245116187760356e-12 3.4101597087294336e-12 2.279747931230134e-12 1.8074926389571137e-12
          1.2759428786865174e-12 1.381917348259623e-12 1.0178544588546897e-12 1.088806141319359e-12 9.4327040377317e-13 9.30362241370642e-13
          8.093084954698204e-13 1.4878918178327283e-12 1.1597578237840282e-12 9.17454078968114e-13 1.4123966312156338e-12 1.9349714067967955e-12
          8.856984053465053e-13 1.2089633130555308e-12 9.086262869149594e-13 1.1627335109233142e-12 7.368183997194376e-13 3.0300549904802805e-12
          1.891733606956824e-12 1.7384618714673e-12 5.518287013549926e-13 7.416423924699881e-13 4.3070737636674086e-13 5.623590111991811e-13
          3.780841729450282e-13 4.79294429093516e-13 3.903491648016875e-13 1.1570816425718473e-12 6.934338257812654e-13 3.980699440192342e-12
          2.485171847479315e-12 2.2740276569351857e-12 1.4029523841106149e-12 4.35883508180208e-12 2.7191047018095387e-12 2.4879723058674414e-12
          1.527854588737817e-12 8.694197684903632e-13 1.6730019759169234e-12 9.324765706601995e-13 2.785751137969706e-13 1.655723584511326e-13
          3.1547942414340657e-13 2.1251465929448122e-13 4.232549510960416e-13 8.493238493154608e-13 1.1244170573419173e-12 2.3094691124420627e-13
          2.717889240566786e-13 3.3394011408462305e-13 1.3873261371916738e-12 1.3859957324810181e-12 5.879051763940714e-13 4.675201363740599e-13