<?xml version="1.0"?>
<VTKFile type="UnstructuredGrid" version="0.1" byte_order="LittleEndian" header_type="UInt32" compressor="vtkZLibDataCompressor">
  <UnstructuredGrid>
    <Piece NumberOfPoints="712" NumberOfCells="471">
      <PointData>
        <DataArray type="Int32" Name="libmesh_node_id" format="ascii" RangeMin="710" RangeMax="6765">
          710 952 1596 1597 1598 1602
          1603 1604 1616 1617 1618 1619
          1622 1623 1624 2644 2645 2646
          2652 2654 2655 2656 2657 2658
          2659 2660 2661 2662 2663 2664
          2665 2666 2667 2738 2739 2741
          2744 2746 2747 2748 2749 2750
          2751 2752 2753 2754 2755 2758
          2759 2764 2766 2767 2773 2774
          2778 2779 2781 2784 2786 2787
          2788 2789 2790 2791 2792 2793
          2794 2795 2797 2801 2803 2804
          2807 2808 3235 3236 3237 3239
          3240 3362 3363 3369 3382 3386
          4775 4776 4777 4778 4779 4780
          4781 4782 4783 4784 4785 4786
          4787 4788 4799 4800 4801 4802
          4803 4804 4805 4806 4807 4808
          4809 4810 4811 4812 4813 4814
          4815 4816 4817 4818 4819 4820
          4821 4822 4823 4824 4825 4826
          4827 4828 4829 4830 4831 4832
          4833 4834 4835 4836 4837 4838
          4839 4840 4841 4842 4843 4844
          4845 4846 5322 5323 5324 5325
          5326 5327 5328 5329 5330 5331
          5339 5340 5341 5342 5343 5344
          5345 5356 5357 5358 5359 5360
          5361 5362 5363 5364 5365 5373
          5374 5375 5376 5377 5378 5379
          5380 5381 5382 5383 5384 5385
          5386 5387 5388 5389 5390 5391
          5392 5393 5394 5395 5396 5397
          5398 5399 5400 5401 5402 5403
          5404 5405 5406 5407 5408 5409
          5410 5411 5412 5413 5414 5415
          5416 5417 5418 5419 5420 5421
          5422 5423 5424 5425 5426 5427
          5428 5429 5430 5431 5432 5433
          5434 5435 5436 5437 5438 5439
          5440 5441 5442 5443 5444 5445
          5446 5447 5448 5449 5450 5461
          5462 5463 5464 5465 5466 5467
          5468 5469 5470 5498 5499 5500
          5501 5502 5503 5504 5519 5520
          5521 5522 5523 5524 5525 5526
          5527 5528 5529 5530 5531 5532
          5533 5534 5536 5537 5538 5547
          5556 5559 5560 5561 5562 5563
          5564 5565 5566 5567 5568 5569
          5570 5571 5572 5574 5578 5580
          5584 5597 5598 5599 5600 5601
          5602 5603 5604 5605 5606 5614
          5615 5616 5617 5618 5619 5620
          5631 5632 5633 5634 5635 5636
          5637 5638 5639 5640 5648 5649
          5650 5651 5652 5653 5654 5655
          5656 5657 5658 5659 5660 5661
          5662 5663 5664 5665 5666 5667
          5668 5669 5670 5671 5672 5673
          5674 5675 5676 5677 5678 5679
          5680 5681 5682 5683 5684 5685
          5686 5687 5688 5689 5690 5691
          5692 5693 5694 5695 5696 5697
          5698 5699 5700 5701 5702 5703
          5704 5705 5706 5707 5708 5709
          5710 5711 5712 5713 5714 5715
          5716 5717 5718 5719 5720 5721
          5722 5730 5731 5732 5733 5734
          5735 5736 5758 5759 5760 5761
          5762 5763 5764 5779 5780 5781
          5782 5783 5784 5785 5786 5787
          5788 5789 5790 5791 5792 5794
          5798 5800 5804 5807 5808 5809
          5810 5811 5812 5813 5814 5815
          5816 5817 5818 5819 5820 5822
          5826 5828 5832 6290 6291 6292
          6293 6297 6298 6300 6301 6303
          6318 6319 6322 6323 6325 6327
          6338 6339 6342 6344 6345 6347
          6358 6360 6362 6364 6454 6455
          6461 6494 6498 6583 6584 6587
          6589 6590 6592 6603 6605 6607
          6609 6617 6618 6621 6623 6624
          6626 6637 6639 6641 6643 6719
          6723 6747 6751 1592 793 1593
          1594 1595 951 1599 1601 1600
          2001 2002 2003 2004 2008 2009
          2640 2641 2642 2643 2647 2649
          2648 3231 3229 2653 2756 3230
          3238 3234 3241 2768 3364 3365
          3366 3367 3368 3370 3371 2908
          2909 2915 3383 3384 3385 3387
          3388 2936 4765 4766 4767 4770
          2650 4773 2651 4791 4792 4795
          4797 5314 5315 5317 2736 5320
          2737 5333 5335 5337 2740 5348
          5349 5351 2742 5354 2743 5367
          5369 5371 2745 5453 5454 5457
          5459 2757 5492 5494 5496 2763
          5535 2769 5557 5581 5585 5589
          5590 5592 2776 5595 2777 5608
          5610 5612 2780 5623 5624 5626
          2782 5629 2783 5642 5644 5646
          2785 5724 5726 5728 2796 5752
          5754 5756 2800 5801 5805 5829
          5833 6294 6295 6296 6299 2910
          6302 2911 6320 6321 6324 6326
          2916 6340 6341 6343 2918 6346
          2919 6359 6361 6363 2921 6456
          6457 6458 6459 6460 6462 6463
          2937 6495 6496 6497 6499 6500
          2943 6481 6508 6512 6585 6586
          6588 2956 6591 2957 6604 6606
          6608 2960 6619 6620 6622 2962
          6625 2963 6638 6640 6642 2965
          6720 6721 6722 6724 6725 2976
          6733 6737 6748 6749 6750 6752
          6753 2980 6761 6765
        </DataArray>
        <DataArray type="Float64" Name="bounds" format="ascii" RangeMin="0" RangeMax="0">
          0 0 0 0 0 0
          0 0 0 0 0 0
          0 0 0 0 0 0
          0 0 0 0 0 0
          0 0 0 0 0 0
          0 0 0 0 0 0
          0 0 0 0 0 0
          0 0 0 0 0 0
          0 0 0 0 0 0
          0 0 0 0 0 0
          0 0 0 0 0 0
          0 0 0 0 0 0
          0 0 0 0 0 0
          0 0 0 0 0 0
          0 0 0 0 0 0
          0 0 0 0 0 0
          0 0 0 0 0 0
          0 0 0 0 0 0
          0 0 0 0 0 0
          0 0 0 0 0 0
          0 0 0 0 0 0
          0 0 0 0 0 0
          0 0 0 0 0 0
          0 0 0 0 0 0
          0 0 0 0 0 0
          0 0 0 0 0 0
          0 0 0 0 0 0
          0 0 0 0 0 0
          0 0 0 0 0 0
          0 0 0 0 0 0
          0 0 0 0 0 0
          0 0 0 0 0 0
          0 0 0 0 0 0
          0 0 0 0 0 0
          0 0 0 0 0 0
          0 0 0 0 0 0
          0 0 0 0 0 0
          0 0 0 0 0 0
          0 0 0 0 0 0
          0 0 0 0 0 0
          0 0 0 0 0 0
          0 0 0 0 0 0
          0 0 0 0 0 0
          0 0 0 0 0 0
          0 0 0 0 0 0
          0 0 0 0 0 0
          0 0 0 0 0 0
          0 0 0 0 0 0
          0 0 0 0 0 0
          0 0 0 0 0 0
          0 0 0 0 0 0
          0 0 0 0 0 0
          0 0 0 0 0 0
          0 0 0 0 0 0
          0 0 0 0 0 0
          0 0 0 0 0 0
          0 0 0 0 0 0
          0 0 0 0 0 0
          0 0 0 0 0 0
          0 0 0 0 0 0
          0 0 0 0 0 0
          0 0 0 0 0 0
          0 0 0 0 0 0
          0 0 0 0 0 0
          0 0 0 0 0 0
          0 0 0 0 0 0
          0 0 0 0 0 0
          0 0 0 0 0 0
          0 0 0 0 0 0
          0 0 0 0 0 0
          0 0 0 0 0 0
          0 0 0 0 0 0
          0 0 0 0 0 0
          0 0 0 0 0 0
          0 0 0 0 0 0
          0 0 0 0 0 0
          0 0 0 0 0 0
          0 0 0 0 0 0
          0 0 0 0 0 0
          0 0 0 0 0 0
          0 0 0 0 0 0
          0 0 0 0 0 0
          0 0 0 0 0 0
          0 0 0 0 0 0
          0 0 0 0 0 0
          0 0 0 0 0 0
          0 0 0 0 0 0
          0 0 0 0 0 0
          0 0 0 0 0 0
          0 0 0 0 0 0
          0 0 0 0 0 0
          0 0 0 0 0 0
          0 0 0 0 0 0
          0 0 0 0 0 0
          0 0 0 0 0 0
          0 0 0 0 0 0
          0 0 0 0 0 0
          0 0 0 0 0 0
          0 0 0 0 0 0
          0 0 0 0 0 0
          0 0 0 0 0 0
          0 0 0 0 0 0
          0 0 0 0 0 0
          0 0 0 0 0 0
          0 0 0 0 0 0
          0 0 0 0 0 0
          0 0 0 0 0 0
          0 0 0 0 0 0
          0 0 0 0 0 0
          0 0 0 0 0 0
          0 0 0 0 0 0
          0 0 0 0 0 0
          0 0 0 0 0 0
          0 0 0 0 0 0
          0 0 0 0 0 0
          0 0 0 0 0 0
          0 0 0 0 0 0
          0 0 0 0 0 0
          0 0 0 0
        </DataArray>
        <DataArray type="Float64" Name="gradient_error" format="ascii" RangeMin="2.184362178843295e-12" RangeMax="1.1678973140324752e-8">
          3.425818703455077e-9 4.5639468481455784e-11 2.0633770321785087e-11 1.94571507613831e-11 1.4954393570060053e-11 1.1693195872774392e-10
          1.0314912397211429e-10 4.587294828366698e-11 3.81931915898308e-9 1.966375893502469e-9 1.4761462745555353e-9 7.028943844240337e-10
          6.7396180053158515e-9 5.804040965663109e-9 2.6319254532169296e-9 4.9597394259952665e-11 4.0003929883756655e-11 3.602376150937729e-11
          1.0161471394560085e-10 2.844017933774143e-11 2.4803642387109082e-11 2.099805452041337e-11 3.114477085624422e-11 1.1330149843101794e-11
          2.546767244997944e-11 3.49695516847158e-11 1.825966799110455e-11 4.8085467817703914e-11 3.704844975345646e-11 6.337160250984943e-11
          6.456334335337815e-11 5.0951933249057284e-11 6.639256304964955e-11 7.591579773047536e-10 6.486773431395808e-10 4.0486341623824683e-10
          3.2472871316260217e-9 4.4026399149036313e-10 3.744215396906281e-10 2.388775154216442e-10 2.0259839197253533e-10 2.3103302668684524e-10
          1.240776532113255e-10 2.4803132746935655e-9 2.083925118506836e-9 1.2279686155787737e-9 1.2230569994264098e-9 9.223854220295497e-11
          1.8629874091610624e-10 8.285828751678795e-10 4.97781294177264e-11 1.0474868389352706e-10 4.958653719800927e-10 2.7700254911231874e-10
          9.092796053383534e-9 7.900957237026244e-9 5.078870952482391e-9 7.316758947750267e-9 6.195893311552041e-9 5.409465646082547e-9
          4.08533405496671e-9 3.527336306016006e-9 3.44616068086154e-9 2.1461460792475795e-9 4.948257144587757e-9 5.04006226339511e-9
          3.472279497264755e-9 4.049530652484085e-9 2.25097130758416e-9 2.9544727318120665e-9 1.436675707413128e-9 8.452403683614958e-10
          1.9357897180652274e-9 1.1648812460025781e-9 1.3353584291749367e-11 4.3434067211545394e-11 7.534536106669656e-12 8.737748024346191e-12
          2.1189112658679192e-11 6.1145568084560646e-12 6.042781371089235e-12 5.436041593056712e-12 4.217319422449093e-12 3.5335615925071685e-12
          3.3094033871772763e-11 3.2084921151065305e-11 5.999284482203263e-11 5.805762984058265e-11 2.3939404508664848e-11 4.455436980820681e-11
          4.310491484988538e-11 2.966259537397675e-11 5.291607471877861e-11 3.921894124435613e-11 1.5554143057039979e-10 1.5029560661683856e-10
          1.128917350010512e-10 1.355501182103255e-10 2.925110633454845e-11 4.5457406953912934e-11 2.206383868324171e-11 3.365889426101012e-11
          3.0252830351501255e-11 4.120507932940134e-11 3.053536592487192e-11 1.129113280289661e-10 8.455981324284452e-11 1.0348556396310408e-10
          1.8059463737344307e-11 1.8270206461157267e-11 3.2746222015677864e-11 3.1641283509712995e-11 1.4479260612066178e-11 2.3784361659374367e-11
          2.295591911073004e-11 1.8084671501944937e-11 2.8603898246595564e-11 2.2140395530992696e-11 8.670884435515968e-11 8.35509425135043e-11
          6.076622191747239e-11 7.488055110444848e-11 1.0996597806581192e-11 1.180998596009364e-11 1.68553922780932e-11 1.638950019868704e-11
          1.069800884176327e-11 1.38044992398128e-11 1.3560079230327007e-11 1.2623374113606087e-11 1.5923608119280883e-11 1.3315659220841214e-11
          4.5463547748812316e-11 4.345201373169711e-11 3.715229880653356e-11 4.6032572980259846e-11 1.7538487451678507e-11 2.4424097878251756e-11
          1.6021446940270944e-11 2.044115792014319e-11 1.7388581084437368e-11 2.2176744267060507e-11 1.871608237147973e-11 6.219328768636704e-11
          5.429743835619751e-11 5.729274109392438e-11 3.9524551072178044e-10 3.8110654027449485e-10 3.0203401757670554e-10 2.911865285958749e-10
          3.4155452656361565e-10 2.60795177431516e-10 9.720060538245583e-10 9.35194961063208e-10 7.298944987710475e-10 8.328691559597701e-10
          2.848865048243487e-10 2.1713551474609155e-10 2.2116748814175257e-10 1.680877554060767e-10 6.864617411362349e-10 5.328826632265358e-10
          5.237269463971104e-10 2.2441333399130023e-9 2.156857410247095e-9 1.8041651185291705e-9 1.7318794368463479e-9 1.9137147829869436e-9
          1.5313652841715036e-9 4.612063086785781e-9 4.433492019607913e-9 3.6684384668438434e-9 3.936944233803161e-9 1.5654907500017304e-9
          1.2461540860239243e-9 1.1792905108632423e-9 9.324740631190093e-10 3.2228985362195545e-9 2.6412926248977788e-9 2.4217823459190443e-9
          2.2748630620200286e-10 2.1942591481033905e-10 1.6899119882055943e-10 1.6305977884163977e-10 1.9669577589406282e-10 1.4625349928621392e-10
          5.829924900844132e-10 5.601593790434495e-10 4.227739315537176e-10 4.969034069231025e-10 1.2411235401535382e-10 1.1956655973761532e-10
          8.980724240181115e-11 8.634777526368407e-11 1.0686283710102276e-10 7.684291275087473e-11 3.269524665215e-10 3.138406815076067e-10
          2.2922917143432365e-10 2.776266132407637e-10 1.6355438207578102e-10 1.2142881208102436e-10 1.2611006989725385e-10 9.327505278943354e-11
          4.0705353161242566e-10 3.0600173752308993e-10 3.081977499639567e-10 4.9568806464519906e-11 8.845311738801899e-11 3.490966106491091e-11
          6.342141921923427e-11 3.817767039941202e-11 6.783147715251956e-11 4.8613751108240727e-11 2.2647560062399346e-10 1.6503323107938003e-10
          1.7058694180081962e-10 1.422959161256378e-9 1.364483829738777e-9 1.1007879726676874e-9 1.054573253422361e-9 1.2027907286324331e-9
          9.270677491526734e-10 3.1093648407134956e-9 2.9823789401148594e-9 2.3751536629685368e-9 2.6286273819066713e-9 8.3524113262811e-10
          7.994879654430966e-10 6.21628601650877e-10 5.946139675550749e-10 7.011188641794361e-10 5.204515963277647e-10 1.9347819030757185e-9
          1.8502300804334183e-9 1.4099442976552934e-9 1.6170163617174732e-9 9.74102115892443e-10 7.475897045040203e-10 7.245030861015646e-10
          5.531125483403633e-10 2.1228848038922544e-9 1.6716703457543187e-9 1.5661340314887787e-9 5.633475367034692e-10 4.169845908656795e-10
          4.1500235484542255e-10 3.0611449684346537e-10 1.2893382756298357e-9 9.739872988934747e-10 9.36355320815223e-10 9.439000601185476e-11
          1.5969926615308456e-10 7.084802754840677e-11 1.2097971120474132e-10 6.441102475603846e-11 1.0760623546544857e-10 8.126388817757936e-11
          3.702984564088599e-10 2.8493768781499915e-10 2.4325861528272633e-10 8.177088683015589e-10 6.417001022861031e-10 5.226808985675893e-10
          4.0704129046605825e-10 1.6636282801333448e-9 1.3361130979739638e-9 1.0435394676888344e-9 5.244879032902061e-11 9.042003174696148e-11
          3.832767703990586e-11 6.66696046344438e-11 3.56303072910772e-11 6.058229311578145e-11 4.4610738703584896e-11 2.1607037560769778e-10
          1.6145335508160863e-10 1.4068191608326508e-10 2.7542557199111775e-11 4.845356899516049e-11 1.9540679154475497e-11 3.47498745667996e-11
          1.8811225108449906e-11 3.2427414593122186e-11 1.188939147884304e-10 8.629294573012249e-11 7.691198110060956e-11 6.34016021052264e-11
          4.626048488270889e-11 4.952745312765229e-10 3.7599231304213756e-10 3.1207094279696797e-10 2.3555549088890336e-10 1.0534477669400975e-9
          8.151919384929974e-10 6.465746390251465e-10 2.807974749648666e-10 2.063388278157563e-10 1.7507876675013104e-10 1.281495599297219e-10
          6.191898694685725e-10 4.617710671225791e-10 3.7378425622536686e-10 1.369563840699407e-10 2.767487267213988e-10 1.0127059559024192e-10
          2.071490326866687e-10 8.027325735762349e-9 7.715427876143788e-9 6.727092837670777e-9 6.465478452197746e-9 6.849161011341822e-9
          5.7408227933590074e-9 1.054138640515444e-8 1.024705273034059e-8 8.78671401185651e-9 9.324205816598328e-9 5.618887811033686e-9
          4.704442069291145e-9 4.252981187885016e-9 3.538347033961992e-9 7.818436935992817e-9 6.587217578735866e-9 6.027443052933903e-9
          8.830717782055308e-9 9.02103677587074e-9 8.292399523520107e-9 8.288121292423534e-9 9.12691743645375e-9 7.9959387677856e-9
          6.51974244000682e-9 7.100816908345237e-9 7.019724420373206e-9 8.079726419612676e-9 8.38458879952786e-9 7.101621227799926e-9
          6.825009011587793e-9 5.761830225212118e-9 8.087954355593383e-9 6.892054385354903e-9 6.881842024664488e-9 5.56961572371047e-9
          5.353598075474755e-9 4.554436804262358e-9 4.374774952334989e-9 4.750782783341555e-9 3.86990656102156e-9 7.546454883022505e-9
          7.290034673617783e-9 5.992426721491286e-9 6.563918476154197e-9 3.6597279936744997e-9 3.509122918181731e-9 2.872320032559724e-9
          2.7489564901379637e-9 3.087549395692653e-9 2.4059165039350392e-9 5.063954791856838e-9 4.897795694974417e-9 3.942566806170956e-9
          4.4123845376685985e-9 3.877781086070404e-9 3.1357228688208244e-9 2.8893272957587327e-9 2.31083750371999e-9 5.4890186949418656e-9
          4.521208978778887e-9 4.221342375456512e-9 2.4804731202767333e-9 1.9175621384691585e-9 1.8085379168092826e-9 1.384688439283001e-9
          3.6592098741867563e-9 2.8925801833316833e-9 2.7518906555692684e-9 7.104915330597656e-9 7.020607716796066e-9 5.81274837998126e-9
          5.74997883060486e-9 6.660994268880814e-9 5.485674837614264e-9 6.04634390747588e-9 6.128995563618951e-9 5.013965132155069e-9
          6.1329906063121405e-9 4.774819812521096e-9 4.733227761992744e-9 3.954262461085392e-9 3.910360497027125e-9 4.532429381161503e-9
          3.7119367476139327e-9 4.068211354021988e-9 4.133142483853375e-9 3.469559536046194e-9 4.182428992607648e-9 5.912735181105136e-9
          4.907561993057794e-9 4.826602142674875e-9 3.994416742177636e-9 5.7253546023265295e-9 4.757828909730445e-9 4.869280217130314e-9
          4.040373194108414e-9 3.2571338842597996e-9 3.239491432708932e-9 2.563126163196074e-9 3.945677629607581e-9 3.212092977953757e-9
          3.3058828562622807e-9 2.943496555644871e-9 2.4191596537789023e-9 1.8442238130490372e-9 1.4934662053233304e-9 4.2709068454505686e-9
          3.573038167964099e-9 2.7344935066481664e-9 5.036612872768974e-9 4.254256494503575e-9 3.3482037889694845e-9 2.785429914631061e-9
          5.210977955739576e-9 4.413165988492115e-9 3.5384352681076265e-9 1.949546007504233e-9 1.5395824702549685e-9 1.1868797715774807e-9
          9.253773425598021e-10 2.9334571471022083e-9 2.3579579030254447e-9 1.8166223452916282e-9 1.1910393449059937e-9 9.026678433360168e-10
          7.07866631897993e-10 5.313926288205073e-10 1.8541938539469467e-9 1.4261831613827328e-9 1.113198885309584e-9 5.037507831728665e-10
          7.806038236884583e-10 3.815324821905866e-10 5.970938138174452e-10 3.535755872569374e-9 2.8776595855436854e-9 2.270590211147114e-9
          1.8126619045191268e-9 3.683593516565155e-9 3.0122738767104627e-9 2.4168583291835315e-9 2.28916227275999e-9 1.7797173457662528e-9
          1.4168326255139008e-9 1.0842755306353203e-9 2.4068074896450118e-9 1.8789127553443065e-9 1.5178094071307233e-9 1.0011292650511067e-9
          1.0809864900048784e-9 7.70708982223942e-10 8.340273570990569e-10 3.448199957648584e-11 3.3111829863842245e-11 6.361636317098105e-11
          6.116087945085251e-11 2.943091427056626e-11 5.441268791650842e-11 1.7180667523570287e-10 1.6482098220333978e-10 1.4555948038634339e-10
          2.439664470389317e-11 4.4911609194601356e-11 1.889135891593496e-11 3.444365614637688e-11 1.184342468068807e-10 8.891631229231083e-11
          4.5409042679626583e-10 4.341331315801096e-10 3.7942568139183425e-10 1.101671421992976e-9 1.0511728962200277e-9 9.128278465216575e-10
          3.0331255460980026e-10 2.220549342895263e-10 7.208998904379174e-10 5.175961074923885e-10 1.3756033793861217e-11 2.4625201776720342e-11
          6.173399223339066e-11 1.4922572219872279e-10 3.3823905556600215e-10 2.198704677912885e-9 2.100880977081721e-9 1.8302228667060182e-9
          3.212792178762365e-9 3.092313810986064e-9 2.7466434783558136e-9 1.4485483024064192e-9 1.0373168039064273e-9 2.229356407430827e-9
          1.6346228560834787e-9 3.213823318492668e-9 3.1611965350745407e-9 2.9605814049591688e-9 2.8534470211870264e-9 2.8650158376917415e-9
          2.8097927571488635e-9 2.5553656963716292e-9 1.9781912166973667e-9 2.542498591109757e-9 2.042851311427103e-9 6.704699817640665e-10
          1.0732317206259504e-9 1.3523901865185008e-9 1.433256613871473e-9 9.379014991566285e-11 2.498980750404643e-11 7.432537458496072e-11
          7.466728879365852e-11 5.489207887686655e-11 1.8883083725957952e-11 3.620791260986333e-11 9.744295518499301e-12 2.5470003197154397e-11
          6.71473256904626e-12 5.33390258917708e-12 5.283846695159989e-12 4.161297737217301e-12 2.503424354094608e-12 5.0910962987924955e-12
          1.0178606701217273e-10 9.103694428856356e-11 7.30772193804903e-11 6.529445083070511e-11 6.298619802457746e-11 6.83238983347043e-11
          1.1943778482849435e-10 7.977829427908006e-11 1.37207391617979e-10 1.8033295877424594e-10 1.6054460878334352e-10 2.330352219995105e-11
          2.287547053802315e-11 3.945228430367147e-11 1.3081049874251362e-11 2.582996140136324e-11 2.8215443458152655e-11 2.580241684700012e-11
          3.643146199095256e-12 1.4499177218394033e-11 1.3055347939577189e-11 1.944960237278374e-11 9.530964969558627e-12 3.68910427628634e-11
          3.290572729214012e-11 2.331088786374997e-11 1.1669205405544301e-11 2.184362178843295e-12 5.5950353961894816e-12 7.828596301368712e-12
          3.7396595140220575e-12 1.2845235749329374e-11 4.29183484482281e-11 7.982624359386706e-11 7.726525713158116e-11 7.048891481849878e-11
          2.0419098703242458e-10 1.9739483811739835e-10 1.782469311001186e-10 3.88412516259549e-11 6.045075281872843e-11 5.462794666975457e-11
          1.4872674535065188e-10 5.097785053598955e-10 4.917315249886812e-10 4.412403368887367e-10 1.2239873639249847e-9 1.1785582389517357e-9
          1.052027373967699e-9 3.689768414601496e-10 2.8750319924064295e-10 8.703246657323888e-10 6.671949491461683e-10 2.739768024508636e-9
          2.6366467402882654e-9 2.348300381910862e-9 5.494609266314946e-9 5.283182921143968e-9 4.698000444034406e-9 1.9320821149476476e-9
          1.4659257934115189e-9 3.863336526660784e-9 2.928353680366831e-9 1.2481237045321993e-10 2.0837555851906678e-10 1.4087445701526803e-10
          4.742515869047088e-10 3.132534856585633e-10 1.0249203631300766e-9 6.608422093715666e-10 2.034470313947371e-9 1.2918898596825417e-9
          2.326696504539418e-11 5.567938503916507e-11 3.3301632507886695e-11 7.375690667671002e-11 1.5261458818114205e-10 9.405510315496346e-9
          9.051461340044627e-9 8.056954538886595e-9 1.1678973140324752e-8 1.1447968283347914e-8 1.0639503440249002e-8 6.622924604660662e-9
          5.030399334448326e-9 9.103914226785954e-9 7.068785494114188e-9 8.941007403207556e-9 9.267840454006787e-9 9.809471799992466e-9
          6.1038910973895764e-9 6.792763721349624e-9 8.277803608919019e-9 9.533212108330473e-9 7.986938670215234e-9 9.02384726374981e-9
          8.042670234476877e-9 3.516192248967991e-9 2.2361019040399017e-9 5.025188674961215e-9 3.2602206554888925e-9 5.895349900749689e-9
          3.95079490345033e-9 6.097042620653838e-9 4.16115831452088e-9 2.8404080564674786e-10 4.484383591173593e-10 5.821661975668449e-10
          6.312536785195958e-10 2.2616603240693867e-11 4.431939775657341e-11 4.264476354504084e-11 3.8001568143899394e-11 1.2166193516001407e-10
          1.1669109217323165e-10 1.0299547203974479e-10 1.6903877101105915e-11 3.141311427057082e-11 2.4114787513408464e-11 8.37297510138093e-11
          6.279140845900354e-11 3.257942691590475e-10 3.113519344414587e-10 2.7180796571617395e-10 8.046986928965821e-10 7.671870330771345e-10
          6.646808032476332e-10 2.1690873276923537e-10 1.5846093082666985e-10 5.231303553030923e-10 3.7408546333454376e-10 9.595313026327401e-12
          1.7235544136721216e-11 9.459340955421954e-12 1.6465574059929998e-11 1.1496747533988566e-11 4.353520311242918e-11 3.974703559828259e-11
          2.7976542157358142e-11 1.0623500792819938e-10 9.237859178389668e-11 6.559189415983812e-11 2.434355094275925e-10 2.0186422919921572e-10
          1.4469023196077243e-10 2.3691249330663723e-11 5.2967775776734415e-11 1.1067432198748799e-10 1.6420302770046942e-9 1.5667779401343533e-9
          1.3595289001687054e-9 2.456209524228609e-9 2.3591281535114604e-9 2.0830158602457577e-9 1.0697027930595332e-9 7.607666518359374e-10
          1.6759947305283892e-9 1.216443037177152e-9 2.5259447465366088e-9 2.4741918427451805e-9 2.292782881286294e-9 2.28757132092556e-9
          2.281303800967719e-9 2.2026089573025045e-9 1.9523200859559466e-9 1.4899436282655244e-9 1.9580759013188843e-9 1.5467735663666927e-9
          4.883202843766309e-10 3.9161292771153755e-10 2.834168415438366e-10 7.905789288649225e-10 6.291446889788106e-10 4.592698326715202e-10
          2.0789396807981885e-10 3.307629486120607e-10 1.0049404206411413e-9 8.127423282343993e-10 5.969767578054357e-10 1.0687679183291697e-9
          8.754275950714872e-10 6.445218883968772e-10 4.315953657748574e-10 4.688278489618699e-10
        </DataArray>
        <DataArray type="Float64" Name="gradient_matprop_error" format="ascii" RangeMin="0" RangeMax="0">
          0 0 0 0 0 0
          0 0 0 0 0 0
          0 0 0 0 0 0
          0 0 0 0 0 0
          0 0 0 0 0 0
          0 0 0 0 0 0
          0 0 0 0 0 0
          0 0 0 0 0 0
          0 0 0 0 0 0
          0 0 0 0 0 0
          0 0 0 0 0 0
          0 0 0 0 0 0
          0 0 0 0 0 0
          0 0 0 0 0 0
          0 0 0 0 0 0
          0 0 0 0 0 0
          0 0 0 0 0 0
          0 0 0 0 0 0
          0 0 0 0 0 0
          0 0 0 0 0 0
          0 0 0 0 0 0
          0 0 0 0 0 0
          0 0 0 0 0 0
          0 0 0 0 0 0
          0 0 0 0 0 0
          0 0 0 0 0 0
          0 0 0 0 0 0
          0 0 0 0 0 0
          0 0 0 0 0 0
          0 0 0 0 0 0
          0 0 0 0 0 0
          0 0 0 0 0 0
          0 0 0 0 0 0
          0 0 0 0 0 0
          0 0 0 0 0 0
          0 0 0 0 0 0
          0 0 0 0 0 0
          0 0 0 0 0 0
          0 0 0 0 0 0
          0 0 0 0 0 0
          0 0 0 0 0 0
          0 0 0 0 0 0
          0 0 0 0 0 0
          0 0 0 0 0 0
          0 0 0 0 0 0
          0 0 0 0 0 0
          0 0 0 0 0 0
          0 0 0 0 0 0
          0 0 0 0 0 0
          0 0 0 0 0 0
          0 0 0 0 0 0
          0 0 0 0 0 0
          0 0 0 0 0 0
          0 0 0 0 0 0
          0 0 0 0 0 0
          0 0 0 0 0 0
          0 0 0 0 0 0
          0 0 0 0 0 0
          0 0 0 0 0 0
          0 0 0 0 0 0
          0 0 0 0 0 0
          0 0 0 0 0 0
          0 0 0 0 0 0
          0 0 0 0 0 0
          0 0 0 0 0 0
          0 0 0 0 0 0
          0 0 0 0 0 0
          0 0 0 0 0 0
          0 0 0 0 0 0
          0 0 0 0 0 0
          0 0 0 0 0 0
          0 0 0 0 0 0
          0 0 0 0 0 0
          0 0 0 0 0 0
          0 0 0 0 0 0
          0 0 0 0 0 0
          0 0 0 0 0 0
          0 0 0 0 0 0
          0 0 0 0 0 0
          0 0 0 0 0 0
          0 0 0 0 0 0
          0 0 0 0 0 0
          0 0 0 0 0 0
          0 0 0 0 0 0
          0 0 0 0 0 0
          0 0 0 0 0 0
          0 0 0 0 0 0
          0 0 0 0 0 0
          0 0 0 0 0 0
          0 0 0 0 0 0
          0 0 0 0 0 0
          0 0 0 0 0 0
          0 0 0 0 0 0
          0 0 0 0 0 0
          0 0 0 0 0 0
          0 0 0 0 0 0
          0 0 0 0 0 0
          0 0 0 0 0 0
          0 0 0 0 0 0
          0 0 0 0 0 0
          0 0 0 0 0 0
          0 0 0 0 0 0
          0 0 0 0 0 0
          0 0 0 0 0 0
          0 0 0 0 0 0
          0 0 0 0 0 0
          0 0 0 0 0 0
          0 0 0 0 0 0
          0 0 0 0 0 0
          0 0 0 0 0 0
          0 0 0 0 0 0
          0 0 0 0 0 0
          0 0 0 0 0 0
          0 0 0 0 0 0
          0 0 0 0 0 0
          0 0 0 0 0 0
          0 0 0 0 0 0
          0 0 0 0 0 0
          0 0 0 0
        </DataArray>
        <DataArray type="Float64" Name="initial_marker" format="ascii" RangeMin="0" RangeMax="2">
          2 1 0 0 0 2
          1.25 1 2 2 2 2
          2 2 2 0 0 0
          2 0 0 0 0 0
          0 0 0 0 0 2
          1.75 1 1 2 2 2
          2 2 2 2 2 2
          2 2 2 2 2 1
          2 2 0.75 2 2 2
          2 2 2 2 2 2
          2 2 2 2 2 2
          2 2 2 2 2 2
          2 2 0 0 0 0
          0 0 0 0 0 0
          0 0 1 1 0 1
          1 0 1 1 2 2
          2 2 0 1 0 0.75
          0 1 0.5 2 1.75 2
          0 0 1 1 0 1
          1 0 1 1 2 2
          2 2 0 0 0.5 0.5
          0 0 0 0 0.5 0
          1.5 1.5 1.3333333333333333 1.6666666666666667 0 0.5
          0 0.5 0 0 0 1.5
          1.6666666666666667 1.3333333333333333 2 2 2 2
          2 2 2 2 2 2
          2 2 2 2 2 2
          2 2 2 2 2 2
          2 2 2 2 2 2
          2 2 2 2 2 2
          2 2 2 2 2 2
          2 2 2 2 2 2
          2 2 2 2 2 2
          2 2 2 2 2 2
          2 2 2 2 2 2
          2 2 2 2 2 2
          2 2 2 2 2 2
          2 2 2 2 2 2
          2 2 2 2 2 2
          2 2 2 2 2 2
          2 2 2 2 2 2
          2 2 2 2 2 2
          2 2 2 2 2 2
          2 2 2 2 2 2
          2 2 2 2 2 2
          2 2 2 2 1.75 2
          2 2 2 2 2 2
          1 1.5 2 2 2 2
          2 2 2 2 2 2
          2 2 2 2 2 2
          2 2 2 2 2 2
          2 2 2 2 2 2
          2 2 2 2 2 2
          2 2 2 2 2 2
          2 2 2 2 2 2
          2 2 2 2 2 2
          2 2 2 2 2 2
          2 2 2 2 2 2
          2 2 2 2 2 2
          2 2 2 2 2 2
          2 2 2 2 2 2
          2 2 2 2 2 2
          2 2 2 2 2 2
          2 2 2 2 2 2
          2 2 2 2 2 2
          2 2 2 2 2 2
          2 2 2 2 2 2
          2 2 2 2 2 2
          2 2 2 2 2 2
          2 2 2 2 2 2
          2 2 2 2 2 2
          2 2 2 2 2 2
          2 2 2 2 2 2
          2 2 2 2 2 2
          2 2 2 2 2 2
          2 2 2 2 2 2
          2 2 2 2 2 2
          2 2 2 2 2 2
          2 2 2 2 2 2
          2 2 2 2 2 2
          2 2 2 2 1.5 1.75
          2 2 2 2 2 2
          2 2 2 2 2 2
          2 2 2 2 2 2
          2 2 2 2 2 2
          2 2 2 0 0 0
          0 0 0 0 0 0
          0 0 0 0 0 0
          0 0 0 0 0 0
          0 0 0 1.5 1 0
          0 0 0 0.5 0 0
          0 0 0 0 0 1
          1 1 0 0 0 0
          0 0 0 1 1 1
          2 2 2 0 1 1
          2 2 2 2 2 2
          2 2 2 2 2 2
          2 2 2 2 2 2
          2 2 2 2 2 2
          2 2 2 2 2 2
          1.5 2 2 2 2 2
          2 2 2 2 2 2