<?xml version="1.0"?>
<VTKFile type="UnstructuredGrid" version="0.1" byte_order="LittleEndian" header_type="UInt32" compressor="vtkZLibDataCompressor">
  <UnstructuredGrid>
    <Piece NumberOfPoints="328" NumberOfCells="167">
      <PointData>
        <DataArray type="Int32" Name="libmesh_node_id" format="ascii" RangeMin="120" RangeMax="3027">
          120 121 122 123 124 125
          127 140 141 142 143 150
          151 152 153 154 155 156
          157 170 171 172 173 180
          181 182 183 184 185 186
          187 200 201 202 203 2642
          2643 2644 2645 2646 2647 2648
          2649 2650 2651 2652 2653 2654
          2655 2656 2657 2658 2659 2660
          2661 2662 2663 2664 2665 2666
          2667 2668 2669 2670 2671 2672
          2673 2674 2675 2676 2677 2678
          2679 2680 2681 2682 2683 2684
          2685 2686 2687 2688 2689 2690
          2691 2692 2693 2694 2695 2696
          2697 2698 2699 2700 2701 2702
          2703 2704 2705 2706 2707 2708
          2709 2710 2711 2712 2713 2714
          2715 2716 2717 2718 2719 2720
          2721 2783 2784 2785 2786 2788
          2789 2791 2792 2796 2797 2800
          2801 2802 2803 2804 2805 2806
          2807 2808 2809 2811 2814 2816
          2817 2818 2819 2820 2821 2822
          2823 2824 2825 2826 2827 2828
          2829 2830 2831 2832 2833 2834
          2835 2836 2837 2838 2839 2840
          2841 2842 2843 2844 2845 2846
          2847 2848 2849 2850 2851 2852
          2853 2854 2855 2856 2857 2858
          2859 2860 2861 2862 2863 2864
          2865 2866 2867 2868 2869 2870
          2871 2872 2873 2874 2875 2876
          2877 2878 2879 2880 2881 2882
          2883 2884 2885 2886 2887 2888
          2889 2890 2891 2892 2893 2894
          2895 2896 2897 2898 2899 2900
          2901 2902 2903 2904 2905 2906
          2907 2908 2909 2910 2911 2912
          2913 2914 2915 2916 2917 2918
          2919 2920 2921 2922 2923 2924
          2925 2926 2927 2928 2929 2930
          2931 2932 2933 2934 2935 2936
          2937 2938 2939 2940 2941 2942
          2943 2944 2945 2946 2947 2948
          2949 2950 2951 2952 2953 2954
          2955 2956 2957 2958 2959 2960
          2961 2962 2963 2964 2965 2966
          2967 2968 2969 2970 2971 2972
          2973 2974 2975 2976 2986 2987
          2988 2989 2990 2991 2992 2993
          2994 2995 3002 3003 3004 3005
          3006 3007 3008 3009 3010 3011
          3018 3019 3020 3021 3022 3023
          3024 3025 3026 3027
        </DataArray>
        <DataArray type="Float64" Name="bounds" format="ascii" RangeMin="0" RangeMax="0">
          0 0 0 0 0 0
          0 0 0 0 0 0
          0 0 0 0 0 0
          0 0 0 0 0 0
          0 0 0 0 0 0
          0 0 0 0 0 0
          0 0 0 0 0 0
          0 0 0 0 0 0
          0 0 0 0 0 0
          0 0 0 0 0 0
          0 0 0 0 0 0
          0 0 0 0 0 0
          0 0 0 0 0 0
          0 0 0 0 0 0
          0 0 0 0 0 0
          0 0 0 0 0 0
          0 0 0 0 0 0
          0 0 0 0 0 0
          0 0 0 0 0 0
          0 0 0 0 0 0
          0 0 0 0 0 0
          0 0 0 0 0 0
          0 0 0 0 0 0
          0 0 0 0 0 0
          0 0 0 0 0 0
          0 0 0 0 0 0
          0 0 0 0 0 0
          0 0 0 0 0 0
          0 0 0 0 0 0
          0 0 0 0 0 0
          0 0 0 0 0 0
          0 0 0 0 0 0
          0 0 0 0 0 0
          0 0 0 0 0 0
          0 0 0 0 0 0
          0 0 0 0 0 0
          0 0 0 0 0 0
          0 0 0 0 0 0
          0 0 0 0 0 0
          0 0 0 0 0 0
          0 0 0 0 0 0
          0 0 0 0 0 0
          0 0 0 0 0 0
          0 0 0 0 0 0
          0 0 0 0 0 0
          0 0 0 0 0 0
          0 0 0 0 0 0
          0 0 0 0 0 0
          0 0 0 0 0 0
          0 0 0 0 0 0
          0 0 0 0 0 0
          0 0 0 0 0 0
          0 0 0 0 0 0
          0 0 0 0 0 0
          0 0 0 0
        </DataArray>
        <DataArray type="Float64" Name="gradient_error" format="ascii" RangeMin="7.046843010129109e-9" RangeMax="0.000001485236328795088">
          3.453632559589205e-7 2.8527720972819207e-7 1.8274372660705223e-7 2.1942282206482307e-7 1.2542977874697003e-7 8.754711313724979e-8
          1.9166724156335746e-8 8.02102434859124e-8 9.34823881707256e-8 5.1396648217561075e-8 2.5868521300112966e-8 9.806650517116313e-7
          9.57628197704936e-7 4.527656622393949e-7 4.944992692527801e-7 5.284798284351532e-7 3.363806800811676e-7 8.553327565039955e-8
          2.282171368473415e-7 8.352060285208571e-8 1.0032522370285732e-7 5.091501105381325e-8 2.3512113305250318e-8 1.2182875792441297e-7
          1.5534229703239349e-7 7.613945065181325e-7 0.0000011028120150287063 2.2234022724458552e-7 3.543866945943582e-7 3.599242222443362e-7
          2.827026372171811e-7 5.426247466442633e-8 7.275455291802542e-8 1.8199684149793227e-8 9.09274541383942e-9 0.0000014086575031382657
          0.0000011815224998348342 0.0000011733042254738483 8.093656321458963e-7 8.271589948064174e-7 0.0000010646156704006938 0.0000010450992843656664
          0.000001195003916695299 8.655098638261296e-7 9.066929681506778e-7 6.219575373853463e-7 8.704245627587346e-7 8.647222198664031e-7
          6.763513511255006e-7 1.339113981303509e-7 9.466502522970706e-7 9.137147055756523e-7 6.301787552019139e-7 0.0000011188915881321231
          0.000001485236328795088 0.0000012015993960420948 9.104311533801211e-7 7.444496808599413e-7 5.811537107331853e-7 6.346192276027498e-7
          5.95254853338378e-7 5.725342739938635e-7 4.639775075409042e-7 4.3231765502422304e-7 1.853748992971822e-7 3.0601284287619323e-7
          3.5403908446256715e-7 3.746298516287095e-7 9.831806356618848e-8 2.5628176270495143e-7 3.6816701610823193e-7 4.455224611339476e-7
          2.3224095611291282e-7 4.219950765841511e-7 4.513883154039148e-7 3.281463707995224e-7 3.895133337554561e-7 3.3863410978149746e-7
          2.8072959991308704e-7 4.1300355199953755e-7 4.882115268918616e-7 3.2340863550456575e-7 7.337964311786524e-8 2.038657614956412e-7
          4.81689956545389e-7 4.5074256741902997e-7 2.488289063813841e-7 2.79277094126353e-7 4.794388354738592e-7 5.840526452153125e-7
          2.3229404850105757e-7 1.6544751187682247e-7 1.7195236084327984e-7 2.452537780404016e-7 2.52766812914349e-7 1.4848625104832027e-7
          2.269841438956018e-7 4.136744551435511e-8 5.471825226573264e-8 5.875314333509489e-8 4.390674924313187e-8 3.2506004420398076e-7
          3.335812649854182e-7 3.054820367428833e-7 6.806905901711017e-8 1.2606026633738647e-7 2.0334564085816555e-7 1.0253975012778163e-7
          1.752927843058164e-7 2.501444797614738e-8 3.006240503881148e-8 1.7585549106340263e-8 2.806310153789446e-7 2.480458184838512e-7
          3.5110362101475584e-8 4.138950278046232e-8 4.193586146284099e-8 2.8920327567566713e-8 3.0151660722420486e-8 3.5406225045886635e-8
          2.4919072628804715e-8 1.590479367229244e-8 1.8913818664378658e-8 2.630470006567171e-8 2.238090250213471e-8 7.981199586558157e-8
          1.4473667132650159e-7 5.7638997341256703e-8 1.136713825988952e-7 9.791287083375217e-9 9.54040302089084e-9 7.046843010129109e-9
          2.0966134678742163e-7 1.697037678565337e-7 9.289518958406462e-9 8.226819230706227e-8 1.271711346407926e-7 2.316002281416927e-7
          2.2942184742968407e-7 2.2440365416413412e-7 1.7403171637115682e-7 1.785734175526341e-7 2.0163983750065798e-7 1.9671235609984612e-7
          2.426730107671404e-7 1.8978594230245985e-7 2.1420644434634452e-7 2.2724346671767541e-7 2.247062574486818e-7 2.1939299582853536e-7
          2.3862694639022914e-7 1.255466069635755e-7 1.7385782757163183e-7 1.6902105803555809e-7 1.8573987792554864e-7 2.2216904817968816e-7
          2.6434978961641005e-7 2.606569007660528e-7 2.0400890332072493e-7 2.3057868481305648e-7 2.808622427938601e-7 2.2040270234231928e-7
          2.4773140308607836e-7 2.5696401191569565e-7 2.57148466305388e-7 2.65624436291251e-7 1.4366801702503985e-7 2.0050046886006008e-7
          2.146005633782966e-7 2.573329206950803e-7 3.0896183447377186e-7 3.0301281176251165e-7 2.393529782259669e-7 2.653507977801966e-7
          3.2832108701015756e-7 2.605004386311681e-7 2.8621853288878214e-7 2.6538009555225117e-7 2.755662416999992e-7 2.966564042769906e-7
          1.69744121978162e-7 2.2768878379788153e-7 2.441159787674067e-7 2.857523878477472e-7 3.6631010922565506e-7 3.569384136065364e-7
          2.84030830281271e-7 3.109903756612683e-7 3.3041739957239115e-7 3.0733548752923443e-7 3.3659530997854933e-7 3.070673569856817e-7
          3.179929706284818e-7 3.4033270814041726e-7 2.017515513368869e-7 2.6504233771600024e-7 2.8995456057766837e-7 3.289185842712819e-7
          2.265961104873627e-7 2.1913677440994554e-7 2.522906582729351e-7 2.42637552733913e-7 2.3333266551018639e-7 2.6201401060139084e-7
          1.8662422499077972e-7 2.0654529633017227e-7 2.038989240602409e-7 2.0921773734981133e-7 2.7798520605850757e-7 2.661383310578804e-7
          2.906953556925952e-7 2.2646636766956477e-7 1.5797899786225863e-7 1.4800372629215598e-7 1.6255143332859684e-7 2.1383876380335072e-7
          2.138930604553149e-7 1.9472698078746562e-7 1.936657566434549e-7 1.279481412564148e-7 2.1429425132155172e-7 1.9583533143196286e-7
          1.3802845472205332e-7 1.7556090111961636e-7 1.7349274948355906e-7 1.7737641154237398e-7 3.4038223985082416e-7 3.238349297912586e-7
          3.497582140441653e-7 3.023675543030457e-7 1.20938992116404e-7 1.194828362954213e-7 2.1499460462199227e-7 1.956607729558106e-7
          1.1362040600549646e-7 2.1487234821635944e-7 1.944518483596571e-7 1.1802668047443858e-7 1.7632694128962893e-7 1.740313485029548e-7
          3.946474682619469e-7 3.728128987968699e-7 3.9592587856372843e-7 3.39949559238127e-7 3.3019521670600497e-7 3.6313853164786016e-7
          3.5974050638726876e-7 3.9537566272372647e-7 3.6440374171707694e-7 3.9116625751725126e-7 2.494330767587329e-7 3.2005743899597844e-7
          3.5495741896663315e-7 3.818028257381751e-7 3.9836762427766677e-7 4.3463284369999466e-7 4.4456277603229235e-7 4.801681279774857e-7
          4.2046602214667284e-7 4.5230984541450433e-7 3.164905291590204e-7 3.9547859942244947e-7 4.4376778954133244e-7 4.483213064885648e-7
          2.3962919174329456e-7 2.716725546267526e-7 2.452197435607444e-7 2.8101136237326986e-7 1.8673096004083818e-7 2.106194724090667e-7
          2.1070102877222117e-7 3.037159175102107e-7 3.1680298118579524e-7 2.3450798477729518e-7 2.497421696169339e-7 2.897050955621654e-7
          2.5293307197807455e-7 2.974420812591694e-7 1.8159232018307264e-7 2.0937620995330758e-7 2.060379516120093e-7 3.296680215073968e-7
          3.419510905402643e-7 2.371600997235425e-7 1.0965103704859138e-7 1.0787719046356884e-7 2.1283257976821208e-7 1.9146199213099814e-7
          1.0264900230873732e-7 2.0831163281950603e-7 1.8616660805094234e-7 1.0610334387854631e-7 1.7009140449378418e-7 1.6402158328237866e-7
          4.5100531166756366e-7 4.1995898932515704e-7 4.446402731782187e-7 3.721807160484578e-7 4.996238144617627e-7 5.332758955116739e-7
          5.659161869111438e-7 5.95689932123489e-7 4.872234973692156e-7 5.253717305419388e-7 4.132511280762306e-7 5.016806061714613e-7
          5.71783531683688e-7 5.332156532202556e-7 2.5443286021967533e-7 3.038029489945202e-7 2.536440422428609e-7 3.081160535906971e-7
          1.7014890625947835e-7 2.0008687981219442e-7 1.9095232343335088e-7 3.5317303776936493e-7 3.625880649385334e-7 2.300248533649105e-7
          2.0811410470534314e-7 2.0108553454972444e-7 2.322781267508991e-7 2.2671169435104479e-7 1.8253180735743538e-7 2.047723874362261e-7
          2.0667028748801125e-7 2.5644214879645507e-7 2.523378541523651e-7 2.2701296751501685e-7
        </DataArray>
        <DataArray type="Float64" Name="gradient_matprop_error" format="ascii" RangeMin="0" RangeMax="0">
          0 0 0 0 0 0
          0 0 0 0 0 0
          0 0 0 0 0 0
          0 0 0 0 0 0
          0 0 0 0 0 0
          0 0 0 0 0 0
          0 0 0 0 0 0
          0 0 0 0 0 0
          0 0 0 0 0 0
          0 0 0 0 0 0
          0 0 0 0 0 0
          0 0 0 0 0 0
          0 0 0 0 0 0
          0 0 0 0 0 0
          0 0 0 0 0 0
          0 0 0 0 0 0
          0 0 0 0 0 0
          0 0 0 0 0 0
          0 0 0 0 0 0
          0 0 0 0 0 0
          0 0 0 0 0 0
          0 0 0 0 0 0
          0 0 0 0 0 0
          0 0 0 0 0 0
          0 0 0 0 0 0
          0 0 0 0 0 0
          0 0 0 0 0 0
          0 0 0 0 0 0
          0 0 0 0 0 0
          0 0 0 0 0 0
          0 0 0 0 0 0
          0 0 0 0 0 0
          0 0 0 0 0 0
          0 0 0 0 0 0
          0 0 0 0 0 0
          0 0 0 0 0 0
          0 0 0 0 0 0
          0 0 0 0 0 0
          0 0 0 0 0 0
          0 0 0 0 0 0
          0 0 0 0 0 0
          0 0 0 0 0 0
          0 0 0 0 0 0
          0 0 0 0 0 0
          0 0 0 0 0 0
          0 0 0 0 0 0
          0 0 0 0 0 0
          0 0 0 0 0 0
          0 0 0 0 0 0
          0 0 0 0 0 0
          0 0 0 0 0 0
          0 0 0 0 0 0
          0 0 0 0 0 0
          0 0 0 0 0 0
          0 0 0 0
        </DataArray>
        <DataArray type="Float64" Name="initial_marker" format="ascii" RangeMin="0" RangeMax="0">
          0 0 0 0 0 0
          0 0 0 0 0 0
          0 0 0 0 0 0
          0 0 0 0 0 0
          0 0 0 0 0 0
          0 0 0 0 0 0
          0 0 0 0 0 0
          0 0 0 0 0 0
          0 0 0 0 0 0
          0 0 0 0 0 0
          0 0 0 0 0 0
          0 0 0 0 0 0
          0 0 0 0 0 0
          0 0 0 0 0 0
          0 0 0 0 0 0
          0 0 0 0 0 0
          0 0 0 0 0 0
          0 0 0 0 0 0
          0 0 0 0 0 0
          0 0 0 0 0 0
          0 0 0 0 0 0
          0 0 0 0 0 0
          0 0 0 0 0 0
          0 0 0 0 0 0
          0 0 0 0 0 0
          0 0 0 0 0 0
          0 0 0 0 0 0
          0 0 0 0 0 0
          0 0 0 0 0 0
          0 0 0 0 0 0
          0 0 0 0 0 0
          0 0 0 0 0 0
          0 0 0 0 0 0
          0 0 0 0 0 0
          0 0 0 0 0 0
          0 0 0 0 0 0
          0 0 0 0 0 0
          0 0 0 0 0 0
          0 0 0 0 0 0
          0 0 0 0 0 0
          0 0 0 0 0 0
          0 0 0 0 0 0
          0 0 0 0 0 0
          0 0 0 0 0 0
          0 0 0 0 0 0
          0 0 0 0 0 0
          0 0 0 0 0 0
          0 0 0 0 0 0
          0 0 0 0 0 0
          0 0 0 0 0 0
          0 0 0 0 0 0
          0 0 0 0 0 0
          0 0 0 0 0 0
          0 0 0 0 0 0
          0 0 0 0
        </DataArray>
        <DataArray type="Float64" Name="markers_norefine" format="ascii" RangeMin="0" RangeMax="0">
          0 0 0 0 0 0
          0 0 0 0 0 0
          0 0 0 0 0 0
          0 0 0 0 0 0
          0 0 0 0 0 0
          0 0 0 0 0 0
          0 0 0 0 0 0
          0 0 0 0 0 0
          0 0 0 0 0 0
          0 0 0 0 0 0
          0 0 0 0 0 0
          0 0 0 0 0 0
          0 0 0 0 0 0
          0 0 0 0 0 0
          0 0 0 0 0 0
          0 0 0 0 0 0
          0 0 0 0 0 0
          0 0 0 0 0 0
          0 0 0 0 0 0
          0 0 0 0 0 0
          0 0 0 0 0 0
          0 0 0 0 0 0
          0 0 0 0 0 0
          0 0 0 0 0 0
          0 0 0 0 0 0
          0 0 0 0 0 0
          0 0 0 0 0 0
          0 0 0 0 0 0
          0 0 0 0 0 0
          0 0 0 0 0 0
          0 0 0 0 0 0
          0 0 0 0 0 0
          0 0 0 0 0 0
          0 0 0 0 0 0
          0 0 0 0 0 0
          0 0 0 0 0 0
          0 0 0 0 0 0
          0 0 0 0 0 0
          0 0 0 0 0 0
          0 0 0 0 0 0
          0 0 0 0 0 0
          0 0 0 0 0 0
          0 0 0 0 0 0
          0 0 0 0 0 0
          0 0 0 0 0 0
          0 0 0 0 0 0
          0 0 0 0 0 0
          0 0 0 0 0 0
          0 0 0 0 0 0
          0 0 0 0 0 0
          0 0 0 0 0 0
          0 0 0 0 0 0
          0 0 0 0 0 0
          0 0 0 0 0 0
          0 0 0 0
        </DataArray>
        <DataArray type="Float64" Name="markers_mustrefine" format="ascii" RangeMin="0" RangeMax="0">
          0 0 0 0 0 0
          0 0 0 0 0 0
          0 0 0 0 0 0
          0 0 0 0 0 0
          0 0 0 0 0 0
          0 0 0 0 0 0
          0 0 0 0 0 0
          0 0 0 0 0 0
          0 0 0 0 0 0
          0 0 0 0 0 0
          0 0 0 0 0 0
          0 0 0 0 0 0
          0 0 0 0 0 0
          0 0 0 0 0 0
          0 0 0 0 0 0
          0 0 0 0 0 0
          0 0 0 0 0 0
          0 0 0 0 0 0
          0 0 0 0 0 0
          0 0 0 0 0 0
          0 0 0 0 0 0
          0 0 0 0 0 0
          0 0 0 0 0 0
          0 0 0 0 0 0
          0 0 0 0 0 0
          0 0 0 0 0 0
          0 0 0 0 0 0
          0 0 0 0 0 0
          0 0 0 0 0 0
          0 0 0 0 0 0
          0 0 0 0 0 0
          0 0 0 0 0 0
          0 0 0 0 0 0
          0 0 0 0 0 0
          0 0 0 0 0 0
          0 0 0 0 0 0
          0 0 0 0 0 0
          0 0 0 0 0 0
          0 0 0 0 0 0
          0 0 0 0 0 0
          0 0 0 0 0 0
          0 0 0 0 0 0
          0 0 0 0 0 0
          0 0 0 0 0 0
          0 0 0 0 0 0
          0 0 0 0 0 0
          0 0 0 0 0 0
          0 0 0 0 0 0
          0 0 0 0 0 0
          0 0 0 0 0 0
          0 0 0 0 0 0
          0 0 0 0 0 0
          0 0 0 0 0 0
          0 0 0 0 0 0
          0 0 0 0
        </DataArray>
        <DataArray type="Float64" Name="gradient_marker" format="ascii" RangeMin="1" RangeMax="1">
          1 1 1 1 1 1
          1 1 1 1 1 1
          1 1 1 1 1 1
          1 1 1 1 1 1
          1 1 1 1 1 1
          1 1 1 1 1 1
          1 1 1 1 1 1
          1 1 1 1 1 1
          1 1 1 1 1 1
          1 1 1 1 1 1
          1 1 1 1 1 1
          1 1 1 1 1 1
          1 1 1 1 1 1
          1 1 1 1 1 1
          1 1 1 1 1 1
          1 1 1 1 1 1
          1 1 1 1 1 1
          1 1 1 1 1 1
          1 1 1 1 1 1
          1 1 1 1 1 1
          1 1 1 1 1 1
          1 1 1 1 1 1
          1 1 1 1 1 1
          1 1 1 1 1 1
          1 1 1 1 1 1
          1 1 1 1 1 1
          1 1 1 1 1 1
          1 1 1 1 1 1
          1 1 1 1 1 1
          1 1 1 1 1 1
          1 1 1 1 1 1
          1 1 1 1 1 1
          1 1 1 1 1 1
          1 1 1 1 1 1
          1 1 1 1 1 1
          1 1 1 1 1 1
          1 1 1 1 1 1
          1 1 1 1 1 1
          1 1 1 1 1 1
          1 1 1 1 1 1
          1 1 1 1 1 1
          1 1 1 1 1 1
          1 1 1 1 1 1
          1 1 1 1 1 1
          1 1 1 1 1 1
          1 1 1 1 1 1
          1 1 1 1 1 1
          1 1 1 1 1 1
          1 1 1 1 1 1
          1 1 1 1 1 1
          1 1 1 1 1 1
          1 1 1 1 1 1
          1 1 1 1 1 1
          1 1 1 1 1 1
          1 1 1 1
        </DataArray>
        <DataArray type="Float64" Name="gradient_matprop_marker" format="ascii" RangeMin="0" RangeMax="0">
          0 0 0 0 0 0
          0 0 0 0 0 0
          0 0 0 0 0 0
          0 0 0 0 0 0
          0 0 0 0 0 0
          0 0 0 0 0 0
          0 0 0 0 0 0
          0 0 0 0 0 0
          0 0 0 0 0 0
          0 0 0 0 0 0
          0 0 0 0 0 0
          0 0 0 0 0 0
          0 0 0 0 0 0
          0 0 0 0 0 0
          0 0 0 0 0 0
          0 0 0 0 0 0
          0 0 0 0 0 0
          0 0 0 0 0 0
          0 0 0 0 0 0
          0 0 0 0 0 0
          0 0 0 0 0 0
          0 0 0 0 0 0
          0 0 0 0 0 0
          0 0 0 0 0 0
          0 0 0 0 0 0
          0 0 0 0 0 0
          0 0 0 0 0 0
          0 0 0 0 0 0
          0 0 0 0 0 0
          0 0 0 0 0 0
          0 0 0 0 0 0
          0 0 0 0 0 0
          0 0 0 0 0 0
          0 0 0 0 0 0
          0 0 0 0 0 0
          0 0 0 0 0 0
          0 0 0 0 0 0
          0 0 0 0 0 0
          0 0 0 0 0 0
          0 0 0 0 0 0
          0 0 0 0 0 0
          0 0 0 0 0 0
          0 0 0 0 0 0
          0 0 0 0 0 0
          0 0 0 0 0 0
          0 0 0 0 0 0
          0 0 0 0 0 0
          0 0 0 0 0 0
          0 0 0 0 0 0
          0 0 0 0 0 0
          0 0 0 0 0 0
          0 0 0 0 0 0
          0 0 0 0 0 0
          0 0 0 0 0 0
          0 0 0 0
        </DataArray>
        <DataArray type="Float64" Name="combo" format="ascii" RangeMin="1" RangeMax="1">
          1 1 1 1 1 1
          1 1 1 1 1 1
          1 1 1 1 1 1
          1 1 1 1 1 1
          1 1 1 1 1 1
          1 1 1 1 1 1
          1 1 1 1 1 1
          1 1 1 1 1 1
          1 1 1 1 1 1
          1 1 1 1 1 1
          1 1 1 1 1 1
          1 1 1 1 1 1
          1 1 1 1 1 1
          1 1 1 1 1 1
          1 1 1 1 1 1
          1 1 1 1 1 1
          1 1 1 1 1 1
          1 1 1 1 1 1
          1 1 1 1 1 1
          1 1 1 1 1 1
          1 1 1 1 1 1
          1 1 1 1 1 1
          1 1 1 1 1 1
          1 1 1 1 1 1
          1 1 1 1 1 1
          1 1 1 1 1 1
          1 1 1 1 1 1
          1 1 1 1 1 1
          1 1 1 1 1 1
          1 1 1 1 1 1
          1 1 1 1 1 1
          1 1 1 1 1 1
          1 1 1 1 1 1
          1 1 1 1 1 1
          1 1 1 1 1 1
          1 1 1 1 1 1
          1 1 1 1 1 1
          1 1 1 1 1 1
          1 1 1 1 1 1
          1 1 1 1 1 1
          1 1 1 1 1 1
          1 1 1 1 1 1
          1 1 1 1 1 1
          1 1 1 1 1 1
          1 1 1 1 1 1
          1 1 1 1 1 1
          1 1 1 1 1 1
          1 1 1 1 1 1
          1 1 1 1 1 1
          1 1 1 1 1 1
          1 1 1 1 1 1
          1 1 1 1 1 1
          1 1 1 1 1 1
          1 1 1 1 1 1
          1 1 1 1
        </DataArray>
        <DataArray type="Float64" Name="dHdT" format="ascii" RangeMin="25.807405203443682" RangeMax="29.945361577876238">
          25.82600893555266 25.82359634011363 25.819404566231434 25.820802450058203 25.816280600285133 25.815623882169177
          25.81305121409741 25.815212792349232 25.81559596456374 25.814393966394775 25.813699309628287 26.16543737310952
          26.159451437695566 25.929649907746995 25.94068355749303 26.071347813750002 25.90533865143435 25.927167426470405
          25.87529267452242 25.81987398799122 25.82186120220928 25.816699773384375 25.81464195056985 27.97572256379833
          28.237489114409307 26.33219317504273 26.38864788368764 28.706133682517084 26.22954998356783 29.413152564081496
          26.141197283301906 25.82738925580957 25.83429671747753 25.816950516528948 25.811965510312326 26.483400024145674
          26.33001780511316 26.333199233747916 26.979560368180824 26.999649631319805 26.651344240503935 26.64716025768368
          26.319286318341394 27.037811605811694 26.669890601975553 26.043554161276724 26.214551935941433 26.218511293195668
          26.157992674291705 28.062070319802807 27.20394851853281 27.17735652313919 27.370542572113784 26.38554971060615
          26.466552147936188 26.300531437520466 27.078784731534917 26.688376513170784 26.07035485997113 27.224166066932973
          26.70855070895421 26.01003597880233 26.090445386500893 26.061970078959803 28.44990751456074 27.5615009280775
          27.651035230454756 26.261346315830608 25.960654554299865 25.942529545481452 27.366373237829592 26.7172023394764
          25.916094472750345 27.40632318893364 26.690250462162926 25.915361792610383 26.02953453046782 25.994233574014146
          29.014973099694004 27.73999727495207 27.83843386879197 26.189782666285524 25.89488503727067 25.89025877438859
          27.433962849582947 26.644096466449767 25.876530768776576 25.956698329662892 29.945361577876238 27.93341310228871
          26.083094841749087 25.86688009017667 25.8694816319922 25.9026421331415 25.90638594568563 25.860381341863345
          25.893467061703625 25.823287443880545 25.82780569306221 25.82924756292548 25.824275269565305 25.938404176106328
          25.94329025937906 25.926552781543904 25.832323942243878 25.852196316411725 25.881993161615583 25.843921226303053
          25.869757982571386 25.818831402323536 25.820253960582974 25.816882762967637 25.91179000681944 25.89559473883972
          25.82167651884241 25.824083154859142 25.819989780583622 25.818560241499096 25.8220070993278 25.812864193637314
          25.81287216187078 25.817130702414566 25.819931043796455 25.807405203443682 25.80908320430148 25.836279605370553
          25.857560808342033 25.829403673166645 25.84593400548659 25.815311557105893 25.814516386522172 25.81318669372159
          25.87884201131351 25.862464337806536 25.81372121593845 25.835467377727575 25.847275131485645 27.48640551301643
          27.344900728883562 27.335968707903206 27.725214691230278 27.743139904007254 27.583458258386308 27.569340264947105
          27.36731278951991 27.78898477914837 27.619494481166186 27.203395944750696 27.42377661276537 27.41346583866394
          27.450004183183992 27.99987429499808 27.82201578788906 27.80271182199101 27.87167617281245 27.644157280780043
          27.554507700787944 27.39661984137463 27.849548531702823 27.667296178069495 27.43117279727645 27.917290169478104
          27.723046822817732 27.23873198196131 27.485043824436175 27.351285619684887 28.1445893626177 27.93797251476437
          28.014920848359022 27.73135566691104 27.64210379133365 27.469328196046547 27.99043874313253 27.78498626664554
          27.507201012486902 28.070462414847192 27.849757837509824 27.061901158907233 27.290334266030463 27.3188612584493
          28.33877369493141 28.100644337244532 28.192314662532738 27.518767373153693 27.74230198454797 27.545000472409757
          28.157441681557316 27.917971197881535 27.30204212411094 28.25483282066009 27.99329161864816 27.085616543051774
          27.3459859343977 27.373624053403404 28.572581378566657 28.290941923353316 28.39580800441479 27.60635532574363
          26.571980445533846 26.584432280702234 26.71298000496718 26.719483435979864 26.55672312896929 26.70372384963019
          26.32042676523569 26.412488855344712 26.430297615233588 26.39195000908981 26.85397956440051 26.854534591257497
          26.850724570291092 26.504550945453737 26.130001189043213 26.104073503643193 26.124939613516013 26.49360311799125
          26.47203974133264 26.4072858246925 26.424757760042887 26.070933220896965 26.4383204716276 26.377428240437798
          26.07814581824317 26.342531908052365 26.355912402094525 26.316536009247997 27.34526377257268 27.176871676368673
          27.187879852889616 26.939062090176378 26.06431988303687 26.046175926756703 26.413425934307025 26.352178701959176
          26.021353183445406 26.3867375392145 26.32525845734768 26.02803197047654 26.290931469611326 26.26377937548086
          27.38692198872573 27.196249484448927 27.202225662960966 26.924211129946787 28.364157199067566 28.075467525420663
          28.481013089214944 28.16216738762491 27.399692700835665 27.424727559495373 28.851865146611843 28.50768984384579
          28.63249832944921 27.694251265337538 28.606061765914802 28.253502137056675 28.744801565187046 28.352329569055463
          27.449116859128125 27.47170400604423 29.200811539955325 28.772686782377143 28.929371543438954 27.78883250770912
          26.537784572494523 26.690615656524223 26.515741494982624 26.674264126636864 26.27534203478925 26.368623763150875
          26.342394820317846 26.843446740553922 26.832786758291103 26.4619054915125 26.491207854119654 26.65514549893542
          26.463236706980766 26.631795507513033 26.22093627874318 26.312999787813126 26.280040575861488 26.819083143751175
          26.8003543080453 26.405063296883075 26.01091167104481 25.996925315845104 26.35732959459638 26.295705408461735
          25.973379303757007 26.32486247187712 26.26326907963103 25.98293896064541 26.23408122232709 26.201675687384935
          27.422833494461216 27.20383004681191 27.198642129968928 26.890786097440085 28.899884973171005 28.459765974491667
          29.07471752135944 28.576223196938685 27.49025321731966 27.503169003869445 29.65785047556752 29.106357356437883
          29.308320989444553 27.88693903048358 26.43029622333659 26.602093651159993 26.39202585884089 26.565696046769496
          26.15788735267813 26.24332784349301 26.20278295831803 26.773891078983407 26.739366234698103 26.328768334307888
          26.59213750936096 26.59412968469772 26.724473769943046 26.72665711651571 26.35702530166691 26.447812797983723
          26.457064326291494 26.85681003052514 26.859184548333698 26.538600294300544
        </DataArray>
        <DataArray type="Float64" Name="dk/dtemperature" format="ascii" RangeMin="0.011326330769013985" RangeMax="0.015804580349343195">
          0.015804580349343192 0.015804580349343192 0.015804580349343192 0.015804580349343192 0.015804580349343192 0.015804580349343192
          0.015804580349343192 0.015804580349343192 0.015804580349343192 0.015804580349343192 0.015804580349343192 0.015406044064425991
          0.01540604406442599 0.01574193165303992 0.015721048754272163 0.015542663510581319 0.015762814551807676 0.015762814551807676
          0.01576281455180768 0.015804580349343192 0.015804580349343192 0.015804580349343192 0.015804580349343192 0.013127530111836632
          0.012864620444508862 0.015225646011215368 0.015170545350611284 0.012385823379990267 0.01535949784428099 0.011747007958648852
          0.01551460997789933 0.015804580349343192 0.015804580349343195 0.015804580349343192 0.015804580349343192 0.015007507779508787
          0.015238980874283933 0.015238980874283933 0.014375472014102646 0.014375472014102646 0.014797165790642879 0.014797165790642879
          0.015280746671819449 0.014330188890980264 0.014799556001947621 0.015637517159201135 0.015404031254906211 0.01540403125490621
          0.015489449858902035 0.013036963865591868 0.014114811484266387 0.01416009460738877 0.013894658746015774 0.015170545350611287
          0.015049273577044307 0.015343395368122719 0.014243136576273862 0.014812387662636243 0.01557428139345459 0.014099220695609316
          0.01476810500468887 0.01572104875427216 0.015616634260433377 0.01563751715920113 0.012666358706810134 0.013681926545845104
          0.01357890264664817 0.015301629570587208 0.01563751715920113 0.01572104875427216 0.013934920027484192 0.014698286522983491
          0.01576281455180768 0.01384836752110923 0.014726025554178013 0.01574889261929584 0.01565840005796889 0.01567928295673665
          0.012114345696009436 0.013522418179499231 0.013436499767171968 0.015396483219207016 0.015804580349343192 0.015773256001191553
          0.013858179967518184 0.014782698722219427 0.01576281455180768 0.015710607304888283 0.011326330769013985 0.013270320575243303
          0.015616634260433375 0.015804580349343192 0.015804580349343195 0.01576281455180768 0.01576281455180768 0.015804580349343192