<?xml version="1.0"?>
<VTKFile type="UnstructuredGrid" version="0.1" byte_order="LittleEndian" header_type="UInt32" compressor="vtkZLibDataCompressor">
  <UnstructuredGrid>
    <Piece NumberOfPoints="369" NumberOfCells="159">
      <PointData>
        <DataArray type="Int32" Name="libmesh_node_id" format="ascii" RangeMin="20" RangeMax="1203">
          24 25 26 27 28 29
          30 31 32 33 34 35
          36 37 38 39 52 53
          54 55 56 57 58 59
          72 73 74 75 76 77
          78 79 86 87 88 89
          102 103 104 105 106 107
          108 109 116 117 118 119
          132 133 134 135 136 137
          138 139 146 147 148 149
          166 167 168 169 176 177
          178 179 190 197 198 199
          206 207 208 209 214 224
          225 261 266 275 276 279
          280 285 286 288 336 341
          346 348 350 351 352 355
          394 395 396 397 398 399
          400 401 402 403 404 405
          406 407 408 409 410 411
          412 413 414 415 416 420
          421 423 424 426 531 532
          538 541 542 544 545 546
          549 552 553 554 623 624
          625 626 627 628 629 630
          631 632 633 634 635 636
          637 638 639 640 641 642
          643 644 645 646 647 648
          649 650 651 652 653 654
          655 656 657 661 662 663
          675 676 677 678 679 680
          741 742 743 744 745 746
          747 748 749 753 754 756
          757 759 760 761 762 763
          766 767 768 770 771 773
          774 775 776 777 778 779
          782 784 785 787 788 789
          790 791 793 795 797 1194
          1195 1196 1197 1198 1199 1200
          1201 1202 1203 20 21 22
          23 50 51 70 71 85
          100 101 115 130 131 145
          164 165 161 163 175 196
          195 257 258 259 262 263
          260 264 265 268 269 270
          213 271 272 273 274 277
          281 216 282 283 278 215
          284 287 289 226 291 297
          293 298 220 332 221 223
          337 334 338 339 342 344
          345 236 237 347 238 349
          353 354 358 359 303 366
          367 533 534 535 536 537
          539 540 543 212 211 217
          547 548 550 551 230 233
          558 559 560 561 290 571
          576 613 614 619 620 658
          659 660 664 292 417 442
          422 444 449 301 452 750
          751 752 755 418 758 419
          764 765 769 772 780 781
          783 300 786 425 792 794
          796 1188 1189
        </DataArray>
        <DataArray type="Float64" Name="bounds" format="ascii" RangeMin="0" RangeMax="0">
          0 0 0 0 0 0
          0 0 0 0 0 0
          0 0 0 0 0 0
          0 0 0 0 0 0
          0 0 0 0 0 0
          0 0 0 0 0 0
          0 0 0 0 0 0
          0 0 0 0 0 0
          0 0 0 0 0 0
          0 0 0 0 0 0
          0 0 0 0 0 0
          0 0 0 0 0 0
          0 0 0 0 0 0
          0 0 0 0 0 0
          0 0 0 0 0 0
          0 0 0 0 0 0
          0 0 0 0 0 0
          0 0 0 0 0 0
          0 0 0 0 0 0
          0 0 0 0 0 0
          0 0 0 0 0 0
          0 0 0 0 0 0
          0 0 0 0 0 0
          0 0 0 0 0 0
          0 0 0 0 0 0
          0 0 0 0 0 0
          0 0 0 0 0 0
          0 0 0 0 0 0
          0 0 0 0 0 0
          0 0 0 0 0 0
          0 0 0 0 0 0
          0 0 0 0 0 0
          0 0 0 0 0 0
          0 0 0 0 0 0
          0 0 0 0 0 0
          0 0 0 0 0 0
          0 0 0 0 0 0
          0 0 0 0 0 0
          0 0 0 0 0 0
          0 0 0 0 0 0
          0 0 0 0 0 0
          0 0 0 0 0 0
          0 0 0 0 0 0
          0 0 0 0 0 0
          0 0 0 0 0 0
          0 0 0 0 0 0
          0 0 0 0 0 0
          0 0 0 0 0 0
          0 0 0 0 0 0
          0 0 0 0 0 0
          0 0 0 0 0 0
          0 0 0 0 0 0
          0 0 0 0 0 0
          0 0 0 0 0 0
          0 0 0 0 0 0
          0 0 0 0 0 0
          0 0 0 0 0 0
          0 0 0 0 0 0
          0 0 0 0 0 0
          0 0 0 0 0 0
          0 0 0 0 0 0
          0 0 0
        </DataArray>
        <DataArray type="Float64" Name="gradient_error" format="ascii" RangeMin="1.738856053679807e-10" RangeMax="0.0000012794137309875987">
          1.9100003833103022e-9 1.905233423053526e-9 1.8804516201908763e-9 1.8886413389049183e-9 1.896526197043394e-9 1.8981102227560143e-9
          1.9054448899679873e-9 1.9022951948575195e-9 1.899326702738948e-9 1.899396102043547e-9 1.9003187783325874e-9 1.900115980677081e-9
          1.899624250608962e-9 1.899595603746856e-9 1.8997878955983865e-9 1.899784935105759e-9 1.90046646279675e-9 1.89683105761896e-9
          1.899694248468634e-9 1.8991454997470513e-9 1.899465501348146e-9 1.8999131830215746e-9 1.8995669568847497e-9 1.8997819746131322e-9
          2.0506797493578164e-9 1.9886936370328797e-9 1.8883096649669712e-9 1.8966604180270404e-9 1.8951561072514605e-9 1.896789141607673e-9
          1.896194674395212e-9 1.897242728612155e-9 1.926707524707943e-9 1.905011171087109e-9 1.898422175963885e-9 1.8982907828290977e-9
          2.5452081851944873e-9 2.250511356507055e-9 1.9658906948062652e-9 1.937353366490171e-9 1.9112099270932153e-9 1.914576572750022e-9
          1.913154129352977e-9 1.9175404854302534e-9 1.955814527819623e-9 1.9088160381740767e-9 1.9179432184068286e-9 1.92192684150753e-9
          2.0625289349003407e-9 2.8906297721666184e-9 1.5852797234945766e-9 1.947832251257008e-9 1.972178921264998e-9 1.9747429004237624e-9
          1.96693338866263e-9 1.9625332917310378e-9 3.902594371084433e-9 2.2722953223203148e-9 1.9773068795825267e-9 1.958133194799446e-9
          1.3414526545358405e-9 1.509682388045691e-9 1.5752921785602219e-9 1.5501226815977068e-9 3.1698496582965674e-9 1.7683171200228003e-9
          1.6773485878111688e-9 1.5249531846351917e-9 7.939074115548331e-7 1.0078049369248844e-9 1.150588030298525e-9 1.115748559834198e-9
          2.1678571795496199e-10 9.470475132463845e-10 1.3394863660381738e-9 1.0809090893698714e-9 9.44959857054568e-8 3.0475295144319626e-7
          2.788710516959185e-7 1.9447095749306153e-10 1.986285051532369e-10 5.360573967811641e-7 6.906085043959665e-7 3.4576007581111674e-7
          3.916109146591463e-7 1.965596961327724e-7 6.35333733453562e-7 3.9319095316640736e-7 1.1821358077573423e-9 3.513529755218806e-10
          6.176376432410082e-10 3.9717266171611387e-10 2.477674722051895e-10 2.631985875859464e-10 2.4723395114428304e-10 2.7862970296670333e-10
          3.0117734748376366e-7 2.843432900554502e-7 2.724144048521007e-7 2.5873481248228714e-7 3.0293929893915237e-7 3.2895050761656744e-7
          2.833013433769618e-7 3.2390168949981135e-7 3.659749303308829e-7 3.9092334812474236e-7 2.588324894783478e-7 3.1609645625341054e-7
          2.902792666467386e-7 3.6489879648426644e-7 2.3962729770141827e-7 3.0007270465742184e-7 2.5527717960893154e-7 3.662166844100506e-7
          3.3675075042916636e-7 2.705154831867198e-7 2.4643514651816303e-7 2.353731503303072e-7 2.47663092612384e-7 2.4212614648892484e-7
          2.989639913333294e-7 1.9818763734336742e-7 2.3680178434739374e-7 3.3493912735925094e-7 6.749377341219335e-9 4.463479931373866e-9
          1.1012343794043537e-9 2.1775825215283972e-9 8.409911888265937e-9 3.0971323906488543e-9 3.395362735694218e-10 3.843795759793791e-10
          2.5636415121561316e-10 4.292228783893365e-10 9.317987702523287e-10 4.3820373383383704e-10 2.674140375639074e-7 2.5681984539698064e-7
          2.246219341965421e-7 2.1896996856879067e-7 2.2934674183450116e-7 2.419555164383677e-7 2.211845771026138e-7 2.462256532300539e-7
          2.5456429104223415e-7 2.233991856364369e-7 1.9127944610509493e-7 2.2709118747975464e-7 2.1774722000868545e-7 2.629029288544144e-7
          2.0237423520311402e-7 1.9503391775994122e-7 2.3317338226052246e-7 2.2551739592658226e-7 2.1196540595339413e-7 2.4599610345793524e-7
          1.6326946722545802e-7 1.891155683082063e-7 1.959327404562217e-7 1.7806637986593944e-7 2.639725293179309e-7 2.5600087409322324e-7
          2.8002680096247643e-7 2.149616693909546e-7 8.259626144494151e-8 8.475731353058764e-8 1.0069688118275564e-7 1.8241676336718216e-7
          1.7890744879812697e-7 1.6151902332208672e-7 1.6643512417147218e-7 8.691836561623377e-8 1.4413059784604655e-7 1.5045348497576222e-7
          2.1316683828365846e-7 2.539844785871175e-7 1.4333955667220264e-7 1.6724758495590383e-7 2.9480211889057655e-7 1.9115561323960502e-7
          6.428306803732258e-8 6.953145635465902e-8 6.737166257716717e-8 6.418022755575883e-8 6.641217939542591e-8 6.868457682475554e-8
          6.620213209471756e-8 7.321479103933974e-8 7.130256636134665e-8 6.119223037254756e-8 6.718768902009043e-8 7.321289782270774e-8
          7.351257656280458e-8 7.396069374756532e-8 5.4697917775931395e-8 5.427655108607144e-8 6.050985960462457e-8 5.912780296147113e-8
          5.0731062171447257e-8 5.6034682852421833e-8 5.5107019611099935e-8 6.996675727676876e-8 6.584994261567298e-8 6.58243823613083e-8
          5.7580066575802566e-8 5.953477783138344e-8 6.689347794683916e-8 5.670545398892684e-8 6.055479876417795e-8 6.486180185400728e-8
          7.36891391459275e-8 5.242880713686435e-8 5.9101451210381136e-8 7.264003846435765e-8 7.071094253803184e-8 6.912441826934969e-8
          7.37010546815885e-8 7.60799484842165e-8 7.395042362041463e-8 7.854818384821322e-8 7.759038605160905e-8 1.3027768112500947e-7
          1.24497628546995e-7 1.3988111007317815e-7 1.8291432916250377e-7 1.8319053795782515e-7 1.6767794904109124e-7 1.6723665516974813e-7
          1.1871757596898053e-7 1.521653601243573e-7 1.5155898117699248e-7 1.917154106807751e-9 1.9096184426030732e-9 1.8746397075462525e-9
          1.8836686305344462e-9 1.902082778398396e-9 1.8926975535226396e-9 2.2539153405700717e-9 2.1213057906602366e-9 1.9886962407504015e-9
          3.495915884341937e-9 2.9523788917829158e-9 2.408841899223894e-9 9.928176989881207e-9 5.65654637921591e-9 7.277077070515193e-9
          7.485033708287573e-10 1.6635528888562888e-9 7.104475967012347e-8 1.2370828463928565e-8 7.1141993578116024e-9 6.525076755150858e-10
          9.209475344644427e-10 3.423521582577997e-10 3.215266815381219e-10 2.1744665460655164e-10 1.738856053679807e-10 1.8625705526060878e-10
          3.0419425181735186e-10 3.007012048184442e-10 3.798029439549992e-10 2.9701298838215246e-10 1.7804315302815603e-10 4.589046830915542e-10
          8.755398550916786e-7 4.1286694076402423e-7 4.2046847492877504e-7 7.303601212888507e-7 0.0000010324036193343613 0.0000011045191524856254
          3.5882071210639514e-7 4.5457729664192283e-7 5.894205293961293e-7 7.849535950434391e-7 2.2919422668331062e-7 2.474638058698995e-7
          3.386133824475834e-7 0.0000011664517407892543 6.853452604491216e-7 0.0000010181994962379181 1.2129710808272034e-7 1.439711620437631e-7
          2.23101356934604e-7 1.994114002635212e-7 4.306078630326072e-8 1.7665030600905807e-9 3.798538909089912e-8 1.2810650189860317e-8
          2.1127846476947846e-9 5.068290945663324e-9 1.3603648376989067e-9 1.0703012918895976e-9 8.370078831236067e-9 3.043433487632227e-9
          7.802377460802888e-10 3.783049972809371e-9 3.327554389114848e-9 8.420225870810559e-10 9.584818719362849e-10 4.674511003102016e-10
          1.0664075309211037e-9 5.377295389042895e-10 8.917488433160012e-8 1.3838387621387228e-7 2.0698941095403595e-7 1.2678036506571417e-7
          1.9100899028698993e-7 9.648066281969348e-9 5.377509363371911e-8 2.1078526875411258e-8 1.4744219381838598e-8 3.49087008711619e-8
          2.937262212073286e-9 3.01719730136107e-9 1.6042308108604693e-8 2.0502615186778937e-7 4.4150086444526116e-8 1.2716627502742376e-8
          7.619510800949946e-10 8.468749251736615e-10 2.791319840956787e-10 3.5866785896475787e-10 3.1079239784858307e-9 8.168502874270333e-10
          5.0683352473696146e-8 3.321399617277153e-8 2.269034596662971e-8 3.743862779779788e-8 6.268856472892175e-8 1.8490041510573548e-7
          2.4692884390704543e-7 0.0000012038954529336455 0.0000011379594632859778 0.0000012379654502711684 0.0000012794137309875987 6.777764069162737e-8
          1.6979833468861147e-7 1.5174044091045826e-7 1.1425692118530675e-7 1.7382970130595078e-7 1.498411424198109e-7 1.63878604776406e-7
          2.1597932226188907e-7 2.546568793090068e-7 1.4927379800734385e-7 2.5960917238282135e-7 3.023034131236329e-7 7.036818934105004e-8
          8.136946748068801e-8 7.93718780858051e-8 7.333620407799915e-8 8.677854896104534e-8 8.76011148199991e-8 8.636833563143734e-8
          5.5660908270486097e-8 6.356172174395901e-8 5.782532402284186e-8 7.811583724851505e-8 7.07242856069759e-8 7.781700718589463e-8
          8.803447930370733e-8 5.7695914795400805e-8 6.88073515623512e-8 8.60256517902056e-8 8.722574731970851e-8 8.329226479681573e-8
          8.968235535981881e-8 7.559810636805457e-8 6.0900739016464e-8
        </DataArray>
        <DataArray type="Float64" Name="gradient_matprop_error" format="ascii" RangeMin="0" RangeMax="0">
          0 0 0 0 0 0
          0 0 0 0 0 0
          0 0 0 0 0 0
          0 0 0 0 0 0
          0 0 0 0 0 0
          0 0 0 0 0 0
          0 0 0 0 0 0
          0 0 0 0 0 0
          0 0 0 0 0 0
          0 0 0 0 0 0
          0 0 0 0 0 0
          0 0 0 0 0 0
          0 0 0 0 0 0
          0 0 0 0 0 0
          0 0 0 0 0 0
          0 0 0 0 0 0
          0 0 0 0 0 0
          0 0 0 0 0 0
          0 0 0 0 0 0
          0 0 0 0 0 0
          0 0 0 0 0 0
          0 0 0 0 0 0
          0 0 0 0 0 0
          0 0 0 0 0 0
          0 0 0 0 0 0
          0 0 0 0 0 0
          0 0 0 0 0 0
          0 0 0 0 0 0
          0 0 0 0 0 0
          0 0 0 0 0 0
          0 0 0 0 0 0
          0 0 0 0 0 0
          0 0 0 0 0 0
          0 0 0 0 0 0
          0 0 0 0 0 0
          0 0 0 0 0 0
          0 0 0 0 0 0
          0 0 0 0 0 0
          0 0 0 0 0 0
          0 0 0 0 0 0
          0 0 0 0 0 0
          0 0 0 0 0 0
          0 0 0 0 0 0
          0 0 0 0 0 0
          0 0 0 0 0 0
          0 0 0 0 0 0
          0 0 0 0 0 0
          0 0 0 0 0 0
          0 0 0 0 0 0
          0 0 0 0 0 0
          0 0 0 0 0 0
          0 0 0 0 0 0
          0 0 0 0 0 0
          0 0 0 0 0 0
          0 0 0 0 0 0
          0 0 0 0 0 0
          0 0 0 0 0 0
          0 0 0 0 0 0
          0 0 0 0 0 0
          0 0 0 0 0 0
          0 0 0 0 0 0
          0 0 0
        </DataArray>
        <DataArray type="Float64" Name="initial_marker" format="ascii" RangeMin="0" RangeMax="2">
          0 0 0 0 0 0
          0 0 0 0 0 0
          0 0 0 0 0 0
          0 0 0 0 0 0
          0 0 0 0 0 0
          0 0 0 0 0 0
          0 0 0 0 0 0
          0 0 0 0 0 0
          0 0 0 0 0 0
          0 0 0 0 0 0
          0 0 0 0 0 0
          0 0 0 0 0 0
          0 0 0 0 0 2
          0 0 0 0 0 0.5
          0 1 0 1 0 0
          0 0 0 0 0 0
          0 0 0 0.5 1 0.75
          0.25 0.25 1.5 1.25 0 0.25
          0 0.5 2 1.5 0.5 2
          0.5 0.5 0.25 2 1.75 0
          0.25 2 2 1 0 0
          0 0 0 0 0 0
          0 0 0 0 0 0
          0 0 0 0 0 0
          0 0 0 0 0 0
          0 0 0 0 0 0
          0 0 0 0 0 0
          0 0 0 0 0 0
          0 0 0 0 0 0
          0 0 0 0 0 0
          0 1 1 1 2 0
          0 1 1 0 1 2
          2 2 0 0 0.5 0.5
          0 0 0 1.25 1 0.5
          2 2 2 2 2 2
          2 2 2 2 1.5 1
          2 1.75 1.5 2 2 0
          0 0 0 0 0 0
          0 0 0 0 0 0
          0 0 0 0 0 0
          0 0 0 0 0 0
          0 0 0 0 0 0
          0 0 0 0 0 0
          0 0 0 0 0 0
          0 0 0 0 0 0
          0 0 0 0 0 0
          0 0 0 0 0 0
          0 0 0 0 0 0
          0 0 0 0 0 0
          0 0 0 0 0 0
          0 0 0 0 0 0
          0 0 0 0 0 0
          0 0 0 0 0 0
          0 0 0 0 0 0
          0 0 0 0 0 0
          0 0 0 0 0 0
          0 0 0 0 0 0
          0.5 0 0 1 0 0
          1 1 1 2 2 2
          0 0.5 0 1.5 2 2
          2 2 2 2 2 2
          2 0 0
        </DataArray>
        <DataArray type="Float64" Name="markers_norefine" format="ascii" RangeMin="0" RangeMax="0">
          0 0 0 0 0 0
          0 0 0 0 0 0
          0 0 0 0 0 0
          0 0 0 0 0 0
          0 0 0 0 0 0
          0 0 0 0 0 0
          0 0 0 0 0 0
          0 0 0 0 0 0
          0 0 0 0 0 0
          0 0 0 0 0 0
          0 0 0 0 0 0
          0 0 0 0 0 0
          0 0 0 0 0 0
          0 0 0 0 0 0
          0 0 0 0 0 0
          0 0 0 0 0 0
          0 0 0 0 0 0
          0 0 0 0 0 0
          0 0 0 0 0 0
          0 0 0 0 0 0
          0 0 0 0 0 0
          0 0 0 0 0 0
          0 0 0 0 0 0
          0 0 0 0 0 0
          0 0 0 0 0 0
          0 0 0 0 0 0
          0 0 0 0 0 0
          0 0 0 0 0 0
          0 0 0 0 0 0
          0 0 0 0 0 0
          0 0 0 0 0 0
          0 0 0 0 0 0
          0 0 0 0 0 0
          0 0 0 0 0 0
          0 0 0 0 0 0
          0 0 0 0 0 0
          0 0 0 0 0 0
          0 0 0 0 0 0
          0 0 0 0 0 0
          0 0 0 0 0 0
          0 0 0 0 0 0
          0 0 0 0 0 0
          0 0 0 0 0 0
          0 0 0 0 0 0
          0 0 0 0 0 0
          0 0 0 0 0 0
          0 0 0 0 0 0
          0 0 0 0 0 0
          0 0 0 0 0 0
          0 0 0 0 0 0
          0 0 0 0 0 0
          0 0 0 0 0 0
          0 0 0 0 0 0
          0 0 0 0 0 0
          0 0 0 0 0 0
          0 0 0 0 0 0
          0 0 0 0 0 0
          0 0 0 0 0 0
          0 0 0 0 0 0
          0 0 0 0 0 0
          0 0 0 0 0 0
          0 0 0
        </DataArray>
        <DataArray type="Float64" Name="markers_mustrefine" format="ascii" RangeMin="0" RangeMax="2">
          0 0 0 0 0 0
          0 0 0 0 0 0
          0 0 0 0 0 0
          0 0 0 0 0 0
          0 0 0 0 0 0
          0 0 0 0 0 0
          0 0 0 0 0 0
          0 0 0 0 0 0
          0 0 0 0 0 0
          0 0 0 0 0 0
          0 0 0 0 0 0
          0 0 0 0 0 0
          0 0 0 0 0 2
          0 0 0 0 0 0.5
          0 1 0 1 0 0
          0 0 0 0 0 0
          0 0 0 0.5 1 0.75
          0.25 0.25 1.5 1.25 0 0.25
          0 0.5 2 1.5 0.5 2
          0.5 0.5 0.25 2 1.75 0
          0.25 2 2 1 0 0
          0 0 0 0 0 0
          0 0 0 0 0 0
          0 0 0 0 0 0
          0 0 0 0 0 0
          0 0 0 0 0 0
          0 0 0 0 0 0
          0 0 0 0 0 0
          0 0 0 0 0 0
          0 0 0 0 0 0
          0 1 1 1 2 0
          0 1 1 0 1 2
          2 2 0 0 0.5 0.5
          0 0 0 1.25 1 0.5
          2 2 2 2 2 2
          2 2 2 2 1.5 1
          2 1.75 1.5 2 2 0
          0 0 0 0 0 0
          0 0 0 0 0 0
          0 0 0 0 0 0
          0 0 0 0 0 0
          0 0 0 0 0 0
          0 0 0 0 0 0
          0 0 0 0 0 0
          0 0 0 0 0 0
          0 0 0 0 0 0
          0 0 0 0 0 0
          0 0 0 0 0 0
          0 0 0 0 0 0
          0 0 0 0 0 0
          0 0 0 0 0 0
          0 0 0 0 0 0
          0 0 0 0 0 0
          0 0 0 0 0 0
          0 0 0 0 0 0
          0 0 0 0 0 0
          0 0 0 0 0 0
          0.5 0 0 1 0 0
          1 1 1 2 2 2
          0 0.5 0 1.5 2 2
          2 2 2 2 2 2
          2 0 0
        </DataArray>
        <DataArray type="Float64" Name="gradient_marker" format="ascii" RangeMin="0" RangeMax="1">
          1 1 1 1 1 1
          1 1 1 1 1 1
          1 1 1 1 1 1
          1 1 1 1 1 1
          1 1 1 1 1 1
          1 1 1 1 1 1
          1 1 1 1 1 1
          1 1 1 1 1 1
          1 1 1 1 1 1
          1 1 1 1 1 1
          1 1 1 1 1 1
          1 1 1 1 1 1
          1 1 1 1 1 1
          1 1 1 1 1 1
          1 1 1 1 1 1
          1 1 1 1 1 1
          1 1 1 1 1 1
          1 1 1 1 1 1
          1 1 1 1 1 1
          1 0.75 0.75 0.5 0.5 0.8333333333333334
          0.75 0.5 0.75 0.75 1 1
          1 1 1 1 1 1
          1 1 1 1 1 1
          1 1 1 1 1 1
          1 1 1 1 1 1
          1 1 1 1 1 1
          1 1 1 1 1 1
          1 1 1 1 1 1
          1 1 1 1 1 1
          1 1 1 1 1 1
          0 0 0 0 0 0
          0 0.25 0.25 0 0.25 0.5
          0.5 0.5 0 0 0.125 0
          0 0 0 0.375 0 0.25
          0 0 0.25 0 0.25 0.25
          0.5 0 0 0.5 0.25 0
          0.5 0.625 0.5 0.75 0.5 1
          1 1 1 1 1 1
          1 1 1 1 1 1
          1 1 1 1 1 1
          1 1 1 1 1 1
          1 1 1 1 1 1
          1 1 1 1 1 1
          1 1 1 1 1 1
          1 1 1 1 1 1
          1 1 1 1 1 1
          1 1 1 1 0.75 0.8333333333333334
          0.75 0.875 1 1 1 1
          1 1 1 1 1 1
          1 1 1 1 1 1
          1 1 1 1 1 1
          1 1 1 1 1 1
          1 1 1 1 1 1
          1 1 1 1 1 1
          1 1 1 1 0.75 1
          1 1 1 1 1 0.5
          0.75 0.75 0.6666666666666666 0.75 0.5 0.8333333333333334
          0.75 1 1 1 1 0.25
          0.75 0.625 0.5 1 1 1
          0 0.25 0 0.75 0.5 0.625
          0.875 0 0.25 0.75 1 1
          1 1 1
        </DataArray>
        <DataArray type="Float64" Name="gradient_matprop_marker" format="ascii" RangeMin="0" RangeMax="0">
          0 0 0 0 0 0
          0 0 0 0 0 0
          0 0 0 0 0 0
          0 0 0 0 0 0
          0 0 0 0 0 0
          0 0 0 0 0 0
          0 0 0 0 0 0
          0 0 0 0 0 0
          0 0 0 0 0 0
          0 0 0 0 0 0
          0 0 0 0 0 0
          0 0 0 0 0 0
          0 0 0 0 0 0
          0 0 0 0 0 0
          0 0 0 0 0 0
          0 0 0 0 0 0
          0 0 0 0 0 0
          0 0 0 0 0 0
          0 0 0 0 0 0
          0 0 0 0 0 0
          0 0 0 0 0 0
          0 0 0 0 0 0
          0 0 0 0 0 0
          0 0 0 0 0 0
          0 0 0 0 0 0
          0 0 0 0 0 0
          0 0 0 0 0 0
          0 0 0 0 0 0
          0 0 0 0 0 0
          0 0 0 0 0 0
          0 0 0 0 0 0
          0 0 0 0 0 0
          0 0 0 0 0 0
          0 0 0 0 0 0
          0 0 0 0 0 0
          0 0 0 0 0 0
          0 0 0 0 0 0
          0 0 0 0 0 0
          0 0 0 0 0 0
          0 0 0 0 0 0
          0 0 0 0 0 0
          0 0 0 0 0 0
          0 0 0 0 0 0
          0 0 0 0 0 0
          0 0 0 0 0 0
          0 0 0 0 0 0
          0 0 0 0 0 0
          0 0 0 0 0 0
          0 0 0 0 0 0
          0 0 0 0 0 0
          0 0 0 0 0 0
          0 0 0 0 0 0
          0 0 0 0 0 0
          0 0 0 0 0 0
          0 0 0 0 0 0
          0 0 0 0 0 0
          0 0 0 0 0 0
          0 0 0 0 0 0
          0 0 0 0 0 0
          0 0 0 0 0 0
          0 0 0 0 0 0
          0 0 0
        </DataArray>
        <DataArray type="Float64" Name="combo" format="ascii" RangeMin="0" RangeMax="1">
          1 1 1 1 1 1
          1 1 1 1 1 1
          1 1 1 1 1 1
          1 1 1 1 1 1
          1 1 1 1 1 1
          1 1 1 1 1 1
          1 1 1 1 1 1
          1 1 1 1 1 1
          1 1 1 1 1 1
          1 1 1 1 1 1
          1 1 1 1 1 1
          1 1 1 1 1 1
          1 1 1 1 1 1
          1 1 1 1 1 1
          1 1 1 1 1 1
          1 1 1 1 1 1
          1 1 1 1 1 1
          1 1 1 1 1 1
          1 1 1 1 1 1
          1 0.75 0.75 0.5 0.5 0.8333333333333334
          0.75 0.5 0.75 0.75 1 1
          1 1 1 1 1 1
          1 1 1 1 1 1
          1 1 1 1 1 1
          1 1 1 1 1 1
          1 1 1 1 1 1
          1 1 1 1 1 1
          1 1 1 1 1 1
          1 1 1 1 1 1
          1 1 1 1 1 1
          0 0 0 0 0 0
          0 0.25 0.25 0 0.25 0.5
          0.5 0.5 0 0 0.125 0
          0 0 0 0.375 0 0.25
          0 0 0.25 0 0.25 0.25
          0.5 0 0 0.5 0.25 0
          0.5 0.625 0.5 0.75 0.5 1
          1 1 1 1 1 1
          1 1 1 1 1 1
          1 1 1 1 1 1
          1 1 1 1 1 1
          1 1 1 1 1 1
          1 1 1 1 1 1
          1 1 1 1 1 1
          1 1 1 1 1 1
          1 1 1 1 1 1
          1 1 1 1 0.75 0.8333333333333334
          0.75 0.875 1 1 1 1
          1 1 1 1 1 1
          1 1 1 1 1 1
          1 1 1 1 1 1
          1 1 1 1 1 1
          1 1 1 1 1 1
          1 1 1 1 1 1
          1 1 1 1 0.75 1
          1 1 1 1 1 0.5
          0.75 0.75 0.6666666666666666 0.75 0.5 0.8333333333333334
          0.75 1 1 1 1 0.25
          0.75 0.625 0.5 1 1 1
          0 0.25 0 0.75 0.5 0.625
          0.875 0 0.25 0.75 1 1
          1 1 1
        </DataArray>
        <DataArray type="Float64" Name="dHdT" format="ascii" RangeMin="25.80357931854483" RangeMax="38.7000431851681">
          25.811655505742106 25.81165502577744 25.811855263863475 25.81185587779588 25.811654124521148 25.811654295014197
          25.81185698668735 25.811856833868152 25.811654426801596 25.81165443419458 25.81185677192044 25.811856757760353
          25.811654458491528 25.811654455441907 25.81185674716354 25.811856743798646 25.81165454581278 25.81185649172829
          25.811654465507246 25.811856681048948 25.811654441587564 25.811856743600263 25.811654452392286 25.811856740433747
          25.812268677217787 25.812265802559555 25.812260461339427 25.81226104819671 25.81226090971859 25.81226104910236
          25.81226094181632 25.812261049677296 25.812262927901322 25.812261635053993 25.812261188486133 25.81226115753828
          25.81262582755898 25.81264082150838 25.812665053546823 25.812664732441384 25.812666153391916 25.81266681717942
          25.81266655900683 25.812667238298104 25.812655815457788 25.81266441133595 25.812667480966923 25.812667917589383
          25.81288062216468 25.81307830144648 25.813048646850966 25.813070882789244 25.8130790272629 25.813080441719475
          25.81307967745852 25.813080330680314 25.813135617950948 25.813090448664397 25.813081856176055 25.813080983902115
          25.81344239743771 25.813452739633767 25.813456192163564 25.81345239852967 25.813499109032435 25.813455554499228
          25.813457248928472 25.813448604895775 35.3055984593793 25.813652312392904 25.81362329962666 25.8136155450957
          25.813646474080826 25.81364437876792 25.813622416079383 25.81360779056474 26.36669618996165 37.948836596429985
          27.154108977672852 25.813581055647163 25.813666919618033 31.70457126073728 29.340884915316863 32.11817952273063
          29.318001446539686 38.7000431851681 33.10140290997283 33.83717842148699 25.81391782067438 25.81360883450026
          25.81372385141544 25.8136511034635 25.813554850555743 25.813604070656847 25.81360199799811 25.813653290757955
          32.13248693693826 31.370490689814734 31.91971566354799 36.544015725625584 36.61490273541167 35.429439081676435
          35.226797968735674 31.349151106540475 36.44109912899551 35.39653378705593 30.237532487636468 32.3844457409129
          32.77595817431427 32.426416121483584 38.47166366249762 37.232055539441035 37.178453781818135 36.994709523032824
          33.77333547331334 31.800545279484286 30.86667785094355 36.86829170500892 36.34115800332325 29.561201603759553
          32.33168233059365 37.07522643098141 37.02943980319879 34.051420011352185 25.813969902386127 25.813734293164142
          25.813132284439483 25.813498683942157 25.812268878225456 25.81295851312084 25.813149527616808 25.81317234022594
          25.81317404541417 25.81319515283508 25.813228215551426 25.813288830847206 33.723320536192126 32.716164011762736
          32.36201570235063 35.34979677191346 35.88465802930233 34.60731439142906 34.155610549678066 31.709007487333345
          33.32997075355578 32.96142432744267 38.045995522412525 36.49846477109537 35.9492053970055 34.95093401977821
          28.515621607129262 28.577426898392428 29.202592001296825 29.248767135999472 28.356300663345344 29.082488396231337
          27.53563463673154 27.880267948709037 27.988820172747673 27.66411299461184 29.889562395464388 29.920107373606516
          29.80867612911733 28.224901260686536 26.59800832814934 26.55683404951346 26.728781485782235 28.044523627523706
          27.818800667211985 27.594579938159253 27.81436282389208 26.51565977087757 27.370359209106518 27.584202020260456
          28.133498160805036 28.88927349331738 27.132661210527267 27.426632951892163 29.645048825829715 27.72060469325706
          33.647564415816966 36.02698872491942 35.689228731677055 34.558236442033646 37.58372796647495 34.16111289618614
          33.6328780702587 35.95591222094747 35.61285101277875 32.32250081300868 34.48401727960382 37.299681015783904
          37.42732660647764 37.204643022799154 30.706806014579595 30.794118250969476 32.52373715569708 32.58779654865625
          29.87325364747309 31.34922955679655 31.410588951679905 35.56532596536569 35.6207961415246 34.276338082304434
          36.70450876531847 36.96584131942416 37.59701501279311 36.495119753435546 36.77614760573962 36.94391014493166
          37.46324606167654 36.70364472562022 36.62599103220681 37.16273982395373 37.1817340068412 36.39661186162603
          37.50335057697623 37.09748569448048 36.38015194973158 37.404987755044175 37.03283320097428 27.004192191298518
          26.920693129370896 27.029591124000746 28.364671521349468 28.255512128424662 28.017425942544264 28.11922690166914
          26.837194067443274 27.779339756663873 27.87378228198881 25.811656123559192 25.811655415188834 25.811854209738456
          25.811855145924163 25.81165470681848 25.81185608210987 25.81227524810073 25.81227051825455 25.812265788408368
          25.812584756269906 25.812610677991678 25.81263659971345 25.814730721557446 25.813245251384643 25.813222615384227
          25.813461845605207 25.813581428139372 25.82610316662448 25.815457871130306 25.813720239998005 25.81366197039558
          25.814055468134818 25.81361034552364 25.81362205054277 25.813662031366597 25.813635015504467 25.81365096756125
          25.813712224518905 25.813633755561895 25.813744270804797 25.813819362095266 25.81372087947534 25.813854786047695
          27.277208545901484 26.919050828203986 26.675308178496575 27.236402439981315 30.84936517369473 29.374994911178625
          26.363900587632212 26.32839773076282 27.062642102725334 27.40621412892905 26.312918328019826 26.12382601356622
          26.60948175558321 31.68240084398433 27.74116773046325 28.105361909766007 26.11339135793296 26.028587298559057
          28.28150387623992 26.359153457863968 25.8211254923276 25.81417033859183 25.82902424427594 25.818930535860467
          25.814202096964266 25.81494429595806 25.813658019627187 25.813642052757505 25.81571825332429 25.814486373254148
          25.813626085887826 25.81425219653224 25.815014451589292 25.813837686134427 25.813992908095184 25.81372624845656
          25.813951520853408 25.813801393449623 25.936626745305215 26.01279295164897 26.77334201493504 25.987867116421455
          26.090195525132774 25.815327296686426 25.80357931854483 25.80954812580954 25.810908502017497 25.807369746754546