<?xml version="1.0"?>
<VTKFile type="UnstructuredGrid" version="0.1" byte_order="LittleEndian" header_type="UInt32" compressor="vtkZLibDataCompressor">
  <UnstructuredGrid>
    <Piece NumberOfPoints="685" NumberOfCells="365">
      <PointData>
        <DataArray type="Int32" Name="libmesh_node_id" format="ascii" RangeMin="465" RangeMax="5510">
          536 638 642 644 645 649
          650 796 800 801 802 808
          877 883 956 960 964 968
          969 973 1341 1342 1343 1344
          1345 1346 1347 1348 1350 1351
          1352 1353 1365 1367 1368 1369
          1370 1373 1374 1382 1383 1388
          1410 1627 1628 1633 1857 1863
          1864 1865 1866 1867 1868 1869
          1870 1871 1872 1873 1874 1875
          1876 1877 1878 1879 1883 1884
          1896 1900 2483 2484 2487 2488
          2489 2490 2492 2495 2497 2498
          2499 2500 2501 2502 2503 2504
          2505 2506 2507 2508 2509 2510
          2511 2513 2514 2515 2517 2519
          2521 2522 2523 2524 2525 2526
          2527 2528 2529 2530 2533 2534
          2536 2539 2541 2542 2543 2544
          2545 2546 2547 2548 2549 2550
          2552 2554 2556 2558 2559 2560
          2561 2562 2563 2564 2585 2586
          2587 2588 2589 2590 2591 2592
          2593 2599 2620 2621 2622 2624
          2625 2626 2627 2628 2629 2630
          2660 2661 2662 2663 2664 2665
          2666 2756 2757 2758 2759 2760
          2761 2762 2763 2764 2765 2776
          2777 2778 2780 2781 2782 3017
          3018 3019 3020 3021 3022 3025
          3026 3028 3030 3085 3086 3087
          3088 3089 3090 3091 3092 3093
          3094 3095 3096 3097 3098 3099
          3100 3101 3102 3103 3104 3105
          3109 3110 3112 3113 3114 3115
          3116 3117 3118 3119 3120 3123
          3124 4228 4229 4230 4231 4235
          4236 4237 4238 4239 4240 4241
          4242 4243 4244 4245 4246 4247
          4248 4249 4250 4251 4255 4256
          4257 4258 4259 4260 4271 4272
          4273 4274 4275 4276 4277 4278
          4279 4280 4288 4289 4290 4291
          4292 4293 4294 4305 4306 4307
          4308 4309 4310 4311 4312 4313
          4314 4322 4323 4324 4325 4326
          4327 4328 4329 4330 4331 4332
          4333 4334 4335 4336 4337 4338
          4339 4340 4341 4342 4343 4344
          4345 4346 4347 4348 4349 4350
          4351 4352 4353 4354 4355 4356
          4357 4358 4359 4360 4361 4362
          4363 4364 4365 4366 4367 4368
          4369 4370 4371 4372 4373 4374
          4375 4376 4377 4378 4379 4380
          4381 4382 4383 4384 4385 4386
          4387 4388 4389 4390 4391 4392
          4393 4394 4395 4396 4404 4405
          4406 4407 4408 4409 4410 4418
          4419 4420 4421 4422 4423 4424
          4425 4426 4427 4428 4429 4430
          4431 4432 4433 4434 4435 4436
          4437 4438 4439 4440 4441 4442
          4443 4444 4445 4446 4447 4448
          4616 4618 4619 4620 4622 4624
          4625 4626 4627 4628 4629 4630
          4657 4666 4669 4670 4672 4674
          4822 4828 4829 4832 4833 4834
          4835 4836 4837 4838 4839 4840
          4841 4842 4846 4852 4853 4856
          4857 4858 4859 4860 4861 4862
          4863 4864 4865 4866 4869 4873
          4881 4883 4885 4887 4897 4901
          4909 4911 4913 4915 5405 5406
          5407 5408 5409 5410 5411 5412
          5413 5414 5415 5416 5417 5418
          5419 5420 5423 5424 5426 5428
          5439 5440 5441 5442 5443 5444
          5445 5446 5447 5448 5449 5450
          5451 5452 5453 5454 5455 5456
          5457 5458 5459 5460 5461 5462
          5463 5464 5465 5466 5467 5468
          5469 5470 5471 5472 5473 5475
          5477 5479 5487 5489 5491 5493
          5501 5502 5505 5506 5508 5510
          641 465 640 643 646 797
          803 799 805 804 879 537
          884 791 965 957 966 967
          970 809 972 971 962 1357
          1336 1349 1366 1358 1361 1371
          1354 1372 1363 1403 1407 1404
          1408 1630 1631 1634 1637 1638
          810 811 1643 817 1858 1859
          1862 798 1331 1880 1881 1882
          1885 1897 1898 1899 1901 1902
          813 1405 2419 2420 2485 2486
          2421 2491 2424 2493 2494 2496
          2441 2512 2442 2516 2445 2518
          2520 2551 2553 2555 2557 2634
          2766 2635 2767 2770 2771 2773
          2775 2779 2783 2785 2998 2994
          1412 3004 2996 3023 3024 3027
          3029 3032 2789 3038 3106 3107
          3108 3111 3121 3122 3125 2632
          4226 4263 4264 4266 2531 4269
          2532 4233 4282 4284 4286 2535
          4297 4298 4300 2537 4303 2538
          4316 4318 4320 2540 4253 4398
          4400 4402 4412 4414 4416 4668
          4671 4673 2639 2637 4870 4882
          4884 2667 4886 2669 4898 4910
          4912 2671 4914 2673 5421 5422
          5425 5427 5474 5476 5478 5488
          5490 5492 2787 5503 5504 5507
          5509
        </DataArray>
        <DataArray type="Float64" Name="bounds" format="ascii" RangeMin="0" RangeMax="0">
          0 0 0 0 0 0
          0 0 0 0 0 0
          0 0 0 0 0 0
          0 0 0 0 0 0
          0 0 0 0 0 0
          0 0 0 0 0 0
          0 0 0 0 0 0
          0 0 0 0 0 0
          0 0 0 0 0 0
          0 0 0 0 0 0
          0 0 0 0 0 0
          0 0 0 0 0 0
          0 0 0 0 0 0
          0 0 0 0 0 0
          0 0 0 0 0 0
          0 0 0 0 0 0
          0 0 0 0 0 0
          0 0 0 0 0 0
          0 0 0 0 0 0
          0 0 0 0 0 0
          0 0 0 0 0 0
          0 0 0 0 0 0
          0 0 0 0 0 0
          0 0 0 0 0 0
          0 0 0 0 0 0
          0 0 0 0 0 0
          0 0 0 0 0 0
          0 0 0 0 0 0
          0 0 0 0 0 0
          0 0 0 0 0 0
          0 0 0 0 0 0
          0 0 0 0 0 0
          0 0 0 0 0 0
          0 0 0 0 0 0
          0 0 0 0 0 0
          0 0 0 0 0 0
          0 0 0 0 0 0
          0 0 0 0 0 0
          0 0 0 0 0 0
          0 0 0 0 0 0
          0 0 0 0 0 0
          0 0 0 0 0 0
          0 0 0 0 0 0
          0 0 0 0 0 0
          0 0 0 0 0 0
          0 0 0 0 0 0
          0 0 0 0 0 0
          0 0 0 0 0 0
          0 0 0 0 0 0
          0 0 0 0 0 0
          0 0 0 0 0 0
          0 0 0 0 0 0
          0 0 0 0 0 0
          0 0 0 0 0 0
          0 0 0 0 0 0
          0 0 0 0 0 0
          0 0 0 0 0 0
          0 0 0 0 0 0
          0 0 0 0 0 0
          0 0 0 0 0 0
          0 0 0 0 0 0
          0 0 0 0 0 0
          0 0 0 0 0 0
          0 0 0 0 0 0
          0 0 0 0 0 0
          0 0 0 0 0 0
          0 0 0 0 0 0
          0 0 0 0 0 0
          0 0 0 0 0 0
          0 0 0 0 0 0
          0 0 0 0 0 0
          0 0 0 0 0 0
          0 0 0 0 0 0
          0 0 0 0 0 0
          0 0 0 0 0 0
          0 0 0 0 0 0
          0 0 0 0 0 0
          0 0 0 0 0 0
          0 0 0 0 0 0
          0 0 0 0 0 0
          0 0 0 0 0 0
          0 0 0 0 0 0
          0 0 0 0 0 0
          0 0 0 0 0 0
          0 0 0 0 0 0
          0 0 0 0 0 0
          0 0 0 0 0 0
          0 0 0 0 0 0
          0 0 0 0 0 0
          0 0 0 0 0 0
          0 0 0 0 0 0
          0 0 0 0 0 0
          0 0 0 0 0 0
          0 0 0 0 0 0
          0 0 0 0 0 0
          0 0 0 0 0 0
          0 0 0 0 0 0
          0 0 0 0 0 0
          0 0 0 0 0 0
          0 0 0 0 0 0
          0 0 0 0 0 0
          0 0 0 0 0 0
          0 0 0 0 0 0
          0 0 0 0 0 0
          0 0 0 0 0 0
          0 0 0 0 0 0
          0 0 0 0 0 0
          0 0 0 0 0 0
          0 0 0 0 0 0
          0 0 0 0 0 0
          0 0 0 0 0 0
          0 0 0 0 0 0
          0 0 0 0 0 0
          0 0 0 0 0 0
          0
        </DataArray>
        <DataArray type="Float64" Name="gradient_error" format="ascii" RangeMin="2.0641084779862736e-12" RangeMax="2.296610754937966e-7">
          3.647186597645142e-9 6.983139820009605e-10 7.288220585538852e-10 4.781555946930746e-10 5.765589647718836e-10 2.489794742873338e-9
          1.0148371818801766e-9 1.9333751054322046e-9 1.7646138574971597e-9 5.029846033223106e-9 8.76168300200904e-9 1.3194992163663345e-7
          3.417170296128378e-10 5.101593007771941e-10 1.9503520781616607e-9 8.079060653405454e-10 1.7736306910252618e-9 4.260805712927985e-10
          6.059291764036669e-10 7.857777815145352e-10 1.479986100926068e-8 1.1101960707411095e-8 1.2113007015256743e-7 7.907482402495798e-8
          4.389212394323362e-9 9.750555759319216e-8 1.0393370134465106e-7 2.6248192547698342e-8 5.946559811477426e-8 1.0522935670875634e-8
          4.220885173745109e-8 5.2677669170005303e-8 3.333381971192743e-8 8.819464056296276e-9 3.4242053317694626e-8 2.492647353859085e-9
          4.679940301482078e-9 5.716973462152168e-8 6.867233249105072e-9 5.393287080993049e-10 1.1113422309399855e-9 5.245518690995104e-9
          3.572447386880418e-10 1.3170591954597716e-9 1.144719805176223e-9 9.723804148926743e-10 1.6264939015877048e-9 5.849439595808497e-10
          7.592874238866131e-10 3.166661581958865e-9 3.2814007303265333e-9 4.715897909971838e-10 9.043388572178643e-10 1.115231168822581e-9
          9.336308881923765e-10 3.3961398786942016e-9 1.1770513711902348e-9 4.271705675546579e-10 6.764418260355738e-10 5.102845554275276e-10
          1.4579153719257274e-10 2.542178218281078e-10 7.765710156775282e-11 1.397917861936909e-10 3.802207006096878e-10 3.6996931951332145e-10
          2.894930574615e-10 1.8118882016726707e-10 3.447949487177967e-8 3.100410867379637e-8 2.1567168507416236e-8 1.098726917502039e-7
          9.861188357488576e-8 2.310266681106718e-8 6.917918373896164e-8 1.1003282194066458e-7 1.4866652677747613e-8 1.3752382075516187e-8
          9.511392963636804e-8 8.41880061181408e-8 5.506741687372978e-9 7.633966008197779e-8 6.687446077554433e-8 1.1049021968867793e-8
          5.661440384344614e-8 4.355828273694756e-8 1.1257859915471063e-7 1.0084487491267597e-7 8.593554534041865e-8 9.45940817195141e-8
          1.524571246308553e-8 1.1114378629683351e-8 3.655609589935945e-8 1.1814813779849785e-8 2.210489972036321e-8 6.728141302443791e-8
          7.809169339720409e-9 2.826757660775039e-8 3.4656771519611686e-9 2.092588423390637e-8 6.158406214989995e-9 1.6568428128522067e-8
          9.406758826114873e-9 8.210114708699951e-8 9.350612043098564e-8 6.417020405141263e-8 4.141361519616073e-8 4.3995194746889665e-8
          4.243701566673411e-8 2.8821237250859614e-8 4.716922707703839e-8 5.12821865900377e-8 5.219698527791156e-8 5.625032147082501e-8
          7.050401654142855e-8 9.225937049789991e-8 6.634410811285139e-9 3.339375695223083e-8 3.83527534294275e-8 4.7955065821437067e-8
          1.0012757276527274e-7 1.6198498515960258e-7 1.2325334374141625e-7 1.1462400989233586e-7 1.2224231748736947e-7 1.3953125996836038e-7
          8.314776488666888e-8 1.1270070829026616e-7 9.647907119110579e-8 1.7770056187594965e-7 1.9791810919691166e-9 3.086403498681454e-9
          2.2414594450752608e-9 7.94090227212079e-9 1.601572176963184e-8 6.222596151208719e-9 2.0343264900415892e-8 1.7660223143527888e-9
          1.716765285648229e-9 1.5018557286197112e-9 1.2296313845063259e-9 9.491635971797124e-9 3.1364476415018276e-10 1.3352049894038025e-9
          3.934181524043537e-9 4.782469004071701e-10 4.537760379006166e-8 4.388111005062297e-9 1.4654059762606744e-8 1.4506938459907703e-10
          6.45579374649507e-8 1.4605786959172456e-8 3.336954932413926e-8 3.5405154815996414e-9 5.6017003055068354e-8 2.1309869515070337e-8
          4.367837859832736e-8 1.276793833177722e-9 1.839131292674741e-9 3.6373486553079343e-10 3.65440307868308e-10 8.510389696348102e-10
          1.4617764099695858e-9 4.3939135747006544e-10 4.562137114678382e-9 7.209149499690321e-10 2.6032576218109015e-9 8.847154719719102e-9
          9.296188680588062e-10 3.6282037067316218e-9 1.1030928298282345e-8 8.494227424424447e-10 4.411745004687337e-9 4.202004102583908e-10
          6.664397934254016e-10 4.174820074540235e-10 9.126791765924124e-10 3.4502711095651784e-10 5.223351000968257e-10 1.8568551421513302e-10
          2.8527539035768283e-10 6.996430892371334e-10 3.848652665002326e-10 1.5844680598390114e-10 2.9178609941217323e-10 2.637692950686719e-10
          2.326105547097363e-10 1.8875653599379056e-10 2.7419136413981156e-10 3.18914109585321e-10 9.69264060138561e-11 8.815269609694475e-11
          2.5290959048436206e-10 2.2640252733629233e-10 1.1631752179752638e-11 1.5007082595669376e-10 1.347363115939691e-10 9.67887639270322e-11
          1.8296766463100862e-10 1.0051638308393069e-10 3.1195694289717908e-12 4.190717506285574e-12 6.068617862624455e-11 5.646193286969726e-11
          9.137529382032437e-12 4.6849320618864914e-11 1.357316878541849e-10 2.015081302040535e-10 5.428235151854735e-11 8.880244833396533e-11
          1.572648340343388e-10 2.3697639533431235e-10 9.597392773131373e-11 1.9449751676148664e-11 3.424805446481119e-11 2.5886310171831815e-11
          2.7035154805042534e-11 4.3898588882772135e-8 4.3442010273533874e-8 4.580231523653561e-8 4.2461495055507056e-8 4.086105283648169e-8
          4.210406799223667e-8 3.592958427698441e-8 4.834597439334982e-8 4.7744043845015465e-8 4.916119005826692e-8 4.6019467433288524e-8
          5.072433996054988e-8 4.997602470478936e-8 4.9734850901000884e-8 4.727236140045429e-8 4.293359579356527e-8 4.301446396160498e-8
          3.597046732506002e-8 4.1988542271552145e-8 3.9736561254240105e-8 3.866007119122455e-8 2.7863718058924697e-8 2.7364932688274795e-8
          2.3652814790125463e-8 2.6759820860733505e-8 2.645770431535201e-8 2.2549077088581564e-8 4.3221628703140316e-8 4.297679177364343e-8
          4.661452745763343e-8 4.622146616651102e-8 4.2083250132260536e-8 4.488523637147832e-8 3.751623408251717e-8 3.8497863105518584e-8
          4.2510030071853234e-8 4.002489656775014e-8 4.078375048428898e-8 4.285286126992496e-8 3.810550959242262e-8 3.9132039038471315e-8
          4.0439219809743754e-8 4.3789274401925264e-8 4.0071377308027204e-8 2.1327341294069993e-8 2.4999482594974014e-8 2.324360538342088e-8
          2.7464432766091484e-8 3.245962391613268e-8 3.572509962032809e-8 1.0166882946614157e-8 1.5514812252663843e-8 1.654942248496292e-8
          2.6574459905779097e-8 3.802894774719947e-8 4.15010110778945e-8 3.955007868712341e-8 4.2505246472012546e-8 3.588590400700769e-8
          3.9025127899551714e-8 3.9238837666053237e-8 4.971469246608878e-8 4.9172493728050573e-8 5.2312079151514965e-8 5.1605690131819475e-8
          4.741300839613262e-8 4.942493194211775e-8 4.46797538918664e-8 4.617798975267785e-8 4.914858577340739e-8 4.7890977232405424e-8
          5.4165667738699935e-8 5.3301995945161686e-8 5.488540041737928e-8 5.3897500576972477e-8 5.069529829016568e-8 5.089613573252113e-8
          4.9463481455189804e-8 5.1644933559926344e-8 5.429488002802534e-8 5.4013170895704244e-8 4.462965332265204e-8 4.583756942065945e-8
          3.951857867183521e-8 4.0943533742361055e-8 4.711931092589332e-8 5.018699771076579e-8 4.435277229637158e-8 4.60864239755327e-8
          4.524553972814903e-8 4.3220575522357497e-8 4.1608408727821486e-8 5.2451126869519996e-8 5.370248856765925e-8 4.934556798198068e-8
          2.375727507653475e-8 2.9281697504515657e-8 2.30723491883824e-8 3.017850888201828e-8 3.909405150156386e-8 4.2087192956328626e-8
          9.238452908164448e-9 1.680835911476129e-8 1.6110036422593798e-8 3.121269789729359e-8 2.288581123421951e-8 3.106373665119786e-8
          2.4503078607383487e-8 3.3388621892562706e-8 4.4697479135726465e-8 4.762943033738333e-8 4.4516550749094e-9 1.5465573368077073e-8
          1.6247633982018784e-8 3.548685165992152e-8 4.508552222921525e-8 4.857506140783853e-8 4.5381722056796126e-8 4.809642883933225e-8
          4.225813345838263e-8 4.543680227385941e-8 4.5124589539459495e-8 5.1565606845740276e-8 5.383915527813392e-8 5.036136792711372e-8
          5.185316338464848e-8 4.841326563195384e-8 5.102785162300729e-8 5.059492380800163e-8 3.2284321216547844e-8 3.2293238905270797e-8
          2.8490578796453875e-8 2.808605440588085e-8 3.872331586715917e-8 3.997479372339708e-8 3.761201573077116e-8 4.066382257465018e-8
          4.2895443653423106e-8 4.2037759333065155e-8 4.401747742671601e-8 4.0585937789153015e-8 4.306284498231882e-8 4.2179830007370275e-8
          3.192061884927569e-8 3.16226218407442e-8 2.7867665197932175e-8 2.786379459282004e-8 4.067749990706473e-8 4.228260523656271e-8
          3.87823482218514e-8 4.483103302275938e-8 4.3660542862513986e-8 4.3029957324165437e-8 4.476771588976425e-8 4.599987750346223e-8
          4.556104905373554e-8 4.606730280693391e-8 4.52618488032169e-8 4.696961683514859e-8 4.674365497105104e-8 4.6395507406176034e-8
          4.5819522921878495e-8 4.504619644632846e-8 4.2626334133703126e-8 4.795998178959269e-8 4.7978502981243004e-8 4.706243556849149e-8
          5.811993962746158e-9 1.6414403089786532e-9 8.979530164918302e-10 3.718115781814222e-9 1.3664333802548295e-9 9.287210755005233e-10
          4.672157207891874e-10 7.290736615563945e-10 4.703829948552975e-10 3.1888592823942153e-9 2.3086008268951017e-9 1.6500545932167934e-9
          3.3455767229809714e-9 6.549795352992109e-10 1.7110761507707492e-10 3.21833162080213e-10 1.6987837873790076e-9 7.887695364327581e-10
          1.2820993391977859e-8 1.138625426416739e-8 8.961498006509177e-9 1.7420711915748685e-8 6.965424360464182e-9 3.757741322640578e-9
          1.0317393317791934e-8 6.1175749534074e-9 4.665121586135499e-9 3.138243909693547e-9 2.1855854251487327e-9 9.377796453178648e-9
          7.600890174714322e-9 4.826074300315967e-9 2.840535100331842e-8 2.2531906667985524e-8 1.942084388903492e-8 2.4612339793389498e-8
          1.3600874103065586e-8 7.446970882574709e-9 1.5193145180304283e-8 1.2384685461501097e-8 1.0141814995587506e-8 6.4050790834749295e-9
          4.749625743247589e-9 1.3728858546811275e-8 1.115838538678798e-8 7.125319801595036e-9 7.1302828374105104e-9 1.199099922506898e-8
          3.577644406663101e-9 1.607453852443176e-9 6.033954545990696e-9 2.6821554190279685e-9 1.616290659586563e-8 1.7797444077728183e-8
          8.188033998732095e-9 3.6453223856859265e-9 9.047377359694592e-9 4.0362612744201024e-9 3.0761268592565916e-10 4.2056424652930344e-10
          3.234141853188934e-10 8.694736670710282e-10 2.376333956375484e-10 3.451418355135937e-10 1.3477083043292955e-10 2.2282054933017357e-10
          1.7713280222684427e-10 2.4631788675124307e-10 1.38459882059982e-10 7.291165026703806e-10 4.944147631135853e-10 5.01306202858874e-10
          8.438308717747354e-11 1.473651166563124e-10 5.665548604227624e-11 8.975089471000453e-11 3.3890476793747264e-10 1.9530242636541746e-10
          1.5850456605758423e-9 1.2176089781939664e-9 2.2987000003343335e-9 1.3461585820618992e-9 9.413621334653685e-10 9.259049677182586e-10
          5.375981591055342e-10 2.0171455488136357e-9 1.4944409080551395e-9 1.1167674576872604e-9 2.9181650250971488e-9 1.5462192522446357e-9
          3.2035898436682063e-9 2.605576279262389e-9 1.985406524708773e-9 1.2259179436002283e-9 7.676789065422087e-10 2.863595895070183e-9
          2.186696242238251e-9 1.3590349511667715e-9 5.736914330722839e-10 6.526131997213515e-10 5.397605762046537e-10 7.31534966370419e-10
          4.685921939935691e-10 5.219448606751533e-10 2.9039879204980633e-10 3.143334205916383e-10 3.749064917283863e-10 3.9237858987272655e-10
          1.9433986673516373e-10 5.752975273567376e-10 3.3826804913347036e-10 4.0985068801706677e-10 6.631346679676048e-10 3.7296045157865317e-10
          1.0799933573766562e-9 4.773167967054088e-10 1.4518244017274354e-9 5.362213073829431e-10 1.602469034896974e-9 5.955485966098754e-10
          1.8289604969669886e-10 1.9874594991535762e-10 1.274511819740042e-10 1.1869926841565493e-10 2.1459585013401645e-10 1.0994735485730565e-10
          2.747883454334719e-10 2.584337972244971e-10 9.390907573424432e-9 1.828263298885489e-9 3.044005430974321e-10 3.497269742648466e-9
          4.47748633334932e-9 3.4296004773071036e-8 2.125862646719091e-9 5.247203357287666e-9 1.0660518128707617e-10 2.537708878246037e-10
          1.2632897710639364e-10 1.521545312348391e-8 2.0269683428890455e-9 3.128168154653425e-9 9.665441132963598e-10 9.077753166269356e-10
          2.921370877929112e-10 9.109726248783346e-9 8.43091973730261e-10 2.2803059947528293e-9 4.30598423114519e-9 5.3255856366372644e-8
          1.2039840707285826e-7 1.1983398883007301e-7 8.276050331597262e-8 7.27257969381672e-8 9.910471552820068e-9 1.6835063421968665e-9
          2.296610754937966e-7 1.3218718692001784e-7 9.695835190892462e-8 5.078497113307634e-10 4.4441680207672566e-10 8.146267280064582e-10
          2.702202164204827e-10 7.344637479037197e-10 7.387947732145469e-10 7.431257985253744e-10 3.046263659832981e-10 3.1061145778584695e-10
          2.6794320032774095e-10 3.100999270838447e-10 3.165965495883958e-10 3.451560926138873e-10 8.60548783613469e-9 7.666985034845616e-9
          6.728482233556539e-9 3.050571966388302e-8 2.216636934724126e-8 7.127050853466173e-11 2.01121262552328e-11 3.758376264935467e-11
          8.728766469220101e-11 4.2806488699741057e-10 8.95899888387134e-11 1.0220104899746385e-10 3.3330020836755915e-10 8.759937493468574e-11
          9.168900726477504e-11 1.1375331894749443e-10 4.103755876968195e-8 1.2640936173744617e-7 1.2011181215397925e-7 1.091457086758933e-7
          1.1611148918971786e-7 7.973339732693349e-8 8.78308846455988e-8 1.2344224469693454e-7 1.1376043739432678e-7 8.582063704051289e-8
          2.005202604310963e-8 4.480097747491942e-8 5.221731171769431e-8 2.8314765493779194e-8 3.4586470786180585e-8 7.800811412677289e-8
          9.194676170558237e-8 1.0751606214510349e-7 1.7831244157322439e-7 1.2856573318254177e-7 2.1754607694299261e-7 2.0406121180949327e-10
          1.0711352706792485e-10 2.0343257817868406e-10 1.1542175095238805e-10 6.2502911869711e-11 1.3646325747236614e-10 2.789621799771771e-10
          3.2216382803360526e-10 6.732521687357192e-10 4.096387121241323e-10 2.565836748516493e-10 1.4916913943714788e-10 2.2473099110555044e-10
          1.201536383480974e-10 1.3353472262714402e-10 2.1163458666671892e-10 1.9148185447301185e-10 2.531866131344595e-10 9.49877051063778e-11
          3.1489137179590717e-10 9.051478082548774e-11 1.2863114002086652e-10 9.945501101175897e-11 2.0641084779862736e-12 2.5061578877512402e-11
          2.3140445957285126e-11 1.7962077574249563e-11 8.447132330792471e-12 1.2736361024554185e-11 1.0767879937667103e-11 5.90437101087396e-11
          4.0808272776129247e-8 3.975365729333168e-8 3.965077646690919e-8 3.916959561556849e-8 3.3631826469305616e-8 3.46033319093748e-8
          3.6242720154088335e-8 3.927416338430355e-8 3.8507197458025657e-8 3.6710016829017755e-8 3.7142198192798125e-8 3.750491893000068e-8
          1.9238732328552253e-8 2.2601436042591813e-8 2.9469384541392438e-8 9.580766347466381e-9 1.4489488424123143e-8 2.4558953895081824e-8
          3.4735482604442434e-8 3.655844710838141e-8 3.292680035503642e-8 3.6249943776571005e-8 2.8119038832366056e-8 3.197259712946863e-8
          2.8748259926302797e-8 3.7177863575060193e-8 3.8252629250410556e-8 3.988470016678967e-8 3.797568677727192e-8 4.62875196196971e-10
          2.2203341355384465e-10 1.2404465545970047e-9 5.605201904026361e-10 2.512888527652455e-9 5.5543715427905905e-9 2.6969280380494747e-9
          1.173024687806086e-9 9.561159730774914e-9 4.667917411617327e-9 1.9978718758868088e-9 1.3040903498630098e-8 6.432154982722378e-9
          2.748401795983537e-9 1.4416753933072999e-8 7.14106117569462e-9 3.0552703237457903e-9 5.561978307483386e-11 9.956761184682889e-11
          5.998482074190502e-11 2.349413823943884e-10 4.694757446637572e-10 2.587042271506902e-10 7.768515568677068e-10 1.0533047001681298e-9
          3.753285517207904e-10 1.1654904517584075e-9 4.1742904397669317e-10 1.2310826725607078e-10 1.3371121483774173e-10 7.793863555505622e-11
          1.4431416241941268e-10
        </DataArray>
        <DataArray type="Float64" Name="gradient_matprop_error" format="ascii" RangeMin="0" RangeMax="0">
          0 0 0 0 0 0
          0 0 0 0 0 0
          0 0 0 0 0 0
          0 0 0 0 0 0
          0 0 0 0 0 0
          0 0 0 0 0 0
          0 0 0 0 0 0
          0 0 0 0 0 0
          0 0 0 0 0 0
          0 0 0 0 0 0
          0 0 0 0 0 0
          0 0 0 0 0 0
          0 0 0 0 0 0
          0 0 0 0 0 0
          0 0 0 0 0 0
          0 0 0 0 0 0
          0 0 0 0 0 0
          0 0 0 0 0 0
          0 0 0 0 0 0
          0 0 0 0 0 0
          0 0 0 0 0 0
          0 0 0 0 0 0
          0 0 0 0 0 0
          0 0 0 0 0 0
          0 0 0 0 0 0
          0 0 0 0 0 0
          0 0 0 0 0 0
          0 0 0 0 0 0
          0 0 0 0 0 0
          0 0 0 0 0 0
          0 0 0 0 0 0
          0 0 0 0 0 0
          0 0 0 0 0 0
          0 0 0 0 0 0
          0 0 0 0 0 0
          0 0 0 0 0 0
          0 0 0 0 0 0
          0 0 0 0 0 0
          0 0 0 0 0 0
          0 0 0 0 0 0
          0 0 0 0 0 0
          0 0 0 0 0 0
          0 0 0 0 0 0
          0 0 0 0 0 0
          0 0 0 0 0 0
          0 0 0 0 0 0
          0 0 0 0 0 0
          0 0 0 0 0 0
          0 0 0 0 0 0
          0 0 0 0 0 0
          0 0 0 0 0 0
          0 0 0 0 0 0
          0 0 0 0 0 0
          0 0 0 0 0 0
          0 0 0 0 0 0
          0 0 0 0 0 0
          0 0 0 0 0 0
          0 0 0 0 0 0
          0 0 0 0 0 0
          0 0 0 0 0 0
          0 0 0 0 0 0
          0 0 0 0 0 0
          0 0 0 0 0 0
          0 0 0 0 0 0
          0 0 0 0 0 0
          0 0 0 0 0 0
          0 0 0 0 0 0
          0 0 0 0 0 0
          0 0 0 0 0 0
          0 0 0 0 0 0
          0 0 0 0 0 0
          0 0 0 0 0 0
          0 0 0 0 0 0
          0 0 0 0 0 0
          0 0 0 0 0 0
          0 0 0 0 0 0
          0 0 0 0 0 0
          0 0 0 0 0 0
          0 0 0 0 0 0
          0 0 0 0 0 0
          0 0 0 0 0 0
          0 0 0 0 0 0
          0 0 0 0 0 0
          0 0 0 0 0 0
          0 0 0 0 0 0
          0 0 0 0 0 0
          0 0 0 0 0 0
          0 0 0 0 0 0
          0 0 0 0 0 0
          0 0 0 0 0 0
          0 0 0 0 0 0
          0 0 0 0 0 0
          0 0 0 0 0 0
          0 0 0 0 0 0
          0 0 0 0 0 0
          0 0 0 0 0 0
          0 0 0 0 0 0
          0 0 0 0 0 0
          0 0 0 0 0 0
          0 0 0 0 0 0
          0 0 0 0 0 0
          0 0 0 0 0 0
          0 0 0 0 0 0
          0 0 0 0 0 0
          0 0 0 0 0 0
          0 0 0 0 0 0
          0 0 0 0 0 0
          0 0 0 0 0 0
          0 0 0 0 0 0
          0 0 0 0 0 0
          0 0 0 0 0 0
          0 0 0 0 0 0
          0 0 0 0 0 0
          0 0 0 0 0 0
          0
        </DataArray>
        <DataArray type="Float64" Name="initial_marker" format="ascii" RangeMin="0" RangeMax="2">
          2 0 0 0 0 0
          0 0 0 1 0.25 2
          0 0 0 0 0 0
          0 0 1 1 2 2
          1 2 2 0.6666666666666666 2 2
          2 2 1 0.3333333333333333 0.5 0
          0 1 0 0 2 2
          0 0 0 0 0 0
          0 0 0 0 0 0
          0 0 0 0 0 0
          0 0 0 0 0 0
          0 0 2 2 2 2
          2 2 2 2 2 2
          2 2 1.3333333333333333 2 2 2
          2 2 2 2 2 2
          1 1 1.5 0 1 2
          1 1.5 0.6666666666666666 1.5 0 1
          1 2 2 2 2 2
          2 2 2 2 2 2
          2 2 2 2 2 2
          2 2 2 2 2 2
          2 2 2 2 0 0.5
          0 1 1.5 0.5 2 0.5
          0.5 0.5 0.25 1.5 0 0
          0.75 0.5 2 2 2 0
          2 2 2 2 2 2
          2 0 0.25 0 0 0
          0 0 0.75 0.5 0 1.5
          1.5 0.25 2 2 0.5 0
          0 0 0 0 0 0
          0 0 0 0 0 0
          0 0 0 0 0 0
          0 0 0 0 0 0
          0 0 0 0 0 0
          0 0 0 0 0 0
          0 0 0 0 0 0
          0 2 2 2 2 2
          2 2 2 2 2 2
          2 2 2 2 2 2
          2 2 2 2 2 2
          2 2 2 2 2 2
          2 2 2 2 2 2
          2 2 2 2 2 2
          2 2 2 2 2 2
          2 2 2 2 2 2
          2 2 2 2 2 2
          2 2 2 2 2 2
          2 2 2 2 2 2
          2 2 2 2 2 2
          2 2 2 2 2 2
          2 2 2 2 2 2
          2 2 2 2 2 2
          2 2 2 2 2 2
          2 2 2 2 2 2
          2 2 2 2 2 2
          2 2 2 2 2 2
          2 2 2 2 2 2
          2 2 2 2 2 2
          2 2 2 2 2 2
          2 2 2 2 2 2
          2 2 2 2 2 2
          2 2 2 2 2 2
          2 2 2 2 2 2
          2 2 2 2 2 2
          2 2 1.5 2 2 2
          1 1.5 1.5 2 2 2
          2 2 1 1.5 2 2
          2 2 2 2 2 2
          2 2 2 2 2 2
          2 2 2 2 2 2
          2 2 2 2 2 2
          2 2 2 2 2 2
          2 2 2 2 2 2
          2 2 2 2 0 0.5
          0 1.5 0 0.5 0 0.5
          0 0 0 1.5 1.5 1
          0 0.5 0 0 1.5 1
          2 2 2 2 2 2
          2 2 2 2 2 2
          2 2 2 2 2 2
          2 2 1 1 0 1
          1 1 1 1 0 0
          0 1 1 0 2 2
          2 2 2 2 2 2
          1 1 0 0 1 0
          0 0 0 0 0 0
          0 0.5 0 0 0 0
          0 0 0 0 0 0
          0 0 0 0 0 1
          2 2 1 0.75 0 0
          2 1 1 0 0 0
          0 0 0 0 0 0
          0 0 0 0 0 0
          0 1 1 0 0 0
          0 0 0 0 0 0
          0 0 2 2 2 2
          2 2 2 2 2 2
          1 1.5 1.5 1 1 2
          2 2 2 2 2 0
          0 0.25 0 0 0 0.5
          0 0 1.5 0 0 0
          0 0 0 0 0 0
          0 0 0 0 0 0
          0 0 0 0 0 0
          2 2 2 2 2 2
          2 2 2 2 2 2
          2 2 2 2 2 2
          2 2 2 2 2 2
          2 2 2 2 2 1.75
          1.25 2 2 2 2 2
          2 2 2 2 2 2
          2 2 2 2 0 0.5
          0 1.5 2 2 2 2
          2 2 2 1 1 0
          1
        </DataArray>
        <DataArray type="Float64" Name="markers_norefine" format="ascii" RangeMin="0" RangeMax="2">
          2 0 0 0 0 0
          0 0 0 0 0 0
          0 0 0 0 0 0
          0 0 0 0 1 0
          0 1 0 0 0 2
          2 2 0 0 0 0
          0 0 0 0 0 0
          0 0 0 0 0 0
          0 0 0 0 0 0
          0 0 0 0 0 0
          0 0 0 0 0 0
          0 0 0 0 0 0
          0 0 0 1 0 0
          0 0 0 0 0 0
          0 0 1 1 0.5 0
          0 0 0 0 0 0
          0 0 0 0 0 0
          0 0 0 0 2 2
          2 2 2 2 2 2
          1.75 1.5 2 2 2 2
          0 0 1 0 0 0
          0 0.5 0 0 0 0
          0 0 0 0 0 0
          0 0 0 0 0 0
          0 0 0 0 0 0
          0 0 0 0 0 0
          0 0 0 0 0 0
          0 0 0 0 0 0
          0 0 0 0 0 0
          0 0 0 0 0 0
          0 0 0 0 0 0
          0 0 0 0 0 0
          0 0 0 0 0 0
          0 0 0 0 0 0