<?xml version="1.0"?>
<VTKFile type="UnstructuredGrid" version="0.1" byte_order="LittleEndian" header_type="UInt32" compressor="vtkZLibDataCompressor">
  <UnstructuredGrid>
    <Piece NumberOfPoints="558" NumberOfCells="333">
      <PointData>
        <DataArray type="Int32" Name="libmesh_node_id" format="ascii" RangeMin="477" RangeMax="3513">
          477 589 596 600 601 608
          609 1120 1121 1127 1141 1142
          1144 1147 1162 1167 1171 1172
          1174 1175 1177 1178 1179 1180
          1181 1182 1185 1186 1191 1193
          1194 1196 1197 1198 1199 1200
          1201 1202 1203 1204 1205 1206
          1207 1208 1213 1217 1218 1219
          1220 1224 1225 1735 1821 1822
          1824 1827 1841 1855 1856 1858
          1861 1871 1873 1875 1877 1878
          1879 1880 1881 1882 1883 1884
          1885 1886 1888 1889 1890 1891
          1892 1893 1894 1899 1900 1901
          1905 1906 1907 1908 1909 1910
          1911 1912 1913 1914 1915 1916
          1917 1918 1919 1920 1921 1922
          1923 1924 1925 1926 1927 1928
          1929 1930 1931 1932 1933 1934
          1935 1936 1937 1938 1939 1940
          1941 1942 1943 1944 1945 1946
          1947 1948 1949 1950 1951 1952
          1953 1954 1955 1956 1957 1958
          1959 1960 1961 1962 1963 1964
          1965 1966 1967 1968 1969 1970
          1971 1972 1973 1974 1975 1976
          1977 1978 1979 1980 1981 1982
          1993 1994 1995 1997 1998 1999
          2007 2008 2009 2010 2011 2013
          2014 2015 2016 2027 2029 2031
          2033 2874 2879 2880 2881 2884
          2890 2972 2973 2975 2978 2988
          2990 2992 3006 3007 3009 3012
          3022 3024 3026 3028 3029 3030
          3031 3032 3033 3034 3035 3036
          3037 3038 3039 3040 3041 3042
          3043 3044 3045 3046 3047 3048
          3049 3050 3051 3052 3053 3054
          3055 3056 3057 3058 3059 3060
          3061 3062 3063 3064 3065 3066
          3067 3068 3069 3070 3071 3072
          3073 3074 3075 3076 3077 3078
          3079 3080 3081 3082 3083 3084
          3085 3086 3087 3088 3089 3090
          3091 3092 3093 3094 3095 3096
          3097 3098 3099 3100 3101 3102
          3103 3104 3105 3106 3107 3108
          3109 3110 3111 3112 3113 3114
          3115 3116 3117 3118 3119 3120
          3121 3122 3123 3124 3125 3126
          3127 3128 3129 3130 3131 3132
          3133 3134 3135 3136 3137 3138
          3139 3140 3141 3142 3143 3144
          3145 3146 3147 3148 3149 3150
          3151 3152 3153 3154 3155 3156
          3157 3158 3159 3160 3161 3162
          3163 3164 3165 3166 3167 3168
          3169 3170 3171 3172 3173 3174
          3175 3176 3177 3178 3179 3180
          3181 3182 3183 3184 3185 3186
          3187 3188 3189 3190 3191 3192
          3193 3194 3195 3196 3197 3198
          3199 3200 3201 3202 3203 3204
          3205 3206 3207 3208 3209 3210
          3211 3212 3213 3214 3215 3216
          3217 3218 3219 3220 3221 3222
          3223 3224 3225 3226 3227 3228
          3229 3230 3231 3232 3233 3234
          3235 3236 3237 3238 3239 3240
          3241 3242 3243 3244 3245 3246
          3247 3248 3249 3250 3251 3252
          3253 3254 3255 3256 3257 3258
          3259 3260 3261 3262 3263 3264
          3265 3266 3267 3268 3269 3270
          3271 3272 3273 3274 3275 3276
          3277 3278 3279 3280 3281 3282
          3283 3284 3285 3286 3287 3288
          3289 3290 3291 3292 3293 3294
          3295 3296 3297 3298 3299 3300
          3301 3302 3303 3304 3305 3306
          3307 3308 3309 3310 3311 3312
          3313 3314 3315 3316 3365 3366
          3367 3368 3369 3370 3371 3372
          3373 3374 3375 3376 3377 3378
          3379 3380 3381 3382 3383 3384
          3385 3386 3387 3388 3389 3390
          3391 3392 3396 3399 3400 3401
          3402 3403 3404 3405 3406 3407
          3408 3409 3410 3411 3412 3413
          3414 3415 3416 3417 3418 3419
          3420 3421 3422 3423 3424 3425
          3426 3430 3501 3502 3503 3507
          3508 3509 3510 3511 3512 3513
        </DataArray>
        <DataArray type="Float64" Name="bounds" format="ascii" RangeMin="0" RangeMax="0">
          0 0 0 0 0 0
          0 0 0 0 0 0
          0 0 0 0 0 0
          0 0 0 0 0 0
          0 0 0 0 0 0
          0 0 0 0 0 0
          0 0 0 0 0 0
          0 0 0 0 0 0
          0 0 0 0 0 0
          0 0 0 0 0 0
          0 0 0 0 0 0
          0 0 0 0 0 0
          0 0 0 0 0 0
          0 0 0 0 0 0
          0 0 0 0 0 0
          0 0 0 0 0 0
          0 0 0 0 0 0
          0 0 0 0 0 0
          0 0 0 0 0 0
          0 0 0 0 0 0
          0 0 0 0 0 0
          0 0 0 0 0 0
          0 0 0 0 0 0
          0 0 0 0 0 0
          0 0 0 0 0 0
          0 0 0 0 0 0
          0 0 0 0 0 0
          0 0 0 0 0 0
          0 0 0 0 0 0
          0 0 0 0 0 0
          0 0 0 0 0 0
          0 0 0 0 0 0
          0 0 0 0 0 0
          0 0 0 0 0 0
          0 0 0 0 0 0
          0 0 0 0 0 0
          0 0 0 0 0 0
          0 0 0 0 0 0
          0 0 0 0 0 0
          0 0 0 0 0 0
          0 0 0 0 0 0
          0 0 0 0 0 0
          0 0 0 0 0 0
          0 0 0 0 0 0
          0 0 0 0 0 0
          0 0 0 0 0 0
          0 0 0 0 0 0
          0 0 0 0 0 0
          0 0 0 0 0 0
          0 0 0 0 0 0
          0 0 0 0 0 0
          0 0 0 0 0 0
          0 0 0 0 0 0
          0 0 0 0 0 0
          0 0 0 0 0 0
          0 0 0 0 0 0
          0 0 0 0 0 0
          0 0 0 0 0 0
          0 0 0 0 0 0
          0 0 0 0 0 0
          0 0 0 0 0 0
          0 0 0 0 0 0
          0 0 0 0 0 0
          0 0 0 0 0 0
          0 0 0 0 0 0
          0 0 0 0 0 0
          0 0 0 0 0 0
          0 0 0 0 0 0
          0 0 0 0 0 0
          0 0 0 0 0 0
          0 0 0 0 0 0
          0 0 0 0 0 0
          0 0 0 0 0 0
          0 0 0 0 0 0
          0 0 0 0 0 0
          0 0 0 0 0 0
          0 0 0 0 0 0
          0 0 0 0 0 0
          0 0 0 0 0 0
          0 0 0 0 0 0
          0 0 0 0 0 0
          0 0 0 0 0 0
          0 0 0 0 0 0
          0 0 0 0 0 0
          0 0 0 0 0 0
          0 0 0 0 0 0
          0 0 0 0 0 0
          0 0 0 0 0 0
          0 0 0 0 0 0
          0 0 0 0 0 0
          0 0 0 0 0 0
          0 0 0 0 0 0
          0 0 0 0 0 0
        </DataArray>
        <DataArray type="Float64" Name="gradient_error" format="ascii" RangeMin="3.7616481510677135e-9" RangeMax="4.269925469532324e-7">
          3.7616481510677135e-9 3.720598650000487e-7 4.269925469532324e-7 3.527005684217284e-7 2.1274788754400247e-7 7.776316105062553e-9
          3.793306792826147e-7 3.124358004400027e-7 2.5838783401136544e-7 3.0141779026693453e-7 5.5286757244139654e-8 1.4553931048149382e-7
          3.3624093164376663e-7 1.0578567113169425e-7 3.030581468913456e-7 3.7784693038209084e-7 2.8669585389021764e-7 2.3279452683304522e-7
          2.538155999113625e-7 2.0124394574115005e-7 1.788931997758728e-7 1.4867229157093768e-7 3.6750776348654967e-7 2.897427986548313e-7
          2.685109140273471e-7 2.467950762441543e-7 2.1480171302474086e-7 1.6484570875873976e-7 1.1488970449273863e-7 3.244227701073566e-7
          2.3510896257193971e-7 1.6035073192925685e-7 1.7863606591109834e-8 1.650682340216624e-7 2.1217858248487167e-8 1.6137881638814964e-7
          3.1592977612478524e-7 2.8139463390727243e-7 5.341877998160711e-9 2.1608149770646545e-8 2.6170572777974013e-8 4.1184631658829504e-7
          2.7735023681760855e-8 1.5460813573027755e-7 1.2142318550775226e-8 1.9384107774352614e-7 2.648669729605531e-7 1.541221027341174e-7
          2.1736779241002205e-7 3.358928681775801e-7 2.8061348208592673e-7 1.6325274602232879e-7 1.3470561507921325e-7 1.5310579082677398e-7
          1.608202944769762e-7 8.029457944541132e-8 1.6736288778694816e-7 6.628322157324612e-9 9.896331145668385e-9 1.0798752579874758e-7
          7.692007353795689e-9 1.875004051804467e-7 1.7815342650646353e-7 1.9244034670693632e-7 1.804036507125031e-7 1.716827223174311e-7
          1.8047056029610312e-7 1.4486250043057967e-7 2.013431699672707e-7 1.892508508366385e-7 1.9762753710716255e-7 1.5260401785923005e-7
          1.0913138519598371e-7 1.0812038107300357e-7 1.0621026296015378e-7 1.0294562517746861e-7 8.437102190785362e-8 2.2178332737869487e-7
          2.0507024303125438e-7 2.1058932588428024e-7 1.5601554275177874e-7 9.789645084284238e-8 9.106160104112147e-8 7.211897486594115e-8
          1.0283879596391108e-7 1.4197116721783545e-7 1.091347672463556e-7 1.5043348929993212e-7 1.6832567085773244e-7 1.7636476577127654e-7
          1.7127727399937818e-8 6.488879889653485e-8 6.915772864670968e-8 1.5474300835189746e-7 1.1566908212927254e-7 1.5952981127467717e-7
          1.2219788306616192e-7 1.4070390126203734e-7 1.848197814123459e-7 1.6459870246511276e-7 1.913427354097182e-8 7.425050518514774e-8
          5.2149454843406e-8 1.7676265382250122e-7 1.3327635832367017e-7 1.3532472620048369e-7 1.1116156900276252e-7 1.0990197343086497e-7
          1.75128103115959e-7 1.8309774018393315e-7 1.5294302607953627e-7 1.3673547988810182e-7 1.3694853005779722e-7 1.0751915482604771e-7
          1.0361423311722056e-7 1.9127235267484576e-7 1.9906287059351458e-7 1.5850813977414696e-7 7.9113970155983e-9 1.1084605494801059e-8
          9.382656814206179e-9 1.274830591230612e-8 9.138428812945345e-8 7.401162978410542e-8 4.479754198279329e-9 9.06067169479136e-9
          1.0811065516174466e-8 6.518581273809926e-8 1.1069599039136445e-8 1.4979871787001983e-8 1.3146118870030327e-8 1.7822771375702116e-8
          7.989344823848911e-8 8.686186705623181e-8 6.405615063001137e-9 1.2928812001863961e-8 1.5541285398439747e-8 2.3470499102651564e-8
          1.7476575209077672e-7 1.6122975626116425e-7 1.8642817277350794e-7 1.9454488774564812e-7 1.5677490798535592e-7 1.1890796638913589e-7
          1.977938679403012e-7 1.701721476126257e-7 1.7902283781258144e-7 2.0197967959919694e-7 2.0771937230564526e-7 1.252681025720462e-7
          1.3112160071572524e-7 2.1761036739434176e-7 1.2870680256207527e-7 1.199281283919056e-7 1.3499539020633266e-7 1.244219275702878e-7
          1.4156393705699642e-7 1.4307452456097846e-7 2.4072303217488146e-8 2.87871100846202e-8 3.2579737041334655e-8 1.4496606601055896e-7
          1.354149530137421e-7 1.3186934727398524e-7 9.788023929606108e-8 2.057379442124521e-7 2.1054965315474027e-7 1.568650253672046e-7
          1.5820387982799606e-8 2.1485882517654478e-8 1.939308745196866e-8 2.6389580566244505e-8 9.503487751366965e-8 9.622471601436806e-9
          1.8974469189579485e-8 2.3698992943367556e-8 3.005557709053935e-8 1.869619605325585e-7 2.1064606881236815e-7 1.3553131764780827e-7
          2.3120359061650812e-7 2.3240896765127253e-8 2.2960232164634912e-8 2.2902348015743875e-8 2.2844463866852838e-8 1.6594191086833938e-8
          2.1772498130724724e-8 9.950727305010714e-9 1.0934767176114684e-8 1.445858755054882e-8 7.404279980043316e-9 1.9597216431624464e-8
          2.219606480936994e-8 1.5370046115820016e-8 4.728795955802562e-9 5.803694316226071e-9 8.140736996461907e-9 5.058976027524221e-9
          1.2589046502235764e-8 1.5775211688197294e-8 1.1859935505355698e-8 2.4117422901904058e-8 2.393358797844656e-8 2.5117285616191833e-8
          2.3749753054989056e-8 2.6326757025492317e-8 2.6130863481520817e-8 2.724352475018642e-8 2.5934969937549317e-8 2.3204326745888616e-8
          2.3303912986167532e-8 2.3770748595116413e-8 2.4068085970231605e-8 2.3403499226446448e-8 2.4365423345346793e-8 1.716899483505146e-8
          1.8044839414875992e-8 1.8213234451219302e-8 1.9598666398515514e-8 2.4410866892426207e-8 2.4791444824879657e-8 2.5048950245620892e-8
          2.55256342622759e-8 2.5172022757333107e-8 2.6002318278930903e-8 1.7434196137005887e-8 1.8579559740629492e-8 1.9031226354482226e-8
          2.0441458038698508e-8 2.2401662117085698e-8 2.309309862256696e-8 2.3848693028025894e-8 2.3818152927978368e-8 2.457771932121312e-8
          2.5761778428367413e-8 2.8744826488488865e-8 2.845032765696991e-8 2.9697776836820278e-8 2.8155828825450954e-8 3.126270532895412e-8
          3.097927931257518e-8 3.232333950824199e-8 3.069585329619623e-8 3.09681997495969e-8 2.5710290969122327e-8 2.6294914751689066e-8
          2.646455542443747e-8 2.714375441981151e-8 2.6879538534255806e-8 2.782295341518556e-8 1.840890491103367e-8 1.9588747711192738e-8
          2.0300797715447533e-8 2.1542702798027443e-8 2.7385526926563345e-8 2.812252564540081e-8 2.849901726641595e-8 2.9241814500610234e-8
          2.8859524364238278e-8 3.086996015638075e-8 2.0072972835513195e-8 2.120489801646271e-8 2.2332711355773643e-8 2.315279766239589e-8
          2.539309275149642e-8 2.6305446506764684e-8 2.7695258131614127e-8 3.1870872433459006e-8 3.110108786738481e-8 2.7380013633891607e-8
          2.9953638874365385e-8 2.9975280675419994e-8 1.0156622991795758e-8 1.1170207057997204e-8 1.0539736920309897e-8 1.1563765438726062e-8
          1.4738102415837045e-8 1.5122941250703012e-8 7.230761713755144e-9 8.03047793395122e-9 8.743244691617717e-9 1.0435766371316806e-8
          1.116189779706404e-8 1.2146308893671265e-8 1.1972989950679947e-8 1.288197222302748e-8 1.562659464325272e-8 1.6270230428388508e-8
          8.630691834598483e-9 9.5184072366603e-9 1.0350188500472714e-8 1.1853709083668136e-8 2.0065000031806843e-8 2.0611155493834745e-8
          2.2837586356138248e-8 2.3564222443405684e-8 1.574550111317561e-8 1.6198923442587457e-8 1.94496636378649e-8 2.12569002062436e-8
          2.2005555046207443e-8 2.439133111626025e-8 2.5261603731012886e-8 1.6763938957840418e-8 1.7510025432912323e-8 2.2570510271020616e-8
          5.150416281812524e-9 6.32315970133864e-9 5.605486606908999e-9 6.884763059431245e-9 8.79993137855126e-9 9.548596264767556e-9
          4.105796039476525e-9 5.510336814905776e-9 6.00298503491195e-9 8.335157947321648e-9 6.100388440028449e-9 7.498144083508805e-9
          6.64194519265976e-9 8.167841238644942e-9 1.039973900399637e-8 1.133881036299071e-8 4.889773290336345e-9 6.544998168019056e-9
          7.144540987800338e-9 9.887599857672591e-9 1.3044970115096963e-8 1.3567096857961829e-8 1.598598059395616e-8 1.9691611813430274e-8
          1.2327275950370696e-8 1.2865559195851272e-8 1.4899113596433118e-8 1.4173813639606328e-8 1.498085899121065e-8 2.170914873521216e-8
          2.2344692505560615e-8 1.3515396848040648e-8 1.437505788779841e-8 2.1072973965969946e-8 1.29414706634619e-8 1.3780898577395882e-8
          1.4036053594307086e-8 1.4836121749118723e-8 1.707866520294896e-8 1.805053985128331e-8 1.0187894828800086e-8 1.1261633670461452e-8
          1.2277243169225787e-8 1.3785301519204221e-8 1.5238878924784354e-8 1.6029510271882066e-8 1.655233377827433e-8 1.7386500539618315e-8
          1.9191972830483692e-8 2.0490263342871414e-8 1.2047830206792687e-8 1.3403593886078494e-8 1.464265337942823e-8 1.6321788883803687e-8
          2.2836593306975924e-8 2.377792776954011e-8 2.6136182699383804e-8 2.7090965740443955e-8 1.8413662951464582e-8 1.9471486790356294e-8
          2.41743507781281e-8 2.488897150184846e-8 2.6170660451870657e-8 2.8214138961709305e-8 2.9581461518960775e-8 2.0731355190838627e-8
          2.223090645022687e-8 2.623342521620806e-8 7.239172981660147e-9 8.904588911997183e-9 7.903568238501471e-9 9.723119855082606e-9
          1.2373795631573689e-8 1.3528660249030792e-8 5.843443260332367e-9 7.80971406188597e-9 8.55213344185876e-9 1.1821888555126028e-8
          8.649452038795952e-9 1.0641341268750113e-8 9.495471377085472e-9 1.1683288738888408e-8 1.4816709249381683e-8 1.6261393204265716e-8
          7.043404366721428e-9 9.390491254408393e-9 1.0349138579588177e-8 1.4156187614669699e-8 1.6018797135516157e-8 1.7266161072669295e-8
          2.321466130330495e-8 2.42185836277477e-8 1.5490362230558594e-8 1.6839757596941532e-8 2.245635007299449e-8 1.872792471348418e-8
          2.039242651138487e-8 2.5404973218284096e-8 2.682773722983835e-8 1.839106841509641e-8 2.0120675273169804e-8 2.468630723625541e-8
          2.7036510302755494e-8 2.7733616979336263e-8 2.9014514555918453e-8 2.8208867919744044e-8 2.7071394169893496e-8 2.7470034296180255e-8
          2.7106278037031494e-8 2.765342970626293e-8 2.8786726184550424e-8 2.8332610940310622e-8 2.9861901899049616e-8 2.75732424331896e-8
          2.8558937813182395e-8 2.84563539608772e-8 3.0201047512919854e-8 3.146436953377776e-8 3.106323344474249e-8 3.284090303228432e-8
          3.43422259820496e-8 3.4138510774812835e-8 2.989498392445626e-8 3.1068758002934434e-8 3.122065309252178e-8 3.2718021869314214e-8
          2.9588920335992667e-8 3.0673146472091106e-8 3.1378072740301066e-8 3.2373563238037095e-8 3.383639315559601e-8 3.439284146641528e-8
          3.615048456644498e-8 3.1906223443789886e-8 3.333056032914241e-8 3.464717215801772e-8 3.400637208055689e-8 3.376891432905957e-8
          3.539222612174593e-8 3.3201985853826866e-8 3.756273449751429e-8 3.725745200728189e-8 3.936194396467966e-8 3.645310201903767e-8
          3.175337201924711e-8 3.320855454420156e-8 3.0634228908402736e-8 3.453331533201812e-8 3.58612752797901e-8 3.311259614301039e-8
          2.9796152829901924e-8 3.050964474500314e-8 3.127210462058766e-8 3.196603256766423e-8 3.221740799425694e-8 3.360911112787773e-8
          2.2554758371306797e-8 2.3691929766036807e-8 2.524235812976717e-8 2.7402760414597015e-8 3.292185497799747e-8 3.362153363317125e-8
          3.475733576531126e-8 3.5475129357553905e-8 3.5238779545125194e-8 3.7029414349450364e-8 2.5775123756953485e-8 2.7002297457492826e-8
          2.9051610265098094e-8 3.05479741518803e-8 3.2643470658982786e-8 3.417380369338419e-8 3.207526198955606e-8 3.3789345645753745e-8
          3.166199131481238e-8 3.32415380453062e-8 3.334756296119753e-8 3.571061392916549e-8 3.732174620690054e-8 3.5264881056425626e-8
          3.6777586664696883e-8 3.5047057318352434e-8 3.7063337203206854e-8 3.722763749097643e-8 1.8000631265823157e-8 1.8940203054660027e-8
          1.965344118429617e-8 2.0697791749154506e-8 2.197786315752476e-8 2.3759774700650133e-8 1.4391857896342965e-8 1.6026402093143058e-8
          1.762304324278892e-8 1.9527053821698682e-8 2.15977507514476e-8 2.2735518743509806e-8 2.3897697032366425e-8 2.5153569090163193e-8
          2.5880551208102632e-8 2.8358724517875422e-8 1.7474609776197998e-8 1.9490617167646633e-8 2.167322587368517e-8 2.375347286381648e-8
          2.7654589389021252e-8 2.9445394780766545e-8 3.1233227306489874e-8 3.311338247424567e-8 2.4001752517632315e-8 2.605668541101298e-8
          2.9157739569410565e-8 3.1539290474142205e-8 2.8425042752371978e-8 1.046672009247162e-8 1.2882256683457797e-8 1.1593520068850162e-8
          1.4276392607677777e-8 1.7900230224489965e-8 1.9784348244814993e-8 8.627403760536985e-9 1.1458630918822647e-8 1.2757404982134923e-8
          1.7129388426125076e-8 1.2905631007089305e-8 1.590902741271716e-8 1.4425360767633497e-8 1.7824279848183e-8 2.1979229974159965e-8
          2.4557939840084853e-8 1.0788271909251508e-8 1.4288878321235634e-8 1.6094340349553994e-8 2.1141125404344353e-8 2.2263904460646146e-8
          2.4388688885670624e-8 2.8526527914860503e-8 3.0522670632905945e-8 2.204306933316388e-8 2.4210773262802806e-8 2.7960258356252187e-8
          2.6836424285941057e-8 2.669514190503056e-8 3.59826330312748e-8 3.7783983518296265e-8 3.771273471793871e-8 3.5469357224089583e-8
          3.7293304846874995e-8 3.79108003652145e-8 3.9709214856154735e-8 3.4956081416904364e-8 3.680262617545372e-8 3.810886601249028e-8
        </DataArray>
        <DataArray type="Float64" Name="gradient_matprop_error" format="ascii" RangeMin="0" RangeMax="0">
          0 0 0 0 0 0
          0 0 0 0 0 0
          0 0 0 0 0 0
          0 0 0 0 0 0
          0 0 0 0 0 0
          0 0 0 0 0 0
          0 0 0 0 0 0
          0 0 0 0 0 0
          0 0 0 0 0 0
          0 0 0 0 0 0
          0 0 0 0 0 0
          0 0 0 0 0 0
          0 0 0 0 0 0
          0 0 0 0 0 0
          0 0 0 0 0 0
          0 0 0 0 0 0
          0 0 0 0 0 0
          0 0 0 0 0 0
          0 0 0 0 0 0
          0 0 0 0 0 0
          0 0 0 0 0 0
          0 0 0 0 0 0
          0 0 0 0 0 0
          0 0 0 0 0 0
          0 0 0 0 0 0
          0 0 0 0 0 0
          0 0 0 0 0 0
          0 0 0 0 0 0
          0 0 0 0 0 0
          0 0 0 0 0 0
          0 0 0 0 0 0
          0 0 0 0 0 0
          0 0 0 0 0 0
          0 0 0 0 0 0
          0 0 0 0 0 0
          0 0 0 0 0 0
          0 0 0 0 0 0
          0 0 0 0 0 0
          0 0 0 0 0 0
          0 0 0 0 0 0
          0 0 0 0 0 0
          0 0 0 0 0 0
          0 0 0 0 0 0
          0 0 0 0 0 0
          0 0 0 0 0 0
          0 0 0 0 0 0
          0 0 0 0 0 0
          0 0 0 0 0 0
          0 0 0 0 0 0
          0 0 0 0 0 0
          0 0 0 0 0 0
          0 0 0 0 0 0
          0 0 0 0 0 0
          0 0 0 0 0 0
          0 0 0 0 0 0
          0 0 0 0 0 0
          0 0 0 0 0 0
          0 0 0 0 0 0
          0 0 0 0 0 0
          0 0 0 0 0 0
          0 0 0 0 0 0
          0 0 0 0 0 0
          0 0 0 0 0 0
          0 0 0 0 0 0
          0 0 0 0 0 0
          0 0 0 0 0 0
          0 0 0 0 0 0
          0 0 0 0 0 0
          0 0 0 0 0 0
          0 0 0 0 0 0
          0 0 0 0 0 0
          0 0 0 0 0 0
          0 0 0 0 0 0
          0 0 0 0 0 0
          0 0 0 0 0 0
          0 0 0 0 0 0
          0 0 0 0 0 0
          0 0 0 0 0 0
          0 0 0 0 0 0
          0 0 0 0 0 0
          0 0 0 0 0 0
          0 0 0 0 0 0
          0 0 0 0 0 0
          0 0 0 0 0 0
          0 0 0 0 0 0
          0 0 0 0 0 0
          0 0 0 0 0 0
          0 0 0 0 0 0
          0 0 0 0 0 0
          0 0 0 0 0 0
          0 0 0 0 0 0
          0 0 0 0 0 0
          0 0 0 0 0 0
        </DataArray>
        <DataArray type="Float64" Name="initial_marker" format="ascii" RangeMin="0" RangeMax="2">
          2 2 2 2 1 2
          2 1 1 2 2 2
          1.5 2 0.5 1 1 1
          1 1 1 1 2 2
          2 1.3333333333333333 1 1 1 2
          2 1.3333333333333333 2 2 2 2
          1.5 1.5 2 2 2 2
          2 2 2 0 0.5 0
          0.5 1 1 2 2 2
          2 2 2 2 2 2
          2 2 2 2 2 2
          2 2 2 2 2 2
          2 2 2 2 2 2
          2 2 2 2 2 2
          2 2 2 2 2 2
          2 2 2 2 2 2
          2 2 2 2 2 2
          2 2 2 2 2 2
          2 2 2 2 2 2
          2 2 2 2 2 2
          2 2 2 2 2 2
          2 2 2 2 2 2
          2 2 2 2 2 2
          2 2 2 2 2 2
          2 2 2 2 2 2
          2 2 2 2 2 2
          2 2 2 2 2 2
          2 2 2 2 2 2
          2 2 2 2 2 2
          2 2 2 2 2 2
          2 2 2 2 2 2
          2 2 2 2 2 2
          2 2 2 2 2 2
          2 2 2 2 2 2
          2 2 2 2 2 2
          2 2 2 2 2 2
          2 2 2 2 2 2
          2 2 2 2 2 2
          2 2 2 2 2 2
          2 2 2 2 2 2
          2 2 2 2 2 2
          2 2 2 2 2 2
          2 2 2 2 2 2
          2 2 2 2 2 2
          2 2 2 2 2 2
          2 2 2 2 2 2
          2 2 2 2 2 2
          2 2 2 2 2 2
          2 2 2 2 2 2
          2 2 2 2 2 2
          2 2 2 2 2 2
          2 2 2 2 2 2
          2 2 2 2 2 2
          2 2 2 2 2 2
          2 2 2 2 2 2
          2 2 2 2 2 2
          2 2 2 2 2 2
          2 2 2 2 2 2
          2 2 2 2 2 2
          2 2 2 2 2 2
          2 2 2 2 2 2
          2 2 2 2 2 2
          2 2 2 2 2 2
          2 2 2 2 2 2
          2 2 2 2 2 2
          2 2 2 2 2 2
          2 2 2 2 2 2
          2 2 2 2 2 2
          2 2 2 2 2 2
          2 2 2 2 2 2
          2 2 2 2 2 2
          2 2 2 2 2 2
          2 2 2 2 2 2
          2 2 2 2 2 2
          2 2 2 2 2 2
          2 2 2 2 2 2
          2 2 2 2 2 2
          2 2 2 2 2 2
          2 2 2 2 2 2
          2 2 2 2 2 2
          2 2 2 2 2 2
          2 2 2 2 2 2
          2 2 2 2 2 2
          2 2 2 2 2 2
          2 2 2 2 2 2
          2 2 2 2 2 2
          2 2 2 2 2 2
          2 2 2 2 2 2
          2 2 2 2 2 2
          2 2 2 2 2 2
          2 2 2 2 2 2
          2 2 2 2 2 2
          2 2 2 2 2 2
        </DataArray>
        <DataArray type="Float64" Name="markers_norefine" format="ascii" RangeMin="0" RangeMax="2">
          2 0 0 0 0 2
          0 0 0 0 1 0
          0 1 0 0 0 0
          0 0 0 0 0 0
          0 0 0 0 0 0
          0 0 2 0 2 0.5
          0 0 2 2 2 0
          2 0.5 2 0 0 0
          0 0 0 0 0 0
          0 1 0 2 2 1
          2 0 0 0 0 0
          0 0 0 0 0 0
          0 0 0 0 0 0
          0 0 0 0 0 0
          0 0 0 0 0 0
          2 1 1.5 0 0 0
          0 0 0 0 2 1.5
          1.75 0.25 0 0 0 0
          0 0 0 0 0 0
          0 0 0 0 2 2
          2 2 1 1.25 2 2
          2 1.5 2 2 2 2
          1.5 1.5 2 2 2 2
          0 0 0 0 0 0
          0 0 0 0 0 0
          0 0 0 0 0 0
          0 0 2 2 2 0.5
          0 0 0 0 0 0
          2 2 2 2 1.5 2
          2 2 2 0 0 0
          0 0 0 0 0 1.3333333333333333
          1 2 2 2 2 1.5
          1 2 2 2 2 2
          2 2 2 0 0 0
          0 0 0 0 0 0.5
          0.25 1 0.5 0 0 1.5
          1.25 1.5 1.3333333333333333 1 0.75 1
          1 0.5 1 2 1.75 2
          1.6666666666666667 1 1 0 1 1
          0 0 0 0 0 0
          0 0 0 0 1 1
          1 1 1 1 2 2
          2 2 1 1 1 1
          1 1 2 2 2 2
          1 1.5 0 0.5 0 2
          1.6666666666666667 2 2 2 2 2
          2 2 2 2 2 2
          2 2 2 2 2 2
          2 2 2 2 1.5 1.5
          1 1 2 2 2 1.5
          1.5 1 1 2 2 1.3333333333333333
          2 2 2 2 2 2
          2 2 2 2 2 2
          2 2 2 2 2 2
          2 2 2 2 2 1.6666666666666667
          2 2 2 2 2 1.5
          1.75 2 2 2 2 2
          2 2 2 2 2 2
          2 2 2 2 2 2
          2 2 2 2 2 2
          1.5 1.75 1 1.5 2 2
          2 2 2 2 2 2
          2 2 2 2 2 2
          2 2 2 2 2 2
          2 2 2 2 2 2
          2 2 2 2 2 2
          2 2 2 2 2 2
          2 2 2 2 2 2
          0 0 0.5 0 0.5 0
          1 0.5 0.75 0 0 1
          1 0 1 1 0 1
          1 0 1 1 0 0
          1 1 0 1 1 0
          0 1 1 0 0 0
          0 0 0 0 0 0
          0 0 0 0 0 0
          1 1 1 1 1 1
          2 2 2 2 1 1
          1 1 1 1 2 2
          2 2 0.5 0.5 0 0
          1.5 1.5 1 0.5 0.5 0
          0 1.5 1.5 1 2 2
          2 2 2 2 2 2
          2 2 2 2 2 2
          2 2 2 2 2 2
          2 2 2 2 2 2
          2 2 2 2 2 2
          2 2 2 2 2 2
          2 2 2 2 2 2
          2 2 2 2 2 2
          2 2 2 2 2 2
          2 2 1 1 0 1
          1 0 0 1 1 0
        </DataArray>
        <DataArray type="Float64" Name="markers_mustrefine" format="ascii" RangeMin="0" RangeMax="2">
          2 2 2 2 1 2
          2 1 1 2 2 2
          1.5 2 0.5 1 1 1
          1 1 1 1 2 2
          2 1.3333333333333333 1 1 1 2
          2 1.3333333333333333 2 2 2 2
          1.5 1.5 2 2 2 2
          2 2 2 0 0.5 0
          0.5 1 1 2 2 2
          2 2 2 2 2 2
          2 2 2 2 2 2
          2 2 2 2 2 2
          2 2 2 2 2 2
          2 2 2 2 2 2
          2 2 2 2 2 2
          2 2 2 2 2 2
          2 2 2 2 2 2
          2 2 2 2 2 2
          2 2 2 2 2 2
          2 2 2 2 2 2
          2 2 2 2 2 2
          2 2 2 2 2 2
          2 2 2 2 2 2
          2 2 2 2 2 2
          2 2 2 2 2 2
          2 2 2 2 2 2
          2 2 2 2 2 2
          2 2 2 2 2 2
          2 2 2 2 2 2
          2 2 2 2 2 2
          2 2 2 2 2 2
          2 2 2 2 2 2
          2 2 2 2 2 2
          2 2 2 2 2 2
          2 2 2 2 2 2
          2 2 2 2 2 2
          2 2 2 2 2 2
          2 2 2 2 2 2
          2 2 2 2 2 2
          2 2 2 2 2 2
          2 2 2 2 2 2
          2 2 2 2 2 2
          2 2 2 2 2 2
          2 2 2 2 2 2
          2 2 2 2 2 2
          2 2 2 2 2 2
          2 2 2 2 2 2
          2 2 2 2 2 2
          2 2 2 2 2 2
          2 2 2 2 2 2
          2 2 2 2 2 2
          2 2 2 2 2 2
          2 2 2 2 2 2
          2 2 2 2 2 2
          2 2 2 2 2 2
          2 2 2 2 2 2
          2 2 2 2 2 2
          2 2 2 2 2 2
          2 2 2 2 2 2
          2 2 2 2 2 2
          2 2 2 2 2 2
          2 2 2 2 2 2
          2 2 2 2 2 2
          2 2 2 2 2 2
          2 2 2 2 2 2
          2 2 2 2 2 2
          2 2 2 2 2 2
          2 2 2 2 2 2
          2 2 2 2 2 2
          2 2 2 2 2 2
          2 2 2 2 2 2
          2 2 2 2 2 2
          2 2 2 2 2 2
          2 2 2 2 2 2
          2 2 2 2 2 2
          2 2 2 2 2 2
          2 2 2 2 2 2
          2 2 2 2 2 2
          2 2 2 2 2 2
          2 2 2 2 2 2
          2 2 2 2 2 2
          2 2 2 2 2 2
          2 2 2 2 2 2
          2 2 2 2 2 2
          2 2 2 2 2 2
          2 2 2 2 2 2
          2 2 2 2 2 2
          2 2 2 2 2 2
          2 2 2 2 2 2
          2 2 2 2 2 2
          2 2 2 2 2 2
          2 2 2 2 2 2
          2 2 2 2 2 2
        </DataArray>
        <DataArray type="Float64" Name="gradient_marker" format="ascii" RangeMin="0" RangeMax="1">
          0 1 1 1 0.75 0
          1 0.5 0.5 0.75 0.25 0.75
          0.75 0.5 0.5 0.5 0.5 0.5
          0.5 0.5 0.5 0.5 1 0.75
          0.75 0.6666666666666666 0.5 0.5 0.5 1
          0.75 0.6666666666666666 0 0.75 0 0.625
          0.75 0.75 0 0 0 1
          0 0.5 0 0.5 0.5 0.5
          0.5 0.5 0.5 1 0.75 0.875
          0.75 0.375 0.75 0 0 0.5
          0 1 1 1 1 1
          1 0.5 1 1 1 0.5
          0 0 0 0 0 1
          1 1 0.5 0 0 0
          0.5 0.75 0.5 0.75 0.75 0.75
          0 0.25 0.25 0.75 0.5 0.75
          0.5 0.625 0.75 0.625 0 0.25
          0.125 0.75 0.25 0.25 0 0
          0.75 0.75 0.5 0.25 0.25 0
          0 0.75 0.75 0.5 0 0
          0 0 0.375 0.25 0 0
          0 0.25 0 0 0 0
          0.25 0.25 0 0 0 0
          0.875 0.75 1 1 0.75 0.5
          1 0.75 0.75 1 1 0.5
          0.5 1 0.5 0.5 0.5 0.5
          0.5 0.5 0 0 0 0.5
          0.25 0.25 0 0.75 0.75 0.5
          0 0 0 0 0.25 0
          0 0 0 0.75 1 0.5
          1 0 0 0 0 0
          0 0 0 0 0 0
          0 0 0 0 0 0
          0 0 0 0 0 0
          0 0 0 0 0 0
          0 0 0 0 0 0
          0 0 0 0 0 0
          0 0 0 0 0 0
          0 0 0 0 0 0
          0 0 0 0 0 0
          0 0 0 0 0 0
          0 0 0 0 0 0
          0 0 0 0 0 0
          0 0 0 0 0 0
          0 0 0 0 0 0
          0 0 0 0 0 0
          0 0 0 0 0 0
          0 0 0 0 0 0
          0 0 0 0 0 0
          0 0 0 0 0 0
          0 0 0 0 0 0
          0 0 0 0 0 0
          0 0 0 0 0 0
          0 0 0 0 0 0
          0 0 0 0 0 0
          0 0 0 0 0 0
          0 0 0 0 0 0
          0 0 0 0 0 0
          0 0 0 0 0 0