<?xml version="1.0"?>
<VTKFile type="UnstructuredGrid" version="0.1" byte_order="LittleEndian" header_type="UInt32" compressor="vtkZLibDataCompressor">
  <UnstructuredGrid>
    <Piece NumberOfPoints="545" NumberOfCells="317">
      <PointData>
        <DataArray type="Int32" Name="libmesh_node_id" format="ascii" RangeMin="386" RangeMax="3982">
          386 472 479 603 604 607
          610 619 620 625 1183 1184
          1187 1188 1189 1190 1192 1195
          1209 1210 1211 1212 1214 1215
          1216 1227 1228 1229 1230 1231
          1232 1233 1234 1235 1236 1237
          1238 1239 1240 1244 1245 1247
          1248 1250 1265 1266 1269 1271
          1272 1274 1285 1286 1289 1290
          1292 1294 1584 1585 1586 1587
          1588 1591 1592 1895 1896 1897
          1898 1902 1903 1904 1983 1984
          1985 1986 1987 1988 1989 1990
          1991 1992 1996 2000 2001 2002
          2003 2004 2005 2006 2012 2017
          2018 2019 2020 2021 2022 2023
          2024 2025 2026 2028 2030 2032
          2034 2035 2036 2037 2038 2039
          2040 2041 2042 2043 2044 2053
          2054 2055 2110 2111 2112 2113
          2114 2115 2116 2117 2118 2119
          2130 2131 2132 2133 2134 2135
          2136 2144 2145 2146 2147 2148
          2149 2150 2151 2152 2153 2164
          2165 2166 2167 2168 2169 2170
          3317 3318 3319 3320 3321 3322
          3323 3324 3325 3326 3327 3328
          3329 3330 3331 3332 3333 3334
          3335 3336 3337 3338 3339 3340
          3341 3342 3343 3344 3345 3346
          3347 3348 3349 3350 3351 3352
          3353 3354 3355 3356 3357 3358
          3359 3360 3361 3362 3363 3364
          3393 3394 3395 3397 3398 3427
          3428 3429 3431 3432 3433 3434
          3435 3436 3437 3438 3439 3440
          3441 3442 3443 3444 3445 3446
          3447 3448 3449 3450 3451 3452
          3453 3454 3455 3456 3457 3458
          3459 3460 3461 3462 3463 3464
          3465 3466 3467 3468 3469 3470
          3471 3472 3473 3474 3475 3476
          3477 3478 3479 3480 3481 3482
          3483 3484 3485 3486 3487 3488
          3489 3490 3491 3492 3493 3494
          3495 3496 3497 3498 3499 3500
          3504 3505 3506 3514 3515 3516
          3517 3518 3519 3520 3521 3522
          3523 3524 3525 3526 3527 3528
          3529 3530 3531 3532 3533 3534
          3535 3536 3537 3538 3539 3540
          3738 3739 3740 3741 3742 3743
          3744 3745 3746 3747 3748 3749
          3750 3751 3752 3753 3754 3755
          3756 3757 3758 3759 3760 3761
          3762 3763 3764 3765 3766 3767
          3768 3769 3770 3771 3772 3773
          3774 3775 3776 3777 3778 3779
          3780 3781 3782 3783 3784 3785
          3827 3828 3829 3830 3831 3832
          3833 3834 3835 3836 3837 3838
          3839 3840 3841 3842 3843 3844
          3845 3846 3847 3848 3849 3850
          3851 3852 3853 3854 3855 3856
          3857 3858 3859 3860 3861 3862
          3863 3864 3865 3866 3867 3868
          3869 3870 3871 3872 3873 3874
          3875 3876 3877 3878 3879 3880
          3881 3882 3883 3884 3885 3886
          3887 3888 3889 3890 3891 3892
          3893 3894 3963 3964 3965 3966
          3967 3968 3969 3970 3971 3972
          3973 3974 3975 3976 3977 3978
          3979 3980 3981 3982 599 602
          473 605 601 606 806 809
          810 807 598 826 824 827
          825 611 832 831 854 855
          861 1173 1174 1185 1186 1175
          1191 1178 1193 1194 1196 1219
          1202 1220 1223 609 1225 1893
          1975 1976 1978 1899 1900 1901
          1993 1994 1995 1997 1998 1999
          1208 1982 2011 2027 2029 2031
          2033 3275 3295 3296 3298 1207
          3301 1981 3281 3311 3313 3315
          3302 3314 3379 3380 3392 3308
          3316 3386 3388 3384 2010 3396
          3390 3413 3414 3426 3420 3422
          3418 2015 3430 3424 2016 3377
          3378 2009 3383 3411 3412 1213
          3417 3502 3508 3510 3512
        </DataArray>
        <DataArray type="Float64" Name="bounds" format="ascii" RangeMin="0" RangeMax="0">
          0 0 0 0 0 0
          0 0 0 0 0 0
          0 0 0 0 0 0
          0 0 0 0 0 0
          0 0 0 0 0 0
          0 0 0 0 0 0
          0 0 0 0 0 0
          0 0 0 0 0 0
          0 0 0 0 0 0
          0 0 0 0 0 0
          0 0 0 0 0 0
          0 0 0 0 0 0
          0 0 0 0 0 0
          0 0 0 0 0 0
          0 0 0 0 0 0
          0 0 0 0 0 0
          0 0 0 0 0 0
          0 0 0 0 0 0
          0 0 0 0 0 0
          0 0 0 0 0 0
          0 0 0 0 0 0
          0 0 0 0 0 0
          0 0 0 0 0 0
          0 0 0 0 0 0
          0 0 0 0 0 0
          0 0 0 0 0 0
          0 0 0 0 0 0
          0 0 0 0 0 0
          0 0 0 0 0 0
          0 0 0 0 0 0
          0 0 0 0 0 0
          0 0 0 0 0 0
          0 0 0 0 0 0
          0 0 0 0 0 0
          0 0 0 0 0 0
          0 0 0 0 0 0
          0 0 0 0 0 0
          0 0 0 0 0 0
          0 0 0 0 0 0
          0 0 0 0 0 0
          0 0 0 0 0 0
          0 0 0 0 0 0
          0 0 0 0 0 0
          0 0 0 0 0 0
          0 0 0 0 0 0
          0 0 0 0 0 0
          0 0 0 0 0 0
          0 0 0 0 0 0
          0 0 0 0 0 0
          0 0 0 0 0 0
          0 0 0 0 0 0
          0 0 0 0 0 0
          0 0 0 0 0 0
          0 0 0 0 0 0
          0 0 0 0 0 0
          0 0 0 0 0 0
          0 0 0 0 0 0
          0 0 0 0 0 0
          0 0 0 0 0 0
          0 0 0 0 0 0
          0 0 0 0 0 0
          0 0 0 0 0 0
          0 0 0 0 0 0
          0 0 0 0 0 0
          0 0 0 0 0 0
          0 0 0 0 0 0
          0 0 0 0 0 0
          0 0 0 0 0 0
          0 0 0 0 0 0
          0 0 0 0 0 0
          0 0 0 0 0 0
          0 0 0 0 0 0
          0 0 0 0 0 0
          0 0 0 0 0 0
          0 0 0 0 0 0
          0 0 0 0 0 0
          0 0 0 0 0 0
          0 0 0 0 0 0
          0 0 0 0 0 0
          0 0 0 0 0 0
          0 0 0 0 0 0
          0 0 0 0 0 0
          0 0 0 0 0 0
          0 0 0 0 0 0
          0 0 0 0 0 0
          0 0 0 0 0 0
          0 0 0 0 0 0
          0 0 0 0 0 0
          0 0 0 0 0 0
          0 0 0 0 0 0
          0 0 0 0 0
        </DataArray>
        <DataArray type="Float64" Name="gradient_error" format="ascii" RangeMin="9.930232467974145e-10" RangeMax="3.793306792826147e-7">
          1.7235630466880277e-8 1.1768302128190539e-8 5.4240858262521545e-9 2.797049019291209e-7 1.0206432346604285e-7 2.4701296562418656e-8
          2.465392182305108e-7 1.4842695767369572e-9 1.6625528102295334e-9 1.4454394607671285e-9 1.0986419935045733e-8 1.3996516745045003e-8
          1.1507539115621084e-8 1.6835683663699526e-7 1.244740980484666e-7 1.7006613555044276e-8 5.6739892680994746e-8 1.8940682579779087e-7
          4.013129912904929e-8 1.701231433973364e-7 2.3087282566021605e-7 1.6708655711315211e-7 3.5180685911824706e-8 4.9711438616999056e-8
          3.2429851816262734e-7 1.1182001745980605e-7 1.6277648304444877e-7 5.0982248397722116e-8 1.0743513047419331e-7 1.9387905569910903e-8
          1.50257467895707e-8 6.625803775434236e-9 2.1373294862909155e-7 1.4301829722940565e-7 1.0663588009230498e-8 1.27243436200667e-8
          8.680779642635896e-9 1.1749149449627228e-7 8.369975811700266e-8 4.550821556294649e-9 2.8125415231453555e-8 2.1793908441591088e-7
          1.3449116157262906e-7 5.136718485249667e-8 5.884566951981593e-8 1.6242100172903228e-7 1.0115612605289546e-7 1.893548423636073e-8
          6.794146032515307e-8 1.5448105363112472e-7 2.2956700787280757e-8 6.035494691636733e-8 4.395508964967896e-9 2.9056670726352274e-9
          8.119777871555371e-8 1.6016991271318257e-9 4.471575635948477e-9 6.8571966955764304e-9 4.677434268044554e-9 2.9879627152865857e-9
          4.69462458633357e-9 1.5114979831889679e-9 3.0464404474930656e-9 2.3572053334642432e-7 2.1288596269096926e-7 2.101517886027551e-7
          1.499539450732921e-7 8.255136456425534e-8 7.224356064906097e-8 5.52462310174407e-8 1.4011414903025842e-7 1.275097953150676e-7
          1.4290664730339292e-7 1.2807928140713166e-7 1.4200082494837946e-7 1.3695194059533442e-7 3.291655270738905e-8 3.776587760558167e-8
          4.476723794130501e-8 1.6366117829824507e-7 9.015227109213546e-8 1.2577172379543419e-7 1.1627779059019682e-7 8.057737190012936e-8
          6.926349766181014e-8 2.1211086128822595e-7 2.0831231152851614e-7 1.4107853621858577e-7 1.0448589462923277e-7 2.4151456337080387e-8
          3.306356494099036e-8 3.041735117350215e-8 4.2225491552845187e-8 1.1488873229039353e-7 1.2523457560925824e-7 1.522907547618767e-8
          3.022529882115906e-8 3.859580836179662e-8 4.170142061894241e-8 1.9302053474045772e-7 2.08977159970939e-7 1.3773463074620317e-7
          1.959135231079772e-7 1.9354733308348494e-7 2.0096133663277628e-7 1.8478420572103158e-7 1.3662702776283082e-7 1.3065744034989071e-7
          2.2567411361119904e-7 2.2940687093301882e-7 2.0071698899873204e-7 1.8277743102455059e-7 1.2827981132993888e-7 6.04340939137771e-8
          4.7922980449279323e-8 3.6335672232121614e-8 1.4200085092541546e-7 1.2487467670940905e-7 1.3552360973042618e-7 1.1638360735874051e-7
          1.2692460519697614e-7 1.111737732324301e-7 4.918097096854086e-8 5.338518648880839e-8 6.204120750442379e-8 1.7096303440660754e-7
          1.030729340085596e-7 8.64317770874146e-8 5.6708281696791e-8 4.4057620915048675e-8 1.968471916048078e-7 1.758076082604806e-7
          1.064259009490013e-7 3.8497369312109465e-8 5.437357075449507e-8 4.3875459490839564e-8 6.845912175865624e-8 1.3335289864301266e-7
          1.360979844639256e-7 2.030789585210534e-8 4.868566174455013e-8 6.12917240979627e-8 5.891038158883565e-8 1.8341306280814044e-7
          1.630876262880758e-7 1.6022079073241144e-7 1.2816159210004897e-7 1.1864691482209568e-7 9.935906110614349e-8 1.8467067072828064e-7
          4.208914297540668e-8 4.1618385469278265e-8 4.397552951319421e-8 4.0166932318406114e-8 4.704423031612509e-8 4.6421775124564475e-8
          4.891346640477776e-8 4.410456288263821e-8 3.717452344653013e-8 3.842185897128074e-8 3.516281021939788e-8 3.954382092815425e-8
          4.045996417945358e-8 3.667783602403595e-8 3.6834478664009996e-8 3.756060478823219e-8 3.922354396086268e-8 3.992791492556617e-8
          3.900370398356728e-8 4.119340015520328e-8 3.008408512098383e-8 3.147567266322172e-8 3.434737680644675e-8 3.4955558529821766e-8
          4.1929881956282996e-8 4.257788075818144e-8 4.490637058454383e-8 4.547139298857143e-8 4.3584267416511826e-8 4.611485045392253e-8
          3.6265619629512117e-8 3.7708462521565505e-8 4.1579773132350774e-8 4.1040732876328254e-8 3.900709813423988e-8 4.07450831639813e-8
          3.8293519213799574e-8 3.9735651907825664e-8 3.935742842209363e-8 4.1966362272141405e-8 4.167099999000333e-8 4.249870829400638e-8
          4.4197834168849205e-8 4.105476131506902e-8 4.220238282245239e-8 4.487480866193883e-8 4.8028274768975036e-8 4.681945698484005e-8
          3.3945605204556235e-8 3.5190765267651144e-8 3.758320252132158e-8 3.1162674854752377e-8 3.324202425749479e-8 2.967422508323525e-8
          3.28239434773213e-8 3.543611680929412e-8 2.9569853593675462e-8 3.2456561329995566e-8 2.6586696854698553e-8 2.7990484470790573e-8
          2.971014841140622e-8 3.128562261162229e-8 3.126394083090122e-8 3.4671644155355186e-8 2.1608539688921423e-8 2.4221312460464394e-8
          2.7190453993153856e-8 2.946490450229793e-8 3.335155347307664e-8 3.512436418003375e-8 3.7580525468575074e-8 3.9590379092028625e-8
          3.8657327138090744e-8 4.328012268638405e-8 2.7068466450314833e-8 3.0653863312599286e-8 3.469874333608757e-8 3.728473721347432e-8
          3.674491539260508e-8 4.000295453487514e-8 4.0356221210290304e-8 4.3523717570878295e-8 3.431801771600187e-8 3.795585949942046e-8
          3.859071447597512e-8 4.3733867178941024e-8 4.793923057919871e-8 4.705025496869141e-8 5.091844850111151e-8 4.2123504877771536e-8
          4.687764454108905e-8 4.531197881423138e-8 1.614916861222842e-8 2.0051477662171244e-8 1.800273676734062e-8 2.257402436910166e-8
          2.7593086569171355e-8 3.1143861616176046e-8 1.3666295666656761e-8 1.819277812573752e-8 2.0523932700184808e-8 2.6713604384634203e-8
          1.9797452134107104e-8 2.5294092543185154e-8 2.151283346140274e-8 2.8185077531495974e-8 3.5242512763388374e-8 3.989904764049604e-8
          1.64453726511545e-8 2.2846248169906635e-8 2.50231998825376e-8 3.4212711573738555e-8 3.296116506090203e-8 3.675593517079758e-8
          3.8372020728306365e-8 4.1651602212625036e-8 3.290094145277284e-8 3.674164322490356e-8 3.825530506703767e-8 4.110459570436978e-8
          4.604560353498055e-8 4.527465125660902e-8 4.922249993783137e-8 4.113389434705937e-8 4.609353376647518e-8 4.5527975578773375e-8
          3.974426121362411e-8 4.18513131563374e-8 4.146197832717635e-8 3.9306783885084344e-8 4.1487612275869965e-8 4.159249325743328e-8
          4.3558760348185e-8 3.8869306556544587e-8 4.112391139540253e-8 4.1723008187690204e-8 4.408560859269904e-8 4.641841395255331e-8
          4.547969707630322e-8 4.879353426765043e-8 5.1098226546345646e-8 4.9484723099563115e-8 4.3808033496248564e-8 4.6242033081445783e-8
          4.556196923145979e-8 4.755032081774729e-8 4.353045839979807e-8 4.606565221033827e-8 4.564424138661635e-8 4.8737277339091754e-8
          5.11969602213266e-8 4.944015099919148e-8 5.109935395754867e-8 4.868102041053309e-8 5.1295693896307557e-8 4.939557889881983e-8
          5.224688543771641e-8 5.132227197978762e-8 5.345578328840946e-8 4.770934417436218e-8 5.64459184244612e-8 5.506804876635147e-8
          5.591767251561004e-8 4.978172393715876e-8 4.107198050372793e-8 4.127206713198416e-8 3.712293118059035e-8 4.0987655893714305e-8
          4.0359903088275674e-8 3.610204302135284e-8 4.806532350518908e-8 4.8533001118634567e-8 5.125946828704719e-8 5.1628173955538566e-8
          4.86911518609958e-8 5.1179925714320485e-8 4.4473946341166145e-8 4.593947762461718e-8 5.0667749893214246e-8 4.891056088509527e-8
          5.425823517864613e-8 5.452515460205744e-8 5.680809808193617e-8 5.6908317574127985e-8 5.337405598910881e-8 5.494308351041016e-8
          5.405950751028584e-8 5.551749626626426e-8 6.016530880069237e-8 5.794677878704583e-8 4.572859359601876e-8 4.69218408496829e-8
          4.307556220212598e-8 4.348070989475477e-8 5.132928090497602e-8 5.4636715356164966e-8 5.22424489478297e-8 4.7602399282569724e-8
          4.768041921406739e-8 4.324876061239059e-8 4.2483208473634286e-8 5.772610983720575e-8 6.01661396050368e-8 5.6534147122562503e-8
          4.2405549009681336e-8 4.4697707685476127e-8 4.776066155877036e-8 5.035027647739863e-8 4.854700159284269e-8 5.435145588882874e-8
          3.4227779812618905e-8 3.9384620827768456e-8 4.471229590666029e-8 4.794232050378616e-8 5.3494886792376075e-8 5.635324386425601e-8
          5.928975922254602e-8 6.245182610867503e-8 6.041578923410128e-8 6.639683123011501e-8 4.213318977784785e-8 5.009394477408284e-8
          5.474582921511788e-8 6.131567939886307e-8 5.257103134454729e-8 5.7563029098795564e-8 5.5037925864680117e-8 5.936303781596054e-8
          5.2208088150938255e-8 5.804244463009848e-8 5.331897497478798e-8 6.270728657948788e-8 6.753324723268732e-8 6.37945956269091e-8
          6.788672499994862e-8 6.417156584720296e-8 7.029995223912357e-8 6.230185206904023e-8 2.3494210014860656e-8 3.145757205403109e-8
          2.6109573819791504e-8 3.539375080669571e-8 4.515678614360153e-8 5.108638872247234e-8 1.827982731417564e-8 2.7406092831724677e-8
          3.052852759110725e-8 4.3374772242754954e-8 2.736443671338308e-8 3.904694154366804e-8 2.4804861825107888e-8 4.105128294838145e-8
          5.770693878797832e-8 6.480116841800143e-8 2.140380436808198e-8 3.355974917291732e-8 3.508290471513837e-8 5.4686927713400263e-8
          5.156756550521363e-8 5.7561572990432845e-8 5.3428863392726516e-8 5.7865467260072773e-8 5.158766227600286e-8 5.7462498773311576e-8
          5.418883785195227e-8 6.384077718552529e-8 7.038160277189412e-8 6.236384362119268e-8 6.623953839895898e-8 6.351791883263404e-8
          6.989845166070127e-8 6.373309674488581e-8 5.31841961405965e-8 5.4851854441472004e-8 5.2557461631273436e-8 5.5808184566970786e-8
          5.57174191546244e-8 5.224375826081612e-8 5.3492725761202274e-8 5.5461199397223496e-8 5.2370217553377244e-8 5.2819760603822394e-8
          5.380125538180805e-8 5.6070544352974994e-8 5.218297347548105e-8 5.6881214623416766e-8 5.735596297354372e-8 5.20318651734951e-8
          5.069142192860988e-8 5.795424467986273e-8 5.899450679246305e-8 5.1819972086174076e-8 7.461773119122738e-8 2.584108937341924e-8
          2.3465770577889326e-8 8.840582275510925e-8 2.1274788754400247e-7 7.358066682958539e-8 1.288363713893847e-8 5.9242400161024655e-9
          5.6852042608823425e-9 1.3036692010259977e-8 1.799022538590343e-8 3.936584872595402e-9 9.39028364293886e-9 4.118198048421979e-9
          9.892155018235461e-9 2.3310811413001908e-8 4.299811224248555e-9 1.0394026393532062e-8 9.930232467974145e-10 1.048008443503215e-9
          1.1029936402090155e-9 2.0628638659955136e-8 2.538155999113625e-7 2.1480171302474086e-7 1.6484570875873976e-7 2.0124394574115005e-7
          1.1488970449273863e-7 1.4867229157093768e-7 3.244227701073566e-7 2.3510896257193971e-7 1.6035073192925685e-7 1.541221027341174e-7
          2.8139463390727243e-7 2.1736779241002205e-7 3.0851288428748075e-8 3.793306792826147e-7 2.8061348208592673e-7 2.1058932588428024e-7
          1.3499539020633266e-7 1.244219275702878e-7 1.4307452456097846e-7 9.789645084284238e-8 9.106160104112147e-8 7.211897486594115e-8
          1.354149530137421e-7 1.3186934727398524e-7 9.788023929606108e-8 2.057379442124521e-7 2.1054965315474027e-7 1.568650253672046e-7
          1.5460813573027755e-7 1.4496606601055896e-7 9.503487751366965e-8 1.869619605325585e-7 2.1064606881236815e-7 1.3553131764780827e-7
          2.3120359061650812e-7 3.936194396467966e-8 3.475733576531126e-8 3.5475129357553905e-8 3.7029414349450364e-8 2.7735023681760855e-8
          2.9051610265098094e-8 3.2579737041334655e-8 3.58612752797901e-8 3.732174620690054e-8 3.6777586664696883e-8 3.7063337203206854e-8
          3.05479741518803e-8 3.5047057318352434e-8 2.5880551208102632e-8 2.8358724517875422e-8 3.1539290474142205e-8 3.32415380453062e-8
          3.722763749097643e-8 2.9445394780766545e-8 3.311338247424567e-8 2.375347286381648e-8 2.6389580566244505e-8 2.8425042752371978e-8
          2.605668541101298e-8 2.1979229974159965e-8 2.4557939840084853e-8 2.6836424285941057e-8 2.4388688885670624e-8 3.0522670632905945e-8
          2.1141125404344353e-8 2.3698992943367556e-8 2.669514190503056e-8 2.4210773262802806e-8 3.005557709053935e-8 2.3897697032366425e-8
          2.5153569090163193e-8 1.939308745196866e-8 2.167322587368517e-8 1.4425360767633497e-8 1.7824279848183e-8 1.2142318550775226e-8
          1.6094340349553994e-8 3.7783983518296265e-8 3.7293304846874995e-8 3.9709214856154735e-8 3.680262617545372e-8
        </DataArray>
        <DataArray type="Float64" Name="gradient_matprop_error" format="ascii" RangeMin="0" RangeMax="0">
          0 0 0 0 0 0
          0 0 0 0 0 0
          0 0 0 0 0 0
          0 0 0 0 0 0
          0 0 0 0 0 0
          0 0 0 0 0 0
          0 0 0 0 0 0
          0 0 0 0 0 0
          0 0 0 0 0 0
          0 0 0 0 0 0
          0 0 0 0 0 0
          0 0 0 0 0 0
          0 0 0 0 0 0
          0 0 0 0 0 0
          0 0 0 0 0 0
          0 0 0 0 0 0
          0 0 0 0 0 0
          0 0 0 0 0 0
          0 0 0 0 0 0
          0 0 0 0 0 0
          0 0 0 0 0 0
          0 0 0 0 0 0
          0 0 0 0 0 0
          0 0 0 0 0 0
          0 0 0 0 0 0
          0 0 0 0 0 0
          0 0 0 0 0 0
          0 0 0 0 0 0
          0 0 0 0 0 0
          0 0 0 0 0 0
          0 0 0 0 0 0
          0 0 0 0 0 0
          0 0 0 0 0 0
          0 0 0 0 0 0
          0 0 0 0 0 0
          0 0 0 0 0 0
          0 0 0 0 0 0
          0 0 0 0 0 0
          0 0 0 0 0 0
          0 0 0 0 0 0
          0 0 0 0 0 0
          0 0 0 0 0 0
          0 0 0 0 0 0
          0 0 0 0 0 0
          0 0 0 0 0 0
          0 0 0 0 0 0
          0 0 0 0 0 0
          0 0 0 0 0 0
          0 0 0 0 0 0
          0 0 0 0 0 0
          0 0 0 0 0 0
          0 0 0 0 0 0
          0 0 0 0 0 0
          0 0 0 0 0 0
          0 0 0 0 0 0
          0 0 0 0 0 0
          0 0 0 0 0 0
          0 0 0 0 0 0
          0 0 0 0 0 0
          0 0 0 0 0 0
          0 0 0 0 0 0
          0 0 0 0 0 0
          0 0 0 0 0 0
          0 0 0 0 0 0
          0 0 0 0 0 0
          0 0 0 0 0 0
          0 0 0 0 0 0
          0 0 0 0 0 0
          0 0 0 0 0 0
          0 0 0 0 0 0
          0 0 0 0 0 0
          0 0 0 0 0 0
          0 0 0 0 0 0
          0 0 0 0 0 0
          0 0 0 0 0 0
          0 0 0 0 0 0
          0 0 0 0 0 0
          0 0 0 0 0 0
          0 0 0 0 0 0
          0 0 0 0 0 0
          0 0 0 0 0 0
          0 0 0 0 0 0
          0 0 0 0 0 0
          0 0 0 0 0 0
          0 0 0 0 0 0
          0 0 0 0 0 0
          0 0 0 0 0 0
          0 0 0 0 0 0
          0 0 0 0 0 0
          0 0 0 0 0 0
          0 0 0 0 0
        </DataArray>
        <DataArray type="Float64" Name="initial_marker" format="ascii" RangeMin="0" RangeMax="2">
          2 0 0 2 1 0
          2 0 0 0 0 0
          0 1 1 0 0.6666666666666666 2
          2 2 1.5 1.5 2 2
          2 0 0.5 0 0.5 0
          0 0 1 1 0 0
          0 1 1 0 0.5 2
          2 1 2 2 1.5 2
          2 2 0 0.5 0 0
          1 0 0 0 0 0
          0 0 0 2 2 2
          2 2 2 2 2 2
          2 2 2 2 2 2
          2 2 2 2 2 2
          2 2 2 2 2 2
          2 2 2 2 2 2
          2 2 2 2 2 2
          2 2 2 2 2 2
          2 2 2 2 2 2
          2 2 2 2 2 2
          2 2 2 2 2 2
          2 2 2 2 2 2
          2 2 2 2 2 2
          2 2 2 2 2 2
          2 2 2 2 2 2
          2 2 2 2 2 2
          2 2 2 2 2 2
          2 2 2 2 2 2
          2 2 2 2 2 2
          2 2 2 2 2 2
          2 2 2 2 2 2
          2 2 2 2 2 2
          2 2 2 2 2 2
          2 2 2 2 2 2
          2 2 2 2 2 2
          2 2 2 2 2 2
          2 2 2 2 2 2
          2 2 2 2 2 2
          2 2 2 2 2 2
          2 2 2 2 2 2
          2 2 2 2 2 2
          2 2 2 2 2 2
          2 2 2 2 2 2
          2 2 2 2 2 2
          2 2 2 2 2 2
          2 2 2 2 2 2
          2 2 2 2 2 2
          2 2 2 2 2 2
          2 2 2 2 2 2
          2 2 2 2 2 2
          2 2 2 2 2 2
          2 2 2 2 2 2
          2 2 2 2 2 2
          2 2 2 2 2 2
          2 2 2 2 2 2
          2 2 2 2 2 2
          2 2 2 2 2 2
          2 2 2 2 2 2
          2 2 2 2 2 2
          2 2 2 2 2 2
          2 2 2 2 2 2
          2 2 2 2 2 2
          2 2 2 2 2 2
          2 2 2 2 2 2
          2 2 2 2 2 2
          2 2 2 2 2 2
          2 2 2 2 2 2
          2 2 2 2 2 2
          2 2 2 2 2 2
          2 2 2 2 2 2
          2 2 2 2 2 2
          2 2 2 2 2 2
          2 2 2 2 2 2
          2 2 2 2 0 0
          0 0 1 0 0 0
          0 0 0 0 0 0
          0 0 0 0 0 0
          0 0 1 1 1 1
          1 1 2 2 1.3333333333333333 0
          1.5 0.5 0 2 1 2
          2 2 2 2 2 2
          2 2 2 2 2 2
          2 2 2 2 2 2
          2 2 2 2 2 2
          2 2 2 2 2 2
          2 2 2 2 2 2
          2 2 2 2 2 2
          2 2 2 2 2 2
          2 2 2 2 2 2
          2 2 2 2 2 2
          2 2 2 2 2
        </DataArray>
        <DataArray type="Float64" Name="markers_norefine" format="ascii" RangeMin="0" RangeMax="2">
          2 0 0 0 0 0
          0 0 0 0 0 0
          0 0 0 0 0 0
          2 0.5 0 0 2 2
          0 0 0 0 0 0
          0 0 0 0 0 0
          0 0 0 0 0 0
          0 0 2 0.5 0 2
          2 0 0 0 0 0
          0 0 0 0 0 0
          0 0 0 0 0 0
          0 0 0 0 0 0
          0 0 0 0 2 2
          2 0.5 0 0 0 0
          0 0 0 0 1.5 2
          2 2 2 1.5 1.5 2
          2 2 2 0 0 0
          0 0 0 0 0 0
          0 0 0 0 0 0
          0 0 0 0 0 0
          0 0 2 2 2 0.5
          0 0 0 0 0 0
          0 2 2 2 2 1.5
          1.25 2 2 2 2 0
          0 0 0 0 0 0
          0 0 0 0 0 0
          0 0 0 0 0 0
          0 0 1 1 1 1
          1 1 2 2 2 2
          1 1 1 1 1 1
          2 2 2 2 0.5 0.5
          0 0 1.5 1.5 1 0.5
          0.5 0 0 1.5 1.5 1
          2 2 2 2 2 2
          2 2 2 2 2 2
          2 2 2 2 2 2
          2 2 2 2 2 2
          2 2 2 2 2 2
          2 2 2 2 2 2
          2 2 2 2 2 2
          2 2 2 2 2 2
          2 2 2 2 2 2
          2 2 2 2 2 2
          2 2 2 2 2 2
          2 2 2 2 2 2
          2 2 2 2 2 2
          1 1 0 1 1 0
          0 1 1 0 1 1
          0 1 1 0 1 1
          0 0 1 1 0 1
          1 0 0 1 1 0
          0 0 0 0 0 0
          0 0 0 0 0 0
          0 0 1 1 1 1
          1 1 2 2 2 2
          1 1 1 1 1 1
          2 2 2 2 0.5 0.5
          0 0 1.5 1.5 1 0.5
          0.5 0 0 1.5 1.5 1
          2 2 2 2 2 2
          2 2 2 2 2 2
          2 2 2 2 2 2
          2 2 2 2 2 2
          2 2 2 2 2 2
          2 2 2 2 2 2
          2 2 2 2 2 2
          2 2 2 2 2 2
          2 2 2 2 2 2
          2 2 2 2 2 2
          2 2 2 2 1.75 2
          2 2 1 1 0 1
          0.5 0 1 1 0 0
          1 1 0 1 0.75 0
          0 1 1 0 0 0
          0 0 0 0 0 0
          0 0 0 0 0 0
          0 0 0 0 0 0
          0 0 0 0 0 0
          0 0 0 0 0 0
          0 0 0 0 0 0
          0 0 0 0 0 0
          0 0 0 0 0 0
          0.5 0.5 1.5 0 0 0
          0 0 1 1 1 2
          2 2 0 0.5 0 1.5
          2 1.5 2 2 2 1.5
          1 2 2 2 2 2
          2 2 2 2 2 2
          2 2 2 2 2 2
          2 2 2 2 2 2
          2 1 1 0 1
        </DataArray>
        <DataArray type="Float64" Name="markers_mustrefine" format="ascii" RangeMin="0" RangeMax="2">
          2 0 0 2 1 0
          2 0 0 0 0 0
          0 1 1 0 0.6666666666666666 2
          2 2 1.5 1.5 2 2
          2 0 0.5 0 0.5 0
          0 0 1 1 0 0
          0 1 1 0 0.5 2
          2 1 2 2 1.5 2
          2 2 0 0.5 0 0
          1 0 0 0 0 0
          0 0 0 2 2 2
          2 2 2 2 2 2
          2 2 2 2 2 2
          2 2 2 2 2 2
          2 2 2 2 2 2
          2 2 2 2 2 2
          2 2 2 2 2 2
          2 2 2 2 2 2
          2 2 2 2 2 2
          2 2 2 2 2 2
          2 2 2 2 2 2
          2 2 2 2 2 2
          2 2 2 2 2 2
          2 2 2 2 2 2
          2 2 2 2 2 2
          2 2 2 2 2 2
          2 2 2 2 2 2
          2 2 2 2 2 2
          2 2 2 2 2 2
          2 2 2 2 2 2
          2 2 2 2 2 2
          2 2 2 2 2 2
          2 2 2 2 2 2
          2 2 2 2 2 2
          2 2 2 2 2 2
          2 2 2 2 2 2
          2 2 2 2 2 2
          2 2 2 2 2 2
          2 2 2 2 2 2
          2 2 2 2 2 2
          2 2 2 2 2 2
          2 2 2 2 2 2
          2 2 2 2 2 2
          2 2 2 2 2 2
          2 2 2 2 2 2
          2 2 2 2 2 2
          2 2 2 2 2 2
          2 2 2 2 2 2
          2 2 2 2 2 2
          2 2 2 2 2 2
          2 2 2 2 2 2
          2 2 2 2 2 2
          2 2 2 2 2 2
          2 2 2 2 2 2
          2 2 2 2 2 2
          2 2 2 2 2 2
          2 2 2 2 2 2
          2 2 2 2 2 2
          2 2 2 2 2 2
          2 2 2 2 2 2
          2 2 2 2 2 2
          2 2 2 2 2 2
          2 2 2 2 2 2
          2 2 2 2 2 2
          2 2 2 2 2 2
          2 2 2 2 2 2
          2 2 2 2 2 2
          2 2 2 2 2 2
          2 2 2 2 2 2
          2 2 2 2 2 2
          2 2 2 2 2 2
          2 2 2 2 2 2
          2 2 2 2 2 2
          2 2 2 2 0 0
          0 0 1 0 0 0
          0 0 0 0 0 0
          0 0 0 0 0 0
          0 0 1 1 1 1
          1 1 2 2 1.3333333333333333 0
          1.5 0.5 0 2 1 2
          2 2 2 2 2 2
          2 2 2 2 2 2
          2 2 2 2 2 2
          2 2 2 2 2 2
          2 2 2 2 2 2
          2 2 2 2 2 2
          2 2 2 2 2 2
          2 2 2 2 2 2
          2 2 2 2 2 2
          2 2 2 2 2 2
          2 2 2 2 2
        </DataArray>
        <DataArray type="Float64" Name="gradient_marker" format="ascii" RangeMin="0" RangeMax="1">
          0 0.5 0.5 1 0.375 0.625
          1 0.8333333333333334 0.75 0.75 0 0
          0 0.5 0.375 0 0.16666666666666666 0.625
          0 0.5 0.75 0.625 0 0
          1 0.5 0.5 0.16666666666666666 0.375 0
          0 0 0.5 0.5 0 0
          0 0.5 0.25 0 0 1
          0.5 0 0 0.5 0.125 0
          0 0.5 0 0.125 0 0
          0.25 0 0 0 0 0
          0 0 0 1 1 1
          0.5 0 0 0 0.5 0.5
          0.5 0.5 0.5 0.5 0 0
          0 0.5 0 0.25 0.25 0
          0 0.75 0.75 0.5 0.25 0
          0 0 0 0.25 0.25 0
          0 0 0 0.75 1 0.5
          0.75 0.75 1 1 0.5 0.5
          1 1 1 1 0.5 0
          0 0 0.5 0.5 0.5 0.5
          0.5 0.5 0 0 0 0.5
          0.25 0.25 0 0 0.625 0.5
          0.25 0 0 0 0 0.25
          0.25 0 0 0 0 0.625
          0.375 0.75 0.25 0.5 0.25 1
          0 0 0 0 0 0
          0 0 0 0 0 0
          0 0 0 0 0 0
          0 0 0 0 0 0
          0 0 0 0 0 0
          0 0 0 0 0 0
          0 0 0 0 0 0
          0 0 0 0 0 0
          0 0 0 0 0 0
          0 0 0 0 0 0
          0 0 0 0 0 0
          0 0 0 0 0 0
          0 0 0 0 0 0
          0 0 0 0 0 0
          0 0 0 0 0 0
          0 0 0 0 0 0
          0 0 0 0 0 0
          0 0 0 0 0 0
          0 0 0 0 0 0
          0 0 0 0 0 0
          0 0 0 0 0 0
          0 0 0 0 0 0
          0 0 0 0 0 0
          0 0 0 0 0 0
          0 0 0 0 0 0
          0 0 0 0 0 0
          0 0 0 0 0 0
          0 0 0 0 0 0
          0 0 0 0 0 0
          0 0 0 0 0 0
          0 0 0 0 0 0
          0 0 0 0 0 0
          0 0 0 0 0 0
          0 0 0 0 0 0
          0 0 0 0 0 0
          0 0 0 0 0 0
          0 0 0 0 0 0
          0 0 0 0 0 0
          0 0 0 0 0 0
          0 0 0 0 0 0
          0 0 0 0 0 0
          0 0 0 0 0 0
          0 0 0 0 0 0
          0 0 0 0 0 0
          0 0 0 0 0 0
          0 0 0 0 0 0
          0 0 0 0 0 0
          0 0 0 0 0 0
          0 0 0 0 0.75 0.625
          0.875 1 0.75 0.75 1 1
          1 1 0.5 1 1 1
          1 0.5 1 1 1 1
          1 0 0.5 0.5 0.5 0.5
          0.5 0.5 1 0.75 0.6666666666666666 0.5
          0.75 0.5 0 1 0.5 1
          0.5 0.5 0.5 0 0 0
          0.25 0.25 0 0.75 0.75 0.5
          0.5 0.5 0.25 0.75 1 0.5
          1 0 0 0 0 0
          0 0 0 0 0 0
          0 0 0 0 0 0
          0 0 0 0 0 0
          0 0 0 0 0 0
          0 0 0 0 0 0
          0 0 0 0 0 0
          0 0 0 0 0
        </DataArray>