<?xml version="1.0"?>
<VTKFile type="UnstructuredGrid" version="0.1" byte_order="LittleEndian" header_type="UInt32" compressor="vtkZLibDataCompressor">
  <UnstructuredGrid>
    <Piece NumberOfPoints="1149" NumberOfCells="775">
      <PointData>
        <DataArray type="Int32" Name="libmesh_node_id" format="ascii" RangeMin="1418" RangeMax="7907">
          1418 1437 1620 1650 1652 1655
          1660 1661 1839 1840 1846 2185
          2289 2290 2293 2294 2295 2296
          2301 2303 2304 2305 2306 2313
          2314 2315 2339 2340 2345 2347
          2348 2349 2350 2353 2354 2355
          3297 3298 3299 3300 3301 3302
          3303 3304 3308 3309 3311 3312
          3313 3314 3315 3316 3317 3318
          3319 3320 3321 3322 3323 3324
          3325 3326 3327 3328 3329 3330
          3331 3332 3333 3334 3335 3336
          3337 3338 3339 3340 3341 3342
          3343 3344 3345 3349 3350 3352
          3353 3354 3355 3359 3360 3396
          3397 3398 3399 3400 3401 3402
          3403 3404 3405 3413 3414 3415
          3417 3418 3419 3430 3431 3432
          3433 3434 3435 3436 3437 3438
          3439 3447 3448 3449 3450 3451
          3452 3453 3454 3455 3456 3457
          3458 3459 3460 3461 3462 3463
          3464 3465 3466 3467 3468 3469
          3470 3471 3472 3473 3474 3475
          3478 3479 3481 3482 3485 3486
          3488 3489 3490 3491 3492 3493
          3494 3495 3496 3497 3498 3499
          3500 3501 3502 3503 3504 3505
          3506 3507 3508 3509 3512 3513
          3515 3519 3527 3529 3541 3543
          3545 3547 3773 3774 3777 3779
          3780 3782 5926 5927 5928 5929
          5930 5931 5932 5933 5934 5935
          5936 5937 5938 5939 5940 5941
          5942 5943 5944 5945 5946 5947
          5948 5949 5950 5951 5952 5953
          5954 5955 5956 5957 5958 5959
          5960 5961 5962 5963 5964 5965
          5966 5967 5968 5969 5970 5971
          5972 5973 5974 5975 5976 5977
          5978 5979 5980 5981 5982 5983
          5984 5985 5986 5987 5988 5990
          5991 5992 5993 5994 5995 5996
          5997 5998 5999 6000 6001 6002
          6003 6004 6005 6006 6007 6008
          6009 6010 6011 6012 6013 6014
          6018 6019 6021 6023 6093 6094
          6095 6096 6097 6098 6099 6100
          6101 6102 6103 6104 6105 6106
          6119 6120 6121 6122 6123 6124
          6193 6194 6195 6196 6197 6198
          6199 6200 6201 6202 6203 6204
          6205 6206 6207 6208 6209 6210
          6211 6212 6213 6214 6215 6216
          6217 6218 6219 6220 6221 6222
          6223 6224 6225 6226 6227 6228
          6229 6230 6231 6232 6233 6234
          6235 6236 6237 6238 6239 6240
          6241 6242 6243 6244 6245 6246
          6247 6248 6249 6250 6251 6252
          6253 6254 6255 6256 6257 6258
          6259 6260 6317 6318 6319 6320
          6321 6322 6323 6324 6325 6326
          6327 6328 6329 6330 6331 6332
          6333 6334 6335 6336 6337 6338
          6339 6340 6341 6342 6343 6344
          6345 6346 6347 6348 6349 6350
          6351 6352 6353 6354 6355 6356
          6357 6358 6359 6360 6361 6362
          6363 6364 6365 6366 6367 6368
          6369 6370 6371 6372 6373 6374
          6375 6376 6377 6378 6379 6380
          6381 6382 6383 6384 6385 6386
          6387 6388 6389 6390 6391 6392
          6393 6394 6395 6396 6397 6398
          6399 6400 6401 6402 6403 6404
          6405 6406 6407 6408 6409 6410
          6411 6412 6413 6414 6415 6416
          6417 6418 6419 6420 6421 6422
          6423 6424 6425 6426 6427 6428
          6429 6430 6431 6432 6433 6434
          6435 6436 6437 6438 6439 6440
          6441 6442 6443 6444 6445 6446
          6447 6448 6449 6450 6451 6452
          6453 6454 6455 6456 6457 6458
          6459 6460 6461 6462 6464 6465
          6466 6467 6468 6469 6470 6471
          6472 6473 6475 6476 6477 6478
          6479 6480 6481 6482 6483 6484
          6485 6486 6487 6488 6489 6490
          6491 6494 6495 6504 6505 6506
          6507 6508 6509 6510 6511 6512
          6513 6514 6515 6516 6517 6518
          6519 6522 6523 6532 6533 6534
          6535 6536 6537 6538 6539 6540
          6541 6542 6543 6544 6545 6546
          6547 6548 6549 6550 6551 6552
          6553 6554 6555 6556 6557 6558
          6559 6560 6561 6562 6563 6564
          6565 6566 6567 6568 6569 6570
          6571 6572 6573 6574 6575 6576
          6577 6578 6579 6580 6581 6582
          6583 6584 6585 6586 6587 6588
          6589 6590 6591 6592 6593 6594
          6595 6596 6597 6598 6599 6600
          6601 6602 6603 6604 6605 6606
          6607 6608 6609 6610 6611 6612
          6613 6614 6615 6616 6617 6618
          6619 6620 6621 6622 6623 6624
          6625 6626 6627 6628 6629 6630
          6631 6632 6633 6634 6635 6636
          6637 6638 6639 6640 6641 6642
          6643 6644 6645 6646 6647 6648
          6649 6650 6651 6652 6653 6654
          6655 6656 6657 6658 6659 6660
          6661 6662 6663 6664 6665 6666
          6667 6668 6669 6670 6671 6672
          6673 6674 6675 6676 6677 6678
          6679 6680 6681 6682 6683 6684
          6685 6687 6688 6689 6690 6691
          6692 6693 6694 6695 6696 6697
          6698 6699 6700 6701 6702 6703
          6704 6705 6706 6707 6708 6709
          6710 6711 6712 6713 6715 6716
          6717 6718 6719 6720 6721 6722
          6723 6724 6725 6726 6727 6729
          6730 6731 6732 6733 6736 6737
          6746 6747 6748 6749 6750 6751
          6752 6753 6754 6755 6757 6758
          6759 6760 6761 6764 6765 7060
          7061 7062 7063 7067 7068 7070
          7071 7073 7088 7089 7092 7093
          7095 7097 7156 7157 7160 7161
          7163 7165 7482 7483 7486 7488
          7489 7491 7502 7504 7506 7508
          7516 7517 7520 7522 7523 7525
          7536 7538 7540 7542 7618 7620
          7622 7624 7646 7648 7650 7652
          7730 7731 7734 7736 7737 7738
          7739 7750 7752 7754 7755 7756
          7764 7765 7766 7767 7768 7769
          7770 7771 7772 7773 7784 7785
          7786 7787 7788 7789 7790 7866
          7870 7871 7894 7895 7898 7899
          1847 1651 1849 1850 1429 1654
          2186 2291 2292 2187 2297 2190
          2298 2299 2300 1653 2302 2307
          2308 2309 2310 2311 2312 2325
          2324 2341 2342 2358 2357 3346
          3347 3310 3348 3351 2316 3356
          3357 3358 3295 3388 3389 3391
          2337 3394 2338 3306 3407 3409
          3416 3411 3441 3443 3476 3477
          3480 2351 3510 3511 3523 3535
          3528 3542 3537 3544 2346 3539
          3546 2361 2362 3555 3585 3514
          3589 3613 3614 3615 3616 3620
          3621 3641 3642 3645 3646 6015
          6016 5989 6017 6020 3361 6022
          6024 6025 6026 6027 6028 6029
          6030 6085 6137 6138 6140 3422
          6143 3423 6091 6153 6155 6157
          3425 6171 6172 6174 2343 6177
          3428 6187 6189 6191 2344 6111
          6269 6271 6273 6297 6299 6301
          3445 6287 6311 6313 6315 6492
          6463 6493 6496 3483 6497 6498
          6499 6501 6502 6503 6520 6474
          6521 6524 3487 6525 6526 6527
          6529 6530 6531 6714 2356 6728
          3516 6734 6686 6735 6738 3517
          6739 6740 6741 6743 6744 6745
          6756 3520 6762 6763 6766 3521
          6767 6768 6769 6771 6772 6773
          7064 7065 7066 7069 3623 7072
          3624 7090 7091 7094 7096 3626
          7158 7159 7162 7164 3648 7176
          7177 7178 7179 7180 7181 7183
          7184 7484 7485 7487 3739 7490
          3740 7503 7505 7507 3743 7518
          7519 7521 3745 7524 3746 7537
          7539 7541 3748 7619 7621 7623
          3759 7632 7633 7636 7637 7647
          7649 7651 3763 7660 7661 7664
          7665 7732 7733 7735 7740 7741
          7746 7747 7744 7749 7751 7753
          7757 7761 7759 7763 7774 7775
          7778 7780 7781 7783 7791 7793
          7795 7797 7867 7868 7869 7872
          3793 7873 7877 7875 7879 7880
          7881 7896 7897 7900 3797 7901
          7903 7905 7907
        </DataArray>
        <DataArray type="Float64" Name="bounds" format="ascii" RangeMin="0" RangeMax="0">
          0 0 0 0 0 0
          0 0 0 0 0 0
          0 0 0 0 0 0
          0 0 0 0 0 0
          0 0 0 0 0 0
          0 0 0 0 0 0
          0 0 0 0 0 0
          0 0 0 0 0 0
          0 0 0 0 0 0
          0 0 0 0 0 0
          0 0 0 0 0 0
          0 0 0 0 0 0
          0 0 0 0 0 0
          0 0 0 0 0 0
          0 0 0 0 0 0
          0 0 0 0 0 0
          0 0 0 0 0 0
          0 0 0 0 0 0
          0 0 0 0 0 0
          0 0 0 0 0 0
          0 0 0 0 0 0
          0 0 0 0 0 0
          0 0 0 0 0 0
          0 0 0 0 0 0
          0 0 0 0 0 0
          0 0 0 0 0 0
          0 0 0 0 0 0
          0 0 0 0 0 0
          0 0 0 0 0 0
          0 0 0 0 0 0
          0 0 0 0 0 0
          0 0 0 0 0 0
          0 0 0 0 0 0
          0 0 0 0 0 0
          0 0 0 0 0 0
          0 0 0 0 0 0
          0 0 0 0 0 0
          0 0 0 0 0 0
          0 0 0 0 0 0
          0 0 0 0 0 0
          0 0 0 0 0 0
          0 0 0 0 0 0
          0 0 0 0 0 0
          0 0 0 0 0 0
          0 0 0 0 0 0
          0 0 0 0 0 0
          0 0 0 0 0 0
          0 0 0 0 0 0
          0 0 0 0 0 0
          0 0 0 0 0 0
          0 0 0 0 0 0
          0 0 0 0 0 0
          0 0 0 0 0 0
          0 0 0 0 0 0
          0 0 0 0 0 0
          0 0 0 0 0 0
          0 0 0 0 0 0
          0 0 0 0 0 0
          0 0 0 0 0 0
          0 0 0 0 0 0
          0 0 0 0 0 0
          0 0 0 0 0 0
          0 0 0 0 0 0
          0 0 0 0 0 0
          0 0 0 0 0 0
          0 0 0 0 0 0
          0 0 0 0 0 0
          0 0 0 0 0 0
          0 0 0 0 0 0
          0 0 0 0 0 0
          0 0 0 0 0 0
          0 0 0 0 0 0
          0 0 0 0 0 0
          0 0 0 0 0 0
          0 0 0 0 0 0
          0 0 0 0 0 0
          0 0 0 0 0 0
          0 0 0 0 0 0
          0 0 0 0 0 0
          0 0 0 0 0 0
          0 0 0 0 0 0
          0 0 0 0 0 0
          0 0 0 0 0 0
          0 0 0 0 0 0
          0 0 0 0 0 0
          0 0 0 0 0 0
          0 0 0 0 0 0
          0 0 0 0 0 0
          0 0 0 0 0 0
          0 0 0 0 0 0
          0 0 0 0 0 0
          0 0 0 0 0 0
          0 0 0 0 0 0
          0 0 0 0 0 0
          0 0 0 0 0 0
          0 0 0 0 0 0
          0 0 0 0 0 0
          0 0 0 0 0 0
          0 0 0 0 0 0
          0 0 0 0 0 0
          0 0 0 0 0 0
          0 0 0 0 0 0
          0 0 0 0 0 0
          0 0 0 0 0 0
          0 0 0 0 0 0
          0 0 0 0 0 0
          0 0 0 0 0 0
          0 0 0 0 0 0
          0 0 0 0 0 0
          0 0 0 0 0 0
          0 0 0 0 0 0
          0 0 0 0 0 0
          0 0 0 0 0 0
          0 0 0 0 0 0
          0 0 0 0 0 0
          0 0 0 0 0 0
          0 0 0 0 0 0
          0 0 0 0 0 0
          0 0 0 0 0 0
          0 0 0 0 0 0
          0 0 0 0 0 0
          0 0 0 0 0 0
          0 0 0 0 0 0
          0 0 0 0 0 0
          0 0 0 0 0 0
          0 0 0 0 0 0
          0 0 0 0 0 0
          0 0 0 0 0 0
          0 0 0 0 0 0
          0 0 0 0 0 0
          0 0 0 0 0 0
          0 0 0 0 0 0
          0 0 0 0 0 0
          0 0 0 0 0 0
          0 0 0 0 0 0
          0 0 0 0 0 0
          0 0 0 0 0 0
          0 0 0 0 0 0
          0 0 0 0 0 0
          0 0 0 0 0 0
          0 0 0 0 0 0
          0 0 0 0 0 0
          0 0 0 0 0 0
          0 0 0 0 0 0
          0 0 0 0 0 0
          0 0 0 0 0 0
          0 0 0 0 0 0
          0 0 0 0 0 0
          0 0 0 0 0 0
          0 0 0 0 0 0
          0 0 0 0 0 0
          0 0 0 0 0 0
          0 0 0 0 0 0
          0 0 0 0 0 0
          0 0 0 0 0 0
          0 0 0 0 0 0
          0 0 0 0 0 0
          0 0 0 0 0 0
          0 0 0 0 0 0
          0 0 0 0 0 0
          0 0 0 0 0 0
          0 0 0 0 0 0
          0 0 0 0 0 0
          0 0 0 0 0 0
          0 0 0 0 0 0
          0 0 0 0 0 0
          0 0 0 0 0 0
          0 0 0 0 0 0
          0 0 0 0 0 0
          0 0 0 0 0 0
          0 0 0 0 0 0
          0 0 0 0 0 0
          0 0 0 0 0 0
          0 0 0 0 0 0
          0 0 0 0 0 0
          0 0 0 0 0 0
          0 0 0 0 0 0
          0 0 0 0 0 0
          0 0 0 0 0 0
          0 0 0 0 0 0
          0 0 0 0 0 0
          0 0 0 0 0 0
          0 0 0 0 0 0
          0 0 0 0 0 0
          0 0 0 0 0 0
          0 0 0 0 0 0
          0 0 0 0 0 0
          0 0 0 0 0 0
          0 0 0 0 0 0
          0 0 0 0 0 0
          0 0 0 0 0 0
          0 0 0
        </DataArray>
        <DataArray type="Float64" Name="gradient_error" format="ascii" RangeMin="5.380660340663402e-11" RangeMax="5.779813879658528e-8">
          4.15880844854089e-9 3.2738805831779084e-9 3.2923001998892806e-9 1.3684028937533759e-9 1.794222047738648e-8 4.469071857094618e-10
          2.844348368114793e-9 2.033087835315326e-8 1.384962750974658e-9 1.3185477724934598e-9 5.221737494681273e-10 5.2205773665321915e-9
          3.2674609614592007e-9 3.0312809942943805e-9 1.6636489949996905e-9 1.071930223322366e-8 9.510574445397143e-9 2.5378427861603023e-9
          1.558744987054516e-8 1.111779724490302e-9 1.0374917643771899e-9 1.1035532433830268e-9 9.836499872966825e-10 4.431182004977788e-9
          3.743111078090961e-9 3.629191309375604e-10 2.2184692190407277e-8 1.8815331123583235e-8 4.852316531830396e-9 1.2523319792075372e-8
          1.0250225634964243e-8 4.372405964421992e-9 3.4567486370795497e-9 3.209463465905022e-9 4.799746213014282e-9 4.1728472358209965e-9
          2.850604627227007e-9 3.673721386732994e-9 3.5414668264163263e-9 3.193105598801054e-9 1.768215881890675e-8 1.694197562036668e-8
          1.1296027608176574e-8 1.509843000658725e-8 1.9608370970757167e-9 2.5842131511487664e-9 1.3064200923242445e-8 8.557780668295865e-9
          1.2133334255136998e-8 2.169667015914265e-9 2.0879327297114726e-9 3.168567629584474e-9 3.0513578746447067e-9 1.0531598180477464e-9
          1.6289780790975662e-9 1.5654116993720638e-9 1.8448029585125208e-9 2.730992064802086e-9 1.384921213864073e-9 8.691765993170455e-9
          8.33634779038867e-9 4.246177246213326e-9 7.39359656286925e-9 6.760868983016119e-10 6.487619307726713e-10 4.490362060047241e-10
          4.3014108838796604e-10 4.23542324552227e-10 2.946441363542982e-10 2.8181535119213273e-10 5.729729831024887e-10 3.783427585562563e-10
          2.4678752101294764e-10 6.22168508160894e-10 5.923245634386108e-10 4.242415018434844e-10 5.111400924445153e-10 1.4455115052892195e-9
          2.2155454137765807e-9 7.477664328334529e-10 1.126337000107235e-9 6.128858472558795e-9 3.044448521489949e-9 4.670910786934852e-10
          3.062440354476153e-10 3.018378918848604e-10 1.9838662432462984e-10 3.9973264775514193e-10 2.798449370435648e-10 2.8662248992169924e-8
          2.7516395026574934e-8 2.6505166689831618e-8 2.5352172266562165e-8 2.4315571376022737e-8 2.2196138700693176e-8 2.3067715640198523e-8
          2.2272284163891644e-8 2.1359956815214952e-8 1.9932575529838495e-8 1.9476192955098873e-8 1.7607207910620273e-8 1.669178421913222e-8
          2.4606566008418734e-8 2.321567195250852e-8 3.002662951466495e-8 6.3117489264337384e-9 6.196172017890524e-9 6.643532939239385e-9
          6.489563952450648e-9 5.8787218082994694e-9 6.190920927870426e-9 2.567358560273196e-9 3.5313206661557385e-9 3.742018988765849e-9
          4.668015155140641e-9 1.4473102463989092e-8 1.4299025032539276e-8 2.7672655841574096e-8 2.6630518712413244e-8 4.8191180988143636e-9
          5.0181607906043605e-9 2.0922339200528386e-8 2.3682077134378817e-8 2.2602653563533537e-8 1.2288562878119997e-8 1.1714257295056101e-8
          1.9653026828520836e-8 1.0145330762433285e-8 2.066793245261299e-8 1.9761105926616786e-8 1.193272269578122e-8 1.7127735648949294e-8
          1.947629147361224e-9 1.8499710499494389e-9 1.5355866818352927e-9 1.4552716958622538e-9 1.5856629666479648e-9 1.238108737189673e-9
          5.15457139603934e-9 4.8621858891417114e-9 4.122405639666789e-9 4.076744650046722e-9 1.552449976739367e-8 7.9886021182453e-9
          2.132380330362618e-8 1.1832327269131232e-8 1.2262133538906242e-9 9.437351471521445e-10 3.072080493934734e-9 2.5766284165309853e-9
          6.789463602830927e-9 6.6896156775126126e-9 6.915485507221737e-9 6.8017773309641096e-9 6.402803009904557e-9 6.489397742205747e-9
          3.053300158994579e-9 3.8891252646023884e-9 3.957486437944523e-9 4.917711988926024e-9 6.808226844306374e-9 6.690905405697485e-9
          6.498926420585274e-9 6.373073487747632e-9 6.361670037115158e-9 5.950736155265896e-9 3.3060785182399555e-9 3.9259337522936886e-9
          3.6725826574617748e-9 4.485546295861909e-9 1.37025745457609e-8 9.445588222485775e-9 5.126999179239306e-9 5.162213716859567e-9
          5.442487616981518e-9 5.06077037546169e-9 2.3057772355624338e-8 1.8242066911141675e-8 2.6344982631495563e-8 2.0712738827659114e-8
          2.9632192907366782e-8 2.3183410744176553e-8 5.9636398753101765e-9 5.858406097301896e-9 5.368862781373663e-9 2.857601067960193e-9
          3.1013236280707187e-9 4.01480182762812e-9 3.710389493878571e-10 4.397518722298091e-10 4.3427232608116953e-10 4.1987643131640606e-10
          8.37259388280694e-10 3.3730762147926673e-10 3.963854663983538e-10 3.660234267364407e-10 7.637414824845679e-10 3.115256365021376e-10
          3.076388059175321e-10 4.0123098553645993e-10 3.9632530557048986e-10 2.1927963098830991e-10 3.288884084344135e-10 3.2490770276855113e-10
          2.968625724688188e-10 3.827835736353023e-10 3.133024815316784e-10 7.609019013010476e-10 7.515761105632569e-10 6.145986951866041e-10
          7.257329989550915e-10 1.7918485865493265e-10 1.769603339174538e-10 2.701271331405983e-10 2.6677399492091307e-10 1.453894028078052e-10
          2.2449221113181535e-10 2.2165385074654704e-10 1.7061289219552387e-10 2.5704612053605185e-10 2.1341376678194992e-10 5.272266629316283e-10
          5.205645583703222e-10 4.4113009675219685e-10 5.010854307098147e-10 2.797941771708351e-10 3.610671727636478e-10 1.9945984260753022e-10
          2.950394722595966e-10 2.5769771876607165e-10 3.329014372367819e-10 2.7126742421409647e-10 6.841941585500962e-10 5.570392434629098e-10
          6.302207201254703e-10 1.6072867601758008e-10 2.417196309344627e-10 1.318343993581472e-10 2.0044083250523974e-10 1.4782447810470083e-10
          2.2179627639292004e-10 1.836033117052355e-10 4.702189483141843e-10 3.975196158173553e-10 4.3017789184755967e-10 2.7965092001785275e-10
          3.3088287192272267e-10 2.923467141500633e-10 6.358677398996943e-10 2.131123753239891e-10 2.5400506758247325e-10 4.816023688654966e-10
          2.3207483967527475e-10 3.0017421864575736e-10 1.653064432471912e-10 2.435327827777512e-10 2.0438018005581086e-10 2.645276566114705e-10
          2.1356445687207573e-10 5.672140376316631e-10 4.5760764255566194e-10 4.980294034613793e-10 1.327369578639977e-10 1.9859201809777533e-10
          1.0851672566132267e-10 1.6403616611088295e-10 1.164022350610014e-10 1.7355386706169452e-10 1.4297124766982403e-10 3.836719044586897e-10
          3.228331976006729e-10 3.336324825296583e-10 1.7670374862793898e-10 2.2865250238726887e-10 1.2528442012154643e-10 1.8305848322249328e-10
          4.2726825482597443e-10 3.406042448585848e-10 9.99170020303966e-11 8.122737324248605e-11 6.316510001968881e-9 6.283730274260502e-9
          6.4671184500422125e-9 6.257001630206199e-9 6.6548247100180856e-9 6.647182465411132e-9 6.845657361218969e-9 6.654283893475916e-9
          6.254698132842587e-9 6.4502965920445145e-9 6.206493712738925e-9 6.618904796407962e-9 6.726566924117779e-9 6.3995193776607965e-9
          5.943311038544696e-9 5.962181974116085e-9 5.719978203436441e-9 5.929630448941958e-9 5.8347556385779035e-9 5.629004169230594e-9
          6.353662621615424e-9 6.320315417404115e-9 6.560040260023476e-9 6.523168929607357e-9 6.236754688292745e-9 6.4263936328928045e-9
          6.071289105331027e-9 6.057303944306155e-9 6.287970851571351e-9 5.990751974042934e-9 6.733025699806277e-9 6.694599296250897e-9
          6.87538686722049e-9 6.836177832608205e-9 6.592717041373755e-9 6.7329002529928175e-9 6.507910950924055e-9 6.472341341619668e-9
          6.6019610415545514e-9 6.3617311847568775e-9 6.108254275567546e-9 6.2913501521873e-9 5.995294534403118e-9 6.159857482832953e-9
          5.850787473868182e-9 6.0380571751951506e-9 5.691429736856511e-9 6.454666999725208e-9 6.588274590879999e-9 6.298154878921676e-9
          6.3955912893428435e-9 6.200873247831191e-9 6.3447036167018185e-9 6.045200624999916e-9 4.118379504648389e-9 4.264384341618685e-9
          4.281934004028839e-9 4.434158822455182e-9 4.586755843922506e-9 4.762315665575639e-9 2.484996039896691e-9 2.771061355172787e-9
          2.871595350940164e-9 3.4085154861384352e-9 4.451657051479391e-9 4.5981889414867604e-9 4.6109815768576725e-9 4.747673310821599e-9
          4.917832640294423e-9 5.049396192224559e-9 2.698718890705141e-9 2.9937113268248452e-9 3.1181228425315356e-9 3.6433531003466842e-9
          4.8973774413252935e-9 5.064004163501279e-9 5.068484179992296e-9 5.219091060146222e-9 4.054990353206729e-9 4.1842976889423424e-9
          4.538204242338878e-9 5.2033315698825675e-9 5.312870703655339e-9 5.333487898663054e-9 5.413513732809742e-9 4.2953458471452094e-9
          4.386316431549258e-9 4.7733649275088314e-9 5.8742696664782055e-9 5.967186452696685e-9 5.787917651892589e-9 5.830868577507694e-9
          5.597024059370508e-9 5.761259583229477e-9 5.502589511860602e-9 6.039550526240581e-9 6.07590103484908e-9 5.862864104036232e-9
          5.8683369647827555e-9 5.922394585941879e-9 6.06487026721327e-9 5.795111208870469e-9 5.55842695004007e-9 5.645074973855745e-9
          5.758242220417888e-9 5.694547545427683e-9 5.716048371348421e-9 5.742649024939617e-9 5.076841475459274e-9 5.212618288074999e-9
          5.019424829054019e-9 5.151612459203312e-9 4.764863126589248e-9 4.87490834096833e-9 4.712893940491505e-9 5.325495636293375e-9
          5.403535300065609e-9 5.283142871761146e-9 5.407855653277129e-9 4.955672704242197e-9 4.994376496824936e-9 4.9219809496375236e-9
          5.3397083659392806e-9 5.4491292292510656e-9 5.688914038099035e-9 5.771848632685867e-9 5.12098978183849e-9 5.253183484646388e-9
          5.619585855780184e-9 5.522229448379075e-9 5.566165520750165e-9 5.777907319166917e-9 5.7079769371048885e-9 5.349911351330468e-9
          5.416282670151907e-9 5.813165613394216e-9 1.3750214360821362e-9 1.3578004114905377e-9 1.3136590989552824e-9 2.4123670376706897e-9
          1.2413180022413555e-9 1.1473213046128322e-9 2.174449624722949e-9 7.062416517609235e-9 7.049990679165717e-9 7.140712426581892e-9
          6.977230264723976e-9 3.765570359346263e-9 3.7073436652093328e-9 3.563651658418064e-9 7.107131410572999e-9 7.032813584082432e-9
          5.897222912837162e-9 6.810181364202524e-9 6.738786481599243e-9 6.629673278859602e-9 6.288924786019379e-9 3.3281561747134653e-9
          3.0273300746254817e-9 6.423997662143571e-9 5.350692315030532e-9 5.8825861093437255e-9 1.2937738807242087e-9 1.2777487836007232e-9
          1.130944079204544e-9 1.1168613408753682e-9 1.2337443198942943e-9 1.0754373110433022e-9 2.256593161656822e-9 2.2260015124191975e-9
          1.9228601757055017e-9 2.142362033389038e-9 9.803454076941723e-10 9.677452893095236e-10 8.499652520043778e-10 8.387713867164569e-10
          9.308938043287065e-10 8.060344866602327e-10 1.729233136145947e-9 1.70664744467355e-9 1.5151015312761321e-9 1.6407157101901196e-9
          1.1628714508028263e-9 1.0098209268400447e-9 1.0707039915358254e-9 9.244931627584989e-10 2.0081722723838606e-9 1.7348133267944936e-9
          1.835590152685113e-9 8.724767645660919e-10 7.542086619728396e-10 7.966615226133242e-10 6.870748465711893e-10 1.536432366700324e-9
          1.3606609051851025e-9 1.4013563020511828e-9 3.571293466626391e-9 3.518579819841029e-9 3.2256565218664975e-9 3.180322598706167e-9
          3.377564945923447e-9 3.0482914713987134e-9 5.387537398800254e-9 5.318847371107792e-9 5.081502682638889e-9 5.1189515593857674e-9
          2.930172946506745e-9 2.8888284465091723e-9 2.6472048453351327e-9 2.609840940244925e-9 2.768734817176367e-9 2.5011133398684392e-9
          4.774731763946052e-9 4.701602778402906e-9 4.307999119402444e-9 4.493171323033704e-9 3.152945616001193e-9 2.8433066716025127e-9
          2.866812879277293e-9 2.5828920142318552e-9 4.777167237141699e-9 4.513389024359447e-9 4.321749731568468e-9 2.5811583984031677e-9
          2.331098106922574e-9 2.342972290048898e-9 2.114722502628188e-9 4.174324375453538e-9 3.831909072117524e-9 3.771506273434921e-9
          1.0374260349380657e-9 9.144100872191339e-10 1.77223940197449e-9 7.878893585711227e-10 1.3174217864125372e-9 5.692166216846517e-9
          5.503537089567911e-9 5.36716013612701e-9 2.691721389826739e-9 2.3285307727050865e-9 5.253831702612315e-9 4.316438978316732e-9
          4.928619540011134e-9 1.989750074024047e-9 2.946660942525581e-9 9.63109582950865e-10 8.251446182108286e-10 8.448082634883286e-10
          7.180415482185577e-10 1.637585958190248e-9 1.4124971237188566e-9 1.424057244970642e-9 7.086045068062768e-10 6.093069768573181e-10
          6.138914912364758e-10 5.259424509081538e-10 1.2446139498033028e-9 1.096050341029627e-9 1.0760768567501665e-9 7.235441131970984e-10
          6.090131126911034e-10 1.2128159669510757e-9 1.0371561167724048e-9 2.5457062242791563e-9 2.2886834051942098e-9 2.2055676652743093e-9
          1.9820835121568217e-9 3.8212458950769235e-9 3.5879918896408312e-9 3.3131707525972903e-9 2.0731783994167078e-9 1.8680056425862824e-9
          1.78826157386483e-9 1.6053410518193849e-9 3.3097434679253915e-9 3.0257508534500674e-9 2.823335836849779e-9 1.877664641107656e-9
          1.6748742198998479e-9 2.8121302021319136e-9 2.5668825772605987e-9 6.991408142317375e-9 6.951141066890931e-9 7.0601055224528604e-9
          7.02038706662505e-9 6.844041302854969e-9 6.910034017861355e-9 6.724014069306592e-9 6.688611161685573e-9 6.7626192040864196e-9
          6.593608655216254e-9 7.079475176738738e-9 7.038856733906633e-9 7.0432983322491025e-9 6.993061810788923e-9 6.9126495544011885e-9
          6.845300955640112e-9 6.861072946991443e-9 6.839046970120095e-9 6.889683977450652e-9 6.7708104044204936e-9 6.679891930167103e-9
          6.716561224623631e-9 6.4414237818523065e-9 6.431933912475183e-9 6.46996691790245e-9 6.573420023602584e-9 6.312701281901862e-9
          6.691137387134834e-9 6.6120795077269295e-9 6.369910050569058e-9 6.252360522269813e-9 6.638642781847947e-9 6.654284709337416e-9
          6.462783781894292e-9 4.7443411250497526e-9 4.872861409990369e-9 4.849895349652643e-9 4.9645244696080665e-9 5.150481932456477e-9
          5.211552935635398e-9 2.9610538785118373e-9 3.2207919512257355e-9 3.3038722377115032e-9 3.824598895466409e-9 4.902413832764569e-9
          5.004188770976529e-9 4.906943126816765e-9 5.004002028802415e-9 5.23018441241855e-9 5.2132857348675796e-9 3.1345007144507296e-9
          3.3751834854437018e-9 3.4331958571613534e-9 3.933865760595963e-9 5.387152028504118e-9 5.4219594421634174e-9 5.467214580136453e-9
          5.489439889644266e-9 4.4553675999382904e-9 4.500528007509328e-9 4.902949374154413e-9 5.418035931508261e-9 5.37524393044141e-9
          5.4780811068466745e-9 5.435932037647153e-9 4.517063411446727e-9 4.49905371052207e-9 4.887828641699155e-9 6.9313415808178204e-9
          6.878921210463436e-9 6.780837401148595e-9 6.732156524436034e-9 6.733172734552195e-9 6.578845008945003e-9 6.897032795983199e-9
          6.864074055836196e-9 6.7774847883557015e-9 6.767234151866301e-9 6.577061891568001e-9 6.519203905618095e-9 6.264632470631833e-9
          6.196229233946007e-9 6.331161055270357e-9 5.984268581716831e-9 6.681740112230659e-9 6.653697934079008e-9 6.4674421918052354e-9
          6.568234764784386e-9 6.48520585054826e-9 6.284139737251713e-9 6.066990326934741e-9 5.8068659092967215e-9 6.630362419041152e-9
          6.560507893834955e-9 6.462040764955114e-9 5.987223242165067e-9 5.621964639580851e-9 5.4819833232169e-9 5.121125146925329e-9
          6.4211439874288975e-9 6.211480800813935e-9 6.186982474574278e-9 4.8927976133108345e-9 4.978116790173927e-9 4.830301501187677e-9
          4.899443525219189e-9 5.1545592292884155e-9 5.0482376344570244e-9 3.2652189020466484e-9 3.4707469135287925e-9 3.4952110692489175e-9
          3.958225546926093e-9 4.7111456340592586e-9 4.7719666435928846e-9 4.578093463960973e-9 4.638273498093762e-9 4.9196281539987236e-9
          4.7764976677396135e-9 3.3326578167740425e-9 3.4870507949321528e-9 3.400802538215571e-9 3.837900552988843e-9 5.29756930497095e-9
          5.19359542864895e-9 5.369085573321744e-9 5.284328650689155e-9 4.439732438769305e-9 4.3208456536944904e-9 4.6560879591783725e-9
          5.064015602766611e-9 4.89833549072483e-9 5.1796620400250485e-9 5.048947120380779e-9 4.128219245859336e-9 3.877120276186687e-9
          4.318280542673597e-9 6.061755228337566e-9 5.9883837342362895e-9 5.8232381390592725e-9 5.706622667844008e-9 6.169150379709259e-9
          6.227999163949132e-9 6.042250471861126e-9 5.845089196754983e-9 5.6553917266603976e-9 5.505572248913668e-9 5.008528920774583e-9
          6.243620804301026e-9 6.225741219746625e-9 6.030760127208919e-9 5.7152162962434714e-9 5.664363432748483e-9 5.541327127007053e-9
          4.1182871498446825e-9 5.539161974951199e-9 5.1177075816681856e-9 5.214763154109869e-9 5.451609392567141e-9 5.475742837726701e-9
          5.507046761766342e-9 5.563179176161686e-9 4.996262265544379e-9 4.968717726459807e-9 5.090375886736762e-9 5.4827011047718685e-9
          5.483099610563661e-9 5.576359835151649e-9 5.555464282606722e-9 4.914507291839336e-9 4.862939462284184e-9 5.147841958398021e-9
          5.578559320589703e-9 5.543825728306609e-9 5.586536629534364e-9 5.433865603074245e-9 5.441902344935935e-9 5.423288023864734e-9
          5.631746132061673e-9 5.453694620353174e-9 5.317185844201858e-9 5.245576313621345e-9 5.3682272657551504e-9 5.255500680458154e-9
          5.27638947313282e-9 5.4366165580227655e-9 5.166554991698617e-9 4.701553667884004e-9 4.442366281480558e-9 6.163330329713322e-9