<?xml version="1.0"?>
<VTKFile type="UnstructuredGrid" version="0.1" byte_order="LittleEndian" header_type="UInt32" compressor="vtkZLibDataCompressor">
  <UnstructuredGrid>
    <Piece NumberOfPoints="1158" NumberOfCells="756">
      <PointData>
        <DataArray type="Int32" Name="libmesh_node_id" format="ascii" RangeMin="0" RangeMax="1379">
          0 1 2 3 4 5
          6 7 8 9 10 11
          12 13 14 15 16 17
          18 19 20 21 22 23
          24 25 26 27 28 29
          30 31 32 33 34 35
          36 37 38 39 40 41
          42 43 44 45 46 47
          48 49 50 51 52 53
          54 55 56 57 58 59
          60 61 62 63 64 65
          66 67 68 69 70 71
          72 73 74 75 76 77
          78 79 80 81 82 83
          84 85 86 87 88 89
          90 91 92 93 94 95
          96 97 98 99 100 101
          102 103 104 105 106 107
          108 109 110 111 112 113
          114 115 116 117 118 119
          120 121 122 123 124 125
          126 127 128 129 130 131
          132 133 134 135 136 137
          138 139 140 141 142 143
          144 145 146 147 148 149
          150 151 152 153 154 155
          156 157 158 159 160 161
          162 163 164 165 166 167
          168 169 170 171 172 173
          174 175 176 177 178 179
          180 181 182 183 184 185
          186 187 188 189 190 191
          192 193 194 195 196 197
          198 199 200 201 202 203
          204 205 206 207 208 209
          210 211 212 213 214 215
          216 217 218 219 220 221
          222 223 224 225 226 227
          228 229 230 231 232 233
          234 235 236 237 238 239
          240 241 242 243 244 245
          246 247 248 249 250 251
          252 253 254 255 256 257
          258 259 260 261 262 263
          264 265 266 267 268 269
          270 271 272 273 274 275
          276 277 278 279 280 281
          282 283 284 285 286 287
          288 289 290 291 292 293
          294 295 296 297 298 299
          300 301 302 303 304 305
          306 307 308 309 310 311
          312 313 314 315 316 317
          318 319 320 321 322 323
          324 325 326 327 328 329
          330 331 332 333 334 335
          336 337 338 339 340 341
          342 343 344 345 346 347
          348 349 350 351 352 353
          354 355 356 357 358 359
          360 361 362 363 364 365
          366 367 368 369 370 371
          372 373 374 375 376 377
          378 379 380 381 382 383
          384 385 386 387 388 389
          390 391 392 393 394 395
          396 397 398 399 400 401
          402 403 404 405 406 407
          408 409 410 411 412 413
          414 415 416 417 418 419
          420 421 422 423 424 425
          426 427 428 429 430 431
          432 433 434 435 436 437
          438 439 440 441 442 443
          444 445 446 447 448 449
          450 451 452 453 454 455
          456 457 458 459 460 461
          462 463 464 465 466 467
          468 469 470 471 472 473
          474 475 476 477 478 479
          480 481 482 483 484 485
          486 487 488 489 490 491
          492 493 494 495 496 497
          498 499 500 501 502 503
          504 505 506 507 508 509
          510 511 512 513 514 515
          516 517 518 519 520 521
          522 523 524 525 526 527
          528 529 530 531 532 533
          534 535 536 537 538 539
          540 541 542 543 544 545
          546 547 548 549 550 551
          552 553 554 555 556 557
          558 559 560 561 562 563
          564 565 566 567 568 569
          570 571 572 573 574 575
          576 577 578 579 580 581
          582 583 584 585 586 587
          588 589 590 591 592 593
          594 595 596 597 598 599
          600 601 602 603 604 605
          606 607 608 609 610 611
          612 613 614 615 616 617
          618 619 620 621 622 623
          624 625 626 627 628 629
          630 631 632 633 634 635
          636 637 638 639 640 641
          642 643 644 645 646 647
          648 649 650 651 652 653
          654 655 656 657 658 659
          660 661 662 663 664 665
          666 667 668 669 670 671
          672 673 674 675 676 677
          678 679 680 681 682 683
          684 685 686 687 688 689
          690 691 692 693 694 695
          696 697 698 699 700 701
          702 703 704 705 706 707
          708 709 710 711 712 713
          714 715 716 717 718 719
          720 721 722 723 724 725
          726 727 728 729 730 731
          732 733 734 735 736 737
          738 739 740 741 742 743
          744 745 746 747 748 749
          750 751 752 753 754 755
          756 757 758 759 760 761
          762 763 764 765 766 767
          768 769 770 771 772 773
          774 775 776 777 778 779
          780 781 782 783 784 785
          786 787 788 789 790 791
          792 793 794 795 796 797
          798 799 800 801 802 803
          804 805 806 807 808 809
          810 811 812 813 814 815
          816 817 818 819 820 821
          822 823 824 825 826 827
          828 829 830 831 832 833
          834 835 836 837 838 839
          840 841 842 843 844 845
          846 847 848 849 850 851
          852 853 854 855 856 857
          858 859 860 861 862 863
          864 865 866 867 868 869
          870 871 872 873 874 875
          876 877 878 879 880 881
          882 883 884 885 886 887
          888 889 890 891 892 893
          894 895 896 897 898 899
          900 901 902 903 904 905
          906 907 908 909 910 911
          912 913 914 915 916 917
          918 919 924 925 926 927
          928 929 930 931 932 933
          934 935 936 937 938 939
          940 941 942 943 944 945
          946 947 948 949 950 951
          952 953 954 955 956 957
          958 959 960 961 962 963
          964 965 968 969 970 971
          972 973 974 975 976 977
          978 979 980 981 982 983
          984 985 986 987 988 991
          992 993 994 995 996 997
          998 999 1000 1001 1002 1003
          1004 1005 1006 1007 1008 1009
          1010 1011 1020 1021 1022 1023
          1024 1025 1026 1027 1028 1029
          1030 1031 1032 1033 1034 1035
          1036 1037 1038 1039 1048 1049
          1050 1051 1052 1053 1054 1055
          1056 1057 1062 1063 1064 1065
          1066 1067 1068 1069 1070 1071
          1072 1073 1074 1075 1076 1077
          1078 1079 1080 1085 1086 1087
          1088 1089 1090 1091 1092 1093
          1094 1095 1096 1097 1098 1099
          1100 1101 1102 1103 1129 1131
          1142 1143 1144 1145 1146 1147
          1148 1149 1162 1163 1169 1170
          1171 1172 1185 1186 1192 1193
          1194 1195 1236 1237 1238 1239
          1240 1241 1261 1262 1263 1264
          1284 1285 1286 1287 1328 1329
          1330 1331 1332 1333 1353 1354
          1355 1356 1376 1377 1378 1379
          1040 1041 1042 1043 1044 1045
          1046 1047 1138 1140 1141 1139
          1133 1164 1135 1165 1137 1166
          1167 1168 1187 1188 1189 1190
          1191 1232 1234 1235 1233 1260
          1283 1326 1327 1325 1352 1375
        </DataArray>
        <DataArray type="Float64" Name="bounds" format="ascii" RangeMin="0" RangeMax="0">
          0 0 0 0 0 0
          0 0 0 0 0 0
          0 0 0 0 0 0
          0 0 0 0 0 0
          0 0 0 0 0 0
          0 0 0 0 0 0
          0 0 0 0 0 0
          0 0 0 0 0 0
          0 0 0 0 0 0
          0 0 0 0 0 0
          0 0 0 0 0 0
          0 0 0 0 0 0
          0 0 0 0 0 0
          0 0 0 0 0 0
          0 0 0 0 0 0
          0 0 0 0 0 0
          0 0 0 0 0 0
          0 0 0 0 0 0
          0 0 0 0 0 0
          0 0 0 0 0 0
          0 0 0 0 0 0
          0 0 0 0 0 0
          0 0 0 0 0 0
          0 0 0 0 0 0
          0 0 0 0 0 0
          0 0 0 0 0 0
          0 0 0 0 0 0
          0 0 0 0 0 0
          0 0 0 0 0 0
          0 0 0 0 0 0
          0 0 0 0 0 0
          0 0 0 0 0 0
          0 0 0 0 0 0
          0 0 0 0 0 0
          0 0 0 0 0 0
          0 0 0 0 0 0
          0 0 0 0 0 0
          0 0 0 0 0 0
          0 0 0 0 0 0
          0 0 0 0 0 0
          0 0 0 0 0 0
          0 0 0 0 0 0
          0 0 0 0 0 0
          0 0 0 0 0 0
          0 0 0 0 0 0
          0 0 0 0 0 0
          0 0 0 0 0 0
          0 0 0 0 0 0
          0 0 0 0 0 0
          0 0 0 0 0 0
          0 0 0 0 0 0
          0 0 0 0 0 0
          0 0 0 0 0 0
          0 0 0 0 0 0
          0 0 0 0 0 0
          0 0 0 0 0 0
          0 0 0 0 0 0
          0 0 0 0 0 0
          0 0 0 0 0 0
          0 0 0 0 0 0
          0 0 0 0 0 0
          0 0 0 0 0 0
          0 0 0 0 0 0
          0 0 0 0 0 0
          0 0 0 0 0 0
          0 0 0 0 0 0
          0 0 0 0 0 0
          0 0 0 0 0 0
          0 0 0 0 0 0
          0 0 0 0 0 0
          0 0 0 0 0 0
          0 0 0 0 0 0
          0 0 0 0 0 0
          0 0 0 0 0 0
          0 0 0 0 0 0
          0 0 0 0 0 0
          0 0 0 0 0 0
          0 0 0 0 0 0
          0 0 0 0 0 0
          0 0 0 0 0 0
          0 0 0 0 0 0
          0 0 0 0 0 0
          0 0 0 0 0 0
          0 0 0 0 0 0
          0 0 0 0 0 0
          0 0 0 0 0 0
          0 0 0 0 0 0
          0 0 0 0 0 0
          0 0 0 0 0 0
          0 0 0 0 0 0
          0 0 0 0 0 0
          0 0 0 0 0 0
          0 0 0 0 0 0
          0 0 0 0 0 0
          0 0 0 0 0 0
          0 0 0 0 0 0
          0 0 0 0 0 0
          0 0 0 0 0 0
          0 0 0 0 0 0
          0 0 0 0 0 0
          0 0 0 0 0 0
          0 0 0 0 0 0
          0 0 0 0 0 0
          0 0 0 0 0 0
          0 0 0 0 0 0
          0 0 0 0 0 0
          0 0 0 0 0 0
          0 0 0 0 0 0
          0 0 0 0 0 0
          0 0 0 0 0 0
          0 0 0 0 0 0
          0 0 0 0 0 0
          0 0 0 0 0 0
          0 0 0 0 0 0
          0 0 0 0 0 0
          0 0 0 0 0 0
          0 0 0 0 0 0
          0 0 0 0 0 0
          0 0 0 0 0 0
          0 0 0 0 0 0
          0 0 0 0 0 0
          0 0 0 0 0 0
          0 0 0 0 0 0
          0 0 0 0 0 0
          0 0 0 0 0 0
          0 0 0 0 0 0
          0 0 0 0 0 0
          0 0 0 0 0 0
          0 0 0 0 0 0
          0 0 0 0 0 0
          0 0 0 0 0 0
          0 0 0 0 0 0
          0 0 0 0 0 0
          0 0 0 0 0 0
          0 0 0 0 0 0
          0 0 0 0 0 0
          0 0 0 0 0 0
          0 0 0 0 0 0
          0 0 0 0 0 0
          0 0 0 0 0 0
          0 0 0 0 0 0
          0 0 0 0 0 0
          0 0 0 0 0 0
          0 0 0 0 0 0
          0 0 0 0 0 0
          0 0 0 0 0 0
          0 0 0 0 0 0
          0 0 0 0 0 0
          0 0 0 0 0 0
          0 0 0 0 0 0
          0 0 0 0 0 0
          0 0 0 0 0 0
          0 0 0 0 0 0
          0 0 0 0 0 0
          0 0 0 0 0 0
          0 0 0 0 0 0
          0 0 0 0 0 0
          0 0 0 0 0 0
          0 0 0 0 0 0
          0 0 0 0 0 0
          0 0 0 0 0 0
          0 0 0 0 0 0
          0 0 0 0 0 0
          0 0 0 0 0 0
          0 0 0 0 0 0
          0 0 0 0 0 0
          0 0 0 0 0 0
          0 0 0 0 0 0
          0 0 0 0 0 0
          0 0 0 0 0 0
          0 0 0 0 0 0
          0 0 0 0 0 0
          0 0 0 0 0 0
          0 0 0 0 0 0
          0 0 0 0 0 0
          0 0 0 0 0 0
          0 0 0 0 0 0
          0 0 0 0 0 0
          0 0 0 0 0 0
          0 0 0 0 0 0
          0 0 0 0 0 0
          0 0 0 0 0 0
          0 0 0 0 0 0
          0 0 0 0 0 0
          0 0 0 0 0 0
          0 0 0 0 0 0
          0 0 0 0 0 0
          0 0 0 0 0 0
          0 0 0 0 0 0
          0 0 0 0 0 0
          0 0 0 0 0 0
          0 0 0 0 0 0
          0 0 0 0 0 0
        </DataArray>
        <DataArray type="Float64" Name="gradient_error" format="ascii" RangeMin="4.9283515683448935e-15" RangeMax="4.479686246970356e-8">
          1.8080303545156373e-14 1.828960287311753e-14 1.7471618785922145e-14 1.7324485591006925e-14 1.361247887936155e-14 1.3532328600127002e-14
          1.4650007317282505e-14 1.473592859822402e-14 1.8661200012466985e-14 1.7739180834615688e-14 1.3386247818975504e-14 1.4493707961906568e-14
          1.8758051362109734e-14 1.7837856667199338e-14 1.3225056508795873e-14 1.436740023622814e-14 1.8363251726816703e-14 1.763258710578994e-14
          1.3482868963866426e-14 1.451321298873457e-14 1.7507912864619834e-14 1.7143219808376987e-14 1.4899450802811086e-14 1.5316366287356484e-14
          1.6345715564276077e-14 1.6474241733385412e-14 1.7683683375842094e-14 1.686691877377609e-14 1.504222510423304e-14 1.5728201656421154e-14
          2.1603680051006456e-14 1.903050136027076e-14 1.4994301316100032e-14 1.5641232987687455e-14 2.2454373728390943e-14 1.9594147699430603e-14
          1.644258613516605e-14 1.6370478769914722e-14 1.8264639604643668e-14 1.7464485169892003e-14 1.7160893738221977e-14 1.6759034308112604e-14
          1.5414093306592364e-14 1.5954163193171704e-14 1.6723647869234806e-14 1.6565777057517346e-14 1.6068242179948256e-14 1.6224289971134993e-14
          1.626778971760567e-14 1.6346605154029494e-14 1.693885056800128e-14 1.664216761533749e-14 1.6294733264871603e-14 1.6347177954875532e-14
          1.6727316110591277e-14 1.656275575040071e-14 1.643029499322538e-14 1.641210327266314e-14 1.6341584096600762e-14 1.637497695758851e-14
          1.6404275456448405e-14 1.6401892549609097e-14 1.638552304622943e-14 1.6390797238781593e-14 1.639857491081607e-14 1.6398206576544265e-14
          1.639742260640551e-14 1.6398364292270623e-14 1.6398264817890944e-14 1.6398362942519867e-14 1.6398346158796573e-14 1.6398192476633424e-14
          1.639827592287279e-14 1.6398306662501576e-14 1.6398403577745485e-14 1.6398345260736994e-14 1.6398309212896752e-14 1.6398315270310985e-14
          1.639835134618992e-14 1.6398338218278072e-14 1.6398320727198303e-14 1.6398321441920697e-14 1.6398329237911597e-14 1.639832711392494e-14
          1.6398323397070288e-14 1.6398323222819768e-14 1.6398323723913132e-14 1.6398323655000484e-14 1.639832391096161e-14 1.639832362546642e-14
          1.6398322826079865e-14 1.6398323050538157e-14 1.6487529352340912e-14 1.6444207172307187e-14 1.6174211561950204e-14 1.622431473934503e-14
          1.6571374353701868e-14 1.608112877085123e-14 1.662523447330413e-14 1.6022449196915754e-14 1.6623960645356356e-14 1.6021569863038634e-14
          1.6572356822004547e-14 1.6093633562295658e-14 1.6495325494280233e-14 1.6229903659818182e-14 1.6412163761246613e-14 1.641332668605762e-14
          1.635611208477328e-14 1.6540346362436525e-14 1.6357473147732317e-14 1.6513220022772756e-14 1.6380010526726087e-14 1.6441667881659937e-14
          1.6401081697786373e-14 1.6393703489886058e-14 1.6409802387240674e-14 1.6376240835303526e-14 1.6399945028286405e-14 1.6396268373849227e-14
          1.6396923832111416e-14 1.640166115772729e-14 1.639865628260669e-14 1.6397706965749645e-14 1.6398045217305873e-14 1.639889535411604e-14
          1.6398388592654902e-14 1.639819191509764e-14 1.639833273574154e-14 1.6398301082912687e-14 1.639832302100592e-14 1.6398322682849527e-14
          1.6398322759136292e-14 1.6398323805132386e-14 1.6398322924526503e-14 1.6398323241524632e-14 1.6398322961936212e-14 1.6398323112559524e-14
          1.6321424005955057e-14 1.6319746707756902e-14 1.6580737089462396e-14 1.6589251161603572e-14 1.632558705063935e-14 1.656108943686483e-14
          1.633280697431932e-14 1.653515443017109e-14 1.6345998805949534e-14 1.649958271247455e-14 1.6366186891874953e-14 1.645398535268944e-14
          1.6387883086065718e-14 1.6409653147926275e-14 1.6410149313883956e-14 1.6369330702580173e-14 1.642405951027168e-14 1.6346771054402784e-14
          1.6416574890801237e-14 1.636210931040517e-14 1.6402846175448942e-14 1.6389102683568836e-14 1.6394257149772864e-14 1.640706921745038e-14
          1.6394184184028026e-14 1.6406997007933348e-14 1.640026741169335e-14 1.6394341357488312e-14 1.6399936112121934e-14 1.6394952496878334e-14
          1.639780292244359e-14 1.6399342500165528e-14 1.6398252192339287e-14 1.6398484730096353e-14 1.639831611816102e-14 1.6398345035725e-14
          1.6398328069352725e-14 1.639831522209687e-14 1.639832471428662e-14 1.6398320275332825e-14 1.6398323361629494e-14 1.6398322620326488e-14
          1.6398322800483765e-14 1.6398322896961434e-14 1.6398322583901195e-14 1.6398322950122604e-14 4.469592660160116e-14 4.502849482637385e-14
          3.488690306439683e-14 3.4519897472087334e-14 4.4452299561643795e-14 3.481540549923162e-14 4.0261256460286604e-14 3.2395111888735577e-14
          3.2098418367551e-14 2.7355509280950417e-14 2.347504410944604e-14 2.173541149019666e-14 2.4479830672556263e-14 2.109183478696631e-14
          3.994568628454543e-14 2.8257852038589014e-14 4.518227217773362e-14 3.0715179553555774e-14 3.332001886273845e-14 2.4686820249589726e-14
          2.5315872948193413e-14 2.071626069496747e-14 2.155469611093647e-14 1.9033158064953395e-14 1.8272880648232757e-14 1.746278997103724e-14
          1.6961443027226594e-14 1.6701218405762253e-14 1.6640649791821818e-14 1.650703262776275e-14 1.6447299928259666e-14 1.6426754033246704e-14
          1.6403443333360063e-14 1.6399132301420435e-14 1.639873343924668e-14 1.6399043994079933e-14 1.6398134539654314e-14 1.6398310210926506e-14
          1.6398235852288648e-14 1.639828129143374e-14 1.6398302708570113e-14 1.6398310546377978e-14 1.6398321607312524e-14 1.639832160435862e-14
          1.639832491708649e-14 1.6398323832204578e-14 2.027523387965365e-14 2.0067097743826652e-14 2.0516622270434317e-14 2.0239476630901878e-14
          1.9357877197118174e-14 1.815465277949586e-14 1.710915158701806e-14 1.663302513541444e-14 1.6506810852455934e-14 1.633260740545835e-14
          1.6279000784274892e-14 1.6440579967668438e-14 1.6512915896185513e-14 1.64298644259053e-14 1.6393379355040397e-14 1.640057750421087e-14
          1.6396247070244566e-14 1.6398781496793785e-14 1.6398414164012203e-14 1.6398329329058306e-14 1.6398321252420206e-14 1.6398321991745183e-14
          1.6398322490376955e-14 1.5805156456887476e-14 1.57903271450798e-14 1.585473310404919e-14 1.5949985944619226e-14 1.610315419988651e-14
          1.6313526688044432e-14 1.651446427265976e-14 1.6696032478196287e-14 1.6765534775533943e-14 1.6611593174475688e-14 1.6441353126808245e-14
          1.6369539916366562e-14 1.6373132498529296e-14 1.6418735067512687e-14 1.641334324637711e-14 1.6394946870188002e-14 1.639767287100832e-14
          1.6398208444674385e-14 1.6398342445825706e-14 1.639833192753779e-14 1.6398324120654572e-14 1.6398322382085654e-14 1.639832223343124e-14
          1.8760701353992975e-13 1.854370519327055e-13 1.2644266621805241e-13 1.2723361020300107e-13 1.7297576573371605e-13 1.1949469638743528e-13
          1.4084850715559427e-13 9.947872784111618e-14 9.087722026825714e-14 6.719767767445906e-14 6.121152250450317e-14 4.39824177273553e-14
          9.324568266265062e-14 5.6450917575331235e-14 1.6655311561885387e-13 9.62061648061774e-14 1.7348140712824567e-13 1.0206251587791537e-13
          1.0500863685872431e-13 6.520258280051348e-14 6.038796399149828e-14 3.9679417225884014e-14 4.5612063208280214e-14 3.114702139342385e-14
          3.823000186818785e-14 2.729270067197397e-14 2.6665315917977663e-14 2.1753344262888524e-14 1.6370149121892697e-14 1.651682400299796e-14
          1.621433194782981e-14 1.6296123158811977e-14 1.6374495352370594e-14 1.6393278249116244e-14 1.6394887474544983e-14 1.639464457648743e-14
          1.6398600407612562e-14 1.6398090776854595e-14 1.639858921133051e-14 1.6398428782039707e-14 1.639840632545635e-14 1.6398370001753216e-14
          1.639834325181414e-14 1.6398336462439307e-14 1.639833090461152e-14 1.639832896816816e-14 4.32012930947492e-14 4.3037640073337566e-14
          4.222455950623141e-14 3.804844387980154e-14 3.061082834808613e-14 2.220185369679954e-14 1.8648364404095178e-14 2.1773843486373552e-14
          2.4057861555994758e-14 2.1052537972018602e-14 1.7658670865104763e-14 1.661777499095594e-14 1.6458249715494843e-14 1.6610810716815596e-14
          1.651460076390555e-14 1.639408387240625e-14 1.6406511790864217e-14 1.6396635098846504e-14 1.6397926067984297e-14 1.6398276155033997e-14
          1.6398322125252975e-14 1.6398323643690926e-14 1.639832285561747e-14 1.8954305686099133e-14 1.9215073280602755e-14 1.8435491971308292e-14
          1.7987939232964976e-14 1.770352161551127e-14 1.765039444339165e-14 1.7640576320178508e-14 1.7688472979246138e-14 1.7472098484404464e-14
          1.6708547201734555e-14 1.6346471269939766e-14 1.6553570403344376e-14 1.656109995522959e-14 1.6380248825831813e-14 1.636570264370788e-14
          1.6410253375018364e-14 1.640096243586655e-14 1.639886851926313e-14 1.639827098987197e-14 1.6398283957319083e-14 1.639831057245587e-14
          1.6398317614317376e-14 1.6398318679510147e-14 8.414483244819379e-13 8.0884100192613e-13 5.62326172664533e-13 5.81996450306001e-13
          7.032900217495403e-13 4.95893144803791e-13 5.184917263257776e-13 3.7590728883860927e-13 3.0314390965195787e-13 2.2984557953190447e-13
          2.500884903843191e-13 1.661523333021163e-13 4.458294645712508e-13 2.514489195418713e-13 7.242605937966759e-13 4.052382889220377e-13
          7.036058430948129e-13 4.0278753223332123e-13 4.0966826070645535e-13 2.386313434475931e-13 2.351975019018175e-13 1.3258909409547948e-13
          1.6985023023112264e-13 9.652257972972545e-14 1.2506411854913032e-13 7.498134902277028e-14 6.896255292775215e-14 4.510678087763005e-14
          2.2189413380319678e-14 1.9981423134755602e-14 1.7197931950649498e-14 1.6867028619298693e-14 1.6534903828482546e-14 1.644143892040345e-14
          1.6419116658159552e-14 1.6416217446302087e-14 1.6399351350566494e-14 1.640049057935386e-14 1.6397767912124596e-14 1.6398241949252284e-14
          1.6398101936063385e-14 1.6398211950835618e-14 1.6398278650492584e-14 1.6398288038713425e-14 1.639831842949646e-14 1.639830973664936e-14
          1.6693094981143386e-13 1.6984575614256722e-13 1.5461078555074165e-13 1.289504811063315e-13 9.282374795315954e-14 5.810987884229746e-14
          4.6963410789818817e-14 6.215243285336357e-14 6.881646872797142e-14 4.686497371389624e-14 2.4114312759969147e-14 1.9852060874372563e-14
          2.086991000725848e-14 1.9325574971364554e-14 1.7349806601834304e-14 1.644897719396866e-14 1.6367961480792892e-14 1.6404553182019063e-14
          1.6399988675472248e-14 1.639856221566639e-14 1.6398323103047774e-14 1.6398297396387625e-14 1.6398296879503335e-14 1.8050556219931723e-14
          1.7146936155070217e-14 2.072530324344168e-14 2.457811086122194e-14 2.910024649446799e-14 3.400358146468143e-14 3.685844706714583e-14
          3.808888165932764e-14 3.566371608411306e-14 2.61355212390615e-14 1.824793923079686e-14 1.6509192520416832e-14 1.684124051810671e-14
          1.740014111522115e-14 1.6926180314477084e-14 1.6361829099989424e-14 1.638794894926143e-14 1.63957881295935e-14 1.6398347542803276e-14
          1.63984084449528e-14 1.6398324240487696e-14 1.6398297365840984e-14 1.6398292715204413e-14 3.526898543440711e-12 3.300134562005043e-12
          2.3451898395859503e-12 2.4917090960988478e-12 2.660800846718463e-12 1.925669887945526e-12 1.744212704380448e-12 1.311285775375292e-12
          1.0584644940084015e-12 7.880402719311927e-13 1.3129586139467792e-12 7.982580541197853e-13 2.273774762805567e-12 1.2875020139920134e-12
          3.19903435287256e-12 1.8186114169928812e-12 2.907037858157417e-12 1.6831931894113945e-12 1.6347812569487274e-12 9.60689148369794e-13
          9.256983127304338e-13 5.160427518510746e-13 6.650891727909863e-13 3.6212088035213834e-13 4.834945969758973e-13 2.726068997172557e-13
          2.4990089316110454e-13 1.4925662286782078e-13 4.1008786202499665e-14 3.454602470591261e-14 1.5786679440883133e-14 1.637793264316194e-14
          1.6275188125591616e-14 1.6466494016009574e-14 1.6293062678298055e-14 1.6319544882955975e-14 1.6386218145991947e-14 1.6385221353972357e-14
          1.6398703031972537e-14 1.6397395349603643e-14 1.639911313911783e-14 1.6398629778954594e-14 1.6398799535495023e-14 1.639860675138797e-14
          1.6398704125122362e-14 1.6398569076082426e-14 7.358984387421106e-13 7.666484542006495e-13 6.419834101843217e-13 4.935008793229317e-13
          3.2194830215209776e-13 2.1409081343165494e-13 2.2651110527144636e-13 2.9388963811669446e-13 2.9414798003738065e-13 1.800299108433998e-13
          6.764400617829505e-14 4.0845424060879874e-14 4.326788901190289e-14 3.604354035091283e-14 2.3861422077903853e-14 1.675335990436679e-14
          1.6547982812912346e-14 1.637768781997399e-14 1.6391350821242595e-14 1.639695258321806e-14 1.6398102770237713e-14 1.639828623988717e-14
          1.6398305995928916e-14 8.155176031736319e-14 7.677725964431402e-14 9.342789119605364e-14 1.0864291227572723e-13 1.2628055445021163e-13
          1.4462413257051843e-13 1.5179294536443309e-13 1.4959079512018674e-13 1.2894743940938949e-13 7.346278189593947e-14 2.89008213848748e-14
          2.2538260208469364e-14 2.481657556519156e-14 2.347472812728854e-14 1.9639580946482148e-14 1.6537533963292832e-14 1.6438165719397155e-14
          1.640934855233409e-14 1.6398477080532413e-14 1.639781749920137e-14 1.6398059121684064e-14 1.639815851249342e-14 1.6398177964815353e-14
          1.3464962115971856e-11 1.2212512909113303e-11 8.903637831720305e-12 9.738144512503506e-12 8.952498091880085e-12 6.706621730128572e-12
          5.333325897091935e-12 4.12659024278113e-12 4.6493290550935345e-12 3.108662067463817e-12 7.677922183729763e-12 4.4811685951065824e-12
          1.1508423649672574e-11 6.6674656267043786e-12 1.4245268891656644e-11 8.260417057688237e-12 1.213472457959604e-11 7.137284898989215e-12
          6.563407222448903e-12 3.922428296197748e-12 3.628852991976848e-12 2.041782076892252e-12 2.6066957734235006e-12 1.411222321634903e-12
          1.8826895355171447e-12 1.052207289594443e-12 9.598267192416269e-13 5.657130416342369e-13 1.303893911817593e-13 1.0490838501542583e-13
          3.2912673328433144e-14 2.7100999165052575e-14 2.112299929382883e-14 1.8775430667787665e-14 1.6911594513902633e-14 1.6761929154154688e-14
          1.6480152614174957e-14 1.646881965277632e-14 1.640714347675202e-14 1.6408334611648026e-14 1.639841007429079e-14 1.6399093366568088e-14
          1.6397879172865988e-14 1.6397971522222247e-14 1.639794462283796e-14 1.639789297846416e-14 3.06935830135604e-12 3.2676858811285462e-12
          2.5223384595841345e-12 1.771572842048462e-12 1.116791217355594e-12 9.954780670986244e-13 1.263132631717042e-12 1.4638202427813562e-12
          1.336064342818364e-12 7.827943875958536e-13 2.706904334029093e-13 1.3441591972257807e-13 1.4334330293584747e-13 1.1676370885913616e-13
          5.867680624144406e-14 1.876239506622253e-14 1.6347187867016153e-14 1.6483252615832076e-14 1.642593000097951e-14 1.64039914783347e-14
          1.6398834154184748e-14 1.6397806444494613e-14 1.6397656850290416e-14 5.439538483847732e-13 5.240448532219375e-13 5.839315507912111e-13
          6.232910956265978e-13 6.655873548770897e-13 7.06541127713845e-13 6.997576596979009e-13 6.520752618428836e-13 5.322834672543403e-13
          2.841394052451165e-13 8.666970499816175e-14 5.308296959885043e-14 6.496156219995356e-14 6.192805369142523e-14 3.792623363379579e-14
          1.6235465130773052e-14 1.6266513692285814e-14 1.6354241437257412e-14 1.6394373310581337e-14 1.6398457210125366e-14 1.6397891649524103e-14
          1.639754901741072e-14 1.639747236649047e-14 4.359180288923717e-11 3.7772954452823937e-11 2.8585507285741564e-11 3.255952329760596e-11
          2.4834607623422815e-11 1.9401800913420777e-11 1.9098656209709272e-11 1.3594967419736665e-11 2.9024095406089632e-11 1.7544984843973038e-11
          4.529593924878841e-11 2.6876070745033986e-11 5.785768234099515e-11 3.4462749355851445e-11 6.399375782020523e-11 3.790603674885643e-11
          5.123293220698321e-11 3.068012870584369e-11 2.6530292496325297e-11 1.6199763200019525e-11 1.4133796465532802e-11 8.10709955271814e-12
          1.0182017168103675e-11 5.523394189387427e-12 7.346244821995231e-12 4.0841451557061194e-12 3.724764126549257e-12 2.190393293021034e-12
          4.3602447379906906e-13 3.6286321197610787e-13 9.458254093905556e-14 7.1661093350128e-14 3.8762207572592256e-14 3.1862552219728784e-14
          1.494194899381718e-14 1.5553579431596886e-14 1.6003210763845527e-14 1.6102659555809586e-14 1.633903541040327e-14 1.6344096351932203e-14
          1.639771903685285e-14 1.639380250907207e-14 1.640683536337553e-14 1.640273921308165e-14 1.6407924803869443e-14 1.6403975132909906e-14
          1.1232085288685865e-11 1.227121120502278e-11 8.559161673050304e-12 5.648240760412047e-12 4.664486293320072e-12 5.879918509431006e-12
          7.10597495351607e-12 7.314581623145575e-12 6.165858061445538e-12 3.507112438721923e-12 1.2049113177608947e-12 5.236810802928921e-13
          5.274854016974091e-13 4.42436709700053e-13 2.05004206145652e-13 3.313174462081702e-14 2.0963198842925057e-14 1.6393377014809038e-14
          1.6307863834162396e-14 1.637064397337481e-14 1.6391285533260173e-14 1.6396192636563443e-14 1.639702195449682e-14 3.066110458712536e-12
          3.01517870407081e-12 3.14932914268187e-12 3.205202891060036e-12 3.263098304783698e-12 3.303634777582444e-12 3.144133536324406e-12
          2.810847568783525e-12 2.2043909181868964e-12 1.1449909737300963e-12 3.2941999561830956e-13 1.8259094991460443e-13 2.3292531397780963e-13
          2.288509599072937e-13 1.203064621381573e-13 1.752384348043361e-14 1.6963500818984795e-14 1.6621544160241488e-14 1.6413619320551153e-14
          1.639213065328849e-14 1.6392685085229055e-14 1.639374221033912e-14 1.639401844704326e-14 9.436424383873839e-11 8.286014359958993e-11
          6.57015733495715e-11 7.556672424067275e-11 8.317547967790594e-11 5.855300655977333e-11 1.2939502381805023e-10 8.05755562533823e-11
          1.9941175059531633e-10 1.218739212978543e-10 2.581254560634451e-10 1.583901901878331e-10 2.8938055642090695e-10 1.7700043988275935e-10
          2.9012981781175183e-10 1.756463768842165e-10 2.189519202887766e-10 1.3368503095518768e-10 1.0830166335230403e-10 6.778578636238456e-11
          5.484127452326224e-11 3.230735543182221e-11 3.956490180745501e-11 2.1573929240105338e-11 2.8716947685545698e-11 1.5866081591732578e-11