<?xml version="1.0"?>
<VTKFile type="UnstructuredGrid" version="0.1" byte_order="LittleEndian" header_type="UInt32" compressor="vtkZLibDataCompressor">
  <UnstructuredGrid>
    <Piece NumberOfPoints="442" NumberOfCells="250">
      <PointData>
        <DataArray type="Int32" Name="libmesh_node_id" format="ascii" RangeMin="393" RangeMax="3075">
          393 394 496 497 808 809
          815 817 818 819 820 822
          823 824 825 827 828 829
          830 841 842 844 845 846
          847 848 849 850 1207 1208
          1213 1590 1591 1592 1595 1598
          1632 1633 1635 1638 1648 1650
          1652 1654 1655 1656 1657 1658
          1659 1660 1661 1662 1663 1664
          1665 1666 1667 1668 1669 1670
          1671 1675 1676 1678 1679 1680
          1681 1682 1683 1684 1685 1686
          1687 1688 1689 1690 1691 1692
          1693 1696 1697 1699 1700 1701
          1702 1703 1704 1705 1706 1707
          1708 1709 1710 1711 1712 1713
          1714 1715 1716 1717 1718 1719
          1720 1721 1722 1723 1724 1725
          1726 1727 1728 1729 1730 1731
          1733 1734 1735 1736 1737 1738
          1739 1740 1741 1744 1745 1747
          1749 2665 2666 2667 2668 2672
          2673 2674 2753 2754 2755 2756
          2757 2758 2759 2760 2761 2762
          2770 2771 2772 2773 2774 2775
          2776 2787 2788 2789 2790 2791
          2792 2793 2794 2795 2796 2804
          2805 2806 2807 2808 2809 2810
          2834 2835 2836 2844 2845 2846
          2847 2848 2849 2850 2851 2852
          2853 2854 2855 2856 2857 2858
          2859 2860 2861 2862 2863 2864
          2874 2875 2876 2877 2881 2882
          2883 2884 2885 2886 2887 2890
          2891 2892 2904 2905 2906 2907
          2908 2909 2910 2911 2912 2913
          2914 2915 2916 2917 2918 2919
          2920 2921 2922 2923 2924 2925
          2926 2927 2928 2929 2930 2931
          2932 2933 2934 2935 2936 2937
          2938 2939 2940 2941 2942 2943
          2944 2945 2946 2947 2948 2949
          2950 2951 2952 2953 2954 2955
          2956 2957 2958 2959 2960 2961
          2962 2963 2964 2965 2966 2967
          2968 2969 2970 2971 2972 2973
          2974 2975 2976 2977 2978 2979
          2980 2981 2982 2983 2984 2985
          2986 2987 2988 2989 2990 2991
          2992 2993 2994 2995 2996 2997
          2998 2999 3000 3001 3002 3003
          3004 3005 3006 3007 3008 3009
          3010 3011 3012 3013 3014 3015
          3016 3017 3018 3019 3020 3021
          3022 3023 3024 3025 3026 3027
          3028 3029 3030 3031 3032 3033
          3034 3035 3036 3037 3038 3039
          3040 3041 3042 3043 3044 3045
          3046 3047 3048 3049 3050 3051
          3052 3053 3054 3055 3056 3057
          3058 3059 3060 3061 3062 3069
          3070 3071 3072 3073 3074 3075
          494 495 607 605 499 612
          611 811 812 834 832 816
          839 838 489 833 837 843
          1200 1201 488 807 1204 1586
          1587 1588 1589 1593 1594 1596
          1597 1599 1612 1610 1613 1611
          1618 1617 1634 1647 1619 1649
          1651 1653 1616 2663 2745 2746
          2748 1630 2751 1631 2670 2764
          2766 2768 2779 2780 2782 1636
          2785 1637 2798 2800 2802 1639
          2832 2838 2840 2842
        </DataArray>
        <DataArray type="Float64" Name="bounds" format="ascii" RangeMin="0" RangeMax="0">
          0 0 0 0 0 0
          0 0 0 0 0 0
          0 0 0 0 0 0
          0 0 0 0 0 0
          0 0 0 0 0 0
          0 0 0 0 0 0
          0 0 0 0 0 0
          0 0 0 0 0 0
          0 0 0 0 0 0
          0 0 0 0 0 0
          0 0 0 0 0 0
          0 0 0 0 0 0
          0 0 0 0 0 0
          0 0 0 0 0 0
          0 0 0 0 0 0
          0 0 0 0 0 0
          0 0 0 0 0 0
          0 0 0 0 0 0
          0 0 0 0 0 0
          0 0 0 0 0 0
          0 0 0 0 0 0
          0 0 0 0 0 0
          0 0 0 0 0 0
          0 0 0 0 0 0
          0 0 0 0 0 0
          0 0 0 0 0 0
          0 0 0 0 0 0
          0 0 0 0 0 0
          0 0 0 0 0 0
          0 0 0 0 0 0
          0 0 0 0 0 0
          0 0 0 0 0 0
          0 0 0 0 0 0
          0 0 0 0 0 0
          0 0 0 0 0 0
          0 0 0 0 0 0
          0 0 0 0 0 0
          0 0 0 0 0 0
          0 0 0 0 0 0
          0 0 0 0 0 0
          0 0 0 0 0 0
          0 0 0 0 0 0
          0 0 0 0 0 0
          0 0 0 0 0 0
          0 0 0 0 0 0
          0 0 0 0 0 0
          0 0 0 0 0 0
          0 0 0 0 0 0
          0 0 0 0 0 0
          0 0 0 0 0 0
          0 0 0 0 0 0
          0 0 0 0 0 0
          0 0 0 0 0 0
          0 0 0 0 0 0
          0 0 0 0 0 0
          0 0 0 0 0 0
          0 0 0 0 0 0
          0 0 0 0 0 0
          0 0 0 0 0 0
          0 0 0 0 0 0
          0 0 0 0 0 0
          0 0 0 0 0 0
          0 0 0 0 0 0
          0 0 0 0 0 0
          0 0 0 0 0 0
          0 0 0 0 0 0
          0 0 0 0 0 0
          0 0 0 0 0 0
          0 0 0 0 0 0
          0 0 0 0 0 0
          0 0 0 0 0 0
          0 0 0 0 0 0
          0 0 0 0 0 0
          0 0 0 0
        </DataArray>
        <DataArray type="Float64" Name="gradient_error" format="ascii" RangeMin="9.200440045830154e-10" RangeMax="3.413868789115276e-7">
          3.5480620463231946e-8 2.305850617725162e-9 1.725296465649651e-8 2.6990853251876076e-7 1.6589670773207143e-7 1.8020287362281033e-7
          4.82135230034238e-8 2.943051931024205e-8 2.123079367722253e-8 1.5973500183288498e-7 1.531450134617181e-7 8.115241873350957e-8
          6.272999446558565e-8 2.8036400330292754e-8 8.331598667859399e-8 1.3197221968980777e-8 6.513091657400897e-8 1.3682660940443782e-7
          1.482786478114017e-7 3.253826517303289e-8 5.035044317345745e-8 6.897115597785834e-9 3.6487113002996907e-9 4.009625176688618e-9
          2.151868837085792e-9 6.977986921203974e-8 3.3191851274548285e-9 4.370539053077545e-9 1.0864010780767428e-8 8.868279501429759e-9
          6.872548222092091e-9 6.449802309031661e-8 1.7680199306945509e-7 1.604257597054833e-7 1.1625725966777041e-7 1.529293125003779e-7
          4.032098795646623e-8 4.500119728572622e-8 1.1204109947155663e-7 3.808349787083488e-8 1.7805667148138226e-7 1.8036420965724693e-7
          1.3261340002893636e-7 5.4555867415396216e-8 4.9191888699483565e-8 1.661556944378217e-7 1.4853511063089436e-7 3.4886044599301075e-8
          1.467053658141352e-7 1.2895321631009624e-7 3.630411524826812e-8 1.027828635601155e-7 8.51231459869722e-8 1.680628634900455e-7
          1.520567173172622e-7 1.4183577767996468e-7 1.7217291156941537e-7 2.5239621037838194e-8 2.3123895629810113e-8 1.189252212864681e-7
          1.030113784217672e-7 1.7307324364839462e-8 6.517481667670313e-8 1.390502360600598e-7 1.2073431555527465e-7 6.849755731518384e-8
          1.2497486465212707e-7 2.195967687858387e-8 5.348915033879802e-8 1.533975291684443e-8 4.150784012594616e-8 1.5139033244202406e-8
          3.2327100381332024e-8 2.3970455084005225e-8 1.4839218703150974e-7 1.2740200503587514e-7 8.674754246383632e-8 9.940591365862671e-9
          2.994651760414209e-8 6.2747042238284496e-9 1.664093741194422e-8 1.014751037500305e-7 4.722171677696554e-8 3.8696469997691566e-8
          5.139359975507288e-8 5.640520619355089e-8 6.091635574044439e-8 6.726049730162715e-8 1.1687237672472527e-7 1.152363878993227e-7
          1.688616678251501e-8 4.7011440421368575e-8 5.7037076995272786e-8 5.750874195725827e-8 6.814190194061499e-8 7.326817460996731e-8
          6.883622014284304e-8 7.048245335522055e-8 1.426779198481471e-7 1.0795122058265654e-7 1.60063743698793e-8 6.644250943407307e-8
          7.04854579539341e-8 1.4192674463528873e-7 1.6630411876891047e-7 1.441459450447806e-7 1.5791281922368321e-7 9.274336288736744e-8
          1.2198737580152266e-7 1.0345292181372652e-7 1.9184572103815537e-7 1.5495629438356083e-7 9.830085910633818e-8 5.726378235140576e-8
          1.5900416754217685e-7 1.2442881340273597e-7 6.998644500630416e-8 1.4929096369715143e-8 1.9346256921039432e-8 1.4774870239725938e-8
          2.3763417472363722e-8 1.2013440910887004e-8 1.5432941048965014e-8 8.14604087481448e-9 9.955520333027538e-9 1.8852441187043027e-8
          1.1764999791240595e-8 4.5340428972221894e-8 4.539723004870326e-8 4.960368454403346e-8 4.595546190428695e-8 4.617876366091001e-8
          4.878358161177698e-8 4.590063463843076e-8 4.250553038232038e-8 4.285513893609516e-8 4.738781400872046e-8 4.7609077399250006e-8
          4.355770886321874e-8 4.7797541926632754e-8 3.5473044344937634e-8 3.706883871226455e-8 4.211382527648506e-8 3.988026826890769e-8
          4.492212113717314e-8 4.829854364517703e-8 4.593357203777874e-8 4.883234422686811e-8 4.247440639401083e-8 4.712516039892971e-8
          4.4535029226156626e-8 2.4239775982441737e-8 2.8499476323133463e-8 2.6430202186587432e-8 3.167772585480056e-8 3.624188255951834e-8
          4.0997968634563835e-8 1.7204095067427062e-8 2.3174323045224886e-8 2.4742271411097536e-8 3.388318440337182e-8 4.070193577510058e-8
          4.5870490616525025e-8 4.376677962310197e-8 4.7973574141369e-8 4.0120537375615775e-8 4.5304166113767695e-8 4.371427012553235e-8
          4.634059607235941e-8 4.8621101421635655e-8 4.6781923125844387e-8 4.6537909895615545e-8 4.915708604784142e-8 4.722154364001683e-8
          4.903731729988093e-8 4.673522371887168e-8 4.969307067404719e-8 4.766116415418928e-8 5.419241943897667e-8 5.383093537822814e-8
          5.782796176405253e-8 5.298274885715873e-8 6.189171906026147e-8 6.127336498739965e-8 6.374814813841503e-8 5.8991942115102306e-8
          5.111238629740895e-8 5.290066277555474e-8 4.972872619798005e-8 5.378730882570475e-8 5.335000094811163e-8 5.0245744335742714e-8
          6.584046910873103e-8 6.494516013577185e-8 6.417374073046774e-8 6.072853933490118e-8 6.279031963436093e-8 6.080573412380548e-8
          4.3890000011388415e-8 5.388453677716801e-8 5.138833196220756e-8 4.765121033994345e-8 4.536943641742543e-8 4.237886826760428e-8
          2.9549728877730856e-8 3.5809811594122604e-8 5.254980071057081e-8 5.259235319392932e-8 5.770993807264862e-8 5.7528890625147025e-8
          5.2172592131823574e-8 5.647987719492822e-8 4.567134693320993e-8 4.766118907729194e-8 5.352621845641416e-8 5.057296075367788e-8
          6.245743234821693e-8 6.204547324789005e-8 6.629118100295088e-8 6.56750572870704e-8 6.042349372997405e-8 6.346082328127781e-8
          5.670955122493684e-8 5.9147659613696336e-8 6.397420926341297e-8 6.213277763272485e-8 5.161803506882884e-8 5.4635364347550346e-8
          5.152579155129834e-8 5.365881748288968e-8 5.2063527636318315e-8 5.707795021287636e-8 5.2253955338565106e-8 5.7076068771145356e-8
          5.8449346836179604e-8 5.49386642299058e-8 5.5035980680993483e-8 6.185912982981712e-8 6.58615503294728e-8 5.935756105819291e-8
          2.8728176625034725e-8 3.5066366986652785e-8 3.1311847833603674e-8 3.879525183803088e-8 4.610799080383646e-8 5.1548600245416585e-8
          1.7020841365814554e-8 2.61641268283522e-8 2.7767886249474957e-8 4.243249550680558e-8 3.311567488491753e-8 4.229683214854031e-8
          3.3447827980651975e-8 4.510203965485815e-8 5.714765792190064e-8 6.264379618750466e-8 1.5835392956133747e-8 2.911592657806838e-8
          2.9857627218616105e-8 5.188480592319733e-8 5.1399338018511155e-8 5.708635879866967e-8 5.2302544822561916e-8 5.6563653035941753e-8
          5.07953046046344e-8 5.638688309113254e-8 5.2885585089584505e-8 6.259226462059807e-8 6.757244087539439e-8 6.048370564429817e-8
          6.350588421295716e-8 6.183109829814782e-8 6.697047381609075e-8 6.174686176334142e-8 6.867651507691099e-8 6.793209134550339e-8
          6.902533692247918e-8 6.82306667157274e-8 6.505957573602867e-8 6.473667051704745e-8 6.460323072949245e-8 6.800405713300653e-8
          7.107779430700421e-8 7.115664043304522e-8 6.713825617267944e-8 6.62346691527809e-8 6.293560803852622e-8 6.190840374524052e-8
          6.216291184549505e-8 5.744405445526895e-8 7.013535793430873e-8 7.218760600348326e-8 7.021940569467394e-8 7.317933982451334e-8
          5.831421760312364e-8 5.629915829575859e-8 5.3696951348285736e-8 5.0560972066397897e-8 6.875161718256846e-8 6.983759293192075e-8
          6.239469928938125e-8 5.230252289360661e-8 4.6925974614286284e-8 4.5610304229105485e-8 3.4566540872373334e-8 6.807589279258019e-8
          6.37718679954315e-8 6.403296000879148e-8 3.485063930269357e-8 4.829911739887564e-8 3.986457749558626e-8 5.295651887785997e-8
          6.750253278298433e-8 7.103764375836889e-8 1.2007378191493183e-8 3.150914308697314e-8 3.6045041842698567e-8 6.208239683703434e-8
          4.693040691235021e-8 5.8017892519068436e-8 5.22335725474663e-8 6.101627141066047e-8 7.277961321437846e-8 7.200275536747672e-8
          2.507629066708093e-8 4.332417721292666e-8 5.0607783988355106e-8 6.964183369355234e-8 7.218197464847162e-8 7.545917153571591e-8
          6.47058712031516e-8 6.84983543883649e-8 7.210081817584604e-8 7.619026345916405e-8 6.683192661180432e-8 7.530878522714772e-8
          7.190538646026752e-8 7.416372215132515e-8 6.059975083571514e-8 7.669196238874399e-8 7.364829877086165e-8 7.567232114915569e-8
          5.053623319041996e-8 5.1884263448378384e-8 4.9574930338454265e-8 5.243204567117204e-8 5.1816509007124466e-8 4.8868352961046154e-8
          5.1508372024092806e-8 5.3378637580050106e-8 5.0398906180682024e-8 5.098414203718097e-8 5.2480510857765643e-8 5.487301171172183e-8
          5.1222882022909776e-8 5.454165550480119e-8 5.470045589608836e-8 5.048310253056398e-8 4.9002684071106177e-8 5.665126533843033e-8
          5.7584402785052235e-8 5.2097852100081793e-8 4.92003006178162e-8 4.723440241976295e-8 4.4406177438622765e-8 5.3071352192393335e-8
          5.1654628860514584e-8 4.7837441204515766e-8 4.759722618558992e-8 5.694240376697047e-8 5.607485530126621e-8 5.126870497040877e-8
          1.0646052740566021e-8 2.1881731639637634e-9 9.200440045830154e-10 1.995502024074694e-9 7.312474964271423e-9 1.0095341942750818e-9
          2.4930609544057525e-9 2.1965838223741037e-7 1.612649545389832e-7 1.1419047918100813e-7 1.6707239052316483e-7 3.413868789115276e-7
          1.6706762514456583e-7 2.385328594748432e-7 4.7622196687256696e-8 6.131333321745042e-8 9.023091637436646e-9 7.0887023551929895e-9
          2.4406808616724967e-8 2.0028131036563512e-8 5.859024526228854e-8 4.224791268853093e-8 1.5649453456402054e-8 8.686296638593273e-8
          7.872101665219979e-8 1.8035903378632604e-7 1.65789660096737e-7 5.8846946165535206e-8 1.2523760209835126e-7 1.5753883274570803e-7
          1.4769439181674804e-7 1.7962917490229226e-7 2.93986761298773e-8 3.7097359490812086e-8 6.477145201892173e-8 7.435839239869161e-8
          1.6211943176736217e-7 1.6876587833285867e-7 1.03635263780658e-7 1.809318378111671e-7 1.1600691465124135e-7 1.936339626964563e-7
          1.3629252733233054e-7 2.2709793653706663e-7 4.1077911043814116e-8 4.143992039234497e-8 3.8071098089236663e-8 3.8513545808707136e-8
          3.9616974713037326e-8 3.117742153024158e-8 3.2596266621456183e-8 3.527828390017e-8 4.35045966944191e-8 4.168418733542942e-8
          4.3090418772961814e-8 3.824692033061981e-8 2.1936694199551656e-8 2.5378353799312088e-8 3.183555267167554e-8 1.6438177212396785e-8
          2.1151345580781113e-8 2.981800687686389e-8 3.60071121816234e-8 3.9840653510919816e-8 3.538416167844694e-8 3.952578032251477e-8
          4.3893182051176996e-8 4.3832054830661616e-8 4.514593505845185e-8 4.377092761014623e-8
        </DataArray>
        <DataArray type="Float64" Name="gradient_matprop_error" format="ascii" RangeMin="0" RangeMax="0">
          0 0 0 0 0 0
          0 0 0 0 0 0
          0 0 0 0 0 0
          0 0 0 0 0 0
          0 0 0 0 0 0
          0 0 0 0 0 0
          0 0 0 0 0 0
          0 0 0 0 0 0
          0 0 0 0 0 0
          0 0 0 0 0 0
          0 0 0 0 0 0
          0 0 0 0 0 0
          0 0 0 0 0 0
          0 0 0 0 0 0
          0 0 0 0 0 0
          0 0 0 0 0 0
          0 0 0 0 0 0
          0 0 0 0 0 0
          0 0 0 0 0 0
          0 0 0 0 0 0
          0 0 0 0 0 0
          0 0 0 0 0 0
          0 0 0 0 0 0
          0 0 0 0 0 0
          0 0 0 0 0 0
          0 0 0 0 0 0
          0 0 0 0 0 0
          0 0 0 0 0 0
          0 0 0 0 0 0
          0 0 0 0 0 0
          0 0 0 0 0 0
          0 0 0 0 0 0
          0 0 0 0 0 0
          0 0 0 0 0 0
          0 0 0 0 0 0
          0 0 0 0 0 0
          0 0 0 0 0 0
          0 0 0 0 0 0
          0 0 0 0 0 0
          0 0 0 0 0 0
          0 0 0 0 0 0
          0 0 0 0 0 0
          0 0 0 0 0 0
          0 0 0 0 0 0
          0 0 0 0 0 0
          0 0 0 0 0 0
          0 0 0 0 0 0
          0 0 0 0 0 0
          0 0 0 0 0 0
          0 0 0 0 0 0
          0 0 0 0 0 0
          0 0 0 0 0 0
          0 0 0 0 0 0
          0 0 0 0 0 0
          0 0 0 0 0 0
          0 0 0 0 0 0
          0 0 0 0 0 0
          0 0 0 0 0 0
          0 0 0 0 0 0
          0 0 0 0 0 0
          0 0 0 0 0 0
          0 0 0 0 0 0
          0 0 0 0 0 0
          0 0 0 0 0 0
          0 0 0 0 0 0
          0 0 0 0 0 0
          0 0 0 0 0 0
          0 0 0 0 0 0
          0 0 0 0 0 0
          0 0 0 0 0 0
          0 0 0 0 0 0
          0 0 0 0 0 0
          0 0 0 0 0 0
          0 0 0 0
        </DataArray>
        <DataArray type="Float64" Name="initial_marker" format="ascii" RangeMin="0" RangeMax="2">
          2 0 2 2 2 2
          2 1 1 2 2 2
          2 0 1.5 2 2 2
          2 0 0.25 0 0 0
          0 0.5 0 0 0 0
          0 2 2 2 2 2
          2 2 2 2 2 2
          2 2 2 2 2 2
          2 2 2 2 2 2
          2 2 2 2 2 2
          2 2 2 2 2 2
          2 1 1.5 1 1.5 0
          1 1 2 2 2 1
          1.5 0 1 2 2 2
          2 2 2 2 2 2
          2 2 2 2 2 2
          2 2 2 2 2 2
          2 2 2 2 2 2
          2 2 2 2 2 2
          2 2 2 1 1 0
          1 1 1 0 0 1
          0 2 2 2 2 2
          2 2 2 2 2 2
          2 2 2 2 2 2
          2 2 2 2 2 2
          2 2 2 2 2 2
          2 2 2 2 2 2
          2 2 2 2 2 2
          2 2 2 2 2 2
          2 2 2 2 2 2
          2 2 2 2 2 2
          2 2 2 2 2 2
          2 2 2 2 2 2
          2 2 2 2 2 2
          2 2 2 2 2 2
          2 2 2 2 2 2
          2 2 2 2 2 2
          2 2 2 2 2 2
          2 2 2 2 2 2
          2 2 2 2 2 2
          2 2 2 2 2 2
          2 2 2 2 2 2
          2 2 2 2 2 2
          2 2 2 2 2 2
          2 2 2 2 2 2
          2 2 2 2 2 2
          2 2 2 2 2 2
          2 2 2 2 2 2
          2 2 2 2 2 2
          2 2 2 2 2 2
          2 2 2 2 2 2
          2 2 2 2 2 2
          2 2 2 2 2 2
          2 2 2 2 2 2
          2 2 2 2 2 2
          2 2 2 2 2 2
          2 2 2 2 2 2
          2 2 2 2 2 2
          2 2 2 2 2 2
          2 2 2 2 2 2
          2 2 2 2 2 2
          2 2 2 2 2 2
          0 0 0 0 0 0
          0 1.5 1.5 0.5 0.5 2
          1 1 0 0 0 0
          0 0 1 1 0 2
          2 2 2 2 2 2
          2 2 1 1 1.5 1.5
          2 2 2 2 2 2
          2 2 1 2 2 2
          2 2 2 2 2 2
          2 2 2 2 2 2
          2 2 2 2 2 2
          2 2 2 2
        </DataArray>
        <DataArray type="Float64" Name="markers_norefine" format="ascii" RangeMin="0" RangeMax="2">
          2 0 2 0 1 0
          2 0 0 1 0 0
          0 0 0 2 2 1
          0 0 0 0 0 0
          0 0 0 0 0 0
          0 0 0 0 0 1
          2 2 1.5 2 0 0
          0 0 0 0 0 0
          0 0 0 0 0 1
          1 0.75 0 0 0 0
          0 0 0 1 0.25 0
          0 0 0 0 0 0
          0 0 0 0 0 0
          0 0 0 0 0 0
          2 2 2 2 1.5 1.25
          2 2 2 2 2 2
          2 2 0.75 0.25 2 2
          2 1.5 0 0 0 0
          0 0 0 0 0 0
          0 0 0 0 0 0
          0 0 0 0 0 0
          0 2 2 2 2 1
          1 0 2 2 2 2
          2 2 2 2 2 2
          1.5 1.5 1 1 2 2
          2 2 2 2 2 2
          2 2 2 2 2 2
          2 2 2 2 2 2
          1 1 0 1 1 0
          0 1 1 0 2 2
          2 2 2 2 2 2
          1 1 0 1 0.5 0
          2 2 1.5 1 1 0.5
          0 0 0 0 0 0
          0 0 2 2 2 2
          2 2 2 2 2 2
          2 2 2 2 2 1.75
          2 2 2 2 1.5 1.5
          1 1 2 2 2 1.5
          1.25 1 1 2 2 2
          2 2 2 2 2 2
          2 2 2 2 2 2
          2 2 2 2 2 2
          2 2 2 2 2 2
          2 2 2 2 2 2
          1.75 2 2 2 2 2
          2 1.75 1.5 1.25 2 2
          2 2 1.5 1.25 1 1
          1 1 2 2 2 2
          1 0.75 1 0.5 2 1.75
          1.3333333333333333 0.5 0.5 0 0 1.5
          1.25 1 2 2 2 2
          2 2 2 2 2 2
          2 2 2 2 2 2
          2 2 2 2 2 2
          1.5 1.6666666666666667 2 2 2 2
          1.75 2 1 2 2 2
          1 1 0 1 0.5 0
          1 1 0 0 1 1
          0 1 0.75 0 0 1
          1 0 0 0 0 0.5
          0.5 0 0 1 1 0
          0 0 0 0 0 0
          0 0 0 0 0 0
          0 0 0 0 0 0
          0 0 0 0 0 0
          0 0 0 0 0 1
          1 0 0 0 0 0
          0 0 1.5 0 0 0
          0 0 0 2 2 2
          2 2 2 2 1 1.5
          1 2 2 2 2 2
          2 2 2 2 2 2
          1 1 0 1
        </DataArray>
        <DataArray type="Float64" Name="markers_mustrefine" format="ascii" RangeMin="0" RangeMax="2">
          2 0 2 2 2 2
          2 1 1 2 2 2
          2 0 1.5 2 2 2
          2 0 0.25 0 0 0
          0 0.5 0 0 0 0
          0 2 2 2 2 2
          2 2 2 2 2 2
          2 2 2 2 2 2
          2 2 2 2 2 2
          2 2 2 2 2 2
          2 2 2 2 2 2
          2 1 1.5 1 1.5 0
          1 1 2 2 2 1
          1.5 0 1 2 2 2
          2 2 2 2 2 2
          2 2 2 2 2 2
          2 2 2 2 2 2
          2 2 2 2 2 2
          2 2 2 2 2 2
          2 2 2 1 1 0
          1 1 1 0 0 1
          0 2 2 2 2 2
          2 2 2 2 2 2
          2 2 2 2 2 2
          2 2 2 2 2 2
          2 2 2 2 2 2
          2 2 2 2 2 2
          2 2 2 2 2 2
          2 2 2 2 2 2
          2 2 2 2 2 2
          2 2 2 2 2 2
          2 2 2 2 2 2
          2 2 2 2 2 2
          2 2 2 2 2 2
          2 2 2 2 2 2
          2 2 2 2 2 2
          2 2 2 2 2 2
          2 2 2 2 2 2
          2 2 2 2 2 2
          2 2 2 2 2 2
          2 2 2 2 2 2
          2 2 2 2 2 2
          2 2 2 2 2 2
          2 2 2 2 2 2
          2 2 2 2 2 2
          2 2 2 2 2 2
          2 2 2 2 2 2
          2 2 2 2 2 2
          2 2 2 2 2 2
          2 2 2 2 2 2
          2 2 2 2 2 2
          2 2 2 2 2 2
          2 2 2 2 2 2
          2 2 2 2 2 2
          2 2 2 2 2 2
          2 2 2 2 2 2
          2 2 2 2 2 2
          2 2 2 2 2 2
          2 2 2 2 2 2
          2 2 2 2 2 2
          2 2 2 2 2 2
          2 2 2 2 2 2
          0 0 0 0 0 0
          0 1.5 1.5 0.5 0.5 2
          1 1 0 0 0 0
          0 0 1 1 0 2
          2 2 2 2 2 2
          2 2 1 1 1.5 1.5
          2 2 2 2 2 2
          2 2 1 2 2 2
          2 2 2 2 2 2
          2 2 2 2 2 2
          2 2 2 2 2 2
          2 2 2 2
        </DataArray>
        <DataArray type="Float64" Name="gradient_marker" format="ascii" RangeMin="0" RangeMax="1">
          0.5 0.75 0 1 0.5 0.75
          0 0 0 0.5 0.625 0.75
          0.75 0 0.25 0 0 0.75
          0.75 0 0.125 0.5 0 0
          0.5 0.25 0.5 0 0 0
          0 0 0.5 0.5 0.5 0.5
          0 0 0.25 0 0.75 1
          0.5 0 0 0.5 0.5 0
          0.5 0.5 0 0.5 0.375 0.5
          0.5 0.5 0.75 0 0 0.5
          0.5 0 0.25 0.5 0.5 0.75
          0.5 0 0.25 0 0.125 0
          0 0 0.75 0.5 0.5 0
          0 0 0 0.25 0.625 0
          0 0 0 0 0.25 0.25
          0 0 0 0 0 0
          0.5 0.5 0.375 0.75 0 0
          0.5 0.25 0.75 0.625 1 0.5
          0.5 0.5 1 0.5 0.75 0.125
          0.5 0.75 0.25 0 0 0
          0 0 0 0 0 0
          0 0 0 0 0 0
          0 0 0 0 0 0
          0 0 0 0 0 0
          0 0 0 0 0 0
          0 0 0 0 0 0
          0 0 0 0 0 0
          0 0 0 0 0 0
          0 0 0 0 0 0
          0 0 0 0 0 0
          0 0 0 0 0 0
          0 0 0 0 0 0
          0 0 0 0 0 0
          0.6666666666666666 0 0 0 0 0
          0.6666666666666666 0 0 0 0 0
          0 0 0 0 0 0
          0 0 0 0 0 0
          0 0 0 0 0 0
          0 0 0 0 0 0
          0 0 0 0 0 0
          0 0 0 0 0 0
          0 0 0 0 0 0
          0 0 0 0 0 0
          0 0 0 0 0 0
          0 0 0 0 0 0
          0 0 0 0 0 0
          0 0 0 0 0 0
          0 0 0 0 0.5 0.5
          0 0.5 0 0 0.5 0
          0 0 0 0 0 0
          0 0 0.5 0 0.6666666666666666 0
          0.5 0 0 0 0 0
          0 0 0 0 0 0
          0 0 0.5 0.5 0 0.5
          0 0 0.5 0 0 0
          0 0 0 0 0 0
          0.5 0 0.6666666666666666 0 0.5 0
          0 0 0 0 0 0
          0 0 0 0 0 0
          0 0 0 0 0 0
          0 0 0 0 0 0
          0 0 0 0 0 0
          0.75 0.875 1 1 0.5 1
          1 0.75 0.625 0.375 0.5 1
          0.5 0.5 0.375 0.25 0 0.6666666666666666
          0 0 0 0 0 0
          0 0.5 0.5 0 0.5 0.5
          0.5 0.75 0 0 0.25 0.25
          0.75 0.75 0.25 0.75 0.5 1
          0.5 1 0 0 0 0
          0 0 0 0 0 0
          0 0 0 0 0 0
          0 0 0 0 0 0
          0 0 0 0
        </DataArray>
        <DataArray type="Float64" Name="gradient_matprop_marker" format="ascii" RangeMin="0" RangeMax="0">
          0 0 0 0 0 0
          0 0 0 0 0 0
          0 0 0 0 0 0
          0 0 0 0 0 0
          0 0 0 0 0 0
          0 0 0 0 0 0
          0 0 0 0 0 0
          0 0 0 0 0 0
          0 0 0 0 0 0
          0 0 0 0 0 0
          0 0 0 0 0 0
          0 0 0 0 0 0
          0 0 0 0 0 0
          0 0 0 0 0 0
          0 0 0 0 0 0
          0 0 0 0 0 0
          0 0 0 0 0 0
          0 0 0 0 0 0
          0 0 0 0 0 0
          0 0 0 0 0 0
          0 0 0 0 0 0
          0 0 0 0 0 0
          0 0 0 0 0 0
          0 0 0 0 0 0
          0 0 0 0 0 0
          0 0 0 0 0 0
          0 0 0 0 0 0
          0 0 0 0 0 0
          0 0 0 0 0 0
          0 0 0 0 0 0
          0 0 0 0 0 0
          0 0 0 0 0 0
          0 0 0 0 0 0
          0 0 0 0 0 0
          0 0 0 0 0 0
          0 0 0 0 0 0
          0 0 0 0 0 0
          0 0 0 0 0 0
          0 0 0 0 0 0
          0 0 0 0 0 0
          0 0 0 0 0 0
          0 0 0 0 0 0
          0 0 0 0 0 0
          0 0 0 0 0 0
          0 0 0 0 0 0
          0 0 0 0 0 0
          0 0 0 0 0 0
          0 0 0 0 0 0
          0 0 0 0 0 0
          0 0 0 0 0 0
          0 0 0 0 0 0
          0 0 0 0 0 0
          0 0 0 0 0 0
          0 0 0 0 0 0
          0 0 0 0 0 0
          0 0 0 0 0 0
          0 0 0 0 0 0
          0 0 0 0 0 0
          0 0 0 0 0 0
          0 0 0 0 0 0
          0 0 0 0 0 0
          0 0 0 0 0 0
          0 0 0 0 0 0
          0 0 0 0 0 0
          0 0 0 0 0 0
          0 0 0 0 0 0
          0 0 0 0 0 0
          0 0 0 0 0 0
          0 0 0 0 0 0
          0 0 0 0 0 0
          0 0 0 0 0 0
          0 0 0 0 0 0
          0 0 0 0 0 0
          0 0 0 0
        </DataArray>
        <DataArray type="Float64" Name="combo" format="ascii" RangeMin="0" RangeMax="2">
          2 0.75 2 1 1.5 0.75
          2 0 0 1.5 0.625 0.75
          0.75 0 0.25 2 2 1.5
          0.75 0 0.125 0.5 0 0
          0.5 0.25 0.5 0 0 0
          0 0 0.5 0.5 0.5 1.5
          2 2 1.75 2 0.75 1
          0.5 0 0 0.5 0.5 0
          0.5 0.5 0 0.5 0.375 1.5
          1.5 1.25 0.75 0 0 0.5
          0.5 0 0.25 1.5 0.75 0.75
          0.5 0 0.25 0 0.125 0
          0 0 0.75 0.5 0.5 0
          0 0 0 0.25 0.625 0
          2 2 2 2 1.75 1.5
          2 2 2 2 2 2
          2 2 1.125 1 2 2
          2 1.75 0.75 0.625 1 0.5
          0.5 0.5 1 0.5 0.75 0.125
          0.5 0.75 0.25 0 0 0
          0 0 0 0 0 0
          0 2 2 2 2 1
          1 0 2 2 2 2
          2 2 2 2 2 2
          1.5 1.5 1 1 2 2
          2 2 2 2 2 2
          2 2 2 2 2 2
          2 2 2 2 2 2
          1 1 0 1 1 0
          0 1 1 0 2 2
          2 2 2 2 2 2
          1 1 0 1 0.5 0
          2 2 1.5 1 1 0.5
          0.6666666666666666 0 0 0 0 0
          0.6666666666666666 0 2 2 2 2
          2 2 2 2 2 2
          2 2 2 2 2 1.75
          2 2 2 2 1.5 1.5
          1 1 2 2 2 1.5
          1.25 1 1 2 2 2
          2 2 2 2 2 2
          2 2 2 2 2 2
          2 2 2 2 2 2
          2 2 2 2 2 2
          2 2 2 2 2 2
          1.75 2 2 2 2 2
          2 1.75 1.5 1.25 2 2
          2 2 1.5 1.25 1.25 1.25
          1 1.25 2 2 2 2
          1 0.75 1 0.5 2 1.75
          1.3333333333333333 0.5 0.875 0 0.6666666666666666 1.5
          1.5 1 2 2 2 2
          2 2 2 2 2 2
          2 2 2 2 2 2
          2 2 2 2 2 2
          1.5 1.6666666666666667 2 2 2 2
          1.875 2 1.5 2 2 2
          1 1 0 1 0.5 0
          1 1 0 0 1 1
          0 1 0.75 0 0 1
          1 0 0 0 0 0.5
          0.5 0 0 1 1 0
          0.75 0.875 1 1 0.5 1
          1 0.75 0.625 0.375 0.5 1
          0.5 0.5 0.375 0.25 0 0.6666666666666666
          0 0 0 0 0 0
          0 0.5 0.5 0 0.5 1.5
          1.5 0.75 0 0 0.25 0.25
          0.75 0.75 1.75 0.75 0.5 1
          0.5 1 0 2 2 2
          2 2 2 2 1 1.5
          1 2 2 2 2 2
          2 2 2 2 2 2
          1 1 0 1
        </DataArray>
        <DataArray type="Float64" Name="dHdT" format="ascii" RangeMin="25.812220386418016" RangeMax="54.58178476915542">
          46.32315565508095 25.819987899271503 46.32413167576498 30.56199741184397 46.07776078068598 37.640093535754936
          51.8618524242177 26.489955842910653 26.24992888746894 42.724534992626175 33.949330642991804 38.07179525702708
          30.476464297138715 26.023791983184697 27.284851507647154 46.32508350877889 49.8438516438244 43.297399991502424
          29.33793262625556 25.952425795647095 26.082277565701318 25.865432572975724 25.834116749528317 25.835402279021903
          25.824050653257693 26.237150408946345 25.873332631305217 25.836687808515485 25.865575347823896 25.8528571244412
          25.8401389010585 28.089267528050726 33.78324260145189 32.76630445952617 30.454502009859954 44.37380546209895
          46.247637965625835 48.944395560480224 49.09901468473279 46.30090581450478 36.837769904187326 32.48269385802541
          38.86706305990307 27.655075199351003 27.443153562005875 32.82468193903051 31.730182948558145 26.924561242818008
          31.40254820623412 30.437450346705322 26.9578540522826 29.564627585849294 28.62839128017623 44.57609106446975
          42.834414836244655 40.51032572685088 35.946379700893964 26.616825292567686 26.537778084972395 29.95298432199577
          29.316387895908225 26.325947459844446 27.89743577925928 40.62911197038554 37.84947884948766 34.75123862161472