<?xml version="1.0"?>
<VTKFile type="UnstructuredGrid" version="0.1" byte_order="LittleEndian" header_type="UInt32" compressor="vtkZLibDataCompressor">
  <UnstructuredGrid>
    <Piece NumberOfPoints="460" NumberOfCells="256">
      <PointData>
        <DataArray type="Int32" Name="libmesh_node_id" format="ascii" RangeMin="394" RangeMax="4061">
          498 826 858 859 864 880
          884 886 888 1216 1218 1694
          1695 1698 1732 1742 1743 1746
          1748 1778 1779 1780 1781 1782
          1783 1784 1785 1786 1787 1792
          1793 1795 1797 1818 1819 1820
          1821 1822 1823 1824 1825 1827
          1829 1831 1914 1915 1916 1917
          1918 1919 1920 1921 1922 1923
          1924 1925 1928 1929 1931 1933
          2085 2086 2087 2088 2089 2090
          2091 2092 2093 2094 2095 2096
          2099 2100 2126 2127 2128 2149
          2150 2151 2152 2153 2154 2155
          2156 2158 2160 2161 2162 2893
          2894 2895 2896 2897 2898 2899
          2900 2901 2902 2903 3063 3064
          3065 3066 3067 3068 3076 3077
          3078 3079 3080 3081 3082 3083
          3084 3085 3086 3087 3088 3253
          3254 3255 3256 3257 3258 3259
          3260 3261 3262 3263 3264 3265
          3266 3267 3268 3269 3270 3271
          3272 3273 3274 3275 3276 3277
          3278 3279 3280 3281 3282 3283
          3284 3285 3286 3287 3288 3289
          3290 3291 3292 3293 3294 3295
          3296 3297 3298 3299 3300 3301
          3302 3303 3304 3305 3306 3311
          3312 3316 3327 3329 3331 3333
          3341 3342 3343 3344 3345 3346
          3347 3348 3349 3350 3351 3352
          3355 3356 3358 3360 3497 3498
          3499 3500 3501 3502 3503 3504
          3505 3506 3507 3508 3509 3510
          3511 3512 3513 3514 3515 3516
          3517 3518 3519 3520 3521 3522
          3523 3524 3525 3526 3527 3528
          3529 3530 3531 3532 3533 3534
          3535 3536 3537 3538 3539 3540
          3541 3542 3543 3544 3545 3546
          3547 3548 3549 3550 3551 3552
          3553 3555 3556 3557 3559 3567
          3568 3569 3570 3571 3572 3573
          3574 3576 3578 3580 3581 3583
          3584 3585 3587 3595 3596 3597
          3598 3599 3600 3601 3602 3604
          3606 3608 4008 4009 4010 4011
          4012 4013 4014 4015 4016 4017
          4018 4019 4020 4021 4022 4023
          4024 4025 4026 4027 4028 4029
          4030 4031 4032 4033 4034 4035
          4036 4037 4038 4039 4040 4041
          4042 4043 4044 4045 4046 4047
          4048 4049 4050 4051 4052 4053
          4054 4055 4056 4057 4058 4059
          4060 4061 495 508 615 607
          394 513 621 612 824 492
          843 841 825 844 842 879
          883 847 881 882 885 849
          887 1219 501 1222 1221 1224
          1223 1692 1696 1693 1697 1699
          1700 1701 1729 1730 1731 1733
          1734 1735 1740 1741 1744 1745
          1747 1749 1788 1789 1790 503
          1791 1794 860 1926 1828 1927
          1930 1932 1214 2052 2049 2054
          2097 2098 2101 2146 2138 2147
          2157 2148 2159 852 1771 3203
          3307 3133 3204 3308 3309 3310
          3313 3314 3315 3328 3330 3332
          3334 3336 3338 3340 3326 3353
          3337 3354 3357 1796 3359 3554
          3558 3560 3562 3564 3566 3563
          3575 3577 1826 3579 3582 3586
          3588 3590 3592 3594 3591 3603
          3605 1830 3607 511
        </DataArray>
        <DataArray type="Float64" Name="bounds" format="ascii" RangeMin="0" RangeMax="0">
          0 0 0 0 0 0
          0 0 0 0 0 0
          0 0 0 0 0 0
          0 0 0 0 0 0
          0 0 0 0 0 0
          0 0 0 0 0 0
          0 0 0 0 0 0
          0 0 0 0 0 0
          0 0 0 0 0 0
          0 0 0 0 0 0
          0 0 0 0 0 0
          0 0 0 0 0 0
          0 0 0 0 0 0
          0 0 0 0 0 0
          0 0 0 0 0 0
          0 0 0 0 0 0
          0 0 0 0 0 0
          0 0 0 0 0 0
          0 0 0 0 0 0
          0 0 0 0 0 0
          0 0 0 0 0 0
          0 0 0 0 0 0
          0 0 0 0 0 0
          0 0 0 0 0 0
          0 0 0 0 0 0
          0 0 0 0 0 0
          0 0 0 0 0 0
          0 0 0 0 0 0
          0 0 0 0 0 0
          0 0 0 0 0 0
          0 0 0 0 0 0
          0 0 0 0 0 0
          0 0 0 0 0 0
          0 0 0 0 0 0
          0 0 0 0 0 0
          0 0 0 0 0 0
          0 0 0 0 0 0
          0 0 0 0 0 0
          0 0 0 0 0 0
          0 0 0 0 0 0
          0 0 0 0 0 0
          0 0 0 0 0 0
          0 0 0 0 0 0
          0 0 0 0 0 0
          0 0 0 0 0 0
          0 0 0 0 0 0
          0 0 0 0 0 0
          0 0 0 0 0 0
          0 0 0 0 0 0
          0 0 0 0 0 0
          0 0 0 0 0 0
          0 0 0 0 0 0
          0 0 0 0 0 0
          0 0 0 0 0 0
          0 0 0 0 0 0
          0 0 0 0 0 0
          0 0 0 0 0 0
          0 0 0 0 0 0
          0 0 0 0 0 0
          0 0 0 0 0 0
          0 0 0 0 0 0
          0 0 0 0 0 0
          0 0 0 0 0 0
          0 0 0 0 0 0
          0 0 0 0 0 0
          0 0 0 0 0 0
          0 0 0 0 0 0
          0 0 0 0 0 0
          0 0 0 0 0 0
          0 0 0 0 0 0
          0 0 0 0 0 0
          0 0 0 0 0 0
          0 0 0 0 0 0
          0 0 0 0 0 0
          0 0 0 0 0 0
          0 0 0 0 0 0
          0 0 0 0
        </DataArray>
        <DataArray type="Float64" Name="gradient_error" format="ascii" RangeMin="1.0366904598290065e-11" RangeMax="1.5900416754217685e-7">
          3.177667886917319e-8 1.8013590297924837e-8 3.0898934728570064e-10 6.398952076283769e-10 1.241972965176734e-9 6.588486953325905e-10
          9.981084838854897e-10 1.0293851847377069e-9 1.454833211262866e-9 8.519810037376662e-11 6.980417855825642e-11 3.1670059231751053e-9
          1.3229524408638307e-8 5.700630569402365e-9 2.5920564147628037e-8 4.204180809698257e-9 6.590136756909139e-9 3.607427524846433e-9
          7.919549915369586e-9 6.357285546850019e-10 1.070437870988526e-9 2.5176922791922994e-10 4.2765713572694944e-10 9.406261600818654e-10
          1.2492336234535999e-9 4.753905362745643e-10 3.78828715671018e-9 1.7454625619684526e-9 1.243109923782489e-9 1.1906680727081866e-10
          1.7133385697197844e-10 7.113839314205249e-10 3.820309721520779e-10 1.0471188077904047e-8 5.3376963179001475e-9 2.0810322320870726e-9
          1.0004459173552242e-9 1.4665828388920472e-8 7.730376357007739e-9 2.8086828032290004e-9 2.2875641072557628e-9 5.179071665195005e-10
          3.388310791663893e-9 4.902489931467861e-10 1.15425510009717e-9 9.496849076131862e-10 5.426689714702066e-10 4.95360947735259e-10
          1.1444520709895124e-9 1.4172144576336422e-9 4.987844222480332e-10 1.0803919100868336e-9 4.2216370999875344e-10 1.5425759163022337e-9
          3.4418329010356815e-10 3.255630330459244e-10 1.0581576075242437e-10 1.6955629853582847e-10 1.5339343797863975e-10 2.1375202676170134e-10
          1.0830337466949257e-9 1.6471488413298182e-9 1.1790055022930764e-9 7.002524174022388e-10 1.1025426693040604e-9 2.1094910159373778e-10
          3.7449103538077194e-10 4.849106546109783e-10 7.40980898812476e-10 1.9932016825429678e-10 7.044549177796218e-11 1.3419306903334746e-10
          5.0615949109166873e-11 6.844345015203e-11 2.1772695997103651e-10 3.3512718214835903e-10 2.3611335496998165e-10 1.3858175506567216e-10
          2.3192991152104557e-10 4.195200263333699e-11 8.978522867184665e-11 9.568504790191736e-11 1.5709120088371602e-10 5.815175435008217e-11
          1.7417179852328105e-11 1.0366904598290065e-11 1.9604114727333847e-11 2.878028839560645e-11 1.932611488849892e-11 6.445048039737806e-10
          8.721464014463188e-10 7.000242576322794e-10 2.586433654439801e-9 5.443353967721765e-9 3.3617310448000532e-9 1.1303144308405277e-8
          1.3079126092741152e-9 1.8462364596600244e-9 1.4107185156487403e-9 3.486757525088655e-9 2.0333159110573473e-8 1.180466901776017e-8
          2.9028814468011126e-8 5.7742779272952225e-9 2.9804449447798505e-9 7.908182695513539e-9 3.716186388617519e-8 2.160808112100994e-8
          4.1139757066147306e-8 9.65735122693035e-9 5.051383282324303e-9 1.0457938177292691e-8 8.34460204373429e-10 1.111811095495775e-9
          8.587252645078528e-10 1.5760436433582606e-9 1.888808150719188e-9 1.5063301327080943e-9 2.0146910013399756e-9 4.673741461577825e-10
          7.07603213437586e-10 2.3129631924811936e-10 4.3816567067685924e-10 3.8479552568662606e-10 5.615832829556879e-10 3.386742801684343e-10
          2.0555249460350796e-9 1.2539858601770095e-9 1.5021143420821257e-9 1.4069356203134925e-10 2.7276821945878106e-10 8.753376570547986e-11
          1.7197271047652133e-10 1.2605682577199862e-10 2.0909055059906573e-10 1.3156825925943305e-10 8.139413259112291e-10 5.294426314262579e-10
          5.465612897087832e-10 4.606999434666487e-9 3.1944184977152603e-9 2.7433560303487065e-9 1.7667791364590851e-9 9.741668786371054e-9
          7.073431457472077e-9 5.582099478708922e-9 2.2016976713766723e-9 1.482688392603878e-9 1.1711112146726847e-9 7.694700650842015e-10
          5.094911073478891e-9 3.544366743066095e-9 2.594931564142023e-9 1.0021636936240858e-9 1.475975768020999e-9 5.583857442106081e-10
          9.00937928583654e-10 7.127278839213938e-10 1.0676317563076016e-9 5.837938628483978e-10 2.8670734143457797e-9 1.8568959052307362e-9
          1.692174870329789e-9 3.45961960598941e-10 5.74529553131789e-10 2.2009237350838301e-10 3.701191902872793e-10 2.3526393282687413e-10
          3.657219060779313e-10 2.342420805123012e-10 1.2173439168269343e-9 7.963151756756155e-10 6.258521235050034e-10 4.7039403745417665e-11
          8.060443241386046e-11 2.218808838689248e-10 9.6527583107114e-10 4.927551195582502e-10 2.3609246052345432e-9 1.1363448849816686e-9
          1.3712666442405376e-10 2.327471280087287e-10 8.435612557527443e-11 1.4246476382143389e-10 9.121808223578058e-11 1.4512857090748794e-10
          8.770890979912736e-11 5.061834087310188e-10 3.1075927964421976e-10 3.026309519028553e-10 5.0295763279288345e-11 8.468217203136598e-11
          3.3729172963912246e-11 5.196735836325128e-11 1.8487267752215085e-10 1.0707179325773167e-10 1.7621777538350853e-8 1.3099238414426378e-8
          9.925984958903273e-9 6.8841753208088585e-9 2.585049607836326e-8 2.0154308247914386e-8 1.4511071445852558e-8 9.773034537141649e-9
          7.007667541379479e-9 4.8601769741529025e-9 3.346249491486825e-9 1.5405490355263242e-8 1.1281321886170477e-8 7.599981799993695e-9
          4.8407459782733255e-9 3.2696642714173424e-9 2.3568721072609515e-9 1.4251592406658502e-9 6.835276969815076e-9 4.877831178455153e-9
          3.322729364438164e-9 2.2025809312977925e-9 1.464415223149381e-9 9.174378364512793e-10 7.046074114684452e-10 3.3621969706587147e-9
          2.2664818911998935e-9 1.3709447394262066e-9 3.317240841139322e-8 2.606173379326639e-8 1.8533245092846213e-8 1.347173175031433e-8
          3.645482342799973e-8 2.839236530179471e-8 2.0334844322062612e-8 2.0118467061928427e-8 1.4883746712055863e-8 9.908878657448773e-9
          7.0504633016057965e-9 2.1962555908472982e-8 1.629435442600034e-8 1.0816727167427172e-8 8.482698133544265e-9 6.2201585215286324e-9
          4.0789443100284715e-9 2.6035083775536978e-9 9.191975297731385e-9 6.7536815314768724e-9 4.399179614554739e-9 4.33292475006417e-9
          2.9422986680512648e-9 1.7438592458480066e-9 1.1380421642520707e-9 4.715026733417263e-9 3.207979655716449e-9 1.8900164401531483e-9
          4.7793945862929044e-9 2.21412147762907e-9 1.4007265079252932e-9 7.853258370720095e-9 3.5813409800464427e-9 9.4026303292096e-10
          5.815342564907632e-10 5.458319886349846e-10 3.297011197148607e-10 1.4712386855919187e-9 9.173496021531173e-10 6.625961334014433e-10
          3.4714111044475577e-10 1.9478531003013993e-10 5.503374984831399e-10 2.40352674647748e-10 1.049489532177511e-8 4.777049951310394e-9
          3.0718014848335836e-9 1.1536971820942172e-8 5.256744771676969e-9 1.925842179050971e-9 1.209229023902959e-9 7.225679827389612e-10
          4.4532966806809975e-10 2.1057338268913897e-9 1.325882199260363e-9 7.939623318974846e-10 7.288194715392369e-10 2.643200106369727e-10
          8.00569392740848e-10 2.909272979560268e-10 7.076025177964181e-10 9.292077088237631e-10 4.697151429885622e-10 6.037287999806864e-10
          5.119635268463253e-10 6.496334046725666e-10 3.6447053966878464e-10 1.3195881168501232e-9 8.61792091406175e-10 9.143686107620901e-10
          2.944373524780046e-10 3.745932671848754e-10 2.3018925019829187e-10 2.883332565601289e-10 2.109596371714012e-10 2.478048309308594e-10
          2.0721012736142972e-10 5.373098926207372e-10 3.77097855560952e-10 3.2187603780469106e-10 1.5971104766712823e-9 1.0618279309474522e-9
          1.110815522891183e-9 5.845395493655949e-10 1.7058576194934264e-9 1.137814136055365e-9 1.1801971067569932e-9 6.709388651846496e-10
          4.2725621346983904e-10 3.736417194661876e-10 2.4473692448519523e-10 7.220071270195709e-10 4.6210427505923306e-10 3.881813880133108e-10
          2.484602826490543e-10 2.691986153252634e-10 1.540630094998895e-10 1.6549061615760614e-10 1.7117951047705368e-10 1.6008465719174243e-10
          1.0034154339038386e-10 2.899369480014726e-10 1.7691822281532284e-10 1.4898980390643115e-10 9.09710116831771e-11 9.722774130816234e-11
          6.777938852404789e-11 7.099372510973262e-11 6.63363447225567e-11 6.34726169752986e-11 5.046286585838056e-11 1.0348447093314759e-10
          7.420806169541735e-11 6.06088892280405e-11 2.1881731639637634e-9 2.678204713483349e-10 2.422249899806988e-10 9.200440045830154e-10
          2.305850617725162e-9 3.6695009783679055e-10 2.587295738853799e-10 1.0095341942750818e-9 2.8036400330292754e-8 7.724877687159704e-9
          7.0887023551929895e-9 3.253826517303289e-8 8.331598667859399e-8 6.897115597785834e-9 5.035044317345745e-8 2.7219334822543454e-10
          3.503805038390935e-10 2.151868837085792e-9 8.030523550240147e-11 1.2990773298290866e-10 2.113387100276862e-10 3.3191851274548285e-9
          1.752943527948351e-10 1.8437081258315543e-11 2.414814593712889e-11 8.139043602451645e-11 1.5856722285467434e-11 3.758549642647371e-11
          1.0894043781416184e-10 9.940591365862671e-9 6.2747042238284496e-9 2.994651760414209e-8 1.664093741194422e-8 1.014751037500305e-7
          4.722171677696554e-8 3.8696469997691566e-8 1.5495629438356083e-7 9.830085910633818e-8 5.726378235140576e-8 1.5900416754217685e-7
          1.2442881340273597e-7 6.998644500630416e-8 1.2013440910887004e-8 1.5432941048965014e-8 8.14604087481448e-9 9.955520333027538e-9
          1.8852441187043027e-8 1.1764999791240595e-8 9.136743941390257e-11 1.5924877523664047e-10 5.745434805303311e-11 5.909240003521135e-11
          6.660131649629863e-11 6.30100473579857e-11 1.411957331056102e-10 1.3451867023768863e-10 2.0958706425704222e-10 1.507696512048697e-10
          6.512690640368365e-11 1.1207886102403429e-10 1.3792224607216362e-9 1.4586895350182953e-10 2.0418929717542438e-10 5.266254779459883e-11
          2.422800911889346e-11 5.2206212242596826e-11 2.832958460017432e-11 1.7518016655901315e-11 1.5460696836818942e-10 5.490356134767729e-11
          3.549881477736939e-11 2.2642106573699334e-11 2.0159813104777598e-11 1.855269507810317e-10 6.851606936531916e-11 7.230100672966058e-11
          5.368029427571184e-11 2.647684041437433e-10 1.660075278189195e-10 1.0659757669881121e-10 3.343891971137914e-11 6.499440298571936e-11
          4.925218606476563e-11 3.3665428227438527e-10 2.074415551434658e-10 6.042662170413681e-10 3.052908758654025e-10 1.500654905701184e-9
          3.6331602477589404e-10 1.8245012660185026e-10 9.088359714556324e-10 4.271537949182559e-10 8.081431011121048e-11 2.9322928008057766e-11
          1.0486498430315425e-10 4.877756892430921e-11 3.022089423480562e-11 2.4574611563440655e-10 1.062168616187519e-10 3.088775803937623e-9
          5.159978577326438e-9 1.8907781728521132e-9 8.458698024018399e-10 3.1939968364208754e-9 1.389325580440381e-9 4.876818191048334e-10
          1.99599949086004e-10 1.1210004471497929e-10 8.02517724564668e-10 3.1685266805206364e-10 6.983668384667371e-9 7.713820621210608e-9
          4.360222388267059e-9 1.8741259936697518e-9 4.83192827083895e-9 2.0708056373461546e-9 1.084619212393156e-9 4.204049431651211e-10
          1.842469009089073e-10 1.1993875473564499e-9 4.621029350011798e-10 2.1487447529228335e-10
        </DataArray>
        <DataArray type="Float64" Name="gradient_matprop_error" format="ascii" RangeMin="0" RangeMax="0">
          0 0 0 0 0 0
          0 0 0 0 0 0
          0 0 0 0 0 0
          0 0 0 0 0 0
          0 0 0 0 0 0
          0 0 0 0 0 0
          0 0 0 0 0 0
          0 0 0 0 0 0
          0 0 0 0 0 0
          0 0 0 0 0 0
          0 0 0 0 0 0
          0 0 0 0 0 0
          0 0 0 0 0 0
          0 0 0 0 0 0
          0 0 0 0 0 0
          0 0 0 0 0 0
          0 0 0 0 0 0
          0 0 0 0 0 0
          0 0 0 0 0 0
          0 0 0 0 0 0
          0 0 0 0 0 0
          0 0 0 0 0 0
          0 0 0 0 0 0
          0 0 0 0 0 0
          0 0 0 0 0 0
          0 0 0 0 0 0
          0 0 0 0 0 0
          0 0 0 0 0 0
          0 0 0 0 0 0
          0 0 0 0 0 0
          0 0 0 0 0 0
          0 0 0 0 0 0
          0 0 0 0 0 0
          0 0 0 0 0 0
          0 0 0 0 0 0
          0 0 0 0 0 0
          0 0 0 0 0 0
          0 0 0 0 0 0
          0 0 0 0 0 0
          0 0 0 0 0 0
          0 0 0 0 0 0
          0 0 0 0 0 0
          0 0 0 0 0 0
          0 0 0 0 0 0
          0 0 0 0 0 0
          0 0 0 0 0 0
          0 0 0 0 0 0
          0 0 0 0 0 0
          0 0 0 0 0 0
          0 0 0 0 0 0
          0 0 0 0 0 0
          0 0 0 0 0 0
          0 0 0 0 0 0
          0 0 0 0 0 0
          0 0 0 0 0 0
          0 0 0 0 0 0
          0 0 0 0 0 0
          0 0 0 0 0 0
          0 0 0 0 0 0
          0 0 0 0 0 0
          0 0 0 0 0 0
          0 0 0 0 0 0
          0 0 0 0 0 0
          0 0 0 0 0 0
          0 0 0 0 0 0
          0 0 0 0 0 0
          0 0 0 0 0 0
          0 0 0 0 0 0
          0 0 0 0 0 0
          0 0 0 0 0 0
          0 0 0 0 0 0
          0 0 0 0 0 0
          0 0 0 0 0 0
          0 0 0 0 0 0
          0 0 0 0 0 0
          0 0 0 0 0 0
          0 0 0 0
        </DataArray>
        <DataArray type="Float64" Name="initial_marker" format="ascii" RangeMin="0" RangeMax="2">
          2 1.25 0 0.75 2 0
          0 0 0 0 0 0.3333333333333333
          1.5 0.3333333333333333 2 0.3333333333333333 0.5 0
          0.5 0 1.5 0 1 0
          0 0 2 2 1 0
          0 2 0.5 2 2 2
          1.75 2 2 2 2 1.25
          2 2 0 0 0 0
          0 0 0 0 0 0
          0 0 0 0 0 0
          0 0 0 0 0 0
          0 0 0 0 0 0
          0 0 0 0 0 0
          0 0 0 0 0 0
          0 0 0 0 0 0
          1 1 2 2 2 2
          1 1.5 1 2 2 2
          2 2 1.5 2 2 2
          2 2 2 2 0 0.5
          0 1 1 0 1 0
          1 0 1 0 1 1
          2 2 2 0 0.75 0
          0.5 0 0.5 0 1.75 1.5
          1.6666666666666667 2 2 2 2 2
          2 2 2 2 2 2
          2 2 2 1 1.5 1
          1.5 0 1 1 2 2
          1.3333333333333333 1 1.5 1 1.25 0
          1 0.5 2 1.75 1.3333333333333333 0
          0 1 2 1.75 2 2
          0.5 0.75 0 0.5 0 0
          0 1.5 1.5 1 0 0.5
          0 0 1.5 1 2 2
          2 2 2 2 2 2
          2 2 2 2 2 2
          2 2 1.5 1.5 2 2
          2 2 2 1.5 1.6666666666666667 2
          2 2 2 2 2 2
          2 2 2 2 2 2
          2 2 2 2 2 2
          2 2 2 2 2 2
          2 2 2 2 2 2
          2 2 2 2 2 2
          2 2 2 2 2 2
          2 2 2 1.3333333333333333 2 2
          2 2 2 2 2 2
          1.75 2 2 2 2 1.25
          2 1.5 0 0.5 0 0.5
          0 0 0 1 1 0
          0 0.5 0 0.5 0 0
          0 1 1 0 1 1
          0 0 1 1 0 1
          1 0 0 1 1 0
          1 1 0.5 0.75 0 0
          0 1 1 0 0 0.25
          0 0 0 0 0 0.5
          0 0 0 0 0 0
          0 0 0 0 0 0
          0 0 1.5 0 0.25 0
          0 0 0 0 0 0
          0 0 0 0 0 0
          0 1 0 1.5 1 2
          2 2 2 2 2 2
          2 2 1 1 0 0
          1 0 0 0.5 0 0
          0.5 0 0.25 0 1 0
          0 0 0 0 0 0
          0 0 0 0 0 0
          0 0 0 0 0 0
          0 1 1 0.5 0 0.5
          0 1.5 1.5 2 1.5 2
          2 1.5 2 2 0.6666666666666666 0
          1.5 0.5 0 2 1.25 2
          2 2 2 2 2 2
          1.75 1.5 2 2 2 2
          2 2 2 2 2 2
          1.3333333333333333 2 2 1
        </DataArray>
        <DataArray type="Float64" Name="markers_norefine" format="ascii" RangeMin="0" RangeMax="0">
          0 0 0 0 0 0
          0 0 0 0 0 0
          0 0 0 0 0 0
          0 0 0 0 0 0
          0 0 0 0 0 0
          0 0 0 0 0 0
          0 0 0 0 0 0
          0 0 0 0 0 0
          0 0 0 0 0 0
          0 0 0 0 0 0
          0 0 0 0 0 0
          0 0 0 0 0 0
          0 0 0 0 0 0
          0 0 0 0 0 0
          0 0 0 0 0 0
          0 0 0 0 0 0
          0 0 0 0 0 0
          0 0 0 0 0 0
          0 0 0 0 0 0
          0 0 0 0 0 0
          0 0 0 0 0 0
          0 0 0 0 0 0
          0 0 0 0 0 0
          0 0 0 0 0 0
          0 0 0 0 0 0
          0 0 0 0 0 0
          0 0 0 0 0 0
          0 0 0 0 0 0
          0 0 0 0 0 0
          0 0 0 0 0 0
          0 0 0 0 0 0
          0 0 0 0 0 0
          0 0 0 0 0 0
          0 0 0 0 0 0
          0 0 0 0 0 0
          0 0 0 0 0 0
          0 0 0 0 0 0
          0 0 0 0 0 0
          0 0 0 0 0 0
          0 0 0 0 0 0
          0 0 0 0 0 0
          0 0 0 0 0 0
          0 0 0 0 0 0
          0 0 0 0 0 0
          0 0 0 0 0 0
          0 0 0 0 0 0
          0 0 0 0 0 0
          0 0 0 0 0 0
          0 0 0 0 0 0
          0 0 0 0 0 0
          0 0 0 0 0 0
          0 0 0 0 0 0
          0 0 0 0 0 0
          0 0 0 0 0 0
          0 0 0 0 0 0
          0 0 0 0 0 0
          0 0 0 0 0 0
          0 0 0 0 0 0
          0 0 0 0 0 0
          0 0 0 0 0 0
          0 0 0 0 0 0
          0 0 0 0 0 0
          0 0 0 0 0 0
          0 0 0 0 0 0
          0 0 0 0 0 0
          0 0 0 0 0 0
          0 0 0 0 0 0
          0 0 0 0 0 0
          0 0 0 0 0 0
          0 0 0 0 0 0
          0 0 0 0 0 0
          0 0 0 0 0 0
          0 0 0 0 0 0
          0 0 0 0 0 0
          0 0 0 0 0 0
          0 0 0 0 0 0
          0 0 0 0
        </DataArray>
        <DataArray type="Float64" Name="markers_mustrefine" format="ascii" RangeMin="0" RangeMax="2">
          2 1.25 0 0.75 2 0
          0 0 0 0 0 0.3333333333333333
          1.5 0.3333333333333333 2 0.3333333333333333 0.5 0
          0.5 0 1.5 0 1 0
          0 0 2 2 1 0
          0 2 0.5 2 2 2
          1.75 2 2 2 2 1.25
          2 2 0 0 0 0
          0 0 0 0 0 0
          0 0 0 0 0 0
          0 0 0 0 0 0
          0 0 0 0 0 0
          0 0 0 0 0 0
          0 0 0 0 0 0
          0 0 0 0 0 0
          1 1 2 2 2 2
          1 1.5 1 2 2 2
          2 2 1.5 2 2 2
          2 2 2 2 0 0.5
          0 1 1 0 1 0
          1 0 1 0 1 1
          2 2 2 0 0.75 0
          0.5 0 0.5 0 1.75 1.5
          1.6666666666666667 2 2 2 2 2
          2 2 2 2 2 2
          2 2 2 1 1.5 1
          1.5 0 1 1 2 2
          1.3333333333333333 1 1.5 1 1.25 0
          1 0.5 2 1.75 1.3333333333333333 0
          0 1 2 1.75 2 2
          0.5 0.75 0 0.5 0 0
          0 1.5 1.5 1 0 0.5
          0 0 1.5 1 2 2
          2 2 2 2 2 2
          2 2 2 2 2 2
          2 2 1.5 1.5 2 2
          2 2 2 1.5 1.6666666666666667 2
          2 2 2 2 2 2
          2 2 2 2 2 2
          2 2 2 2 2 2
          2 2 2 2 2 2
          2 2 2 2 2 2
          2 2 2 2 2 2
          2 2 2 2 2 2
          2 2 2 1.3333333333333333 2 2
          2 2 2 2 2 2
          1.75 2 2 2 2 1.25
          2 1.5 0 0.5 0 0.5
          0 0 0 1 1 0
          0 0.5 0 0.5 0 0
          0 1 1 0 1 1
          0 0 1 1 0 1
          1 0 0 1 1 0
          1 1 0.5 0.75 0 0
          0 1 1 0 0 0.25
          0 0 0 0 0 0.5
          0 0 0 0 0 0
          0 0 0 0 0 0
          0 0 1.5 0 0.25 0
          0 0 0 0 0 0
          0 0 0 0 0 0
          0 1 0 1.5 1 2
          2 2 2 2 2 2
          2 2 1 1 0 0
          1 0 0 0.5 0 0
          0.5 0 0.25 0 1 0
          0 0 0 0 0 0
          0 0 0 0 0 0
          0 0 0 0 0 0
          0 1 1 0.5 0 0.5
          0 1.5 1.5 2 1.5 2
          2 1.5 2 2 0.6666666666666666 0
          1.5 0.5 0 2 1.25 2
          2 2 2 2 2 2
          1.75 1.5 2 2 2 2
          2 2 2 2 2 2
          1.3333333333333333 2 2 1
        </DataArray>
        <DataArray type="Float64" Name="gradient_marker" format="ascii" RangeMin="0" RangeMax="1">
          0.5 0.5 1 1 1 1
          1 1 1 1 1 0.6666666666666666
          0.5 0.6666666666666666 0.5 0.6666666666666666 0.5 0.5
          0.5 1 1 1 1 1
          1 1 1 1 1 1
          1 1 1 1 1 1
          1 1 1 1 1 1
          1 1 1 1 1 1
          1 1 1 1 1 1
          1 1 1 1 1 1
          1 1 1 1 1 1
          1 1 1 1 1 1
          1 1 1 1 1 1
          1 1 1 1 1 1
          1 1 1 1 1 1
          1 1 1 1 1 1
          1 1 1 1 1 1
          1 1 1 1 1 1
          1 1 1 1 1 1
          1 1 1 1 1 1
          1 1 1 1 1 1
          1 1 1 1 1 1
          1 1 1 1 1 1
          1 1 1 1 1 1
          1 1 1 1 1 1
          1 1 1 1 1 1
          1 1 1 1 1 1
          1 1 1 1 1 1
          1 1 1 1 1 1
          1 1 1 1 1 1
          1 1 1 1 1 1
          1 1 1 1 1 1
          1 1 1 1 1 1
          1 1 1 1 1 1
          1 1 1 1 1 1
          1 1 1 1 1 1
          1 1 1 1 1 1
          1 1 1 1 1 1
          1 1 1 1 1 1
          1 1 1 1 1 1
          1 1 1 1 1 1
          1 1 1 1 1 1
          1 1 1 1 1 1
          1 1 1 1 1 1
          1 1 1 1 1 1
          1 1 1 1 1 1
          1 1 1 1 1 1
          1 1 1 1 1 1
          1 1 1 1 1 1
          1 1 1 1 1 1
          1 1 1 1 1 1
          1 1 1 1 1 1
          1 1 1 1 1 1
          1 1 1 1 1 1
          1 1 1 1 1 1
          1 1 1 1 1 1
          1 1 0.875 1 1 1
          0.75 1 1 1 0 0.625
          0.6666666666666666 0 0.25 0.5 0.125 1
          1 0.5 1 1 1 0.5
          1 1 1 1 1 1
          1 0 0 0 0 0.25
          0.625 0 0.5 0.75 0.125 0.5
          0.75 0.25 0 0 0 0
          0 0 1 1 1 1
          1 1 1 1 1 1
          1 1 0.6666666666666666 1 1 1
          1 1 1 1 1 1
          1 1 1 1 1 1
          1 1 1 1 1 1
          1 1 1 1 1 1
          1 1 1 1 1 1
          1 1 1 1 1 1
          1 1 1 1 1 1
          1 1 1 1 1 1
          1 1 1 1 1 1
          1 1 1 1
        </DataArray>
        <DataArray type="Float64" Name="gradient_matprop_marker" format="ascii" RangeMin="0" RangeMax="0">
          0 0 0 0 0 0
          0 0 0 0 0 0
          0 0 0 0 0 0
          0 0 0 0 0 0
          0 0 0 0 0 0
          0 0 0 0 0 0
          0 0 0 0 0 0
          0 0 0 0 0 0
          0 0 0 0 0 0
          0 0 0 0 0 0
          0 0 0 0 0 0
          0 0 0 0 0 0
          0 0 0 0 0 0
          0 0 0 0 0 0
          0 0 0 0 0 0
          0 0 0 0 0 0
          0 0 0 0 0 0
          0 0 0 0 0 0
          0 0 0 0 0 0
          0 0 0 0 0 0
          0 0 0 0 0 0
          0 0 0 0 0 0
          0 0 0 0 0 0
          0 0 0 0 0 0
          0 0 0 0 0 0
          0 0 0 0 0 0
          0 0 0 0 0 0
          0 0 0 0 0 0
          0 0 0 0 0 0
          0 0 0 0 0 0
          0 0 0 0 0 0
          0 0 0 0 0 0
          0 0 0 0 0 0
          0 0 0 0 0 0
          0 0 0 0 0 0
          0 0 0 0 0 0
          0 0 0 0 0 0
          0 0 0 0 0 0
          0 0 0 0 0 0
          0 0 0 0 0 0
          0 0 0 0 0 0
          0 0 0 0 0 0
          0 0 0 0 0 0
          0 0 0 0 0 0
          0 0 0 0 0 0
          0 0 0 0 0 0
          0 0 0 0 0 0
          0 0 0 0 0 0
          0 0 0 0 0 0
          0 0 0 0 0 0
          0 0 0 0 0 0
          0 0 0 0 0 0
          0 0 0 0 0 0
          0 0 0 0 0 0
          0 0 0 0 0 0
          0 0 0 0 0 0
          0 0 0 0 0 0
          0 0 0 0 0 0
          0 0 0 0 0 0
          0 0 0 0 0 0
          0 0 0 0 0 0
          0 0 0 0 0 0
          0 0 0 0 0 0
          0 0 0 0 0 0
          0 0 0 0 0 0
          0 0 0 0 0 0
          0 0 0 0 0 0
          0 0 0 0 0 0
          0 0 0 0 0 0
          0 0 0 0 0 0
          0 0 0 0 0 0
          0 0 0 0 0 0
          0 0 0 0 0 0
          0 0 0 0 0 0
          0 0 0 0 0 0
          0 0 0 0 0 0
          0 0 0 0
        </DataArray>
        <DataArray type="Float64" Name="combo" format="ascii" RangeMin="0" RangeMax="1">
          0.5 0.5 1 1 1 1
          1 1 1 1 1 0.6666666666666666
          0.5 0.6666666666666666 0.5 0.6666666666666666 0.5 0.5
          0.5 1 1 1 1 1
          1 1 1 1 1 1
          1 1 1 1 1 1
          1 1 1 1 1 1
          1 1 1 1 1 1
          1 1 1 1 1 1
          1 1 1 1 1 1
          1 1 1 1 1 1
          1 1 1 1 1 1
          1 1 1 1 1 1
          1 1 1 1 1 1
          1 1 1 1 1 1
          1 1 1 1 1 1
          1 1 1 1 1 1
          1 1 1 1 1 1
          1 1 1 1 1 1
          1 1 1 1 1 1
          1 1 1 1 1 1
          1 1 1 1 1 1
          1 1 1 1 1 1
          1 1 1 1 1 1
          1 1 1 1 1 1
          1 1 1 1 1 1
          1 1 1 1 1 1
          1 1 1 1 1 1
          1 1 1 1 1 1
          1 1 1 1 1 1
          1 1 1 1 1 1
          1 1 1 1 1 1
          1 1 1 1 1 1
          1 1 1 1 1 1
          1 1 1 1 1 1
          1 1 1 1 1 1
          1 1 1 1 1 1
          1 1 1 1 1 1
          1 1 1 1 1 1
          1 1 1 1 1 1
          1 1 1 1 1 1
          1 1 1 1 1 1
          1 1 1 1 1 1
          1 1 1 1 1 1
          1 1 1 1 1 1
          1 1 1 1 1 1
          1 1 1 1 1 1
          1 1 1 1 1 1
          1 1 1 1 1 1
          1 1 1 1 1 1
          1 1 1 1 1 1
          1 1 1 1 1 1
          1 1 1 1 1 1
          1 1 1 1 1 1
          1 1 1 1 1 1
          1 1 1 1 1 1
          1 1 0.875 1 1 1
          0.75 1 1 1 0 0.625
          0.6666666666666666 0 0.25 0.5 0.125 1
          1 0.5 1 1 1 0.5
          1 1 1 1 1 1
          1 0 0 0 0 0.25
          0.625 0 0.5 0.75 0.125 0.5
          0.75 0.25 0 0 0 0
          0 0 1 1 1 1
          1 1 1 1 1 1
          1 1 0.6666666666666666 1 1 1
          1 1 1 1 1 1
          1 1 1 1 1 1
          1 1 1 1 1 1
          1 1 1 1 1 1
          1 1 1 1 1 1
          1 1 1 1 1 1
          1 1 1 1 1 1
          1 1 1 1 1 1
          1 1 1 1 1 1
          1 1 1 1
        </DataArray>
        <DataArray type="Float64" Name="dHdT" format="ascii" RangeMin="25.81149359547633" RangeMax="35.44489384184935">