<?xml version="1.0"?>
<VTKFile type="UnstructuredGrid" version="0.1" byte_order="LittleEndian" header_type="UInt32" compressor="vtkZLibDataCompressor">
  <UnstructuredGrid>
    <Piece NumberOfPoints="498" NumberOfCells="252">
      <PointData>
        <DataArray type="Int32" Name="libmesh_node_id" format="ascii" RangeMin="18" RangeMax="4670">
          24 25 26 27 28 29
          30 31 32 33 34 35
          36 37 38 39 76 77
          78 79 80 81 82 83
          106 107 108 109 110 111
          112 113 114 115 133 134
          135 136 137 154 155 156
          157 158 159 160 161 162
          163 181 182 183 184 185
          202 203 204 205 206 207
          208 209 210 211 213 229
          230 231 232 233 234 250
          251 252 253 255 277 278
          279 280 281 282 298 299
          300 301 303 325 326 327
          348 528 529 530 531 532
          533 534 535 536 537 538
          539 540 541 542 543 546
          548 903 904 905 910 913
          914 915 916 917 918 924
          925 937 938 940 941 943
          945 948 951 953 1948 1949
          1950 1951 1954 1955 1956 1957
          4103 4104 4107 4108 4110 4111
          4112 4113 4114 4116 4117 4118
          4120 4121 4122 4123 4124 4125
          4126 4127 4128 4129 4130 4131
          4132 4133 4134 4195 4196 4197
          4198 4199 4200 4201 4202 4203
          4204 4205 4206 4207 4208 4209
          4210 4211 4212 4213 4214 4215
          4216 4217 4218 4219 4220 4221
          4222 4223 4224 4225 4226 4227
          4228 4229 4230 4231 4232 4233
          4234 4235 4236 4237 4238 4239
          4240 4241 4242 4243 4244 4245
          4246 4247 4248 4249 4250 4251
          4252 4253 4254 4255 4256 4257
          4258 4259 4260 4261 4262 4263
          4264 4265 4266 4267 4268 4269
          4270 4271 4272 4273 4274 4275
          4276 4277 4278 4323 4324 4325
          4326 4327 4328 4329 4330 4331
          4332 4333 4334 4335 4336 4337
          4338 4544 4545 4548 4549 4550
          4551 4553 4556 4558 4559 4560
          4561 4562 4563 4564 4565 4566
          4567 4568 4569 4570 4571 4574
          4575 4577 4580 4582 4583 4584
          4585 4586 4587 4588 4589 4590
          4591 4594 4595 4596 4597 4598
          4600 4601 4602 4603 4604 4605
          4606 4607 4608 4609 4610 4611
          4612 4613 4614 4615 4616 4617
          4618 4619 4620 4621 4622 4623
          4624 4625 4626 4627 4628 4629
          4630 4631 4632 4633 4634 4635
          4636 4637 4638 4639 4640 4641
          4642 4643 4644 4645 4646 4647
          4648 4649 4650 4651 4652 4653
          4654 4655 4656 4657 4658 4659
          4660 4661 4662 4663 4664 4665
          4666 4667 4668 4669 4670 20
          21 22 23 74 75 18
          19 104 105 73 132 152
          153 180 200 201 228 254
          249 276 257 259 261 338
          337 346 342 341 347 339
          376 364 377 544 545 378
          547 549 550 551 906 907
          908 909 911 912 343 356
          362 359 919 920 370 939
          349 942 944 946 354 947
          950 363 952 954 1952 1953
          336 4105 4106 4109 4115 248
          4119 4187 4190 573 575 574
          958 423 960 965 352 579
          351 968 568 569 572 302
          578 4315 4316 4319 297 4321
          324 4494 4495 4546 4547 4496
          4552 4499 4554 4555 4557 4572
          4573 4576 4578 4579 4581 4592
          4593 4536 4537 4540 4599 4542
        </DataArray>
        <DataArray type="Float64" Name="bounds" format="ascii" RangeMin="0" RangeMax="0">
          0 0 0 0 0 0
          0 0 0 0 0 0
          0 0 0 0 0 0
          0 0 0 0 0 0
          0 0 0 0 0 0
          0 0 0 0 0 0
          0 0 0 0 0 0
          0 0 0 0 0 0
          0 0 0 0 0 0
          0 0 0 0 0 0
          0 0 0 0 0 0
          0 0 0 0 0 0
          0 0 0 0 0 0
          0 0 0 0 0 0
          0 0 0 0 0 0
          0 0 0 0 0 0
          0 0 0 0 0 0
          0 0 0 0 0 0
          0 0 0 0 0 0
          0 0 0 0 0 0
          0 0 0 0 0 0
          0 0 0 0 0 0
          0 0 0 0 0 0
          0 0 0 0 0 0
          0 0 0 0 0 0
          0 0 0 0 0 0
          0 0 0 0 0 0
          0 0 0 0 0 0
          0 0 0 0 0 0
          0 0 0 0 0 0
          0 0 0 0 0 0
          0 0 0 0 0 0
          0 0 0 0 0 0
          0 0 0 0 0 0
          0 0 0 0 0 0
          0 0 0 0 0 0
          0 0 0 0 0 0
          0 0 0 0 0 0
          0 0 0 0 0 0
          0 0 0 0 0 0
          0 0 0 0 0 0
          0 0 0 0 0 0
          0 0 0 0 0 0
          0 0 0 0 0 0
          0 0 0 0 0 0
          0 0 0 0 0 0
          0 0 0 0 0 0
          0 0 0 0 0 0
          0 0 0 0 0 0
          0 0 0 0 0 0
          0 0 0 0 0 0
          0 0 0 0 0 0
          0 0 0 0 0 0
          0 0 0 0 0 0
          0 0 0 0 0 0
          0 0 0 0 0 0
          0 0 0 0 0 0
          0 0 0 0 0 0
          0 0 0 0 0 0
          0 0 0 0 0 0
          0 0 0 0 0 0
          0 0 0 0 0 0
          0 0 0 0 0 0
          0 0 0 0 0 0
          0 0 0 0 0 0
          0 0 0 0 0 0
          0 0 0 0 0 0
          0 0 0 0 0 0
          0 0 0 0 0 0
          0 0 0 0 0 0
          0 0 0 0 0 0
          0 0 0 0 0 0
          0 0 0 0 0 0
          0 0 0 0 0 0
          0 0 0 0 0 0
          0 0 0 0 0 0
          0 0 0 0 0 0
          0 0 0 0 0 0
          0 0 0 0 0 0
          0 0 0 0 0 0
          0 0 0 0 0 0
          0 0 0 0 0 0
          0 0 0 0 0 0
        </DataArray>
        <DataArray type="Float64" Name="gradient_error" format="ascii" RangeMin="5.383162731510941e-12" RangeMax="0.0000017018330113219983">
          1.2379176433546707e-9 6.785777886380949e-10 3.320428925657641e-9 1.8012947770848229e-9 9.432853978461643e-10 5.185617868412678e-10
          2.4676079199528802e-9 1.3449368415403942e-9 3.352766230560291e-10 1.8560374958670351e-10 8.745971302738878e-10 4.791741715533792e-10
          1.616441160896364e-11 1.077378717023729e-11 5.2967393249913015e-11 3.194812206051992e-11 1.19237933921519e-10 2.8216062851200423e-10
          9.383817583637118e-11 2.222657631279081e-10 3.5930876117377944e-11 8.375121283287076e-11 5.383162731510941e-12 1.092885087112681e-11
          1.3509984063802761e-8 7.1816105999521205e-9 1.410488971794782e-8 7.580539336153549e-9 1.0234267324153265e-8 5.536842432960461e-9
          3.678963334319895e-9 1.9972269854332584e-9 3.032323051370268e-10 1.7134382843522365e-10 8.532371361014799e-10 1.0561889543592767e-9
          8.394175417676562e-10 3.1549063654662255e-10 3.9455351733420514e-11 5.99187343557484e-8 3.143469387378601e-8 5.94117529859769e-8
          3.164624856196313e-8 4.218705776342815e-8 2.2661112165799635e-8 1.546931692891169e-8 8.323311664410191e-9 1.6579714690900142e-9
          8.992310135843959e-10 2.950653391823632e-9 3.880744137949361e-9 3.1351665681711267e-9 1.1773063999086938e-9 1.404905580787774e-10
          7.983837968059661e-8 3.461305459587101e-8 1.562202111934277e-7 8.096383685479698e-8 1.342880141371176e-7 7.12863389611884e-8
          1.5593866559596973e-8 9.061245335829617e-9 1.8921528921460053e-9 1.0431127044682354e-9 2.9201017165349557e-10 9.881702071338241e-9
          1.4678769222417671e-8 1.2309909680518962e-8 4.639385692250666e-9 5.200006472731566e-10 2.8370104500938174e-10 5.856675813763742e-8
          1.3440403092577048e-7 3.31596305068526e-7 1.3672146517718496e-7 9.44789241245012e-8 8.865977918103717e-9 1.356311450077878e-8
          1.1713337910680246e-8 4.066175832650047e-9 5.129380521856209e-10 2.896948883442249e-10 8.153328143768567e-7 1.8951829663193076e-7
          0.0000011085951923937786 1.1632758540392427e-7 6.097566811329112e-8 2.2698565071150106e-8 9.331025259080632e-9 2.8062634105187985e-9
          5.628861463321662e-8 6.876212593271935e-7 4.5313681234927745e-7 2.608572611526428e-7 8.599180768348991e-7 0.0000010192116752266802
          5.724618606165043e-7 5.292413032491774e-7 1.1605966400325604e-7 8.361092450589942e-8 1.1366414027445884e-7 0.000001328223601936733
          0.0000011632118055020581 0.0000010712630996445996 8.517562156537022e-8 3.3843072006202897e-10 4.254672596836709e-10 2.5693678759970686e-10
          1.6661034415351154e-10 2.692787488675727e-9 1.6176595247733885e-9 4.0823467123302084e-9 6.591289510124823e-10 5.425315608710502e-10
          2.0683719491212118e-9 5.677826447060293e-9 1.1169231471709357e-9 2.910844736764265e-10 2.834617703607724e-10 2.7583906704511827e-10
          8.851473433853638e-10 3.915523736252714e-9 7.324110597814911e-9 8.304584298623033e-9 1.2936376826706106e-9 2.089769317886047e-9
          3.277655637033875e-9 9.285057999431153e-9 5.690903961072775e-10 2.8878290032856354e-10 1.7948466800821853e-8 1.257702949718669e-8
          1.922623290706636e-8 4.114303570117992e-8 3.153328992207095e-8 7.205592193551523e-9 1.5202704527638246e-8 2.1923544142961988e-8
          6.27548977466388e-8 4.1428662637762855e-8 5.315139921124229e-8 5.0080175038819806e-8 4.141532573606426e-8 5.1046297890322106e-8
          4.8400391277650576e-8 2.010242752888691e-8 4.700895086639732e-8 4.5754484664979053e-8 5.8385061381324227e-8 1.7782794019340247e-7
          1.5570795011024635e-7 2.0352374954628197e-7 6.007075971653059e-8 4.1125162444921656e-8 5.641417405278797e-8 5.0369573847236884e-8
          4.082458866350454e-8 6.179181762343565e-8 5.269628826548854e-8 2.2179565173312736e-8 4.4324973641685787e-8 4.360075890754144e-8
          7.125987231704547e-8 1.3832117451059965e-7 1.4712554220097135e-7 6.124234632823529e-7 4.964914839211416e-7 6.404470325716285e-7
          4.830942790059315e-7 2.2167475361787346e-7 1.8267542417152837e-7 7.078688216853555e-7 8.34486252141226e-7 9.061905605277544e-7
          2.267402711273933e-7 6.680900000249418e-7 4.656137282213127e-7 1.4639403404141922e-7 9.464679348935805e-7 9.851819156792597e-7
          1.5200484976073374e-7 8.934653756912527e-9 7.872191049397582e-9 1.0722837929103662e-8 1.6631387435420433e-8 4.4023448786744254e-9
          4.3632762722126204e-9 6.596954753042752e-9 1.2511022101294796e-8 2.5390583821443286e-8 4.324207665750816e-9 1.839770457070399e-7
          2.039965899096801e-7 2.9312538490956565e-7 3.148636060454995e-7 4.1734331876645045e-8 6.313200267626936e-8 8.035792461604497e-8
          4.022737241120913e-7 4.2573062218131886e-7 8.452967347589368e-8 0.0000013034966394243987 0.000001136744883696013 7.795595446596754e-7
          0.0000011801417616566023 0.0000012566032735710974 0.0000012341830638323387 0.0000011685099297186471 0.0000011687849145895595 0.00000133951284653145
          0.0000013041502169984873 6.913927833943773e-7 9.040105912549283e-7 8.794267505222188e-7 9.274993571928948e-7 0.0000012097099077177963
          0.000001331621243968664 0.0000012363313818466363 0.000001439515519407415 0.0000011166283991154792 0.0000013997180933399315 0.0000012005217612750801
          0.0000014333070386148403 0.0000013811496917645702 6.892500572306872e-7 9.499676710829543e-7 0.000001466895983889749 0.0000015617776222540607
          0.0000012106852849352215 2.540639982919386e-7 2.671380035922511e-7 3.6469476003910283e-7 3.759849158995625e-7 2.3921630659737855e-7
          3.509255484786695e-7 9.533555776275005e-8 1.3313119166192907e-7 1.4999442853537922e-7 1.1563997003707425e-7 4.753255217862671e-7
          4.848318282068739e-7 4.6263479035996054e-7 1.7092682556110811e-7 2.2253780227296735e-7 3.344106458651007e-7 6.790091929478882e-8
          9.787829447859294e-8 4.46283489457234e-7 1.2785566966239704e-7 1.0333534437645113e-8 5.5617980983129307e-8 5.469119911292419e-9
          3.883613808373677e-8 3.1882105690478716e-9 1.5987842752088984e-8 1.261656952212105e-8 1.0090242752861348e-7 7.220315625618113e-8
          2.87874749351301e-8 5.358533799717892e-9 2.5775135506716014e-8 2.8741183686022393e-9 9.398377536365673e-9 4.619173721371412e-8
          1.5922636704129105e-8 7.379277916574665e-8 7.615511979331509e-8 7.394684592598162e-8 1.8778083542303455e-7 1.669535646091459e-7
          7.851746042088353e-8 1.461262937952572e-7 5.600980470000767e-7 7.416542664990947e-8 7.273044031897316e-8 1.7958488254092135e-7
          1.59047851040824e-7 7.279182287850623e-8 1.7040294596945624e-7 1.5023638780433282e-7 7.129545398803686e-8 1.3851081954072666e-7
          1.3006982963920935e-7 6.264921006060258e-7 5.702671774287413e-7 5.799101745418931e-7 4.931710595188117e-7 8.151881497453974e-7
          8.468351279332891e-7 7.295451015032423e-7 8.334344451587348e-7 8.634556104832704e-7 8.906936031704969e-7 9.161856031860444e-7
          9.380422319816835e-7 7.531653296900207e-7 7.774561362326385e-7 7.589313581864223e-7 8.862181132461859e-7 9.439450676097401e-7
          8.694371626485323e-7 3.14134809017364e-7 4.0467630395443887e-7 1.8571643304336568e-7 2.377078995271233e-7 2.2874451102357417e-7
          4.952177988915137e-7 2.8969936601088097e-7 3.094658673026936e-7 4.035008491761899e-7 3.036829233610227e-7 4.0112962318939503e-7
          1.675030645518656e-7 2.1860263483006146e-7 2.072458346908355e-7 4.975358310496862e-7 4.985763230177673e-7 2.697022051082573e-7
          8.196991468336566e-8 7.45002986507063e-8 1.6021230358801934e-7 1.4050538601975786e-7 7.837779426315913e-8 1.4913356368198852e-7
          1.2993815985200532e-7 6.703068261804693e-8 1.2079846845149638e-7 1.1074275602202213e-7 6.542786180570919e-7 5.889314042637187e-7
          5.972783963610198e-7 4.981621711253726e-7 1.0092145168900733e-7 8.503216606138719e-8 1.3760440077852877e-7 1.1883839177086091e-7
          8.911748038754825e-8 1.3180259976298804e-7 1.1320957959262959e-7 6.914288043376704e-8 1.0007238276319308e-7 9.461655942227114e-8
          6.823081773305795e-7 6.051151483515413e-7 4.970387853175532e-7 9.738765026929117e-7 9.892404706727219e-7 0.0000010370714819122663
          0.0000010446881306872282 8.023654547507278e-7 8.278158423047442e-7 8.776504617643122e-7 0.000001007128606206816 0.0000010763179940932685
          9.447707799558695e-7 0.000001106384822144752 0.0000011048539403020011 8.537215637988607e-7 0.0000010224406394963946 0.0000011521222013812543
          0.0000010273858921677013 2.9667917502085104e-7 3.9739475502174675e-7 2.8833354308927794e-7 3.921029315105718e-7 1.460402176062751e-7
          1.946630391945706e-7 1.8087895787384545e-7 4.981103350226426e-7 4.958723199318657e-7 2.432858607828661e-7 2.7852298142524833e-7
          3.8504017665028346e-7 1.2177384564284306e-7 1.6596028416209567e-7 4.915573718753185e-7 2.101467226813483e-7 1.076345187078533e-9
          5.891975771219983e-10 3.013152834061696e-9 1.6248863508513986e-9 1.0204996716546338e-10 2.366198676411014e-10 2.778033224563009e-9
          1.4812759885652124e-9 1.3156042391536274e-8 6.8807712114481156e-9 1.845187525674158e-10 6.055000313599579e-10 6.128138560042579e-8
          3.152143126342127e-8 1.7614769264167404e-9 8.288838828298283e-8 3.2757025142408676e-8 4.7663044844443216e-9 3.501718119849134e-7
          1.764534889264098e-7 5.76172856418525e-9 1.2209916992036396e-8 1.4771062691251676e-9 8.596649723289941e-10 2.2453406998942446e-7
          8.420467531157902e-8 3.512073347596731e-8 4.988675579567839e-7 3.90826526976147e-7 3.224182062790501e-8 9.665082823109563e-7
          1.4135284489574791e-9 1.8517401726490813e-9 1.4491064753441329e-9 8.730319772796419e-10 1.1161211623799457e-9 8.347713001559336e-10
          4.148685705871879e-10 3.699800279526867e-10 4.791325228300083e-10 1.8164769816831842e-10 1.2398221868785429e-8 4.475484891429797e-9
          3.2719284202755044e-9 9.03802415792286e-9 1.984927519210287e-9 1.5509253331906112e-9 1.5668194149946822e-8 5.5972905029459065e-9
          4.290300754869704e-9 3.976229719943625e-9 9.414122908537811e-10 9.132798171195724e-10 3.196498470625709e-9 7.090202170729517e-9
          1.3968630927726552e-8 4.649802575833113e-9 2.764673335430895e-9 1.8249345326620326e-9 3.931314322412091e-8 1.026488060520632e-8
          3.4395773529757428e-9 4.315695045024255e-9 2.1653244082546573e-9 8.727263663096686e-10 2.995459945092148e-8 2.2578651989279863e-8
          1.208955281073103e-7 4.27761862009581e-8 5.704334521898693e-8 5.26404595170515e-8 4.823757381511606e-8 6.256750724908059e-8
          1.9976652068114845e-7 5.062209112591703e-7 2.611254852668985e-7 6.706170307206115e-7 9.70735163990733e-7 9.856462841452305e-7
          1.6309669237163898e-7 7.61812373310471e-7 2.7105722568997624e-7 4.562540883940555e-8 0.0000012586161435834972 0.0000013006755375698492
          8.963966653364864e-7 3.790177590083135e-7 0.0000012297306615898674 0.0000015394626324053533 0.0000014657818364559326 0.0000016317074962014008
          0.0000017018330113219983 1.817974910276543e-8 7.444338155924798e-8 1.9064635942074936e-8 2.6268945014517377e-7 1.3070701401573057e-7
          3.3540938318190914e-8 7.937685310514369e-8 2.0152998437143787e-7 1.9504513102974725e-7 1.7400166723886573e-7 1.8030294445490585e-7
          1.5295820344798417e-7 1.5907590453837386e-7 5.982786508791362e-7 5.495124126068783e-7 4.837884965098656e-7 7.709305266421799e-7
          8.061473670788359e-7 7.066373251521799e-7 6.616012344198355e-7 7.851181236283316e-7 8.012913787771038e-7 3.1779478695186083e-7
          4.048091711579956e-7 3.205411540897833e-7 4.040332996787799e-7 2.4554771685002864e-7 4.918235553641304e-7 4.875254452677764e-7
        </DataArray>
        <DataArray type="Float64" Name="gradient_matprop_error" format="ascii" RangeMin="0" RangeMax="0">
          0 0 0 0 0 0
          0 0 0 0 0 0
          0 0 0 0 0 0
          0 0 0 0 0 0
          0 0 0 0 0 0
          0 0 0 0 0 0
          0 0 0 0 0 0
          0 0 0 0 0 0
          0 0 0 0 0 0
          0 0 0 0 0 0
          0 0 0 0 0 0
          0 0 0 0 0 0
          0 0 0 0 0 0
          0 0 0 0 0 0
          0 0 0 0 0 0
          0 0 0 0 0 0
          0 0 0 0 0 0
          0 0 0 0 0 0
          0 0 0 0 0 0
          0 0 0 0 0 0
          0 0 0 0 0 0
          0 0 0 0 0 0
          0 0 0 0 0 0
          0 0 0 0 0 0
          0 0 0 0 0 0
          0 0 0 0 0 0
          0 0 0 0 0 0
          0 0 0 0 0 0
          0 0 0 0 0 0
          0 0 0 0 0 0
          0 0 0 0 0 0
          0 0 0 0 0 0
          0 0 0 0 0 0
          0 0 0 0 0 0
          0 0 0 0 0 0
          0 0 0 0 0 0
          0 0 0 0 0 0
          0 0 0 0 0 0
          0 0 0 0 0 0
          0 0 0 0 0 0
          0 0 0 0 0 0
          0 0 0 0 0 0
          0 0 0 0 0 0
          0 0 0 0 0 0
          0 0 0 0 0 0
          0 0 0 0 0 0
          0 0 0 0 0 0
          0 0 0 0 0 0
          0 0 0 0 0 0
          0 0 0 0 0 0
          0 0 0 0 0 0
          0 0 0 0 0 0
          0 0 0 0 0 0
          0 0 0 0 0 0
          0 0 0 0 0 0
          0 0 0 0 0 0
          0 0 0 0 0 0
          0 0 0 0 0 0
          0 0 0 0 0 0
          0 0 0 0 0 0
          0 0 0 0 0 0
          0 0 0 0 0 0
          0 0 0 0 0 0
          0 0 0 0 0 0
          0 0 0 0 0 0
          0 0 0 0 0 0
          0 0 0 0 0 0
          0 0 0 0 0 0
          0 0 0 0 0 0
          0 0 0 0 0 0
          0 0 0 0 0 0
          0 0 0 0 0 0
          0 0 0 0 0 0
          0 0 0 0 0 0
          0 0 0 0 0 0
          0 0 0 0 0 0
          0 0 0 0 0 0
          0 0 0 0 0 0
          0 0 0 0 0 0
          0 0 0 0 0 0
          0 0 0 0 0 0
          0 0 0 0 0 0
          0 0 0 0 0 0
        </DataArray>
        <DataArray type="Float64" Name="initial_marker" format="ascii" RangeMin="0" RangeMax="0">
          0 0 0 0 0 0
          0 0 0 0 0 0
          0 0 0 0 0 0
          0 0 0 0 0 0
          0 0 0 0 0 0
          0 0 0 0 0 0
          0 0 0 0 0 0
          0 0 0 0 0 0
          0 0 0 0 0 0
          0 0 0 0 0 0
          0 0 0 0 0 0
          0 0 0 0 0 0
          0 0 0 0 0 0
          0 0 0 0 0 0
          0 0 0 0 0 0
          0 0 0 0 0 0
          0 0 0 0 0 0
          0 0 0 0 0 0
          0 0 0 0 0 0
          0 0 0 0 0 0
          0 0 0 0 0 0
          0 0 0 0 0 0
          0 0 0 0 0 0
          0 0 0 0 0 0
          0 0 0 0 0 0
          0 0 0 0 0 0
          0 0 0 0 0 0
          0 0 0 0 0 0
          0 0 0 0 0 0
          0 0 0 0 0 0
          0 0 0 0 0 0
          0 0 0 0 0 0
          0 0 0 0 0 0
          0 0 0 0 0 0
          0 0 0 0 0 0
          0 0 0 0 0 0
          0 0 0 0 0 0
          0 0 0 0 0 0
          0 0 0 0 0 0
          0 0 0 0 0 0
          0 0 0 0 0 0
          0 0 0 0 0 0
          0 0 0 0 0 0
          0 0 0 0 0 0
          0 0 0 0 0 0
          0 0 0 0 0 0
          0 0 0 0 0 0
          0 0 0 0 0 0
          0 0 0 0 0 0
          0 0 0 0 0 0
          0 0 0 0 0 0
          0 0 0 0 0 0
          0 0 0 0 0 0
          0 0 0 0 0 0
          0 0 0 0 0 0
          0 0 0 0 0 0
          0 0 0 0 0 0
          0 0 0 0 0 0
          0 0 0 0 0 0
          0 0 0 0 0 0
          0 0 0 0 0 0
          0 0 0 0 0 0
          0 0 0 0 0 0
          0 0 0 0 0 0
          0 0 0 0 0 0
          0 0 0 0 0 0
          0 0 0 0 0 0
          0 0 0 0 0 0
          0 0 0 0 0 0
          0 0 0 0 0 0
          0 0 0 0 0 0
          0 0 0 0 0 0
          0 0 0 0 0 0
          0 0 0 0 0 0
          0 0 0 0 0 0
          0 0 0 0 0 0
          0 0 0 0 0 0
          0 0 0 0 0 0
          0 0 0 0 0 0
          0 0 0 0 0 0
          0 0 0 0 0 0
          0 0 0 0 0 0
          0 0 0 0 0 0
        </DataArray>
        <DataArray type="Float64" Name="markers_norefine" format="ascii" RangeMin="0" RangeMax="0">
          0 0 0 0 0 0
          0 0 0 0 0 0
          0 0 0 0 0 0
          0 0 0 0 0 0
          0 0 0 0 0 0
          0 0 0 0 0 0
          0 0 0 0 0 0
          0 0 0 0 0 0
          0 0 0 0 0 0
          0 0 0 0 0 0
          0 0 0 0 0 0
          0 0 0 0 0 0
          0 0 0 0 0 0
          0 0 0 0 0 0
          0 0 0 0 0 0
          0 0 0 0 0 0
          0 0 0 0 0 0
          0 0 0 0 0 0
          0 0 0 0 0 0
          0 0 0 0 0 0
          0 0 0 0 0 0
          0 0 0 0 0 0
          0 0 0 0 0 0
          0 0 0 0 0 0
          0 0 0 0 0 0
          0 0 0 0 0 0
          0 0 0 0 0 0
          0 0 0 0 0 0
          0 0 0 0 0 0
          0 0 0 0 0 0
          0 0 0 0 0 0
          0 0 0 0 0 0
          0 0 0 0 0 0
          0 0 0 0 0 0
          0 0 0 0 0 0
          0 0 0 0 0 0
          0 0 0 0 0 0
          0 0 0 0 0 0
          0 0 0 0 0 0
          0 0 0 0 0 0
          0 0 0 0 0 0
          0 0 0 0 0 0
          0 0 0 0 0 0
          0 0 0 0 0 0
          0 0 0 0 0 0
          0 0 0 0 0 0
          0 0 0 0 0 0
          0 0 0 0 0 0
          0 0 0 0 0 0
          0 0 0 0 0 0
          0 0 0 0 0 0
          0 0 0 0 0 0
          0 0 0 0 0 0
          0 0 0 0 0 0
          0 0 0 0 0 0
          0 0 0 0 0 0
          0 0 0 0 0 0
          0 0 0 0 0 0
          0 0 0 0 0 0
          0 0 0 0 0 0
          0 0 0 0 0 0
          0 0 0 0 0 0
          0 0 0 0 0 0
          0 0 0 0 0 0
          0 0 0 0 0 0
          0 0 0 0 0 0
          0 0 0 0 0 0
          0 0 0 0 0 0
          0 0 0 0 0 0
          0 0 0 0 0 0
          0 0 0 0 0 0
          0 0 0 0 0 0
          0 0 0 0 0 0
          0 0 0 0 0 0
          0 0 0 0 0 0
          0 0 0 0 0 0
          0 0 0 0 0 0
          0 0 0 0 0 0
          0 0 0 0 0 0
          0 0 0 0 0 0
          0 0 0 0 0 0
          0 0 0 0 0 0
          0 0 0 0 0 0
        </DataArray>
        <DataArray type="Float64" Name="markers_mustrefine" format="ascii" RangeMin="0" RangeMax="0">
          0 0 0 0 0 0
          0 0 0 0 0 0
          0 0 0 0 0 0
          0 0 0 0 0 0
          0 0 0 0 0 0
          0 0 0 0 0 0
          0 0 0 0 0 0
          0 0 0 0 0 0
          0 0 0 0 0 0
          0 0 0 0 0 0
          0 0 0 0 0 0
          0 0 0 0 0 0
          0 0 0 0 0 0
          0 0 0 0 0 0
          0 0 0 0 0 0
          0 0 0 0 0 0
          0 0 0 0 0 0
          0 0 0 0 0 0
          0 0 0 0 0 0
          0 0 0 0 0 0
          0 0 0 0 0 0
          0 0 0 0 0 0
          0 0 0 0 0 0
          0 0 0 0 0 0
          0 0 0 0 0 0
          0 0 0 0 0 0
          0 0 0 0 0 0
          0 0 0 0 0 0
          0 0 0 0 0 0
          0 0 0 0 0 0
          0 0 0 0 0 0
          0 0 0 0 0 0
          0 0 0 0 0 0
          0 0 0 0 0 0
          0 0 0 0 0 0
          0 0 0 0 0 0
          0 0 0 0 0 0
          0 0 0 0 0 0
          0 0 0 0 0 0
          0 0 0 0 0 0
          0 0 0 0 0 0
          0 0 0 0 0 0
          0 0 0 0 0 0
          0 0 0 0 0 0
          0 0 0 0 0 0
          0 0 0 0 0 0
          0 0 0 0 0 0
          0 0 0 0 0 0
          0 0 0 0 0 0
          0 0 0 0 0 0
          0 0 0 0 0 0
          0 0 0 0 0 0
          0 0 0 0 0 0
          0 0 0 0 0 0
          0 0 0 0 0 0
          0 0 0 0 0 0
          0 0 0 0 0 0
          0 0 0 0 0 0
          0 0 0 0 0 0
          0 0 0 0 0 0
          0 0 0 0 0 0
          0 0 0 0 0 0
          0 0 0 0 0 0
          0 0 0 0 0 0
          0 0 0 0 0 0
          0 0 0 0 0 0
          0 0 0 0 0 0
          0 0 0 0 0 0
          0 0 0 0 0 0
          0 0 0 0 0 0
          0 0 0 0 0 0
          0 0 0 0 0 0
          0 0 0 0 0 0
          0 0 0 0 0 0
          0 0 0 0 0 0
          0 0 0 0 0 0
          0 0 0 0 0 0
          0 0 0 0 0 0
          0 0 0 0 0 0
          0 0 0 0 0 0
          0 0 0 0 0 0
          0 0 0 0 0 0
          0 0 0 0 0 0
        </DataArray>
        <DataArray type="Float64" Name="gradient_marker" format="ascii" RangeMin="1" RangeMax="1">
          1 1 1 1 1 1
          1 1 1 1 1 1
          1 1 1 1 1 1
          1 1 1 1 1 1
          1 1 1 1 1 1
          1 1 1 1 1 1
          1 1 1 1 1 1
          1 1 1 1 1 1
          1 1 1 1 1 1
          1 1 1 1 1 1
          1 1 1 1 1 1
          1 1 1 1 1 1
          1 1 1 1 1 1
          1 1 1 1 1 1
          1 1 1 1 1 1
          1 1 1 1 1 1
          1 1 1 1 1 1
          1 1 1 1 1 1
          1 1 1 1 1 1
          1 1 1 1 1 1
          1 1 1 1 1 1
          1 1 1 1 1 1
          1 1 1 1 1 1
          1 1 1 1 1 1
          1 1 1 1 1 1
          1 1 1 1 1 1
          1 1 1 1 1 1
          1 1 1 1 1 1
          1 1 1 1 1 1
          1 1 1 1 1 1
          1 1 1 1 1 1
          1 1 1 1 1 1
          1 1 1 1 1 1
          1 1 1 1 1 1
          1 1 1 1 1 1
          1 1 1 1 1 1
          1 1 1 1 1 1
          1 1 1 1 1 1
          1 1 1 1 1 1
          1 1 1 1 1 1
          1 1 1 1 1 1
          1 1 1 1 1 1
          1 1 1 1 1 1
          1 1 1 1 1 1
          1 1 1 1 1 1
          1 1 1 1 1 1
          1 1 1 1 1 1
          1 1 1 1 1 1
          1 1 1 1 1 1
          1 1 1 1 1 1
          1 1 1 1 1 1
          1 1 1 1 1 1
          1 1 1 1 1 1
          1 1 1 1 1 1
          1 1 1 1 1 1
          1 1 1 1 1 1
          1 1 1 1 1 1
          1 1 1 1 1 1
          1 1 1 1 1 1
          1 1 1 1 1 1
          1 1 1 1 1 1
          1 1 1 1 1 1
          1 1 1 1 1 1
          1 1 1 1 1 1
          1 1 1 1 1 1
          1 1 1 1 1 1
          1 1 1 1 1 1
          1 1 1 1 1 1
          1 1 1 1 1 1
          1 1 1 1 1 1
          1 1 1 1 1 1
          1 1 1 1 1 1
          1 1 1 1 1 1
          1 1 1 1 1 1
          1 1 1 1 1 1
          1 1 1 1 1 1
          1 1 1 1 1 1
          1 1 1 1 1 1
          1 1 1 1 1 1
          1 1 1 1 1 1
          1 1 1 1 1 1
          1 1 1 1 1 1
          1 1 1 1 1 1
        </DataArray>
        <DataArray type="Float64" Name="gradient_matprop_marker" format="ascii" RangeMin="0" RangeMax="0">
          0 0 0 0 0 0
          0 0 0 0 0 0
          0 0 0 0 0 0
          0 0 0 0 0 0
          0 0 0 0 0 0
          0 0 0 0 0 0
          0 0 0 0 0 0
          0 0 0 0 0 0
          0 0 0 0 0 0
          0 0 0 0 0 0
          0 0 0 0 0 0
          0 0 0 0 0 0
          0 0 0 0 0 0
          0 0 0 0 0 0
          0 0 0 0 0 0
          0 0 0 0 0 0
          0 0 0 0 0 0
          0 0 0 0 0 0
          0 0 0 0 0 0
          0 0 0 0 0 0
          0 0 0 0 0 0
          0 0 0 0 0 0
          0 0 0 0 0 0
          0 0 0 0 0 0
          0 0 0 0 0 0
          0 0 0 0 0 0
          0 0 0 0 0 0
          0 0 0 0 0 0
          0 0 0 0 0 0
          0 0 0 0 0 0
          0 0 0 0 0 0
          0 0 0 0 0 0
          0 0 0 0 0 0
          0 0 0 0 0 0
          0 0 0 0 0 0
          0 0 0 0 0 0
          0 0 0 0 0 0
          0 0 0 0 0 0
          0 0 0 0 0 0
          0 0 0 0 0 0
          0 0 0 0 0 0
          0 0 0 0 0 0
          0 0 0 0 0 0
          0 0 0 0 0 0
          0 0 0 0 0 0
          0 0 0 0 0 0
          0 0 0 0 0 0
          0 0 0 0 0 0
          0 0 0 0 0 0
          0 0 0 0 0 0
          0 0 0 0 0 0
          0 0 0 0 0 0
          0 0 0 0 0 0
          0 0 0 0 0 0
          0 0 0 0 0 0
          0 0 0 0 0 0
          0 0 0 0 0 0
          0 0 0 0 0 0
          0 0 0 0 0 0
          0 0 0 0 0 0
          0 0 0 0 0 0
          0 0 0 0 0 0
          0 0 0 0 0 0
          0 0 0 0 0 0
          0 0 0 0 0 0
          0 0 0 0 0 0
          0 0 0 0 0 0
          0 0 0 0 0 0
          0 0 0 0 0 0
          0 0 0 0 0 0
          0 0 0 0 0 0
          0 0 0 0 0 0
          0 0 0 0 0 0
          0 0 0 0 0 0
          0 0 0 0 0 0
          0 0 0 0 0 0
          0 0 0 0 0 0
          0 0 0 0 0 0
          0 0 0 0 0 0
          0 0 0 0 0 0
          0 0 0 0 0 0
          0 0 0 0 0 0
          0 0 0 0 0 0
        </DataArray>
        <DataArray type="Float64" Name="combo" format="ascii" RangeMin="1" RangeMax="1">
          1 1 1 1 1 1
          1 1 1 1 1 1
          1 1 1 1 1 1
          1 1 1 1 1 1
          1 1 1 1 1 1
          1 1 1 1 1 1
          1 1 1 1 1 1
          1 1 1 1 1 1
          1 1 1 1 1 1
          1 1 1 1 1 1
          1 1 1 1 1 1
          1 1 1 1 1 1
          1 1 1 1 1 1
          1 1 1 1 1 1
          1 1 1 1 1 1
          1 1 1 1 1 1
          1 1 1 1 1 1
          1 1 1 1 1 1
          1 1 1 1 1 1
          1 1 1 1 1 1
          1 1 1 1 1 1
          1 1 1 1 1 1
          1 1 1 1 1 1
          1 1 1 1 1 1
          1 1 1 1 1 1
          1 1 1 1 1 1
          1 1 1 1 1 1
          1 1 1 1 1 1
          1 1 1 1 1 1
          1 1 1 1 1 1
          1 1 1 1 1 1
          1 1 1 1 1 1
          1 1 1 1 1 1
          1 1 1 1 1 1
          1 1 1 1 1 1
          1 1 1 1 1 1
          1 1 1 1 1 1
          1 1 1 1 1 1
          1 1 1 1 1 1
          1 1 1 1 1 1
          1 1 1 1 1 1
          1 1 1 1 1 1
          1 1 1 1 1 1
          1 1 1 1 1 1
          1 1 1 1 1 1
          1 1 1 1 1 1