<?xml version="1.0"?>
<VTKFile type="UnstructuredGrid" version="0.1" byte_order="LittleEndian" header_type="UInt32" compressor="vtkZLibDataCompressor">
  <UnstructuredGrid>
    <Piece NumberOfPoints="446" NumberOfCells="259">
      <PointData>
        <DataArray type="Int32" Name="libmesh_node_id" format="ascii" RangeMin="310" RangeMax="4102">
          310 388 505 516 519 524
          867 868 869 870 871 875
          876 877 889 890 891 892
          893 894 895 899 900 901
          1229 1230 1231 1844 1846 1847
          1848 1849 1850 1851 1852 1853
          1854 1855 1856 1857 1858 1859
          1870 1871 1872 1873 1874 1875
          1876 1878 1882 1883 1885 1888
          1890 1891 1892 1893 1894 1895
          1896 1897 1898 1899 1908 1912
          1934 1935 1936 1937 1938 1939
          1940 1941 1942 1943 1944 1945
          1946 1947 2065 2066 2067 2068
          2069 2070 2071 2072 2073 2074
          2102 2103 2104 2105 2106 2107
          2108 2109 2110 2111 2112 2113
          2114 2115 2116 2117 2118 2119
          2120 2121 3659 3660 3662 3665
          3676 3677 3680 3682 3684 3685
          3686 3687 3688 3689 3690 3691
          3692 3693 3694 3695 3696 3697
          3698 3699 3700 3701 3702 3703
          3704 3705 3706 3707 3708 3709
          3710 3711 3712 3713 3714 3715
          3716 3717 3718 3719 3720 3721
          3722 3723 3724 3725 3726 3727
          3728 3729 3730 3731 3744 3745
          3748 3750 3762 3763 3764 3765
          3766 3767 3768 3769 3770 3771
          3784 3785 3787 3790 3800 3802
          3804 3818 3819 3821 3824 3834
          3836 3838 3840 3841 3842 3843
          3844 3845 3846 3847 3848 3849
          3850 3851 3852 3853 3854 3855
          3856 3857 3858 3859 3860 3861
          3862 3863 3864 3865 3866 3867
          3868 3869 3870 3871 3872 3873
          3874 3875 3876 3877 3878 3879
          3880 3881 3882 3883 3884 3885
          3886 3887 3888 3889 3890 3891
          3892 3893 3894 3895 3896 3897
          3898 3899 3900 3901 3902 3903
          3904 3905 3906 3907 3916 3920
          3947 3951 3967 3968 3969 3970
          3971 3972 3974 3975 3976 3977
          3978 3979 3980 3981 3982 3983
          3984 3985 3988 3989 3991 3992
          3993 3994 3995 3996 3997 4062
          4063 4064 4065 4066 4067 4068
          4069 4070 4071 4072 4073 4074
          4075 4076 4077 4078 4079 4080
          4081 4082 4083 4084 4085 4086
          4087 4088 4089 4090 4091 4092
          4093 4094 4095 4096 4097 4098
          4099 4100 4101 4102 514 399
          518 515 520 517 407 526
          525 896 506 897 874 898
          902 1043 1046 1047 1044 500
          504 501 1225 1226 1227 1228
          1219 1232 1221 1233 1224 1234
          865 866 872 1836 1837 1838
          1841 1862 1863 1866 1877 1868
          1879 873 1907 1910 1909 1911
          512 1913 1990 1991 3633 3635
          3634 3657 3658 3636 3661 3663
          3664 3666 3674 3675 3678 3679
          3681 3683 3742 3743 3746 3747
          3749 3751 3782 3783 3786 3788
          3789 3791 3799 3801 3803 3805
          3816 3817 3820 3822 3823 3825
          3833 3835 3837 3839 3915 3918
          3917 3919 1901 3921 3946 3949
          3948 3950 1905 3952 3973 3986
          3987 3990
        </DataArray>
        <DataArray type="Float64" Name="bounds" format="ascii" RangeMin="0" RangeMax="0">
          0 0 0 0 0 0
          0 0 0 0 0 0
          0 0 0 0 0 0
          0 0 0 0 0 0
          0 0 0 0 0 0
          0 0 0 0 0 0
          0 0 0 0 0 0
          0 0 0 0 0 0
          0 0 0 0 0 0
          0 0 0 0 0 0
          0 0 0 0 0 0
          0 0 0 0 0 0
          0 0 0 0 0 0
          0 0 0 0 0 0
          0 0 0 0 0 0
          0 0 0 0 0 0
          0 0 0 0 0 0
          0 0 0 0 0 0
          0 0 0 0 0 0
          0 0 0 0 0 0
          0 0 0 0 0 0
          0 0 0 0 0 0
          0 0 0 0 0 0
          0 0 0 0 0 0
          0 0 0 0 0 0
          0 0 0 0 0 0
          0 0 0 0 0 0
          0 0 0 0 0 0
          0 0 0 0 0 0
          0 0 0 0 0 0
          0 0 0 0 0 0
          0 0 0 0 0 0
          0 0 0 0 0 0
          0 0 0 0 0 0
          0 0 0 0 0 0
          0 0 0 0 0 0
          0 0 0 0 0 0
          0 0 0 0 0 0
          0 0 0 0 0 0
          0 0 0 0 0 0
          0 0 0 0 0 0
          0 0 0 0 0 0
          0 0 0 0 0 0
          0 0 0 0 0 0
          0 0 0 0 0 0
          0 0 0 0 0 0
          0 0 0 0 0 0
          0 0 0 0 0 0
          0 0 0 0 0 0
          0 0 0 0 0 0
          0 0 0 0 0 0
          0 0 0 0 0 0
          0 0 0 0 0 0
          0 0 0 0 0 0
          0 0 0 0 0 0
          0 0 0 0 0 0
          0 0 0 0 0 0
          0 0 0 0 0 0
          0 0 0 0 0 0
          0 0 0 0 0 0
          0 0 0 0 0 0
          0 0 0 0 0 0
          0 0 0 0 0 0
          0 0 0 0 0 0
          0 0 0 0 0 0
          0 0 0 0 0 0
          0 0 0 0 0 0
          0 0 0 0 0 0
          0 0 0 0 0 0
          0 0 0 0 0 0
          0 0 0 0 0 0
          0 0 0 0 0 0
          0 0 0 0 0 0
          0 0 0 0 0 0
          0 0
        </DataArray>
        <DataArray type="Float64" Name="gradient_error" format="ascii" RangeMin="2.8318276513128505e-13" RangeMax="2.485732395815622e-9">
          3.322653428865786e-11 6.619648671437788e-12 4.3489119663019586e-12 1.779337835712823e-12 2.4281197781968295e-12 5.440958496822383e-12
          2.2034572244540105e-10 6.847028237965847e-11 4.3857496047365195e-12 7.769315802840871e-12 5.834484529379938e-12 1.1956849793633394e-9
          3.888612468500485e-10 1.3704566827161228e-11 1.3558656727498794e-12 2.0935069610126403e-12 3.6181038267761974e-12 3.3855484546555633e-12
          1.0201913728254004e-12 4.3622848404820275e-12 3.2426598262365358e-12 7.304360719320329e-12 4.4757909004811675e-12 4.922941392147789e-12
          1.779880623616234e-12 3.421952370855149e-12 3.2422653382993746e-12 1.6456314134020286e-10 1.5517087477959786e-11 1.360980440288663e-11
          1.1369360475399175e-11 9.639866121529424e-12 3.30692377396596e-12 4.291915971857449e-12 3.5976975001763798e-12 9.143608585005263e-12
          7.398590880068308e-12 4.34320173818732e-12 4.122816266732209e-11 3.1077518177559876e-11 6.00973083482475e-12 1.4408457878610659e-11
          4.946595610760048e-12 6.9956963764657855e-12 2.1080158067824385e-12 5.305792274916501e-12 3.3084953793230487e-12 7.1052532887340256e-12
          3.358876969938834e-12 7.1485397627379526e-12 8.314843557999727e-10 6.339300939293504e-10 2.5212622528058455e-10 9.553882327261351e-10
          1.5262392245831623e-10 1.1559599484286055e-10 2.248113176027895e-11 1.708739089989919e-11 4.705400285801333e-11 9.47976029937826e-12
          2.2444041427197933e-10 1.748714928856889e-10 2.562959160938323e-11 7.170600009392842e-11 9.22525109830581e-12 1.1952664514299368e-11
          3.8026159112835855e-12 3.133038053719512e-12 5.093636946927768e-12 4.115202174797492e-12 2.4835424268072038e-12 6.082207617508172e-12
          5.104793966502605e-12 3.2577101110631e-12 5.03357120415035e-12 3.1892050296611998e-12 6.947934417457061e-12 5.607316914241568e-12
          6.552479677172546e-12 6.63047904686233e-12 4.2802166337230677e-13 4.738834017897446e-13 9.405309277819388e-13 8.359367405116895e-13
          2.8318276513128505e-13 3.031722777476884e-13 3.805936252284014e-13 5.197451402071825e-13 7.313425532414403e-13 4.580149727091143e-13
          7.61929826943036e-13 8.285693298639369e-13 2.6503272355914634e-12 2.294014056130925e-12 6.463469087061933e-13 9.92482227708684e-13
          9.781617532439687e-13 8.952088327848378e-13 1.937700876670387e-12 9.638412787792533e-13 3.4209075065126426e-12 4.776230328156365e-12
          1.4673987999883079e-12 1.8404037783516263e-12 1.9236752170258753e-12 2.4525251084153364e-12 1.4297778128778894e-12 6.131553149800087e-12
          2.2134087567149444e-12 2.981374999804798e-12 7.841899863261571e-11 7.312804568846198e-11 5.934725744950734e-11 2.0494204822834862e-10
          2.0414467110398146e-11 4.210322625392199e-11 2.6356984339383256e-11 1.1393403534845659e-10 1.6689529518562288e-11 1.561966562005116e-11
          3.522571529114625e-11 3.289574670735284e-11 6.7841297367437206e-12 1.5085144402483353e-11 1.411607215939138e-11 1.2866137656270512e-11
          2.6820370132960296e-11 1.159598306516298e-11 9.771410151782966e-11 9.095359462701362e-11 3.8421719877647915e-11 7.324888172938633e-11
          3.1485621178363187e-12 2.9656530656441734e-12 6.1795448724203966e-12 5.7935940874056425e-12 1.8749464711992895e-12 3.5134551801471434e-12
          3.299486775435671e-12 2.491067952667034e-12 4.796134807746451e-12 2.739344622869096e-12 1.6596266616692272e-11 1.5485095809867185e-11
          7.272478020518171e-12 1.2599115640057658e-11 9.44605422587746e-12 1.918660302815162e-11 4.294365554032985e-12 8.354425634513883e-12
          6.288810173765759e-12 1.2098325206621175e-11 6.259248785761042e-12 5.110933244196939e-11 2.1848196015406236e-11 3.1002851924805464e-11
          1.931752675413534e-12 3.4876477854337803e-12 1.230996077996917e-12 2.062420035859664e-12 1.664113458945028e-12 2.7906692577655476e-12
          1.7316691967053343e-12 8.919687295659238e-12 4.2869195145735526e-12 6.500063726409542e-12 8.040480221234085e-12 1.4785896002448187e-11
          1.0206853679267433e-11 3.631320994536649e-11 3.958680329363497e-12 6.873843864674936e-12 2.7422106713878823e-12 4.325073619873025e-12
          3.0493751719494105e-12 4.849281230049609e-12 3.200170992465361e-12 1.652852399769446e-11 8.689768245158699e-12 1.096533330714168e-11
          4.890214595398002e-10 4.5539487110961817e-10 3.653500250933347e-10 7.798318258458518e-10 2.499719131821656e-10 1.4615385456575307e-10
          4.3586644532634534e-10 1.1007459276570618e-9 1.0432613194457485e-9 8.656058664882391e-10 1.139454023646916e-9 6.033179258385556e-10
          3.491425211988016e-10 6.707707020892844e-10 2.15215206275407e-10 2.003724635961473e-10 8.972352689597896e-11 8.356940809896396e-11
          1.6088167605888753e-10 6.72689834557e-11 3.66969879509447e-10 3.434974016153464e-10 1.4271382820057316e-10 2.7838713030554345e-10
          3.560999283358234e-11 3.319630266205742e-11 1.3437112497432998e-11 1.254204168031759e-11 2.6821262321661866e-11 1.01820344671846e-11
          6.007869058041703e-11 5.616515108612896e-11 2.1024941620139594e-11 4.5539212620801405e-11 1.1063929089166053e-10 4.663306217126207e-11
          6.53650747406356e-11 2.785350592319628e-11 1.9157921963131835e-10 7.990874601563502e-11 1.1165455662600223e-10 1.8783850389959745e-11
          7.188724946229138e-12 1.1328082493678305e-11 5.275091045954582e-12 3.1779353314828367e-11 1.1990609906023828e-11 1.8934809838986328e-11
          4.901838872661898e-10 4.6262581866470775e-10 2.0487443769958499e-10 1.9279892717746943e-10 3.8095446920432713e-10 1.58079256862488e-10
          5.351921260923706e-10 5.072663998316447e-10 2.1191358897846365e-10 4.211748690662199e-10 8.081255964171918e-11 7.591296672497324e-11
          3.023849712198327e-11 2.837537460037721e-11 6.210702368546728e-11 2.319997589048276e-11 8.870571818338891e-11 8.353958009123613e-11
          3.123824583016918e-11 6.868111715536602e-11 2.6475572689352355e-10 1.1002404271053302e-10 1.5400322518881494e-10 6.45550505244612e-11
          2.9434008325421857e-10 1.2221481141650248e-10 1.7132962299676232e-10 4.3538769958600205e-11 1.6329774324896436e-11 2.581317984076511e-11
          1.174842267459216e-11 4.82907023715987e-11 1.807232145520436e-11 2.86214219295929e-11 7.468336000196517e-11 1.2558374988223303e-10
          1.7158865995483304e-10 1.9028143204205967e-10 3.360829602832478e-11 1.4474794296222791e-11 2.1531393157811845e-11 9.386023479126118e-12
          5.6159824538338615e-11 2.3992676967122754e-11 4.189492070519793e-12 5.958475025148084e-12 2.562534713507057e-12 3.4585773939160536e-12
          2.9089295903014862e-12 3.9685736900678065e-12 2.412585292550862e-12 9.711313766166588e-12 5.426715625557616e-12 6.284900834255327e-12
          7.678167411962109e-11 3.269411714548116e-11 8.519225062381195e-11 3.6271784865603433e-11 1.3081586561532925e-11 7.251290398354359e-12
          8.413679796028759e-12 4.801010668129226e-12 1.4468003570509046e-11 8.003769619918536e-12 9.285775713380988e-12 3.251632493275603e-12
          3.044590393290479e-12 4.790565774859544e-12 4.482965960349986e-12 1.6495508920691362e-12 2.4788882458218307e-12 2.329475912484395e-12
          2.4982273370977822e-12 3.6611125157982266e-12 1.9032916944405456e-12 8.025399224766712e-12 7.510119073283263e-12 3.846019815964388e-12
          6.1215002434933035e-12 1.8113633649051738e-12 2.5896552064008364e-12 9.90772041308994e-13 1.3802065473870324e-12 1.4638203489201389e-12
          2.0324515270456463e-12 1.1338932850399324e-12 4.2662639878714945e-12 2.235640407956464e-12 3.2843664105561967e-12 1.079823345372687e-11
          1.0123135573997885e-11 5.5584120088017024e-12 5.209370180037713e-12 8.274150816238502e-12 4.231458961431909e-12 1.1875167514363797e-11
          1.1147374528838736e-11 5.736101661046304e-12 9.129298839989067e-12 5.7588402379780275e-12 3.0011868934629712e-12 4.417416537747953e-12
          2.3997842153358487e-12 6.353099548109563e-12 3.300734024478085e-12 4.867182959554666e-12 6.630932536374052e-13 1.2063320259563548e-12
          1.0000618733913399e-12 2.3216113775736305e-12 2.2038964925741e-12 2.6687449879244643e-12 3.3859541473321685e-12 3.0938999051719822e-12
          2.5662759928437935e-12 2.6254681493248226e-12 7.1327585032299375e-12 3.285164273203677e-12 8.046794017202356e-12 1.5769173280809337e-12
          3.2353322065537085e-12 2.8006504599406075e-11 8.710967587131008e-12 8.601009342993393e-12 2.6733064811513953e-11 2.7488715941688764e-11
          7.602660196719982e-12 2.414814593712889e-11 7.0417560861214924e-12 5.731918158534168e-12 5.855379865898097e-12 8.89363650095795e-12
          1.8437081258315543e-11 5.008425688812553e-12 1.5856722285467434e-11 1.1085508955645001e-11 3.758549642647371e-11 3.225305746768093e-12
          1.100639141384614e-11 2.2482476187559812e-11 1.3974734542467365e-11 2.116184230358872e-11 2.7506717025778905e-11 2.917652719623423e-11
          2.2972405300760084e-11 1.5551417015295046e-11 1.9908045266270966e-11 2.0520779920428093e-11 1.5555573208775374e-11 3.2406045555787344e-11
          1.8256531966506515e-11 3.1330220994431764e-11 2.0883217198055818e-11 8.500503216800582e-12 1.7615396849846083e-11 2.0310111823625305e-11
          9.516702166671004e-12 1.3210490849385437e-11 1.0089210768611266e-12 1.3686898901386494e-12 4.76105433815251e-11 2.67023549897797e-11
          4.434992446356218e-11 1.655290861721746e-10 1.5440353360958806e-10 4.44104400831348e-11 1.2522475936842459e-10 4.715716813289454e-10
          4.3846990995836164e-10 3.514798694816724e-10 4.268185797272289e-11 8.847616559224122e-11 2.748394130939844e-11 5.501257650365173e-11
          2.421888567607236e-10 1.4441631610919143e-10 1.628954455752784e-11 3.048581749723744e-11 1.1922213283498704e-11 2.0727275481806217e-11
          7.5955474140714e-11 4.2784498361895846e-11 1.0481376326328154e-9 9.77023876231494e-10 7.848473381119992e-10 1.7663067357322235e-9
          1.6617427163232767e-9 1.3589883758870139e-9 5.361007352351064e-10 3.1144086931430926e-10 9.372792857938848e-10 5.404432146538464e-10
          2.3053548138617533e-9 2.197964257569109e-9 1.8449663337175468e-9 2.485732395815622e-9 2.386581411453306e-9 2.03011426397343e-9
          1.2960559001804967e-9 7.498977763451599e-10 1.4396474589337488e-9 8.354994414907678e-10 1.5749775920227224e-10 4.065748786481495e-11
          7.056277768635426e-11 2.662778381517247e-10 6.015709878702631e-11 1.1562073021212228e-10 3.651578100510136e-10 7.392220851790518e-11
          1.5577128472329447e-10 4.055266043586412e-10 8.191020918030308e-11 1.7201608569226598e-10 2.902906153949636e-11 3.347544764610878e-11
          1.7760469519624626e-11 3.72979564777181e-11
        </DataArray>
        <DataArray type="Float64" Name="gradient_matprop_error" format="ascii" RangeMin="0" RangeMax="0">
          0 0 0 0 0 0
          0 0 0 0 0 0
          0 0 0 0 0 0
          0 0 0 0 0 0
          0 0 0 0 0 0
          0 0 0 0 0 0
          0 0 0 0 0 0
          0 0 0 0 0 0
          0 0 0 0 0 0
          0 0 0 0 0 0
          0 0 0 0 0 0
          0 0 0 0 0 0
          0 0 0 0 0 0
          0 0 0 0 0 0
          0 0 0 0 0 0
          0 0 0 0 0 0
          0 0 0 0 0 0
          0 0 0 0 0 0
          0 0 0 0 0 0
          0 0 0 0 0 0
          0 0 0 0 0 0
          0 0 0 0 0 0
          0 0 0 0 0 0
          0 0 0 0 0 0
          0 0 0 0 0 0
          0 0 0 0 0 0
          0 0 0 0 0 0
          0 0 0 0 0 0
          0 0 0 0 0 0
          0 0 0 0 0 0
          0 0 0 0 0 0
          0 0 0 0 0 0
          0 0 0 0 0 0
          0 0 0 0 0 0
          0 0 0 0 0 0
          0 0 0 0 0 0
          0 0 0 0 0 0
          0 0 0 0 0 0
          0 0 0 0 0 0
          0 0 0 0 0 0
          0 0 0 0 0 0
          0 0 0 0 0 0
          0 0 0 0 0 0
          0 0 0 0 0 0
          0 0 0 0 0 0
          0 0 0 0 0 0
          0 0 0 0 0 0
          0 0 0 0 0 0
          0 0 0 0 0 0
          0 0 0 0 0 0
          0 0 0 0 0 0
          0 0 0 0 0 0
          0 0 0 0 0 0
          0 0 0 0 0 0
          0 0 0 0 0 0
          0 0 0 0 0 0
          0 0 0 0 0 0
          0 0 0 0 0 0
          0 0 0 0 0 0
          0 0 0 0 0 0
          0 0 0 0 0 0
          0 0 0 0 0 0
          0 0 0 0 0 0
          0 0 0 0 0 0
          0 0 0 0 0 0
          0 0 0 0 0 0
          0 0 0 0 0 0
          0 0 0 0 0 0
          0 0 0 0 0 0
          0 0 0 0 0 0
          0 0 0 0 0 0
          0 0 0 0 0 0
          0 0 0 0 0 0
          0 0 0 0 0 0
          0 0
        </DataArray>
        <DataArray type="Float64" Name="initial_marker" format="ascii" RangeMin="0" RangeMax="2">
          2 0 0 0 0 0
          2 2 0 0.5 0 2
          2 1.5 0 0 0 0
          0 0 0 0 0 0
          0 0 0 2 0 0
          0 0 0 0 0 0
          0 0 2 2 0.5 1
          0 0 0 0 0 0
          0 0 2 2 2 2
          2 2 2 2 2 1
          2 2 2 2 0 0
          0 0 0.5 0.25 0 0
          0 0 0 0 1 0.5
          0 0 0 0 0 0
          0 0 0 0 0 0
          0 0 0 0 0 0
          0 0 0 0 0 0
          0 0 0 0 0 0
          0 0 2 2 2 2
          1.5 1.75 1.25 2 1 1
          1.5 1.5 0 1 1 1
          1.5 1 2 2 2 2
          0 0 0.5 0.5 0 0
          0 0 0.5 0 1.5 1.5
          0.6666666666666666 1.5 0.5 1.25 0 0.75
          0 0.75 0.3333333333333333 2 1.75 1.75
          0 0.25 0 0 0 0
          0 1 0.3333333333333333 0.3333333333333333 0 0.5
          0 1.5 0 0.25 0 0
          0 0 0 1 0.3333333333333333 0.5
          2 2 2 2 2 2
          2 2 2 2 2 2
          2 2 2 2 2 2
          2 2 2 2 2 2
          2 2 1.5 1.5 2 1.5
          2 2 2 2 2 2
          2 1.75 2 2 2 1.75
          1 1 0.3333333333333333 2 1.75 1.75
          2 2 2 2 2 2
          2 2 2 2 2 2
          2 2 2 2 2 2
          2 2 2 2 2 2
          2 2 2 2 2 2
          2 2 2 2 2 2
          2 2 1.75 1 1.5 0.5
          2 1.5 0 0.25 0 0
          0 0 0 0.75 0.5 0
          2 1.75 2 2 1.25 1
          0.5 0 1.5 1 1 0
          0 0.5 0.5 0 0 0
          0 0.5 0 1.5 1.5 1
          1.25 0 0.25 0 0 0
          0 0 0.75 0 0.5 2
          2 2 2 1.5 1 2
          2 2 1.5 1 0 1
          0 1 0 1 0 0
          0 0 0 0 0 0
          0 0 0 0 0 0
          0 0 0 0 0 0
          0 0 0 0 0 0
          0 0 0 0 0 0
          0 0 0 0 1 1
          0.25 0 0 0 0 0.5
          0 0 0.5 0 0 1
          0 0 0 0 1.5 1.3333333333333333
          1.5 2 2 1.6666666666666667 2 2
          2 2 2 2 1.5 1.75
          2 2 0.5 1 0 0.5
          1.75 1.3333333333333333 2 2 2 2
          2 2 2 2 2 2
          2 2 2 2 2 2
          2 2 2 2 2 1.6666666666666667
          1.75 2 1.75 2 2 2
          2 2 2 2 1.6666666666666667 1.5
          1 1.5
        </DataArray>
        <DataArray type="Float64" Name="markers_norefine" format="ascii" RangeMin="0" RangeMax="0">
          0 0 0 0 0 0
          0 0 0 0 0 0
          0 0 0 0 0 0
          0 0 0 0 0 0
          0 0 0 0 0 0
          0 0 0 0 0 0
          0 0 0 0 0 0
          0 0 0 0 0 0
          0 0 0 0 0 0
          0 0 0 0 0 0
          0 0 0 0 0 0
          0 0 0 0 0 0
          0 0 0 0 0 0
          0 0 0 0 0 0
          0 0 0 0 0 0
          0 0 0 0 0 0
          0 0 0 0 0 0
          0 0 0 0 0 0
          0 0 0 0 0 0
          0 0 0 0 0 0
          0 0 0 0 0 0
          0 0 0 0 0 0
          0 0 0 0 0 0
          0 0 0 0 0 0
          0 0 0 0 0 0
          0 0 0 0 0 0
          0 0 0 0 0 0
          0 0 0 0 0 0
          0 0 0 0 0 0
          0 0 0 0 0 0
          0 0 0 0 0 0
          0 0 0 0 0 0
          0 0 0 0 0 0
          0 0 0 0 0 0
          0 0 0 0 0 0
          0 0 0 0 0 0
          0 0 0 0 0 0
          0 0 0 0 0 0
          0 0 0 0 0 0
          0 0 0 0 0 0
          0 0 0 0 0 0
          0 0 0 0 0 0
          0 0 0 0 0 0
          0 0 0 0 0 0
          0 0 0 0 0 0
          0 0 0 0 0 0
          0 0 0 0 0 0
          0 0 0 0 0 0
          0 0 0 0 0 0
          0 0 0 0 0 0
          0 0 0 0 0 0
          0 0 0 0 0 0
          0 0 0 0 0 0
          0 0 0 0 0 0
          0 0 0 0 0 0
          0 0 0 0 0 0
          0 0 0 0 0 0
          0 0 0 0 0 0
          0 0 0 0 0 0
          0 0 0 0 0 0
          0 0 0 0 0 0
          0 0 0 0 0 0
          0 0 0 0 0 0
          0 0 0 0 0 0
          0 0 0 0 0 0
          0 0 0 0 0 0
          0 0 0 0 0 0
          0 0 0 0 0 0
          0 0 0 0 0 0
          0 0 0 0 0 0
          0 0 0 0 0 0
          0 0 0 0 0 0
          0 0 0 0 0 0
          0 0 0 0 0 0
          0 0
        </DataArray>
        <DataArray type="Float64" Name="markers_mustrefine" format="ascii" RangeMin="0" RangeMax="2">
          2 0 0 0 0 0
          2 2 0 0.5 0 2
          2 1.5 0 0 0 0
          0 0 0 0 0 0
          0 0 0 2 0 0
          0 0 0 0 0 0
          0 0 2 2 0.5 1
          0 0 0 0 0 0
          0 0 2 2 2 2
          2 2 2 2 2 1
          2 2 2 2 0 0
          0 0 0.5 0.25 0 0
          0 0 0 0 1 0.5
          0 0 0 0 0 0
          0 0 0 0 0 0
          0 0 0 0 0 0
          0 0 0 0 0 0
          0 0 0 0 0 0
          0 0 2 2 2 2
          1.5 1.75 1.25 2 1 1
          1.5 1.5 0 1 1 1
          1.5 1 2 2 2 2
          0 0 0.5 0.5 0 0
          0 0 0.5 0 1.5 1.5
          0.6666666666666666 1.5 0.5 1.25 0 0.75
          0 0.75 0.3333333333333333 2 1.75 1.75
          0 0.25 0 0 0 0
          0 1 0.3333333333333333 0.3333333333333333 0 0.5
          0 1.5 0 0.25 0 0
          0 0 0 1 0.3333333333333333 0.5
          2 2 2 2 2 2
          2 2 2 2 2 2
          2 2 2 2 2 2
          2 2 2 2 2 2
          2 2 1.5 1.5 2 1.5
          2 2 2 2 2 2
          2 1.75 2 2 2 1.75
          1 1 0.3333333333333333 2 1.75 1.75
          2 2 2 2 2 2
          2 2 2 2 2 2
          2 2 2 2 2 2
          2 2 2 2 2 2
          2 2 2 2 2 2
          2 2 2 2 2 2
          2 2 1.75 1 1.5 0.5
          2 1.5 0 0.25 0 0
          0 0 0 0.75 0.5 0
          2 1.75 2 2 1.25 1
          0.5 0 1.5 1 1 0
          0 0.5 0.5 0 0 0
          0 0.5 0 1.5 1.5 1
          1.25 0 0.25 0 0 0
          0 0 0.75 0 0.5 2
          2 2 2 1.5 1 2
          2 2 1.5 1 0 1
          0 1 0 1 0 0
          0 0 0 0 0 0
          0 0 0 0 0 0
          0 0 0 0 0 0
          0 0 0 0 0 0
          0 0 0 0 0 0
          0 0 0 0 1 1
          0.25 0 0 0 0 0.5
          0 0 0.5 0 0 1
          0 0 0 0 1.5 1.3333333333333333
          1.5 2 2 1.6666666666666667 2 2
          2 2 2 2 1.5 1.75
          2 2 0.5 1 0 0.5
          1.75 1.3333333333333333 2 2 2 2
          2 2 2 2 2 2
          2 2 2 2 2 2
          2 2 2 2 2 1.6666666666666667
          1.75 2 1.75 2 2 2
          2 2 2 2 1.6666666666666667 1.5
          1 1.5
        </DataArray>
        <DataArray type="Float64" Name="gradient_marker" format="ascii" RangeMin="1" RangeMax="1">
          1 1 1 1 1 1
          1 1 1 1 1 1
          1 1 1 1 1 1
          1 1 1 1 1 1
          1 1 1 1 1 1
          1 1 1 1 1 1
          1 1 1 1 1 1
          1 1 1 1 1 1
          1 1 1 1 1 1
          1 1 1 1 1 1
          1 1 1 1 1 1
          1 1 1 1 1 1
          1 1 1 1 1 1
          1 1 1 1 1 1
          1 1 1 1 1 1
          1 1 1 1 1 1
          1 1 1 1 1 1
          1 1 1 1 1 1
          1 1 1 1 1 1
          1 1 1 1 1 1
          1 1 1 1 1 1
          1 1 1 1 1 1
          1 1 1 1 1 1
          1 1 1 1 1 1
          1 1 1 1 1 1
          1 1 1 1 1 1
          1 1 1 1 1 1
          1 1 1 1 1 1
          1 1 1 1 1 1
          1 1 1 1 1 1
          1 1 1 1 1 1
          1 1 1 1 1 1
          1 1 1 1 1 1
          1 1 1 1 1 1
          1 1 1 1 1 1
          1 1 1 1 1 1
          1 1 1 1 1 1
          1 1 1 1 1 1
          1 1 1 1 1 1
          1 1 1 1 1 1
          1 1 1 1 1 1
          1 1 1 1 1 1
          1 1 1 1 1 1
          1 1 1 1 1 1
          1 1 1 1 1 1
          1 1 1 1 1 1
          1 1 1 1 1 1
          1 1 1 1 1 1
          1 1 1 1 1 1
          1 1 1 1 1 1
          1 1 1 1 1 1
          1 1 1 1 1 1
          1 1 1 1 1 1
          1 1 1 1 1 1
          1 1 1 1 1 1
          1 1 1 1 1 1
          1 1 1 1 1 1
          1 1 1 1 1 1
          1 1 1 1 1 1
          1 1 1 1 1 1
          1 1 1 1 1 1
          1 1 1 1 1 1
          1 1 1 1 1 1
          1 1 1 1 1 1
          1 1 1 1 1 1
          1 1 1 1 1 1
          1 1 1 1 1 1
          1 1 1 1 1 1
          1 1 1 1 1 1
          1 1 1 1 1 1
          1 1 1 1 1 1
          1 1 1 1 1 1
          1 1 1 1 1 1
          1 1 1 1 1 1
          1 1
        </DataArray>
        <DataArray type="Float64" Name="gradient_matprop_marker" format="ascii" RangeMin="0" RangeMax="0">
          0 0 0 0 0 0
          0 0 0 0 0 0
          0 0 0 0 0 0
          0 0 0 0 0 0
          0 0 0 0 0 0
          0 0 0 0 0 0
          0 0 0 0 0 0
          0 0 0 0 0 0
          0 0 0 0 0 0
          0 0 0 0 0 0
          0 0 0 0 0 0
          0 0 0 0 0 0
          0 0 0 0 0 0
          0 0 0 0 0 0
          0 0 0 0 0 0
          0 0 0 0 0 0
          0 0 0 0 0 0
          0 0 0 0 0 0
          0 0 0 0 0 0
          0 0 0 0 0 0
          0 0 0 0 0 0
          0 0 0 0 0 0
          0 0 0 0 0 0
          0 0 0 0 0 0
          0 0 0 0 0 0
          0 0 0 0 0 0
          0 0 0 0 0 0
          0 0 0 0 0 0
          0 0 0 0 0 0
          0 0 0 0 0 0
          0 0 0 0 0 0
          0 0 0 0 0 0
          0 0 0 0 0 0
          0 0 0 0 0 0
          0 0 0 0 0 0
          0 0 0 0 0 0
          0 0 0 0 0 0
          0 0 0 0 0 0
          0 0 0 0 0 0
          0 0 0 0 0 0
          0 0 0 0 0 0
          0 0 0 0 0 0
          0 0 0 0 0 0
          0 0 0 0 0 0
          0 0 0 0 0 0
          0 0 0 0 0 0
          0 0 0 0 0 0
          0 0 0 0 0 0
          0 0 0 0 0 0
          0 0 0 0 0 0
          0 0 0 0 0 0
          0 0 0 0 0 0
          0 0 0 0 0 0
          0 0 0 0 0 0
          0 0 0 0 0 0
          0 0 0 0 0 0
          0 0 0 0 0 0
          0 0 0 0 0 0
          0 0 0 0 0 0
          0 0 0 0 0 0
          0 0 0 0 0 0
          0 0 0 0 0 0
          0 0 0 0 0 0
          0 0 0 0 0 0
          0 0 0 0 0 0
          0 0 0 0 0 0
          0 0 0 0 0 0
          0 0 0 0 0 0
          0 0 0 0 0 0
          0 0 0 0 0 0
          0 0 0 0 0 0
          0 0 0 0 0 0
          0 0 0 0 0 0
          0 0 0 0 0 0
          0 0
        </DataArray>
        <DataArray type="Float64" Name="combo" format="ascii" RangeMin="1" RangeMax="1">
          1 1 1 1 1 1
          1 1 1 1 1 1
          1 1 1 1 1 1
          1 1 1 1 1 1
          1 1 1 1 1 1
          1 1 1 1 1 1
          1 1 1 1 1 1
          1 1 1 1 1 1
          1 1 1 1 1 1
          1 1 1 1 1 1
          1 1 1 1 1 1
          1 1 1 1 1 1
          1 1 1 1 1 1
          1 1 1 1 1 1
          1 1 1 1 1 1
          1 1 1 1 1 1
          1 1 1 1 1 1
          1 1 1 1 1 1
          1 1 1 1 1 1
          1 1 1 1 1 1
          1 1 1 1 1 1
          1 1 1 1 1 1
          1 1 1 1 1 1
          1 1 1 1 1 1
          1 1 1 1 1 1
          1 1 1 1 1 1
          1 1 1 1 1 1
          1 1 1 1 1 1
          1 1 1 1 1 1
          1 1 1 1 1 1
          1 1 1 1 1 1
          1 1 1 1 1 1
          1 1 1 1 1 1
          1 1 1 1 1 1
          1 1 1 1 1 1
          1 1 1 1 1 1
          1 1 1 1 1 1
          1 1 1 1 1 1
          1 1 1 1 1 1
          1 1 1 1 1 1
          1 1 1 1 1 1
          1 1 1 1 1 1
          1 1 1 1 1 1
          1 1 1 1 1 1
          1 1 1 1 1 1
          1 1 1 1 1 1
          1 1 1 1 1 1
          1 1 1 1 1 1
          1 1 1 1 1 1
          1 1 1 1 1 1
          1 1 1 1 1 1
          1 1 1 1 1 1
          1 1 1 1 1 1
          1 1 1 1 1 1
          1 1 1 1 1 1
          1 1 1 1 1 1
          1 1 1 1 1 1
          1 1 1 1 1 1
          1 1 1 1 1 1
          1 1 1 1 1 1
          1 1 1 1 1 1
          1 1 1 1 1 1
          1 1 1 1 1 1
          1 1 1 1 1 1
          1 1 1 1 1 1
          1 1 1 1 1 1
          1 1 1 1 1 1
          1 1 1 1 1 1
          1 1 1 1 1 1
          1 1 1 1 1 1
          1 1 1 1 1 1
          1 1 1 1 1 1
          1 1 1 1 1 1
          1 1 1 1 1 1
          1 1
        </DataArray>
        <DataArray type="Float64" Name="dHdT" format="ascii" RangeMin="25.81143051386007" RangeMax="26.505003952578804">
          25.818831251380583 25.811450149906904 25.81153547127144 25.81146054293047 25.811457888125737 25.811482018079225
          25.850473453477097 25.82237060127374 25.811518662128474 25.812541965054777 25.811854881141418 26.128345672296312
          25.880137470107957 25.813304183400305 25.811469724739627 25.811472784713004 25.811524154261093 25.81150456593963
          25.81146314801424 25.81148617593423 25.81147942360184 25.8116318079205 25.81155128229113 25.811491118192066
          25.81145758786375 25.811471197335536 25.811473211259504 25.839326946599652 25.811880621983235 25.81183631887953
          25.812319834529436 25.81216799409316 25.811571483178476 25.811670189383086 25.81164074806267 25.81173058098145
          25.811890038211263 25.811633122895316 25.818646352098533 25.816705013699597 25.812280424919948 25.813608737691624