<?xml version="1.0"?>
<VTKFile type="UnstructuredGrid" version="0.1" byte_order="LittleEndian" header_type="UInt32" compressor="vtkZLibDataCompressor">
  <UnstructuredGrid>
    <Piece NumberOfPoints="351" NumberOfCells="189">
      <PointData>
        <DataArray type="Int32" Name="libmesh_node_id" format="ascii" RangeMin="269" RangeMax="2721">
          269 270 271 272 504 505
          506 509 512 514 515 516
          517 521 522 524 525 527
          558 732 737 986 987 988
          991 994 1008 1009 1012 1014
          1016 1017 1018 1019 1020 1021
          1022 1023 1024 1025 1026 1027
          1028 1029 1038 1043 1044 1045
          1046 1047 1048 1049 1050 1051
          1052 1053 1066 1067 1069 1082
          1122 1123 1124 1125 1126 1127
          1136 1142 1143 1144 1145 1149
          1150 1153 1154 1317 1321 1337
          1338 1339 1340 1341 1342 1684
          1685 1686 1689 1692 1706 1707
          1710 1712 1740 1741 1744 1746
          1748 1749 1750 1751 1752 1753
          1754 1755 1756 1757 1758 1759
          1760 1761 1762 1763 1764 1765
          1766 1767 1768 1769 1770 1771
          1772 1773 1774 1775 1776 1777
          1778 1779 1780 1781 1782 1783
          1784 1785 1786 1787 1788 1789
          1790 1791 1792 1793 1794 1795
          1810 1811 1814 1815 1817 1819
          1820 1821 1822 1823 1824 1825
          1826 1827 1828 1829 1895 1896
          1898 1901 1911 1913 1915 1945
          1947 2003 2005 2007 2021 2022
          2025 2027 2289 2290 2291 2292
          2293 2294 2295 2296 2297 2298
          2299 2300 2301 2302 2303 2304
          2305 2306 2307 2308 2309 2310
          2311 2312 2313 2314 2315 2316
          2317 2318 2319 2320 2321 2322
          2343 2344 2345 2346 2350 2351
          2352 2353 2381 2383 2384 2385
          2387 2418 2420 2421 2422 2424
          2432 2433 2434 2435 2436 2437
          2438 2439 2440 2441 2442 2443
          2444 2445 2446 2447 2448 2449
          2450 2451 2452 2453 2454 2455
          2456 2457 2458 2459 2460 2461
          2462 2466 2467 2468 2469 2473
          2474 2475 2476 2480 2481 2482
          2483 2484 2485 2486 2490 2491
          2492 2493 2494 2495 2496 2497
          2498 2499 2500 2501 2502 2503
          2504 2506 2517 2518 2519 2520
          2521 2522 2523 2524 2526 2615
          2617 2719 2721 550 1332 1084
          1333 1336 533 1148 1213 1205
          542 1215 1217 551 1949 2347
          2349 531 2348 1131 2354 2356
          2355 539 2037 2039 2463 2041
          2464 2465 1086 1146 2470 2471
          2472 1147 2051 2053 2477 2055
          2478 2479 2487 2488 2489 2555
          2557 2671 2673
        </DataArray>
        <DataArray type="Float64" Name="bounds" format="ascii" RangeMin="0" RangeMax="0">
          0 0 0 0 0 0
          0 0 0 0 0 0
          0 0 0 0 0 0
          0 0 0 0 0 0
          0 0 0 0 0 0
          0 0 0 0 0 0
          0 0 0 0 0 0
          0 0 0 0 0 0
          0 0 0 0 0 0
          0 0 0 0 0 0
          0 0 0 0 0 0
          0 0 0 0 0 0
          0 0 0 0 0 0
          0 0 0 0 0 0
          0 0 0 0 0 0
          0 0 0 0 0 0
          0 0 0 0 0 0
          0 0 0 0 0 0
          0 0 0 0 0 0
          0 0 0 0 0 0
          0 0 0 0 0 0
          0 0 0 0 0 0
          0 0 0 0 0 0
          0 0 0 0 0 0
          0 0 0 0 0 0
          0 0 0 0 0 0
          0 0 0 0 0 0
          0 0 0 0 0 0
          0 0 0 0 0 0
          0 0 0 0 0 0
          0 0 0 0 0 0
          0 0 0 0 0 0
          0 0 0 0 0 0
          0 0 0 0 0 0
          0 0 0 0 0 0
          0 0 0 0 0 0
          0 0 0 0 0 0
          0 0 0 0 0 0
          0 0 0 0 0 0
          0 0 0 0 0 0
          0 0 0 0 0 0
          0 0 0 0 0 0
          0 0 0 0 0 0
          0 0 0 0 0 0
          0 0 0 0 0 0
          0 0 0 0 0 0
          0 0 0 0 0 0
          0 0 0 0 0 0
          0 0 0 0 0 0
          0 0 0 0 0 0
          0 0 0 0 0 0
          0 0 0 0 0 0
          0 0 0 0 0 0
          0 0 0 0 0 0
          0 0 0 0 0 0
          0 0 0 0 0 0
          0 0 0 0 0 0
          0 0 0 0 0 0
          0 0 0
        </DataArray>
        <DataArray type="Float64" Name="gradient_error" format="ascii" RangeMin="6.97018222509955e-11" RangeMax="1.2772693763565192e-8">
          1.2772693763565192e-8 8.528615412706291e-9 2.4801722986196854e-9 4.0191723166937825e-9 8.275572619100385e-9 6.513261656188001e-9
          5.266241416107696e-9 5.425739106602407e-9 1.3132502826377996e-9 2.6901499771303737e-9 2.324540695263244e-9 1.6730592275283038e-9
          1.3982642948132794e-9 1.588896173744082e-9 1.526264262072632e-9 4.2594029189067817e-10 4.1365745606852636e-10 1.1943578906320697e-9
          1.5865894576750574e-9 4.756175346653206e-9 1.4741268788746097e-9 2.9125234834318884e-9 2.024322752048292e-9 1.839531966764919e-9
          1.3955149782618933e-9 2.0942310812600632e-9 1.5897437250366905e-9 1.544713001179917e-9 1.9718192841525666e-9 1.208909252260636e-9
          1.4873408788248778e-9 1.3624697827342619e-9 9.40710417766924e-10 8.54417846516109e-10 6.016780360740611e-10 4.0424064428381454e-10
          3.6822277125790414e-10 1.0540504496247791e-9 7.887323870446633e-10 4.900079435108351e-10 1.114001108652463e-9 9.377560951210363e-10
          3.6007437857215727e-10 7.041062925949653e-10 2.276606466112616e-10 2.2467190110923552e-10 7.49051422244872e-10 8.517799362284917e-10
          3.604075662845603e-10 5.360553842969479e-10 6.27600631883832e-10 8.95768956463001e-10 4.223907154646813e-10 8.403802381949605e-10
          6.738051271213418e-10 1.0928566417883118e-9 8.286070152220908e-9 6.691826331038962e-9 3.6771574238818104e-9 1.6020499034466795e-9
          3.8810925145982256e-9 3.0952588946144508e-9 1.454674684325299e-9 1.1619655686229145e-9 1.6666850772387557e-9 6.34321050967415e-10
          2.4487871226121223e-10 8.63538801336886e-10 5.060489861310336e-10 1.169861155394879e-9 6.858546871525011e-10 3.2019004929243965e-10
          2.737085654648778e-10 3.0556903325773776e-10 3.2178704262523555e-10 2.3108696515031112e-10 1.9365881768520286e-10 9.561598094764591e-10
          1.2307781934983418e-9 4.5349628354215593e-10 5.744686875195562e-10 6.967177657803054e-10 8.031558664177395e-10 8.446625106726e-10
          1.289791152332848e-9 1.2431924236725572e-9 1.1159777373669918e-9 2.3757820492168023e-9 6.581114064289287e-10 9.39609311332455e-10
          7.457302577569258e-10 1.7126660032775268e-9 4.1994911419632974e-10 5.597938802383794e-10 4.719840879061004e-10 9.481887156353653e-10
          5.942672282338399e-10 5.743329193255961e-10 8.779841177234377e-10 8.45823822992813e-10 3.8062981776833824e-10 5.77862328552606e-10
          5.56577044699736e-10 5.216277480077286e-10 7.587972384559444e-10 4.997596970382213e-10 1.6974867848015397e-9 1.6250711283177588e-9
          1.0663539979005217e-9 1.4297013720599902e-9 2.46690185313635e-10 2.384896954124848e-10 3.6426357602944793e-10 3.510354442557691e-10
          1.477605689991819e-10 2.2317039535302799e-10 2.1534028093554886e-10 2.1700184602715496e-10 3.1533049518545376e-10 1.938185406053479e-10
          7.022013843756234e-10 6.724191812654997e-10 4.082303864701551e-10 5.918541474148388e-10 4.5008835023857516e-10 6.38452881320942e-10
          3.016389037816996e-10 4.1778633906915985e-10 3.673748056670828e-10 5.052596439515859e-10 3.640129312732095e-10 1.167761711405819e-9
          7.62159044611776e-10 8.946028519898244e-10 1.9177372390995204e-10 2.6379082830989274e-10 1.198653795447744e-10 1.6364782691355328e-10
          1.798329612769287e-10 2.347279787309682e-10 1.4716873913448051e-10 4.792810629935559e-10 2.931063351461437e-10 4.088226830619134e-10
          7.388657588036097e-11 9.855564723453362e-11 6.97018222509955e-11 8.901803018107328e-11 1.739913290762107e-10 1.4917327013736828e-10
          2.904423953007818e-10 3.80850586200068e-10 2.4578749615647976e-10 3.109648313887675e-10 2.574549941464436e-10 3.241566984891477e-10
          2.7258095877539285e-10 6.468449000125413e-10 4.839265210728392e-10 5.008833465261822e-10 4.6429787923782284e-9 4.4196867258123284e-9
          3.822237572969247e-9 7.85475701904438e-9 3.032182104186547e-9 2.241795826254356e-9 5.161277322283474e-9 8.293738456029973e-9
          5.721924034249796e-9 1.5693787780283174e-9 1.0501194210257993e-9 2.4771886176979157e-9 5.597968876382143e-10 6.891303863568863e-10
          5.494715558911239e-10 1.001461662110153e-9 3.214104634252198e-9 3.055764198321206e-9 2.1172455050110743e-9 2.011945337394134e-9
          2.634208848074038e-9 1.732263422139487e-9 5.835176350543865e-9 5.519281373705224e-9 3.6656882573493974e-9 4.675751606732128e-9
          1.3295698356310046e-9 1.2637043417189659e-9 7.984573525569121e-10 7.595738365574939e-10 1.0888782514623349e-9 6.562292674732178e-10
          2.440043340795932e-9 2.3035148234897385e-9 1.3739232602362953e-9 1.9439853186407386e-9 2.083369359015868e-9 1.3689983720182734e-9
          1.536935908418395e-9 1.0087249273577203e-9 3.580616398935127e-9 2.3624015458964547e-9 2.532593729005889e-9 8.609272430066876e-10
          5.208776176645315e-10 6.33235824431589e-10 3.8447976102260205e-10 1.4848320288640904e-9 8.917442226379902e-10 1.049702713661085e-9
          5.832104409908528e-9 3.877904128651122e-9 3.980096994770407e-9 2.6318355846849397e-9 2.440476428082769e-9 1.4582027492280703e-9
          1.6570203380462842e-9 9.96434452981316e-10 3.0458063361771986e-10 2.2627306960900438e-10 1.4413788587647444e-10 5.138032970728917e-10
          3.7007858706640846e-10 8.310558519891809e-10 5.748593860654697e-10 3.1704860681921646e-10 1.2643856290008363e-9 8.418001627678861e-10
          1.0749241657964493e-9 7.020278723557704e-10 7.128402730178984e-10 5.233085564769463e-10 1.6999588454531154e-9 1.1154250425784057e-9
          1.0934034117434886e-9 3.327671443132552e-10 4.374337920160133e-10 2.0325189635401048e-10 2.66741608911004e-10 2.7404785806639075e-10
          3.5033276606448067e-10 2.1451071671750772e-10 7.003828100805251e-10 4.2570517385958934e-10 5.006494220019231e-10 3.647979502928271e-10
          4.56358723095037e-10 2.914999588410675e-10 3.6206403829272527e-10 2.934663541492455e-10 3.587581991842597e-10 2.8764432621634467e-10
          6.778700101940007e-10 4.954536288309706e-10 5.167794110680582e-10 2.5633048924030297e-9 1.6896105750034432e-9 1.5913992221257104e-9
          1.0433629365335974e-9 1.0648655862506962e-9 6.45215617233709e-10 6.571498576867396e-10 4.0176702285364005e-10 9.571396075257636e-10
          6.266277219818324e-10 7.10862985269862e-10 4.701203355296851e-10 3.3088566964625257e-10 3.9649980461074476e-10 2.0616715622432477e-10
          2.4595958098897454e-10 2.5990291222499465e-10 3.001147729333585e-10 1.883135761994613e-10 1.2251060675482544e-10 1.5864146469964094e-10
          9.7060921173448e-11 1.2070548623400576e-10 1.0301893668175141e-10 1.291217638926315e-10 1.0258749087403545e-10 2.5099335480384935e-10
          1.6186522462209417e-10 1.8251294752359884e-10 3.7790068999714186e-10 2.1030068401978685e-10 2.3851273547058504e-10 1.5549395519090203e-10
          5.3305436001184e-10 3.272662636148989e-10 1.2470969257713196e-10 1.4761691711915415e-10 9.986029154320007e-11 1.1334656989117524e-10
          1.0028940616718269e-10 1.1451088346237187e-10 9.176094478249198e-11 1.957846541170336e-10 1.4633211267361495e-10 1.7811880367109e-9
          1.151589378548893e-9 7.042041901287352e-10 4.1901604186427227e-10 5.572901021203612e-9 2.055626422609438e-9 2.176800366637269e-9
          2.6110728248780746e-9 1.6297766897976463e-9 2.47239080128842e-9 1.5828645755883714e-9 1.7785491639863244e-9 2.7815020687221357e-9
          6.829389835769678e-10 8.175617262593599e-10 9.987136905323787e-10 5.316843356429558e-9 1.2347085686441288e-8 8.817438293727871e-9
          5.8581080263531785e-9 8.330311734123578e-9 5.9262711199728375e-9 3.899259177836963e-9 3.747970829392473e-9 2.45884756474468e-9
          2.2360703614246962e-9 1.4733602488650574e-9 3.7162966003968406e-9 2.3233832866931224e-9 3.641661917888268e-9 5.246831401624419e-9
          2.4080832737636855e-9 2.1859593687977604e-9 3.184370898129672e-9 1.4389465901029397e-9 1.5196250151809671e-9 9.178667862269228e-10
          9.102808832869671e-10 5.545682158700549e-10 1.4101889844837278e-9 1.0535776053321883e-9 1.279407341684586e-9 1.892196765145533e-9
          8.372212538713328e-10 9.338999782090268e-10 5.317877736914252e-10 3.286438421220183e-10 3.872709393163231e-10 3.16078329148438e-9
          2.0251457680370377e-9 1.220704427837849e-9 7.155128281210382e-10
        </DataArray>
        <DataArray type="Float64" Name="gradient_matprop_error" format="ascii" RangeMin="0" RangeMax="0">
          0 0 0 0 0 0
          0 0 0 0 0 0
          0 0 0 0 0 0
          0 0 0 0 0 0
          0 0 0 0 0 0
          0 0 0 0 0 0
          0 0 0 0 0 0
          0 0 0 0 0 0
          0 0 0 0 0 0
          0 0 0 0 0 0
          0 0 0 0 0 0
          0 0 0 0 0 0
          0 0 0 0 0 0
          0 0 0 0 0 0
          0 0 0 0 0 0
          0 0 0 0 0 0
          0 0 0 0 0 0
          0 0 0 0 0 0
          0 0 0 0 0 0
          0 0 0 0 0 0
          0 0 0 0 0 0
          0 0 0 0 0 0
          0 0 0 0 0 0
          0 0 0 0 0 0
          0 0 0 0 0 0
          0 0 0 0 0 0
          0 0 0 0 0 0
          0 0 0 0 0 0
          0 0 0 0 0 0
          0 0 0 0 0 0
          0 0 0 0 0 0
          0 0 0 0 0 0
          0 0 0 0 0 0
          0 0 0 0 0 0
          0 0 0 0 0 0
          0 0 0 0 0 0
          0 0 0 0 0 0
          0 0 0 0 0 0
          0 0 0 0 0 0
          0 0 0 0 0 0
          0 0 0 0 0 0
          0 0 0 0 0 0
          0 0 0 0 0 0
          0 0 0 0 0 0
          0 0 0 0 0 0
          0 0 0 0 0 0
          0 0 0 0 0 0
          0 0 0 0 0 0
          0 0 0 0 0 0
          0 0 0 0 0 0
          0 0 0 0 0 0
          0 0 0 0 0 0
          0 0 0 0 0 0
          0 0 0 0 0 0
          0 0 0 0 0 0
          0 0 0 0 0 0
          0 0 0 0 0 0
          0 0 0 0 0 0
          0 0 0
        </DataArray>
        <DataArray type="Float64" Name="initial_marker" format="ascii" RangeMin="0" RangeMax="2">
          0 0 2 0 0 0
          0 0 2 0 0 0
          0 0 0 2 1.25 0
          0 0 0 0 1 1
          0.25 2 0 0 0 0.5
          0 0 1 0.5 0 0
          0 0 0 0 2 2
          2 1.75 0 0.25 0 0
          0 0 0 0 0 0.25
          0 0 2 2 2 2
          2 2 2 2 2 2
          1.75 1.75 1.25 0 0 0
          0.25 0 0 0 0 0
          0 0 0 0 0 2
          2 2 2 2 1.5 1.75
          1.25 2 0 0.5 0 1.5
          2 2 2 2 1.5 2
          1.75 2 2 1.5 2 2
          2 2 1 0.5 1.5 1.25
          0 1 1 0 1 1
          2 2 2 2 1 1.5
          0.5 1.25 0 1 1 2
          2 2 0 1 0 0.75
          0 1 0.5 2 1.75 2
          0 0.25 0 0 1.25 1
          0 0.5 0 0.5 0 0
          0 1.5 1.3333333333333333 0.6666666666666666 2 2
          2 2 2 2 2 2
          2 2 1.5 2 0 0.5
          0 1.25 2 2 2 2
          2 2 2 2 2 2
          2 2 2 2 2 2
          2 2 2 2 2 2
          2 2 2 2 2 2
          2 2 2 2 2 2
          2 2 2 2 2 2
          2 2 2 1.75 1.3333333333333333 2
          2 2 2 2 2 2
          2 1.75 1.5 1.3333333333333333 2 2
          2 1 1.5 1 1.5 0
          1 1 2 2 2 0
          0.5 0 0.5 0 0 0
          1 1 0 2 2 2
          2 2 2 2 1.75 1.5
          1.25 1 0.5 1 1 0.5
          0.75 0 0 0 0.5 1
          0 0.5 0 0.5 0 1.75
          1.3333333333333333 1 2 1.75 1.5 1.3333333333333333
          2 2 0 0.5 0 0.5
          0 0 0 1 0 2
          2 2 2 0 0 0.25
          0 0 1 0.75 0 0
          0.25 0 0 0 2 2
          2 2 2 2 2 2
          2 2 2 2 2 2
          2 2 2 2 2 2
          2 2 1.75 1.5 2 2
          1.75 2 1.5 1.25 1 2
          2 2 2
        </DataArray>
        <DataArray type="Float64" Name="markers_norefine" format="ascii" RangeMin="0" RangeMax="0">
          0 0 0 0 0 0
          0 0 0 0 0 0
          0 0 0 0 0 0
          0 0 0 0 0 0
          0 0 0 0 0 0
          0 0 0 0 0 0
          0 0 0 0 0 0
          0 0 0 0 0 0
          0 0 0 0 0 0
          0 0 0 0 0 0
          0 0 0 0 0 0
          0 0 0 0 0 0
          0 0 0 0 0 0
          0 0 0 0 0 0
          0 0 0 0 0 0
          0 0 0 0 0 0
          0 0 0 0 0 0
          0 0 0 0 0 0
          0 0 0 0 0 0
          0 0 0 0 0 0
          0 0 0 0 0 0
          0 0 0 0 0 0
          0 0 0 0 0 0
          0 0 0 0 0 0
          0 0 0 0 0 0
          0 0 0 0 0 0
          0 0 0 0 0 0
          0 0 0 0 0 0
          0 0 0 0 0 0
          0 0 0 0 0 0
          0 0 0 0 0 0
          0 0 0 0 0 0
          0 0 0 0 0 0
          0 0 0 0 0 0
          0 0 0 0 0 0
          0 0 0 0 0 0
          0 0 0 0 0 0
          0 0 0 0 0 0
          0 0 0 0 0 0
          0 0 0 0 0 0
          0 0 0 0 0 0
          0 0 0 0 0 0
          0 0 0 0 0 0
          0 0 0 0 0 0
          0 0 0 0 0 0
          0 0 0 0 0 0
          0 0 0 0 0 0
          0 0 0 0 0 0
          0 0 0 0 0 0
          0 0 0 0 0 0
          0 0 0 0 0 0
          0 0 0 0 0 0
          0 0 0 0 0 0
          0 0 0 0 0 0
          0 0 0 0 0 0
          0 0 0 0 0 0
          0 0 0 0 0 0
          0 0 0 0 0 0
          0 0 0
        </DataArray>
        <DataArray type="Float64" Name="markers_mustrefine" format="ascii" RangeMin="0" RangeMax="2">
          0 0 2 0 0 0
          0 0 2 0 0 0
          0 0 0 2 1.25 0
          0 0 0 0 1 1
          0.25 2 0 0 0 0.5
          0 0 1 0.5 0 0
          0 0 0 0 2 2
          2 1.75 0 0.25 0 0
          0 0 0 0 0 0.25
          0 0 2 2 2 2
          2 2 2 2 2 2
          1.75 1.75 1.25 0 0 0
          0.25 0 0 0 0 0
          0 0 0 0 0 2
          2 2 2 2 1.5 1.75
          1.25 2 0 0.5 0 1.5
          2 2 2 2 1.5 2
          1.75 2 2 1.5 2 2
          2 2 1 0.5 1.5 1.25
          0 1 1 0 1 1
          2 2 2 2 1 1.5
          0.5 1.25 0 1 1 2
          2 2 0 1 0 0.75
          0 1 0.5 2 1.75 2
          0 0.25 0 0 1.25 1
          0 0.5 0 0.5 0 0
          0 1.5 1.3333333333333333 0.6666666666666666 2 2
          2 2 2 2 2 2
          2 2 1.5 2 0 0.5
          0 1.25 2 2 2 2
          2 2 2 2 2 2
          2 2 2 2 2 2
          2 2 2 2 2 2
          2 2 2 2 2 2
          2 2 2 2 2 2
          2 2 2 2 2 2
          2 2 2 1.75 1.3333333333333333 2
          2 2 2 2 2 2
          2 1.75 1.5 1.3333333333333333 2 2
          2 1 1.5 1 1.5 0
          1 1 2 2 2 0
          0.5 0 0.5 0 0 0
          1 1 0 2 2 2
          2 2 2 2 1.75 1.5
          1.25 1 0.5 1 1 0.5
          0.75 0 0 0 0.5 1
          0 0.5 0 0.5 0 1.75
          1.3333333333333333 1 2 1.75 1.5 1.3333333333333333
          2 2 0 0.5 0 0.5
          0 0 0 1 0 2
          2 2 2 0 0 0.25
          0 0 1 0.75 0 0
          0.25 0 0 0 2 2
          2 2 2 2 2 2
          2 2 2 2 2 2
          2 2 2 2 2 2
          2 2 1.75 1.5 2 2
          1.75 2 1.5 1.25 1 2
          2 2 2
        </DataArray>
        <DataArray type="Float64" Name="gradient_marker" format="ascii" RangeMin="1" RangeMax="1">
          1 1 1 1 1 1
          1 1 1 1 1 1
          1 1 1 1 1 1
          1 1 1 1 1 1
          1 1 1 1 1 1
          1 1 1 1 1 1
          1 1 1 1 1 1
          1 1 1 1 1 1
          1 1 1 1 1 1
          1 1 1 1 1 1
          1 1 1 1 1 1
          1 1 1 1 1 1
          1 1 1 1 1 1
          1 1 1 1 1 1
          1 1 1 1 1 1
          1 1 1 1 1 1
          1 1 1 1 1 1
          1 1 1 1 1 1
          1 1 1 1 1 1
          1 1 1 1 1 1
          1 1 1 1 1 1
          1 1 1 1 1 1
          1 1 1 1 1 1
          1 1 1 1 1 1
          1 1 1 1 1 1
          1 1 1 1 1 1
          1 1 1 1 1 1
          1 1 1 1 1 1
          1 1 1 1 1 1
          1 1 1 1 1 1
          1 1 1 1 1 1
          1 1 1 1 1 1
          1 1 1 1 1 1
          1 1 1 1 1 1
          1 1 1 1 1 1
          1 1 1 1 1 1
          1 1 1 1 1 1
          1 1 1 1 1 1
          1 1 1 1 1 1
          1 1 1 1 1 1
          1 1 1 1 1 1
          1 1 1 1 1 1
          1 1 1 1 1 1
          1 1 1 1 1 1
          1 1 1 1 1 1
          1 1 1 1 1 1
          1 1 1 1 1 1
          1 1 1 1 1 1
          1 1 1 1 1 1
          1 1 1 1 1 1
          1 1 1 1 1 1
          1 1 1 1 1 1
          1 1 1 1 1 1
          1 1 1 1 1 1
          1 1 1 1 1 1
          1 1 1 1 1 1
          1 1 1 1 1 1
          1 1 1 1 1 1
          1 1 1
        </DataArray>
        <DataArray type="Float64" Name="gradient_matprop_marker" format="ascii" RangeMin="0" RangeMax="0">
          0 0 0 0 0 0
          0 0 0 0 0 0
          0 0 0 0 0 0
          0 0 0 0 0 0
          0 0 0 0 0 0
          0 0 0 0 0 0
          0 0 0 0 0 0
          0 0 0 0 0 0
          0 0 0 0 0 0
          0 0 0 0 0 0
          0 0 0 0 0 0
          0 0 0 0 0 0
          0 0 0 0 0 0
          0 0 0 0 0 0
          0 0 0 0 0 0
          0 0 0 0 0 0
          0 0 0 0 0 0
          0 0 0 0 0 0
          0 0 0 0 0 0
          0 0 0 0 0 0
          0 0 0 0 0 0
          0 0 0 0 0 0
          0 0 0 0 0 0
          0 0 0 0 0 0
          0 0 0 0 0 0
          0 0 0 0 0 0
          0 0 0 0 0 0
          0 0 0 0 0 0
          0 0 0 0 0 0
          0 0 0 0 0 0
          0 0 0 0 0 0
          0 0 0 0 0 0
          0 0 0 0 0 0
          0 0 0 0 0 0
          0 0 0 0 0 0
          0 0 0 0 0 0
          0 0 0 0 0 0
          0 0 0 0 0 0
          0 0 0 0 0 0
          0 0 0 0 0 0
          0 0 0 0 0 0
          0 0 0 0 0 0
          0 0 0 0 0 0
          0 0 0 0 0 0
          0 0 0 0 0 0
          0 0 0 0 0 0
          0 0 0 0 0 0
          0 0 0 0 0 0
          0 0 0 0 0 0
          0 0 0 0 0 0
          0 0 0 0 0 0
          0 0 0 0 0 0
          0 0 0 0 0 0
          0 0 0 0 0 0
          0 0 0 0 0 0
          0 0 0 0 0 0
          0 0 0 0 0 0
          0 0 0 0 0 0
          0 0 0
        </DataArray>
        <DataArray type="Float64" Name="combo" format="ascii" RangeMin="1" RangeMax="1">
          1 1 1 1 1 1
          1 1 1 1 1 1
          1 1 1 1 1 1
          1 1 1 1 1 1
          1 1 1 1 1 1
          1 1 1 1 1 1
          1 1 1 1 1 1
          1 1 1 1 1 1
          1 1 1 1 1 1
          1 1 1 1 1 1
          1 1 1 1 1 1
          1 1 1 1 1 1
          1 1 1 1 1 1
          1 1 1 1 1 1
          1 1 1 1 1 1
          1 1 1 1 1 1
          1 1 1 1 1 1
          1 1 1 1 1 1
          1 1 1 1 1 1
          1 1 1 1 1 1
          1 1 1 1 1 1
          1 1 1 1 1 1
          1 1 1 1 1 1
          1 1 1 1 1 1
          1 1 1 1 1 1
          1 1 1 1 1 1
          1 1 1 1 1 1
          1 1 1 1 1 1
          1 1 1 1 1 1
          1 1 1 1 1 1
          1 1 1 1 1 1
          1 1 1 1 1 1
          1 1 1 1 1 1
          1 1 1 1 1 1
          1 1 1 1 1 1
          1 1 1 1 1 1
          1 1 1 1 1 1
          1 1 1 1 1 1
          1 1 1 1 1 1
          1 1 1 1 1 1
          1 1 1 1 1 1
          1 1 1 1 1 1
          1 1 1 1 1 1
          1 1 1 1 1 1
          1 1 1 1 1 1
          1 1 1 1 1 1
          1 1 1 1 1 1
          1 1 1 1 1 1
          1 1 1 1 1 1
          1 1 1 1 1 1
          1 1 1 1 1 1
          1 1 1 1 1 1
          1 1 1 1 1 1
          1 1 1 1 1 1
          1 1 1 1 1 1
          1 1 1 1 1 1
          1 1 1 1 1 1
          1 1 1 1 1 1
          1 1 1
        </DataArray>
        <DataArray type="Float64" Name="dHdT" format="ascii" RangeMin="25.8241344093328" RangeMax="28.877553329314246">
          25.858146326678867 25.841077345155284 26.400478279809906 25.922064706972265 25.872365384179645 25.918509026682685
          25.895216178125924 25.867081111781417 26.136039051128574 25.835980904643655 25.833288961416812 25.840124807155014
          25.835531414787127 25.828085746577123 25.83038501789853 25.908618369535574 25.868111794525454 25.841975710125126
          25.83139150066398 25.85014451512705 25.826886583255877 25.94337933449603 26.004152067304364 25.9852673312381
          25.94359218774869 26.31227309055354 25.89322095459258 25.91111922166146 25.904973911395203 25.991709952013572
          25.88132732770842 25.876144284220597 25.90030353723 25.89214122326562 25.84222354033149 25.850328520869514
          25.8473357130607 25.86467758885555 25.873932040721947 25.84277906642365 26.068234801359125 26.029963960241368
          25.895270739641155 25.94993740132374 25.826341733260275 25.833051929854747 25.85398247443598 25.86135137462711
          25.83373110280282 25.838816483806234 25.849571011893637 25.85856683863875 25.83566639372514 25.890677546283133
          25.850647176917324 25.872997462820752 27.780680923280702 27.35878876207766 26.66050838788903 26.204845698216293
          26.665014716547663 26.486613614387842 26.121689820539608 26.05918047087834 26.18358901460632 25.951333085652575
          25.857429414605562 25.97947817361509 25.87961287445778 25.89527347201105 25.85158300723233 25.829114518426906
          25.8367408465566 25.8273036527672 25.829459168283257 25.82522357655219 25.8241344093328 25.86117771973517
          25.870192092789267 25.836881005732398 25.840653388549132 25.852231785249355 25.85705379535907 26.046594535299995
          26.14209811247512 26.131004623279274 26.100907133649976 26.376485374534187 25.999485235227407 26.058811048808305
          26.013420870426483 26.22579776560157 25.942431899106342 25.973492675209805 25.955862573966733 26.057271801997715
          25.975059864137314 25.970388930710968 26.03378402449303 26.026425498693996 25.916347424951496 25.95659151597244
          25.95191452364852 25.957527310546617 26.006293455270754 25.939108052517376 26.207797942670805 26.191616738116252
          26.05784310179862 26.14820633681899 25.881417595367754 25.87963157677961 25.9040098711162 25.901170961109163
          25.85532549653628 25.86934276885877 25.867684418513058 25.87463587212718 25.893413138863206 25.863218998384422
          25.971823723672642 25.965506184866804 25.904979141949305 25.948630250457335 25.938991135741254 25.977994221808675
          25.89650446462506 25.921324861132565 25.918788568421053 25.947635460030227 25.910620370805095 26.089499509060733
          25.9922834740515 26.02860979570536 25.867944589723855 25.883086243725636 25.84881892875162 25.857495420282213
          25.864462993384805 25.877678260826983 25.854578911962925 25.926160911454843 25.882468067608546 25.912072447299924
          25.83580258256538 25.840537467182685 25.834901380143258 25.839004406529128 25.854424917774487 25.850246327146994
          25.901111152788694 25.92107779995337 25.88383903170366 25.899133958977167 25.893290816409184 25.909353185817082
          25.889749102648963 25.97575116513906 25.9323034710675 25.946738305727816 26.886484993504393 26.83319475373122
          26.69440811526229 27.660808890779585 26.516317450220768 26.341137204655176 26.994258984439842 27.745807248370348
          27.126492685469138 26.193122847917348 26.08094766174011 26.39612069447892 25.97234193688201 26.003495588179085
          25.97279032327728 26.076581863873244 26.53661788224196 26.50080959415741 26.28075557105681 26.25778741516268
          26.407089880376926 26.197420348237817 27.133573806995912 27.054405879604886 26.614563211549243 26.85407401872618
          26.102417447393513 26.088340637385826 25.984591795838284 25.976432692652615 26.051415525709558 25.955104407390607
          26.338100803900552 26.307594930443447 26.10412916337063 26.22974715945541 26.28624614128211 26.119247575236702
          26.167216385896925 26.042207850018936 26.610047872838088 26.329666441839304 26.384493333818025 26.00367780901742
          25.92760258589923 25.956834337481887 25.900683478922332 26.133596921342708 26.003445227225914 26.043754407297346
          27.110624180538256 26.652031449362283 26.6995022283347 26.38823074706532 26.332615324371673 26.120063969163322
          26.170684209689018 26.025820070569626 25.87977292880269 25.86488594022081 25.84674532498612 25.92189775015416
          25.893170596708124 25.986324013834874 25.93474050835914 25.880638144175727 26.075508745130353 25.989650456296594
          26.066811830447286 25.977599320805563 25.991817739434186 25.94313987988279 26.20470637051842 26.066855159438123
          26.075074103407033 25.896055901441702 25.918080697440736 25.8660742081866 25.8787104746372 25.884394397095612
          25.90128111391156 25.869323937913908 25.972437938565832 25.910182227936478 25.93349658873475 25.921067082959546
          25.94146988406801 25.9009315956296 25.916367373466358 25.906528482560788 25.921809006251582 25.901828416963525
          25.989853004634554 25.9423101014747 25.9571695362935 26.394703514595232 26.19069479239332 26.18649664608579
          26.055709030257653 26.048795703607894 25.954795063071543 25.96603506724333 25.90668965519222 26.05276448422573
          25.970418544677777 26.001663297422358 25.93835606685993 25.90056467678972 25.914296741184693 25.868843763145787
          25.87666916290178 25.88495087397105 25.894878750923922 25.86542484035664 25.84589661098087 25.852866237616734
          25.837974424549547 25.84280427847428 25.842546272613163 25.847794235617656 25.839333009479777 25.870399317007674
          25.850635689605905 25.85799917539453 25.895473832793982 25.859947568373002 25.868603963069276 25.849633308487473
          25.92738059438221 25.88645306734542 25.84752637755283 25.85190345524667 25.839183447613678 25.842271795687452
          25.842617388179015 25.84570606156504 25.838036346557683 25.861637457224987 25.85257452770624 26.183151542829293
          26.05322558773411 25.9629517564632 25.90598433270096 25.86975534087284 25.90909324529969 25.99315228105295
          25.92842253225359 25.897114749897803 26.08917256700408 25.941447828896436 25.88887382177537 25.952883766106638
          25.867513015249695 25.848817676254317 25.866423883351793 25.897484994220672 28.877553329314246 27.83069302368353
          27.118931158469106 27.75678609723574 27.10470542935756 26.658848812324948 26.608802470927806 26.338216007079303
          26.28148833731499 26.124503390284673 26.67535212163137 26.368417003521465 26.632748258372374 27.02653790650919
          26.346108269174728 26.31995708075746 26.56416890787543 26.142910589746776 26.14541864687662 26.01167228400797
          26.019727996772566 25.938161572932785 26.169349664481082 26.09239378374341 26.12541426563746 26.275614381140905