<?xml version="1.0"?>
<VTKFile type="UnstructuredGrid" version="0.1" byte_order="LittleEndian" header_type="UInt32" compressor="vtkZLibDataCompressor">
  <UnstructuredGrid>
    <Piece NumberOfPoints="344" NumberOfCells="195">
      <PointData>
        <DataArray type="Int32" Name="libmesh_node_id" format="ascii" RangeMin="279" RangeMax="2845">
          279 280 531 533 536 539
          542 544 545 547 1084 1086
          1100 1101 1103 1106 1116 1118
          1120 1131 1146 1147 1148 1159
          1160 1161 1162 1163 1164 1165
          1166 1167 1168 1179 1180 1181
          1182 1183 1184 1185 1206 1209
          1211 1213 1214 1215 1216 1217
          1218 1220 1221 1222 1949 1950
          2036 2037 2038 2039 2040 2041
          2042 2050 2051 2052 2053 2054
          2055 2056 2137 2138 2140 2143
          2153 2155 2157 2171 2172 2174
          2177 2187 2189 2191 2240 2241
          2242 2243 2244 2245 2246 2254
          2255 2256 2257 2258 2259 2260
          2268 2269 2270 2271 2272 2273
          2274 2282 2283 2284 2285 2286
          2287 2288 2347 2348 2349 2354
          2355 2356 2463 2464 2465 2470
          2471 2472 2477 2478 2479 2487
          2488 2489 2527 2528 2529 2530
          2531 2532 2533 2534 2535 2536
          2537 2538 2539 2540 2541 2542
          2543 2544 2545 2546 2547 2548
          2549 2550 2551 2552 2553 2554
          2555 2556 2557 2558 2559 2560
          2561 2562 2563 2564 2565 2566
          2567 2568 2569 2570 2571 2572
          2573 2574 2575 2576 2577 2578
          2579 2580 2581 2582 2583 2584
          2585 2586 2587 2588 2589 2590
          2591 2592 2593 2594 2663 2664
          2665 2666 2667 2668 2669 2670
          2671 2672 2673 2674 2675 2676
          2677 2678 2679 2680 2681 2682
          2683 2684 2685 2686 2687 2688
          2689 2690 2691 2692 2693 2694
          2695 2696 2697 2698 2699 2700
          2701 2702 2703 2704 2705 2706
          2707 2708 2709 2710 2711 2712
          2713 2714 2715 2716 2717 2718
          2812 2813 2814 2815 2816 2817
          2818 2819 2820 2821 2829 2830
          2831 2832 2833 2834 2835 2836
          2837 2838 2839 2840 2841 2842
          2843 2844 2845 1203 1205 551
          1207 1204 1208 1210 556 1212
          1083 1333 1331 1087 2030 2032
          2034 1085 2044 2048 2046 2152
          2154 2156 2158 2141 2142 2169
          2170 2144 2173 2175 2176 2178
          2186 2188 2190 2192 1073 2148
          2234 2236 1102 2238 1115 2248
          2250 2252 1117 2182 2262 2264
          1107 2266 1119 2276 2278 2280
          1121 2804 2805 2808 2810 2823
          2825 2827
        </DataArray>
        <DataArray type="Float64" Name="bounds" format="ascii" RangeMin="0" RangeMax="0">
          0 0 0 0 0 0
          0 0 0 0 0 0
          0 0 0 0 0 0
          0 0 0 0 0 0
          0 0 0 0 0 0
          0 0 0 0 0 0
          0 0 0 0 0 0
          0 0 0 0 0 0
          0 0 0 0 0 0
          0 0 0 0 0 0
          0 0 0 0 0 0
          0 0 0 0 0 0
          0 0 0 0 0 0
          0 0 0 0 0 0
          0 0 0 0 0 0
          0 0 0 0 0 0
          0 0 0 0 0 0
          0 0 0 0 0 0
          0 0 0 0 0 0
          0 0 0 0 0 0
          0 0 0 0 0 0
          0 0 0 0 0 0
          0 0 0 0 0 0
          0 0 0 0 0 0
          0 0 0 0 0 0
          0 0 0 0 0 0
          0 0 0 0 0 0
          0 0 0 0 0 0
          0 0 0 0 0 0
          0 0 0 0 0 0
          0 0 0 0 0 0
          0 0 0 0 0 0
          0 0 0 0 0 0
          0 0 0 0 0 0
          0 0 0 0 0 0
          0 0 0 0 0 0
          0 0 0 0 0 0
          0 0 0 0 0 0
          0 0 0 0 0 0
          0 0 0 0 0 0
          0 0 0 0 0 0
          0 0 0 0 0 0
          0 0 0 0 0 0
          0 0 0 0 0 0
          0 0 0 0 0 0
          0 0 0 0 0 0
          0 0 0 0 0 0
          0 0 0 0 0 0
          0 0 0 0 0 0
          0 0 0 0 0 0
          0 0 0 0 0 0
          0 0 0 0 0 0
          0 0 0 0 0 0
          0 0 0 0 0 0
          0 0 0 0 0 0
          0 0 0 0 0 0
          0 0 0 0 0 0
          0 0
        </DataArray>
        <DataArray type="Float64" Name="gradient_error" format="ascii" RangeMin="2.991676923795756e-10" RangeMax="4.002184023259596e-8">
          3.217215115767861e-8 1.8044838765480538e-9 8.330311734123578e-9 2.47239080128842e-9 1.6490654330469515e-8 1.4733602488650574e-9
          6.829389835769678e-10 8.587910807214431e-9 3.0989085601576033e-9 9.717686032300336e-10 2.176800366637269e-9 3.184370898129672e-9
          3.068573952282219e-8 2.751281298210358e-8 1.3899540501537765e-8 3.2275704170013875e-8 4.921200342753942e-9 1.9918957354344165e-9
          5.70544293156734e-9 3.899259177836963e-9 1.4389465901029397e-9 5.545682158700549e-10 1.5828645755883714e-9 1.6888365574947548e-8
          1.4303877005263722e-8 7.220580806879105e-9 5.705974925487921e-9 6.733355281987543e-9 2.5597055495310914e-9 1.8869306472142107e-8
          1.700086524540293e-8 6.9771787945248974e-9 8.108988907693327e-9 2.2527617414699693e-9 8.62287778139094e-10 1.557481907894664e-9
          8.908873165653528e-10 2.6284961026070427e-9 1.0045645258959808e-9 1.2371249101675418e-9 2.0803232259293688e-9 2.572971261547419e-9
          1.7474649245024426e-9 1.7785491639863244e-9 1.6672790777791953e-9 8.175617262593599e-10 1.004681751954526e-9 9.987136905323787e-10
          1.1743890256631892e-9 1.2766894935060839e-9 1.069681142887289e-9 1.2609446373167948e-9 1.2347085686441288e-8 1.1227323736964955e-8
          5.1562378276173766e-9 3.7162966003968406e-9 3.267163048323973e-9 2.3233832866931224e-9 7.203176178528006e-9 5.246831401624419e-9
          4.44563900575496e-9 2.007111594387594e-9 1.4101889844837278e-9 1.5098125629300909e-9 1.0535776053321883e-9 2.679316055438957e-9
          1.892196765145533e-9 1.7374859521469451e-9 2.6302416515252805e-8 2.547588544045185e-8 2.226442121443771e-8 3.0447847023715754e-8
          1.6835547960573843e-8 1.1221391978066625e-8 2.09899147285657e-8 3.214614992662686e-8 3.293854909785481e-8 3.1053997935445185e-8
          3.3517069015576725e-8 2.3966673739950834e-8 1.58018048827924e-8 2.5055504256582393e-8 9.396218408996443e-9 6.911267411206398e-9
          5.679361955875687e-9 4.097462047782508e-9 1.1385563263660156e-8 8.441042838081572e-9 6.7806083889556786e-9 3.371963389089529e-9
          2.396842218782188e-9 1.933122898384074e-9 1.5476670513621415e-9 3.967968095295438e-9 2.8338667584908945e-9 2.26730846113666e-9
          1.2781759865965812e-8 9.525808835623832e-9 7.546198968946223e-9 5.49793396139204e-9 1.3284519178910686e-8 9.91863875071266e-9
          7.820731870018193e-9 4.365515319694623e-9 3.1239403788085252e-9 2.481718339154684e-9 1.736648078011828e-9 4.504366452661039e-9
          3.2253566777312795e-9 2.55787744652089e-9 8.817438293727871e-9 5.9262711199728375e-9 5.8581080263531785e-9 3.747970829392473e-9
          2.2360703614246962e-9 2.45884756474468e-9 3.641661917888268e-9 2.4080832737636855e-9 2.1859593687977604e-9 1.5196250151809671e-9
          9.178667862269228e-10 9.102808832869671e-10 1.279407341684586e-9 8.372212538713328e-10 9.338999782090268e-10 5.317877736914252e-10
          3.286438421220183e-10 3.872709393163231e-10 1.9634169153786435e-8 1.8929911911213146e-8 1.4006443932503285e-8 1.3385989635403292e-8
          1.636975831696651e-8 1.1355915926195791e-8 2.3218763093389308e-8 2.2806415794458048e-8 1.6411050117743615e-8 2.032104531842325e-8
          9.2893912283439e-9 8.801895727424023e-9 5.685111800768512e-9 5.355559700187974e-9 7.338670864780044e-9 4.416285174322619e-9
          1.1552558909421113e-8 1.1071334049615103e-8 6.851870428625388e-9 9.391255800217544e-9 1.2193103490464772e-8 8.297446837084176e-9
          7.976971494566788e-9 5.3490153565751755e-9 1.5332020636910213e-8 1.0552111776162824e-8 9.9720194360594e-9 5.2871200129650914e-9
          3.16078329148438e-9 3.384003232645457e-9 2.0251457680370377e-9 6.779254587476086e-9 4.068580162749003e-9 4.2759516910585325e-9
          2.5123594179428938e-8 2.5117444611826465e-8 1.8435311193951456e-8 1.821541281502949e-8 2.2986136701161375e-8 1.6302946035669692e-8
          2.566464436756063e-8 2.585283159225106e-8 1.878219730980956e-8 2.3919222003789773e-8 1.2932298874962306e-8 1.2541449840360777e-8
          8.240631460331304e-9 7.879923915262871e-9 1.0837607478997092e-8 6.638390981669448e-9 1.3368214632435191e-8 1.3032142530978122e-8
          8.239552807122969e-9 1.1354035973727154e-8 1.7552317736076898e-8 1.2169729445769798e-8 1.1405212578576601e-8 7.739923102074551e-9
          1.835293332137738e-8 1.275620436811558e-8 1.1926930348083887e-8 7.870151691140977e-9 4.739751454260303e-9 4.929598280900822e-9
          2.95344227435503e-9 8.270481665648475e-9 4.9876583356412365e-9 5.170288886619345e-9 4.8320741604769236e-9 3.2088395209444564e-9
          2.8262976262658387e-9 1.863959120434338e-9 5.938031841781773e-9 3.958841552683457e-9 3.408766960788899e-9 2.0264605641016264e-9
          1.220704427837849e-9 1.178188870597572e-9 7.155128281210382e-10 2.50320975035833e-9 1.505645174473824e-9 1.4235342390867763e-9
          1.6241266028689136e-9 1.060826377473171e-9 1.1782083006628069e-9 7.619800028962913e-10 1.9337491837567528e-9 1.2668050112249695e-9
          1.1831774249213755e-9 6.706323597006901e-10 4.12036097544536e-10 4.811001639928184e-10 2.991676923795756e-10 7.966207408076896e-10
          4.854467586187315e-10 5.667958863676006e-10 6.728811883962085e-9 4.498685006008663e-9 3.819431185642617e-9 2.5285286582367586e-9
          7.01649397210494e-9 4.6958075122748385e-9 3.967781313070485e-9 2.8478916911405295e-9 1.7120061439590658e-9 1.5979839125556022e-9
          9.666458420794725e-10 2.97410097146483e-9 1.7876494304085727e-9 1.661349740960742e-9 2.1493051694032265e-9 1.4139256349724392e-9
          1.1777912030167367e-9 8.909382710323593e-10 2.2270091842223755e-9 1.4678405542880166e-9 1.231233187416631e-9 8.859967419345698e-10
          5.370078160078683e-10 6.283017092843618e-10 3.7978900244101017e-10 9.185551138475269e-10 5.556586313769335e-10 6.509967288282352e-10
          1.0230288148630025e-9 1.114281771889335e-9 8.60155786675426e-10 9.206360608493398e-10 8.355872972180454e-10 8.682501342244683e-10
          7.385091000163901e-10 1.278317546794227e-9 9.455018327294249e-10 9.43825244745184e-10 1.3910987853221676e-9 9.628281804992707e-10
          1.0021092277492186e-9 7.086808235647822e-10 1.431097205971549e-9 9.979617794160308e-10 1.0174809372389606e-9 6.342366654177963e-10
          6.534291035950458e-10 5.266276357897788e-10 5.306238925418203e-10 5.149578358337791e-10 5.018794935038486e-10 4.2323100728119324e-10
          6.726215417722951e-10 5.346201492938619e-10 4.888011511739181e-10 4.684371506565899e-9 2.7815020687221357e-9 5.316843356429558e-9
          4.231619779298431e-9 3.2858970738690765e-9 5.252842023457223e-9 3.554432543809489e-9 6.437721085749218e-9 5.657270083717933e-9
          4.346238607546815e-9 2.6110728248780746e-9 5.1654275480392445e-9 4.08150276049907e-9 6.853748235885955e-9 4.4250685554453675e-9
          9.443311418751853e-9 5.956243690789647e-9 2.7693456994584085e-9 3.6557694903724526e-9 2.109569637186433e-9 2.2069007653278498e-8
          1.4936301177215812e-8 2.7412036819641188e-8 1.835583674466522e-8 3.645690260002541e-8 3.724869627984143e-8 3.4797607478461405e-8
          3.7905141693707195e-8 3.518846448808958e-8 3.890513894671585e-8 3.314678646153255e-8 3.7417446950678486e-8 4.002184023259596e-8
          3.119565442935282e-8 2.080625548612055e-8 3.2547598374071586e-8 2.170244491377254e-8 1.4396712709451747e-8 1.895352363094905e-8
          1.2174530809566507e-8 7.538025143962387e-9 2.319581610830553e-8 1.4627732663577798e-8 8.935806636476077e-9 4.5532758600110515e-9
          2.6724661749558186e-9 5.331113035794004e-9 3.122026287300376e-9 2.6248761260709024e-8 1.6348462617133932e-8 9.900658815082293e-9
          2.7361165742378664e-8 1.697028862960536e-8 1.0245411009354277e-8 5.8626008317756166e-9 3.4105082623671355e-9 6.050030434974707e-9
          3.5115541288892825e-9 1.455183267147993e-9 1.582207789739452e-9 1.2195955331200117e-9 1.8053071734140679e-9 1.9541700604867614e-9
          1.4171427619450948e-9 2.0069580864762973e-9
        </DataArray>
        <DataArray type="Float64" Name="gradient_matprop_error" format="ascii" RangeMin="0" RangeMax="0">
          0 0 0 0 0 0
          0 0 0 0 0 0
          0 0 0 0 0 0
          0 0 0 0 0 0
          0 0 0 0 0 0
          0 0 0 0 0 0
          0 0 0 0 0 0
          0 0 0 0 0 0
          0 0 0 0 0 0
          0 0 0 0 0 0
          0 0 0 0 0 0
          0 0 0 0 0 0
          0 0 0 0 0 0
          0 0 0 0 0 0
          0 0 0 0 0 0
          0 0 0 0 0 0
          0 0 0 0 0 0
          0 0 0 0 0 0
          0 0 0 0 0 0
          0 0 0 0 0 0
          0 0 0 0 0 0
          0 0 0 0 0 0
          0 0 0 0 0 0
          0 0 0 0 0 0
          0 0 0 0 0 0
          0 0 0 0 0 0
          0 0 0 0 0 0
          0 0 0 0 0 0
          0 0 0 0 0 0
          0 0 0 0 0 0
          0 0 0 0 0 0
          0 0 0 0 0 0
          0 0 0 0 0 0
          0 0 0 0 0 0
          0 0 0 0 0 0
          0 0 0 0 0 0
          0 0 0 0 0 0
          0 0 0 0 0 0
          0 0 0 0 0 0
          0 0 0 0 0 0
          0 0 0 0 0 0
          0 0 0 0 0 0
          0 0 0 0 0 0
          0 0 0 0 0 0
          0 0 0 0 0 0
          0 0 0 0 0 0
          0 0 0 0 0 0
          0 0 0 0 0 0
          0 0 0 0 0 0
          0 0 0 0 0 0
          0 0 0 0 0 0
          0 0 0 0 0 0
          0 0 0 0 0 0
          0 0 0 0 0 0
          0 0 0 0 0 0
          0 0 0 0 0 0
          0 0 0 0 0 0
          0 0
        </DataArray>
        <DataArray type="Float64" Name="initial_marker" format="ascii" RangeMin="0" RangeMax="2">
          2 2 2 1 2 2
          0.25 2 2 1 0.25 2
          2 2 2 2 2 1.75
          2 2 2 2 0.75 2
          2 2 2 2 2 2
          2 2 2 2 2 1
          1 2 2 1.5 0 0
          0 0 0 0 0 0
          0 0 0 0 2 2
          2 2 2 2 2 2
          2 2 1.75 2 1.5 2
          2 1.6666666666666667 2 2 2 2
          2 2 2 2 2 2
          2 2 2 2 2 2
          2 2 2 2 2 2
          2 1.75 1.6666666666666667 2 2 2
          2 2 2 2 2 2
          2 2 2 2 2 2
          2 2 2 2 2 2
          2 2 2 2 2 2
          2 2 2 1.75 2 1.5
          1.25 1 2 2 2 2
          2 2 2 2 2 2
          2 2 2 2 2 2
          2 2 2 2 2 2
          2 2 2 2 2 2
          2 2 2 2 2 2
          2 2 2 2 2 2
          2 2 2 2 2 2
          2 2 2 2 2 2
          2 2 2 2 2 2
          2 2 2 2 2 2
          2 2 2 2 2 2
          2 2 2 2 2 2
          2 2 2 2 2 2
          2 2 2 2 2 2
          1.6666666666666667 2 1.75 2 1.5 2
          2 2 2 2 2 2
          2 2 2 2 2 2
          2 2 2 2 2 2
          1.75 1.6666666666666667 2 2 2 2
          2 2 2 2 2 2
          0.5 0.75 0 0.5 0 0
          0 1 1 0 1 1
          0 0 1 1 0 0.5
          0.75 0 0.5 0 0 0
          1 1 0 0 0 0
          0 0 0 0 0 0
          0.5 0 0 1.5 2 2
          2 2 2 2 2 2
          2 2 2 2 2 2
          2 2 2 2 2 2
          2 2 2 2 2 2
          2 2 2 2 2 2
          2 2 2 2 2 2
          2 2 2 2 2 2
          2 1 1 0 1 1
          0 1
        </DataArray>
        <DataArray type="Float64" Name="markers_norefine" format="ascii" RangeMin="0" RangeMax="1">
          0 0 0 0 0 0
          0 0 0 0 0 0
          0 0 0 0 0 0
          0 0 0 0 0 0
          0 0 0 0 0 0
          0 0 0 0 0 0
          0 0 0 0 0 0
          0 0 0 0 0 0
          0 0 0 0 0 0
          0 0 0 0 0 0
          0 0 0 0 0 0
          0 0 0 0 0 0
          0 0 0 0 0 0
          0 0 0 0 0 0
          0 0 0 0 0 0
          0 0 0 0 0 0
          0 0 0 0 0 0
          0 0 0 0 0 0
          0 0 0 0 0 0
          0 0 0 0 0 0
          0 0 0 0 0 0
          0 0 0 0 0 0
          0 0 0 0 0 0
          0 0 0 0 0 0
          0 0 0 0 0 0
          0 0 0 0 0 0
          0 0 0 0 0 0
          0 0 0 0 0 0
          0 0 0 0 0 0
          0 0 0 0 0 0
          0 0 0 0 0 0
          0 0 0 0 0 0
          0 0 0 0 0 0
          0 0 0 0 0 0
          0 0 0 0 0 0
          0 0 0 0 0 0
          0 0 0 0 0 0
          0 0 0 0 0 0
          0 0 0 0 0 0
          0 0 0 0 0 0
          0 0 0 0 0 0
          0 0 0 0 0 0
          0 0 0 0 0 0
          0 0 0 0 0 0
          0 0 0 0 0 0
          0 0 0 0 0 0
          0 0 0 0 0 0
          0 0 0 0 0 0
          0 0 0 0 0 0
          0 0 0 0 0 0
          0 0 0 0 0 0.5
          0.25 0 0 1 0.5 0
          0 0 0 0 0 0
          0 0 0 0 0 0
          0 0 0 0 0 0
          0 0 0 0 0 0
          0 0 0 0 0 0
          0 0
        </DataArray>
        <DataArray type="Float64" Name="markers_mustrefine" format="ascii" RangeMin="0" RangeMax="2">
          2 2 2 1 2 2
          0.25 2 2 1 0.25 2
          2 2 2 2 2 1.75
          2 2 2 2 0.75 2
          2 2 2 2 2 2
          2 2 2 2 2 1
          1 2 2 1.5 0 0
          0 0 0 0 0 0
          0 0 0 0 2 2
          2 2 2 2 2 2
          2 2 1.75 2 1.5 2
          2 1.6666666666666667 2 2 2 2
          2 2 2 2 2 2
          2 2 2 2 2 2
          2 2 2 2 2 2
          2 1.75 1.6666666666666667 2 2 2
          2 2 2 2 2 2
          2 2 2 2 2 2
          2 2 2 2 2 2
          2 2 2 2 2 2
          2 2 2 1.75 2 1.5
          1.25 1 2 2 2 2
          2 2 2 2 2 2
          2 2 2 2 2 2
          2 2 2 2 2 2
          2 2 2 2 2 2
          2 2 2 2 2 2
          2 2 2 2 2 2
          2 2 2 2 2 2
          2 2 2 2 2 2
          2 2 2 2 2 2
          2 2 2 2 2 2
          2 2 2 2 2 2
          2 2 2 2 2 2
          2 2 2 2 2 2
          2 2 2 2 2 2
          1.6666666666666667 2 1.75 2 1.5 2
          2 2 2 2 2 2
          2 2 2 2 2 2
          2 2 2 2 2 2
          1.75 1.6666666666666667 2 2 2 2
          2 2 2 2 2 2
          0.5 0.75 0 0.5 0 0
          0 1 1 0 1 1
          0 0 1 1 0 0.5
          0.75 0 0.5 0 0 0
          1 1 0 0 0 0
          0 0 0 0 0 0
          0.5 0 0 1.5 2 2
          2 2 2 2 2 2
          2 2 2 2 2 2
          2 2 2 2 2 2
          2 2 2 2 2 2
          2 2 2 2 2 2
          2 2 2 2 2 2
          2 2 2 2 2 2
          2 1 1 0 1 1
          0 1
        </DataArray>
        <DataArray type="Float64" Name="gradient_marker" format="ascii" RangeMin="1" RangeMax="1">
          1 1 1 1 1 1
          1 1 1 1 1 1
          1 1 1 1 1 1
          1 1 1 1 1 1
          1 1 1 1 1 1
          1 1 1 1 1 1
          1 1 1 1 1 1
          1 1 1 1 1 1
          1 1 1 1 1 1
          1 1 1 1 1 1
          1 1 1 1 1 1
          1 1 1 1 1 1
          1 1 1 1 1 1
          1 1 1 1 1 1
          1 1 1 1 1 1
          1 1 1 1 1 1
          1 1 1 1 1 1
          1 1 1 1 1 1
          1 1 1 1 1 1
          1 1 1 1 1 1
          1 1 1 1 1 1
          1 1 1 1 1 1
          1 1 1 1 1 1
          1 1 1 1 1 1
          1 1 1 1 1 1
          1 1 1 1 1 1
          1 1 1 1 1 1
          1 1 1 1 1 1
          1 1 1 1 1 1
          1 1 1 1 1 1
          1 1 1 1 1 1
          1 1 1 1 1 1
          1 1 1 1 1 1
          1 1 1 1 1 1
          1 1 1 1 1 1
          1 1 1 1 1 1
          1 1 1 1 1 1
          1 1 1 1 1 1
          1 1 1 1 1 1
          1 1 1 1 1 1
          1 1 1 1 1 1
          1 1 1 1 1 1
          1 1 1 1 1 1
          1 1 1 1 1 1
          1 1 1 1 1 1
          1 1 1 1 1 1
          1 1 1 1 1 1
          1 1 1 1 1 1
          1 1 1 1 1 1
          1 1 1 1 1 1
          1 1 1 1 1 1
          1 1 1 1 1 1
          1 1 1 1 1 1
          1 1 1 1 1 1
          1 1 1 1 1 1
          1 1 1 1 1 1
          1 1 1 1 1 1
          1 1
        </DataArray>
        <DataArray type="Float64" Name="gradient_matprop_marker" format="ascii" RangeMin="0" RangeMax="0">
          0 0 0 0 0 0
          0 0 0 0 0 0
          0 0 0 0 0 0
          0 0 0 0 0 0
          0 0 0 0 0 0
          0 0 0 0 0 0
          0 0 0 0 0 0
          0 0 0 0 0 0
          0 0 0 0 0 0
          0 0 0 0 0 0
          0 0 0 0 0 0
          0 0 0 0 0 0
          0 0 0 0 0 0
          0 0 0 0 0 0
          0 0 0 0 0 0
          0 0 0 0 0 0
          0 0 0 0 0 0
          0 0 0 0 0 0
          0 0 0 0 0 0
          0 0 0 0 0 0
          0 0 0 0 0 0
          0 0 0 0 0 0
          0 0 0 0 0 0
          0 0 0 0 0 0
          0 0 0 0 0 0
          0 0 0 0 0 0
          0 0 0 0 0 0
          0 0 0 0 0 0
          0 0 0 0 0 0
          0 0 0 0 0 0
          0 0 0 0 0 0
          0 0 0 0 0 0
          0 0 0 0 0 0
          0 0 0 0 0 0
          0 0 0 0 0 0
          0 0 0 0 0 0
          0 0 0 0 0 0
          0 0 0 0 0 0
          0 0 0 0 0 0
          0 0 0 0 0 0
          0 0 0 0 0 0
          0 0 0 0 0 0
          0 0 0 0 0 0
          0 0 0 0 0 0
          0 0 0 0 0 0
          0 0 0 0 0 0
          0 0 0 0 0 0
          0 0 0 0 0 0
          0 0 0 0 0 0
          0 0 0 0 0 0
          0 0 0 0 0 0
          0 0 0 0 0 0
          0 0 0 0 0 0
          0 0 0 0 0 0
          0 0 0 0 0 0
          0 0 0 0 0 0
          0 0 0 0 0 0
          0 0
        </DataArray>
        <DataArray type="Float64" Name="combo" format="ascii" RangeMin="1" RangeMax="1.5">
          1 1 1 1 1 1
          1 1 1 1 1 1
          1 1 1 1 1 1
          1 1 1 1 1 1
          1 1 1 1 1 1
          1 1 1 1 1 1
          1 1 1 1 1 1
          1 1 1 1 1 1
          1 1 1 1 1 1
          1 1 1 1 1 1
          1 1 1 1 1 1
          1 1 1 1 1 1
          1 1 1 1 1 1
          1 1 1 1 1 1
          1 1 1 1 1 1
          1 1 1 1 1 1
          1 1 1 1 1 1
          1 1 1 1 1 1
          1 1 1 1 1 1
          1 1 1 1 1 1
          1 1 1 1 1 1
          1 1 1 1 1 1
          1 1 1 1 1 1
          1 1 1 1 1 1
          1 1 1 1 1 1
          1 1 1 1 1 1
          1 1 1 1 1 1
          1 1 1 1 1 1
          1 1 1 1 1 1
          1 1 1 1 1 1
          1 1 1 1 1 1
          1 1 1 1 1 1
          1 1 1 1 1 1
          1 1 1 1 1 1
          1 1 1 1 1 1
          1 1 1 1 1 1
          1 1 1 1 1 1
          1 1 1 1 1 1
          1 1 1 1 1 1
          1 1 1 1 1 1
          1 1 1 1 1 1
          1 1 1 1 1 1
          1 1 1 1 1 1
          1 1 1 1 1 1
          1 1 1 1 1 1
          1 1 1 1 1 1
          1 1 1 1 1 1
          1 1 1 1 1 1
          1 1 1 1 1 1
          1 1 1 1 1 1
          1 1 1 1 1 1.25
          1.125 1 1 1.5 1.25 1
          1 1 1 1 1 1
          1 1 1 1 1 1
          1 1 1 1 1 1
          1 1 1 1 1 1
          1 1 1 1 1 1
          1 1
        </DataArray>
        <DataArray type="Float64" Name="dHdT" format="ascii" RangeMin="25.848817676254317" RangeMax="50.281194235678285">
          39.00816561256163 26.25947605035519 27.75678609723574 26.08917256700408 30.27455840932202 26.124503390284673
          25.867513015249695 28.18463534961466 26.46397026794775 25.891662733095735 25.99315228105295 26.56416890787543
          37.029803763988966 34.85171977449639 29.35792354657959 36.23107574863735 26.964138778623305 26.20023998058318
          27.15000533319314 26.658848812324948 26.142910589746776 25.938161572932785 25.941447828896436 31.75011351669973
          29.6781748582144 27.635339632159617 27.089570035121852 27.289638736728524 26.350433403635314 33.85392165774833
          30.95538613170355 27.43733655362677 27.616326672771738 26.319867149227573 26.003772664600618 25.98236175686651
          25.88465425379941 26.401271025397563 26.034018038043552 25.999149386577002 25.97040258530786 25.93654112290746
          25.981530248997935 25.88887382177537 25.896021968972455 25.848817676254317 25.855790466955046 25.866423883351793
          25.874223507482256 25.893623924161247 25.858371352767307 25.877475053729718 28.877553329314246 28.623547257654312
          27.046804764673528 26.67535212163137 26.611447199052087 26.368417003521465 27.54917370384545 27.02653790650919
          26.888958245767522 26.32747824536272 26.169349664481082 26.217232545611665 26.09239378374341 26.47950446377003
          26.275614381140905 26.27299710316127 35.36774938006109 34.70020484392996 32.810944908051354 36.55419238627729
          30.412532216212806 28.532378440915345 32.00107455989325 38.2183035457925 37.58650496829944 35.93048550871699
          38.08296876462482 33.11100962456096 30.019665787740397 33.492100662621155 28.124569519204915 27.422007587279005
          27.186282025911698 26.772938066171214 28.69244740140077 27.802906597288022 27.460004812917212 26.636917844060157
          26.385279975097134 26.31432247373284 26.202248663885033 26.777982085999458 26.484321733806865 26.386712726240372
          29.12499578255283 28.086056033830275 27.656323777478995 27.10045512318163 29.288902515433573 28.191956632081578
          27.728244961291598 26.877359883972943 26.554628166079414 26.438940300734927 26.24652351503091 26.913463501022164
          26.58012889314937 26.45780649290515 27.83069302368353 27.10470542935756 27.118931158469106 26.608802470927806
          26.28148833731499 26.338216007079303 26.632748258372374 26.346108269174728 26.31995708075746 26.14541864687662
          26.01167228400797 26.019727996772566 26.12541426563746 26.017983145904445 26.051688209588313 25.943432040282904
          25.893709051756403 25.915477049213322 32.60974174342025 31.961354224660187 29.8839978541925 29.493118560024527
          30.39746040101616 28.594411855007856 35.06384499581817 34.28191493349435 31.115426620289192 32.205375975872904
          28.160213645797405 27.956071597359816 27.144816715948274 27.035294462180445 27.471339602302816 26.770801478669455
          29.098818646551926 28.7836600757428 27.473676251179164 28.05265430322582 28.77420475593884 27.671943887405533
          27.61878066147056 26.97614643119138 29.828421914779604 28.272866869963533 28.12545554636739 26.947519963802527
          26.477210963458507 26.533066511726023 26.238983739271518 27.294753159300264 26.675190054616387 26.723525441222055
          36.44228660118197 35.69277551001432 33.289195118302246 32.477147072851395 33.513636255305926 30.594177272208928
          36.831081401430836 36.11906385985055 32.99258866801378 33.96713802667547 29.893048878734678 29.47602448729491
          28.031411460882687 27.825652810836452 28.52356830059719 27.340552813290167 30.210094677084854 29.75124420458062
          27.962077738063357 28.708304140680823 30.684374385011715 28.755577223248707 28.518012368988956 27.526654208797773
          31.010571592694024 28.94470109772272 28.668525972301914 27.564312212222077 26.82644539832864 26.865853828075583
          26.433200304443695 27.667851590503588 26.883634371980516 26.919224155932312 26.898413383160744 26.518531803485523
          26.461658230955067 26.235456119154644 27.15077559176296 26.68122123461429 26.59118937749477 26.252700834543642
          26.07518517593369 26.07749128318793 25.97239786928616 26.353699175647446 26.13497454090865 26.130230459105988
          26.199737722296327 26.066447556755037 26.10187984180837 26.004056950440983 26.266160529977405 26.109132570496516
          26.10681702830348 25.973734163953367 25.911990387514916 25.936044679087757 25.890179087772573 26.000428767373524
          25.92824416945944 25.953443302468422 27.335279969560784 26.799032169827466 26.68340284036603 26.379645359963863
          27.4034990710605 26.84210608309354 26.716910109384372 26.426854998749715 26.17825495439469 26.167493557503853
          26.02597747372683 26.453697045062476 26.194159022181438 26.18096193637476 26.312803010790127 26.138544980833778
          26.10429891842157 26.029061859679913 26.329627519301994 26.149027155170778 26.111602452708016 26.018769048672414
          25.939453023349976 25.965041242790306 25.908739730015448 26.02531361551836 25.94347494195587 25.96913776826944
          26.11070220684299 26.129115249502743 26.057619741762053 26.072645340527917 26.04899447113968 26.061032400822043
          26.018098758802534 26.16458037271467 26.075540687866976 26.084411868917627 26.191427606301037 26.07528747553229
          26.102592821205096 26.01440912147241 26.201222759335234 26.081099388911003 26.109432235079336 25.988456150589194
          25.990691440991252 25.954465776580037 25.955409250870254 25.949779505748616 25.950861265389488 25.924541109259415
          25.992926731393307 25.956352725160468 25.95194302503036 26.083975035243007 25.952883766106638 25.897484994220672
          26.012842148727962 26.125883710679982 26.053676013731547 26.152155096529036 25.916468240018883 26.071087989181393
          26.177466030259005 25.92842253225359 26.035657180185378 26.38816569670939 27.52511942360345 26.926733380251008
          28.22693501785817 27.30859901942273 26.536166079816514 26.747283982497464 26.383598052370587 32.46814007249802
          29.823336515270235 34.24208116758116 31.078283379556 41.25638290438228 39.763861238799336 47.19164547280966
          44.21726254439936 37.04555396113187 38.91910663784209 50.281194235678285 46.590780465527374 39.84675870202231
          35.23834119358723 31.987897147750022 35.53915180184463 32.3053976515651 29.787821024053848 31.48312204943616
          29.055696288622393 27.72138180325544 33.008504312719715 29.90778635836604 28.105805707546875 26.96586506716288
          26.522340210397303 27.160723058584708 26.62233873990268 33.93957267619302 30.568740828288135 28.384656645067654
          34.237303572760396 30.81647787250165 28.487761874117496 27.29714564010227 26.69283462120455 27.3468004002981
          26.718296504749638 26.23581091112893 26.26176024979883 26.164733016625675 26.311275005149177 26.348298560877108
          26.223874539509925 26.361756699924584
        </DataArray>
        <DataArray type="Float64" Name="dk/dtemperature" format="ascii" RangeMin="0.007218544991705995" RangeMax="0.0273233785282617">
          0.008066832740411149 0.015349936999062017 0.01347725661441121 0.015647958608585012 0.01141966926718529 0.015586505017934113
          0.015804580349343192 0.013016070784678594 0.01506097303237805 0.015804580349343192 0.015783697450575434 0.014875353405963358
          0.007218544991705995 0.00835862589485653 0.012045276078289072 0.007524360649088999 0.014385984000393153 0.01544032472655981
          0.01414425561159023 0.01477087601182708 0.015555180669782476 0.015804580349343192 0.015804580349343192 0.010438554895564212