<?xml version="1.0"?>
<VTKFile type="UnstructuredGrid" version="0.1" byte_order="LittleEndian" header_type="UInt32" compressor="vtkZLibDataCompressor">
  <UnstructuredGrid>
    <Piece NumberOfPoints="375" NumberOfCells="185">
      <PointData>
        <DataArray type="Int32" Name="libmesh_node_id" format="ascii" RangeMin="145" RangeMax="1519">
          145 146 172 173 196 197
          198 202 206 208 209 211
          215 216 221 236 237 240
          241 243 244 245 246 247
          249 250 251 253 254 255
          256 262 263 268 300 301
          302 303 325 326 327 328
          335 336 353 354 355 356
          357 358 359 360 361 362
          363 364 365 366 377 378
          379 380 381 383 384 385
          386 387 388 390 408 409
          410 414 418 420 421 422
          423 424 425 426 427 428
          429 430 431 432 433 434
          435 436 437 438 439 440
          441 444 445 446 448 449
          451 452 453 459 466 467
          470 472 473 475 492 493
          494 499 626 627 630 632
          634 639 669 670 671 675
          676 677 678 679 680 681
          686 687 691 694 696 697
          698 699 700 701 702 703
          704 705 706 707 708 709
          710 712 713 714 715 716
          717 718 720 722 723 724
          725 726 727 728 777 778
          779 780 781 782 783 784
          785 786 787 788 789 790
          791 792 793 794 795 796
          797 798 800 801 802 804
          826 827 828 829 830 831
          832 833 834 835 836 837
          840 842 843 845 846 847
          848 849 850 851 852 853
          854 855 857 859 861 862
          863 864 865 866 867 868
          869 870 871 872 873 876
          878 879 881 882 883 884
          885 886 887 888 889 891
          893 895 1292 1293 1294 1295
          1296 1297 1298 1405 1406 1407
          1409 1411 1412 1413 1414 1415
          1416 1417 1418 1419 1420 1421
          1422 1423 1424 1427 1432 1433
          1436 1438 1439 1440 1441 1442
          1443 1444 1445 1446 1447 1448
          1453 1458 1459 1460 1461 1462
          1464 1466 1468 210 259 264
          382 219 389 442 443 447
          257 450 258 454 455 456
          457 458 460 461 487 486
          489 488 490 491 495 497
          496 498 711 719 721 471
          266 799 838 839 841 468
          844 469 803 856 858 860
          875 877 890 892 474 894
          1408 1425 1426 1428 1429 1430
          874 1431 1449 1450 1452 1454
          1455 1456 1457 880 1437 1463
          1465 1467 1410 1477 1479 1434
          1517 1519 1435
        </DataArray>
        <DataArray type="Float64" Name="bounds" format="ascii" RangeMin="0" RangeMax="0">
          0 0 0 0 0 0
          0 0 0 0 0 0
          0 0 0 0 0 0
          0 0 0 0 0 0
          0 0 0 0 0 0
          0 0 0 0 0 0
          0 0 0 0 0 0
          0 0 0 0 0 0
          0 0 0 0 0 0
          0 0 0 0 0 0
          0 0 0 0 0 0
          0 0 0 0 0 0
          0 0 0 0 0 0
          0 0 0 0 0 0
          0 0 0 0 0 0
          0 0 0 0 0 0
          0 0 0 0 0 0
          0 0 0 0 0 0
          0 0 0 0 0 0
          0 0 0 0 0 0
          0 0 0 0 0 0
          0 0 0 0 0 0
          0 0 0 0 0 0
          0 0 0 0 0 0
          0 0 0 0 0 0
          0 0 0 0 0 0
          0 0 0 0 0 0
          0 0 0 0 0 0
          0 0 0 0 0 0
          0 0 0 0 0 0
          0 0 0 0 0 0
          0 0 0 0 0 0
          0 0 0 0 0 0
          0 0 0 0 0 0
          0 0 0 0 0 0
          0 0 0 0 0 0
          0 0 0 0 0 0
          0 0 0 0 0 0
          0 0 0 0 0 0
          0 0 0 0 0 0
          0 0 0 0 0 0
          0 0 0 0 0 0
          0 0 0 0 0 0
          0 0 0 0 0 0
          0 0 0 0 0 0
          0 0 0 0 0 0
          0 0 0 0 0 0
          0 0 0 0 0 0
          0 0 0 0 0 0
          0 0 0 0 0 0
          0 0 0 0 0 0
          0 0 0 0 0 0
          0 0 0 0 0 0
          0 0 0 0 0 0
          0 0 0 0 0 0
          0 0 0 0 0 0
          0 0 0 0 0 0
          0 0 0 0 0 0
          0 0 0 0 0 0
          0 0 0 0 0 0
          0 0 0 0 0 0
          0 0 0 0 0 0
          0 0 0
        </DataArray>
        <DataArray type="Float64" Name="gradient_error" format="ascii" RangeMin="1.3710995882725354e-9" RangeMax="5.101430275888493e-7">
          3.945803495480705e-8 4.70028978622953e-8 2.6642509986398286e-7 1.2632255083595037e-8 6.090326069200451e-8 1.9306110020433167e-7
          1.0924798779705207e-7 4.863213470406992e-8 2.3448713836502601e-7 3.0161352916873854e-9 1.2837037575437942e-8 2.5953555489206617e-8
          1.5313819973894884e-8 1.2964124021448908e-8 4.1588538008133575e-9 2.4127797670138353e-7 3.0785588603180954e-7 4.141633890589115e-7
          4.3426869998099415e-7 1.3498829320790788e-7 3.9770711103932915e-7 3.067435487410705e-7 3.157148875365111e-7 3.5225625287040445e-7
          1.6049994948126479e-7 3.0444906652099546e-7 4.2845988250245206e-7 4.147579454932764e-7 3.109360154282074e-7 1.1429455299255197e-7
          7.747177606119535e-8 5.1118612298111245e-8 9.136599807310923e-8 1.3822860388930558e-7 3.403700813732099e-8 2.3600128189675394e-9
          2.1742011293835396e-9 1.995694088734142e-8 1.3710995882725354e-9 4.8423943608922535e-9 1.779664758312204e-9 6.326365274703559e-9
          2.1882299283518727e-9 7.810336188514863e-9 4.973817195295402e-9 6.853056662974965e-9 2.1686573179499183e-8 1.1753115714441542e-7
          6.069808554390317e-8 4.784764501548553e-8 9.158890180187448e-8 3.6835769391325227e-9 2.5910867964930745e-8 2.038223789133753e-8
          8.732296130654526e-9 3.4997204487067884e-8 6.564664645933354e-8 1.4853607817744315e-8 4.0916779029869294e-8 7.533335417076534e-8
          5.935633815128003e-8 1.0911682895419006e-7 1.75557346486846e-8 9.35758560586951e-9 7.7912705671434e-9 1.497796870989891e-8
          4.6405143167517035e-9 7.779589727269077e-8 1.4290030373761477e-7 6.224955528417289e-9 3.9720910182855986e-7 3.792769044949994e-7
          4.1942106926369517e-7 4.073212441477238e-7 3.8394094841323723e-7 4.817613829698911e-7 4.547131803899015e-7 4.751508638316098e-7
          5.101430275888493e-7 3.6495002229929276e-7 3.1113461392420915e-7 3.2673365922998443e-7 3.510068430687296e-7 4.670223157335605e-7
          3.7644724497880795e-7 3.971502182523778e-7 4.826174716558906e-7 3.1701086224451793e-7 5.002258065816782e-7 1.4601738020873635e-7
          1.2913002027586964e-7 1.5443259431241246e-7 3.085035294458576e-7 3.0719201736580277e-7 2.6925183503542624e-7 2.7600972693164816e-7
          9.880531983232259e-8 8.788688967974462e-8 1.7678319398821607e-7 1.926737123966962e-7 2.8821349887304257e-7 2.5053652614284053e-7
          2.394485407828354e-7 7.658399475613945e-8 6.74194609076987e-8 4.47042264368014e-8 1.1619016057787618e-7 1.1776923316879608e-7
          2.5885406917836905e-7 4.344576528462661e-8 1.2122986567453415e-7 3.000861732536358e-7 4.83778314612962e-8 7.585509138065522e-8
          1.1082640962646946e-7 8.740592351987896e-8 1.8905295574379706e-7 1.475616285437302e-7 1.0607030134366335e-7 1.1634481177746674e-7
          1.6454902526164147e-7 2.1275323874581626e-7 1.8758453854049761e-7 2.8730595068009866e-7 2.635507760417321e-7 2.1246675819037297e-7
          1.894356172073482e-7 1.7332029598145176e-7 2.9990343686814424e-7 2.725390366197233e-7 1.3091171713260757e-7 1.9955328919231187e-7
          2.2149901875554103e-7 2.8023219798674e-7 2.0538714171042326e-7 3.07957029220897e-7 2.073538002085235e-7 2.9064645999390956e-7
          2.0022840293076106e-7 2.937647355009797e-7 1.4035889208949956e-7 1.923834798667867e-7 1.7246404373458167e-7 3.2247242609271084e-7
          3.310099375639187e-7 2.1257796408146878e-7 4.625191245371758e-8 6.058005946730643e-8 8.510748306917982e-8 1.0225866594539386e-7
          3.318825076686025e-8 2.8972705890948832e-8 4.796023086697738e-8 6.268583151483412e-8 3.43382409636475e-8 1.830095851291434e-7
          9.566871290073218e-8 2.1762445584943235e-8 1.263594898539443e-8 1.2371365355541606e-8 2.241138451835126e-8 1.2957376893484496e-8
          2.8445055492458435e-7 1.4463720314078674e-7 3.268449932755239e-7 1.6488473632311504e-7 8.827744010168273e-8 9.443930468635726e-8
          9.143413965477695e-8 8.619392032052486e-8 8.94392904209446e-8 7.030343083816363e-8 7.742756805426399e-8 7.089627009067488e-8
          8.76761904278739e-8 8.083189040385723e-8 8.301692487518895e-8 9.128193120606583e-8 8.174610811635987e-8 9.437470528373768e-8
          9.138750750186438e-8 9.794873498209191e-8 9.710397926532273e-8 9.343039619487699e-8 1.0392152196629817e-7 8.440715930103637e-8
          1.2013315200843566e-7 1.1457228041895859e-7 9.853088235386718e-8 7.787005760818066e-8 7.516435381057578e-8 6.768975933810849e-8
          1.0059471885412828e-7 9.813951049786314e-8 1.1440353157440082e-7 1.1199668004885786e-7 9.160054376260058e-8 1.0247788765648465e-7
          9.823682499823418e-8 9.920849987774679e-8 1.1868211061250535e-7 1.0001325192582072e-7 1.3126139434469614e-7 1.2736679359025657e-7
          1.1350922042992271e-7 1.062849496473684e-7 1.2401631102153137e-7 1.3569077534620327e-7 7.190743789665892e-8 7.999682346801099e-8
          8.552351237592126e-8 6.475737031567636e-8 7.247686155241879e-8 7.568107796218815e-8 9.307631095399593e-8 1.0390431866940694e-7
          8.630629281360984e-8 9.091721673074094e-8 7.828818543745346e-8 1.146468869606672e-7 9.986229178566134e-8 8.495708897465827e-8
          9.101184149285842e-8 7.798434114119519e-8 9.888110376693015e-8 1.0152173649996911e-7 1.2175597959492756e-7 7.752598639578203e-8
          8.64553080310725e-8 8.053455798243689e-8 1.0181089737246157e-7 3.982386108823129e-8 7.547728247649023e-8 1.2656636198704504e-7
          4.86589457804762e-9 4.1978138727823176e-8 1.1042624235889572e-7 1.0125073180740613e-7 1.152675531224688e-7 9.65245846259326e-8
          1.068030035004053e-7 1.0443505074618344e-7 1.1860913984739045e-7 1.0063293641380673e-7 1.3015443932716657e-7 1.1668598388432813e-7
          1.3497948058629998e-7 1.2253399573413202e-7 8.103637068371785e-8 9.390634375777957e-8 1.1846173860282827e-7 1.2669433325961827e-7
          5.745428185777582e-8 8.299153519233515e-8 9.557959475484888e-8 1.8299166579495742e-8 1.969935870205681e-8 1.9436675589274647e-8
          1.9173992476492483e-8 1.2112243042560465e-8 1.1226907380278876e-8 1.173231870093162e-8 1.2237730021584362e-8 1.1352394359302775e-8
          1.780774830503182e-8 1.781697379752607e-8 1.782619929002032e-8 1.1732508395832315e-8 1.2233343258640046e-8 1.3667148274366778e-8
          1.2734178121447775e-8 1.7793110457430456e-8 1.8246572199811367e-8 1.870003394219228e-8 1.6629399945497958e-8 1.8542159866624306e-8
          1.9445384565245907e-8 1.9941357662526352e-8 9.812082346935848e-9 1.1149247729513285e-8 7.614782368636219e-9 9.942096122244212e-9
          1.2486413112090725e-8 1.4249644277911443e-8 7.89165629803938e-9 1.0065152200386528e-8 8.050860340716454e-9 1.2238648102733675e-8
          1.4691722383845207e-8 1.3552382553389525e-8 1.8624055782977685e-8 1.9037998483925445e-8 1.8705951699331064e-8 1.9245849143364575e-8
          2.025316790081195e-8 1.9046313721483247e-8 2.0564978139097542e-8 4.720638058144621e-8 3.17795652157472e-8 3.7504114104697295e-8
          2.557384988549641e-8 5.7658563004188654e-8 3.3591965122308215e-8 2.873700570275254e-7 2.464006474015539e-7 1.5131125532058137e-7
          2.9727514265382286e-7 2.49140823239576e-7 2.1755041683601483e-7 2.4414087353418504e-7 2.046024765168398e-7 4.0224823657739326e-8
          1.2482044335258143e-7 1.0262409395095285e-7 1.1711539665807696e-7 6.10412062952611e-8 1.553034625939621e-7 1.1850854097135369e-7
          2.5639646767056315e-7 2.0773778899896967e-7 6.138890082497325e-8 1.0304949458659879e-7 4.536423118894082e-8 3.005272732155697e-7
          2.4827414880529947e-7 1.2516083290303622e-7 6.576475691461392e-8 4.5789049167505324e-8 2.7483299358930388e-8 2.533568839715213e-7
          3.032058988913193e-7 1.2473020267187704e-7 1.5085312247713996e-7 1.4465316382657933e-7 1.2462124284558271e-7 9.561339069515166e-8
          1.1029603903447161e-7 1.34991557184222e-7 7.91391354144349e-8 9.50763660349979e-8 7.936345155484908e-8 1.2504293608290877e-7
          3.543258544112528e-8 1.1167393722135408e-7 1.4601946902753377e-7 1.252028056354608e-7 9.812127976188707e-8 1.5296666254481086e-7
          2.150094605640678e-8 1.803136272817788e-8 1.9102935583010102e-8 2.118863651413035e-8 1.2222680356506905e-8 1.3846037270385555e-8
          1.1508810425224072e-8 1.3531841260577549e-8 6.759981526454589e-9 8.952447954113896e-9 9.272467537279019e-9 1.4620714957313284e-8
          4.9614645526994706e-9 7.269290177804782e-9 8.186177663016371e-9 1.320294623830206e-8 2.18415701913526e-8 2.0480684216045655e-8
          2.2560599266020167e-8 1.9873292587285648e-8 2.2274143307489908e-8 2.361426496117329e-8 2.2974053800977183e-8 2.28113510959682e-8
          2.3946550773190214e-8 2.3765554572746043e-8 2.2405809525229994e-8
        </DataArray>
        <DataArray type="Float64" Name="gradient_matprop_error" format="ascii" RangeMin="0" RangeMax="0">
          0 0 0 0 0 0
          0 0 0 0 0 0
          0 0 0 0 0 0
          0 0 0 0 0 0
          0 0 0 0 0 0
          0 0 0 0 0 0
          0 0 0 0 0 0
          0 0 0 0 0 0
          0 0 0 0 0 0
          0 0 0 0 0 0
          0 0 0 0 0 0
          0 0 0 0 0 0
          0 0 0 0 0 0
          0 0 0 0 0 0
          0 0 0 0 0 0
          0 0 0 0 0 0
          0 0 0 0 0 0
          0 0 0 0 0 0
          0 0 0 0 0 0
          0 0 0 0 0 0
          0 0 0 0 0 0
          0 0 0 0 0 0
          0 0 0 0 0 0
          0 0 0 0 0 0
          0 0 0 0 0 0
          0 0 0 0 0 0
          0 0 0 0 0 0
          0 0 0 0 0 0
          0 0 0 0 0 0
          0 0 0 0 0 0
          0 0 0 0 0 0
          0 0 0 0 0 0
          0 0 0 0 0 0
          0 0 0 0 0 0
          0 0 0 0 0 0
          0 0 0 0 0 0
          0 0 0 0 0 0
          0 0 0 0 0 0
          0 0 0 0 0 0
          0 0 0 0 0 0
          0 0 0 0 0 0
          0 0 0 0 0 0
          0 0 0 0 0 0
          0 0 0 0 0 0
          0 0 0 0 0 0
          0 0 0 0 0 0
          0 0 0 0 0 0
          0 0 0 0 0 0
          0 0 0 0 0 0
          0 0 0 0 0 0
          0 0 0 0 0 0
          0 0 0 0 0 0
          0 0 0 0 0 0
          0 0 0 0 0 0
          0 0 0 0 0 0
          0 0 0 0 0 0
          0 0 0 0 0 0
          0 0 0 0 0 0
          0 0 0 0 0 0
          0 0 0 0 0 0
          0 0 0 0 0 0
          0 0 0 0 0 0
          0 0 0
        </DataArray>
        <DataArray type="Float64" Name="initial_marker" format="ascii" RangeMin="0" RangeMax="2">
          0 0 2 0 0 0
          0 0 0 0 0 0
          0 0 0 0 0 1
          0.25 0 1.5 0.25 0 0
          0 2 1 1 0 0
          0 0 0 0 0 0
          0 0 0 0 0 0
          0 0 0 0 0 0
          0 0 0 0 0 0
          0 0 0 0 0 0
          0 0 0 0 0 0
          0 0 0 0 0.75 2
          1.75 0.75 2 1 1 2
          2 1.25 2 2 0.5 1
          1 2 2 2 1 0
          0 0 0.5 1 0.75 0.25
          0 0 0.25 0 2 1.75
          0.25 0 0 0 2 2
          1 2 2 1 0 0
          0 0 0 0 0 0
          0 0 0 0 0 0
          0 0 0 0 0 0
          0 0 0 0 0 0
          0 0 0 0 0 0
          0 0 0 0 0 0
          0 0 0 0 0 0
          0 0 0 0 0 0
          0 0 0 0 2 2
          2 2 2 1 1.5 1
          2 2 2 2 2 2
          2 2 2 2 2 2
          2 2 2 1.5 1 1
          2 2 2 2 2 2
          2 2 2 2 2 2
          2 2 2 2 1 1.5
          1.5 0 1 1 2 2
          2 1.75 1.5 2 2 2
          2 2 2 2 2 2
          2 2 2 2 2 2
          2 2 2 2 2 2
          2 2 2 2 2 2
          2 2 0 0 0 0
          0 0 0 2 2 2
          2 2 2 2 2 2
          2 2 2 2 2 2
          2 2 2 2 2 2
          2 2 2 2 2 2
          2 2 2 2 2 2
          2 2 2 2 2 2
          2 2 2 0 0 0
          0 0 0 1 1 0.5
          2 2 1 1 1 0
          0.5 0.5 0.5 0.25 0 0
          0.25 0.5 0 0.25 0 0.5
          1 0.5 0 0 0 1.25
          1.5 2 2 2 2 2
          2 2 2 2 2 2
          2 2 2 2 2 2
          2 2 2 2 2 2
          2 2 2 2 2 2
          2 2 2 2 2 2
          2 2 2 2 2 2
          2 2 2
        </DataArray>
        <DataArray type="Float64" Name="markers_norefine" format="ascii" RangeMin="0" RangeMax="2">
          0 0 0 0 0 0
          0 0 0 0 0 0
          0 0 0 0 0 0
          0 0 0 0 0 0
          0 0 0 0 0 0
          0 0 0 0 0 0
          0 0 0 0 0 0
          0 0 0 0 0 0
          0 0 0 0 0 0
          0 0 0 0 0 0
          0 0 0 0 0 0
          0 0 0 0 0 0
          0 0 0 0 0 0
          0 0 0 0 0 0
          0 0 0 0 0 0
          0 0 0 0 0 0
          0 0 0 0 0 0
          0 0 0 0 0 0
          0 1 0 0 0 0
          0 0 0 0 0 0
          0 0 0 0 0 0
          0 0 0 0 0 0
          0 0 0 0 0 0
          0 0 0 0 0 0
          0 0 0 0 0 0
          0 0 0 0 0 0
          0 0 0 0 0 0
          0 0 0 0 0 0
          0 0 0 0 0 0
          0 0 0 0 0 0
          0 0 0 0 0 0
          0 0 0 0 0 0
          0 0 0 0 0 0
          0 0 0 0 0 0
          0 0 0 0 0 0
          0 0 0 0 0 0
          0 0 0 0 0 0
          0 0 0 0 0 0
          0 0 0 1.5 0.25 0
          2 1 0 0 0 0
          0 0 0 0 0 0
          0 0 0 0 0 0
          0 0 0 0 0 0
          0 0 1 0.5 0 1
          1 0.5 0 1 0.5 1.3333333333333333
          0 1 0.75 0.5 1.3333333333333333 0
          0.5 0 1.5 1 2 1.75
          0.5 1 2 1.5 2 1
          1.5 1.5 0 0 0 0.5
          0 0.5 0 0 0 0
          0 0 0 0 0 0
          0 0 0 0 0 0
          0 0 0 0 0 0
          0 0 0 0 0 0
          0 0 0 0 0 0
          0 0 0 0 0 0
          0 0 0 0 0 0
          1.5 0 0 0 0 0
          0 1 1 0.6666666666666666 2 1.75
          2 2 2 2 2 2
          2 2 2 2 0.6666666666666666 1
          0 1 0 0 0 0
          0.25 0 0
        </DataArray>
        <DataArray type="Float64" Name="markers_mustrefine" format="ascii" RangeMin="0" RangeMax="2">
          0 0 2 0 0 0
          0 0 0 0 0 0
          0 0 0 0 0 1
          0.25 0 1.5 0.25 0 0
          0 2 1 1 0 0
          0 0 0 0 0 0
          0 0 0 0 0 0
          0 0 0 0 0 0
          0 0 0 0 0 0
          0 0 0 0 0 0
          0 0 0 0 0 0
          0 0 0 0 0.75 2
          1.75 0.75 2 1 1 2
          2 1.25 2 2 0.5 1
          1 2 2 2 1 0
          0 0 0.5 1 0.75 0.25
          0 0 0.25 0 2 1.75
          0.25 0 0 0 2 2
          1 2 2 1 0 0
          0 0 0 0 0 0
          0 0 0 0 0 0
          0 0 0 0 0 0
          0 0 0 0 0 0
          0 0 0 0 0 0
          0 0 0 0 0 0
          0 0 0 0 0 0
          0 0 0 0 0 0
          0 0 0 0 2 2
          2 2 2 1 1.5 1
          2 2 2 2 2 2
          2 2 2 2 2 2
          2 2 2 1.5 1 1
          2 2 2 2 2 2
          2 2 2 2 2 2
          2 2 2 2 1 1.5
          1.5 0 1 1 2 2
          2 1.75 1.5 2 2 2
          2 2 2 2 2 2
          2 2 2 2 2 2
          2 2 2 2 2 2
          2 2 2 2 2 2
          2 2 0 0 0 0
          0 0 0 2 2 2
          2 2 2 2 2 2
          2 2 2 2 2 2
          2 2 2 2 2 2
          2 2 2 2 2 2
          2 2 2 2 2 2
          2 2 2 2 2 2
          2 2 2 0 0 0
          0 0 0 1 1 0.5
          2 2 1 1 1 0
          0.5 0.5 0.5 0.25 0 0
          0.25 0.5 0 0.25 0 0.5
          1 0.5 0 0 0 1.25
          1.5 2 2 2 2 2
          2 2 2 2 2 2
          2 2 2 2 2 2
          2 2 2 2 2 2
          2 2 2 2 2 2
          2 2 2 2 2 2
          2 2 2 2 2 2
          2 2 2
        </DataArray>
        <DataArray type="Float64" Name="gradient_marker" format="ascii" RangeMin="0" RangeMax="1">
          1 1 0.5 1 1 1
          0.75 1 1 1 1 0.75
          1 1 1 1 1 1
          1 0.875 1 0.875 0.8333333333333334 1
          0.875 1 1 1 1 1
          0.625 0.6666666666666666 0.625 1 1 1
          1 1 1 1 1 1
          1 1 1 1 1 1
          1 1 1 1 1 1
          1 1 1 1 1 1
          1 1 1 1 1 1
          1 1 1 1 1 1
          1 1 1 1 1 1
          1 0.75 0.75 0.875 1 1
          0.75 1 1 0.75 1 1
          1 1 1 1 1 1
          0.75 0.5 0.75 0.875 1 0.75
          0.75 0.5 0.25 0 1 1
          0.75 0 1 1 0 0.25
          0.75 0.5 1 1 1 1
          1 1 1 1 1 1
          1 1 1 1 1 1
          1 1 1 1 1 1
          0.875 1 1 1 1 1
          1 1 0 0.25 0.25 0.5
          0 0 0 0.25 0 0.75
          0.5 0 0 0 0 0
          1 1 1 1 0.5 1
          0.75 0.5 0.5 0 0.25 0
          0.5 0 0 0.5 0 0.75
          0.5 1 1 0.75 1 0.25
          1 1 0.75 0.25 0 0
          1 0.875 1 1 0.625 0.75
          0.75 0.75 1 0.875 1 1
          0.875 0.75 0.875 1 0 0.25
          0.25 0 0 0 0.625 0.75
          0.25 0.5 0.25 0.875 0.75 0.25
          0.375 0.5 0.75 0.75 1 0
          0.25 0.5 0.75 0.25 0.5 0.875
          0 0.25 0.75 0.875 1 0.75
          1 1 1 1 1 1
          1 1 0.5 0.5 0.75 0.75
          0 0.5 0.5 0 0 0
          0 0 0 0 0 0
          0 0 0 0 0 0
          0 0 0 0 0 0
          0 0 0 0 0 0
          0 0 0 0 0 0
          0 0 0 0 0 0
          0 0 0 0.5 0.5 0.5
          1 0.5 1 1 0.875 0.625
          1 1 0.75 0.75 0.625 0
          0.25 0.25 0.375 0.125 0.625 0.375
          0.875 0.625 0.125 0.25 0 1
          0.75 0.25 0.25 0.125 0 1
          1 1 1 1 1 0.5
          0.625 0.875 0.5 0.75 0.5 1
          0.125 0.625 1 1 0.5 1
          0 0 0 0 0 0
          0 0 0 0 0 0
          0 0 0 0 0 0
          0 0 0 0 0 0
          0 0 0
        </DataArray>
        <DataArray type="Float64" Name="gradient_matprop_marker" format="ascii" RangeMin="0" RangeMax="0">
          0 0 0 0 0 0
          0 0 0 0 0 0
          0 0 0 0 0 0
          0 0 0 0 0 0
          0 0 0 0 0 0
          0 0 0 0 0 0
          0 0 0 0 0 0
          0 0 0 0 0 0
          0 0 0 0 0 0
          0 0 0 0 0 0
          0 0 0 0 0 0
          0 0 0 0 0 0
          0 0 0 0 0 0
          0 0 0 0 0 0
          0 0 0 0 0 0
          0 0 0 0 0 0
          0 0 0 0 0 0
          0 0 0 0 0 0
          0 0 0 0 0 0
          0 0 0 0 0 0
          0 0 0 0 0 0
          0 0 0 0 0 0
          0 0 0 0 0 0
          0 0 0 0 0 0
          0 0 0 0 0 0
          0 0 0 0 0 0
          0 0 0 0 0 0
          0 0 0 0 0 0
          0 0 0 0 0 0
          0 0 0 0 0 0
          0 0 0 0 0 0
          0 0 0 0 0 0
          0 0 0 0 0 0
          0 0 0 0 0 0
          0 0 0 0 0 0
          0 0 0 0 0 0
          0 0 0 0 0 0
          0 0 0 0 0 0
          0 0 0 0 0 0
          0 0 0 0 0 0
          0 0 0 0 0 0
          0 0 0 0 0 0
          0 0 0 0 0 0
          0 0 0 0 0 0
          0 0 0 0 0 0
          0 0 0 0 0 0
          0 0 0 0 0 0
          0 0 0 0 0 0
          0 0 0 0 0 0
          0 0 0 0 0 0
          0 0 0 0 0 0
          0 0 0 0 0 0
          0 0 0 0 0 0
          0 0 0 0 0 0
          0 0 0 0 0 0
          0 0 0 0 0 0
          0 0 0 0 0 0
          0 0 0 0 0 0
          0 0 0 0 0 0
          0 0 0 0 0 0
          0 0 0 0 0 0
          0 0 0 0 0 0
          0 0 0
        </DataArray>
        <DataArray type="Float64" Name="combo" format="ascii" RangeMin="0" RangeMax="2">
          1 1 0.5 1 1 1
          0.75 1 1 1 1 0.75
          1 1 1 1 1 1
          1 0.875 1 0.875 0.8333333333333334 1
          0.875 1 1 1 1 1
          0.625 0.6666666666666666 0.625 1 1 1
          1 1 1 1 1 1
          1 1 1 1 1 1
          1 1 1 1 1 1
          1 1 1 1 1 1
          1 1 1 1 1 1
          1 1 1 1 1 1
          1 1 1 1 1 1
          1 0.75 0.75 0.875 1 1
          0.75 1 1 0.75 1 1
          1 1 1 1 1 1
          0.75 0.5 0.75 0.875 1 0.75
          0.75 0.5 0.25 0 1 1
          0.75 1 1 1 0 0.25
          0.75 0.5 1 1 1 1
          1 1 1 1 1 1
          1 1 1 1 1 1
          1 1 1 1 1 1
          0.875 1 1 1 1 1
          1 1 0 0.25 0.25 0.5
          0 0 0 0.25 0 0.75
          0.5 0 0 0 0 0
          1 1 1 1 0.5 1
          0.75 0.5 0.5 0 0.25 0
          0.5 0 0 0.5 0 0.75
          0.5 1 1 0.75 1 0.25
          1 1 0.75 0.25 0 0
          1 0.875 1 1 0.625 0.75
          0.75 0.75 1 0.875 1 1
          0.875 0.75 0.875 1 0 0.25
          0.25 0 0 0 0.625 0.75
          0.25 0.5 0.25 0.875 0.75 0.25
          0.375 0.5 0.75 0.75 1 0
          0.25 0.5 0.75 1.75 0.75 0.875
          2 1.25 0.75 0.875 1 0.75
          1 1 1 1 1 1
          1 1 0.5 0.5 0.75 0.75
          0 0.5 0.5 0 0 0
          0 0 1 0.5 0 1
          1 0.5 0 1 0.5 1.3333333333333333
          0 1 0.75 0.5 1.3333333333333333 0
          0.5 0 1.5 1 2 1.75
          0.5 1 2 1.5 2 1
          1.5 1.5 0 0 0 0.5
          0 0.5 0 0.5 0.5 0.5
          1 0.5 1 1 0.875 0.625
          1 1 0.75 0.75 0.625 0
          0.25 0.25 0.375 0.125 0.625 0.375
          0.875 0.625 0.125 0.25 0 1
          0.75 0.25 0.25 0.125 0 1
          1 1 1 1 1 0.5
          0.625 0.875 0.5 0.75 0.5 1
          1.625 0.625 1 1 0.5 1
          0 1 1 0.6666666666666666 2 1.75
          2 2 2 2 2 2
          2 2 2 2 0.6666666666666666 1
          0 1 0 0 0 0
          0.25 0 0
        </DataArray>
        <DataArray type="Float64" Name="dHdT" format="ascii" RangeMin="25.80859031662376" RangeMax="131.47125495214277">
          25.814197585173424 25.820243160692666 37.285646493925654 25.823419879486032 25.82231253804106 26.68559958341739
          25.9809935405807 25.826328990197183 26.800769685733652 25.814944278124422 25.816336305992813 25.848194666663403
          25.81606569672523 25.817242273132734 25.81706043464682 27.026842655504105 26.69264537169343 33.80041957182287
          30.29202751582414 26.36398710335315 33.78673991767208 29.672304217277183 26.320091120684136 26.751848027334084
          26.41915736609087 37.987755648463676 34.03492105873269 33.958801594836956 27.16743705554883 26.30977617406907
          26.113895927830193 25.922599848404584 26.146606673039688 26.37999873581274 25.80859031662376 25.8124171639032
          25.812703564525442 25.810623126182954 25.813388219338933 25.813266261968387 25.813474929123778 25.813617518322847
          25.813561638908624 25.813968774677306 25.819719535596498 25.82112419212408 25.828161156916877 25.964076490504624
          25.890340928860457 25.873497686825097 25.93074598539068 25.817822139471122 25.845965484604356 25.839165890721034
          25.822528848651658 25.856654444789744 25.897415480276738 25.832366296837716 25.86341988572348 25.907960811027223
          25.886562456953513 25.95071945287136 25.835661510046013 25.82541368234652 25.82476842190909 25.83370858248574
          25.82006688017274 25.90970502818355 25.99347809471551 25.824123161471668 32.80197529744491 37.15415593951614
          36.13927351508402 32.95917707587218 37.19192293130192 33.709249493351464 32.718322320371506 36.808225170097714
          35.926899063021786 32.56828876704955 36.86433172530852 36.625468929373994 30.252803479887227 32.857287841843
          32.71385737224231 37.43955286569802 36.81948071277122 36.86561489248254 33.91032195911289 26.967839888950923
          26.820750882728717 27.0899419499302 29.167736146975862 28.823108027757648 28.28644999340611 28.627741229876058
          26.54847040735161 26.49408440728134 27.25035516836734 27.54264881148919 33.68427815518357 32.23871578526672
          28.92420517824158 26.37367990900518 26.300113965644755 26.133265622248114 39.361320879000175 37.48151060630747
          32.34764342917888 64.7489226003031 39.34137914609087 33.78123308363461 26.161028888353954 26.357618952408387
          26.6330563589816 26.44761719599091 26.083913141101625 26.02350058551527 25.96308802992891 25.968453033457326
          26.031704422228117 26.094955810998915 27.559174680878847 29.517033770234697 29.038250588451277 28.170158480752008
          27.533879148376762 27.34048048887708 29.38774033029114 28.871403858173874 26.909416676902637 27.805384956051995
          28.283998123593904 29.27548394044956 27.757004819806674 29.835025220537837 27.889612601421252 29.09076170721154
          27.613932748778215 28.813241121786444 27.001013390459597 27.512520686682947 27.234303505881403 29.68387961661085
          29.41710100752268 27.746523874840335 26.1819142434822 26.307662275064676 26.47452186402958 26.66307326828545
          26.07054198738227 26.04932154890824 26.19812535037904 26.32859522636877 26.081952491057617 27.304094951634077
          26.553581709497905 25.978183369339387 25.90875558972744 25.91638351646687 25.985410292174457 25.912905322033232
          28.423572128989417 26.935238472812475 29.006083839287644 27.110242678478983 36.49832719753131 37.23960655601622
          37.11072085438953 36.266803728801314 37.210739341624304 32.550430053363286 34.07929364993943 32.60681499503908
          36.322317892570545 36.95833354169069 36.83203549833766 37.20303769005161 36.96570682467445 37.146300638043705
          36.59226335096882 37.25612273746191 36.883659883717684 36.43808009729179 36.25769653095706 34.917709135621976
          36.4112627037312 35.97997071059308 34.4227152472982 31.85011241763656 32.193517149305876 30.40347305813168
          37.15061650310169 37.01503014769087 36.988003601599026 36.831581090532666 36.16674845315703 35.94800944911486
          37.21471657804662 37.26846323024675 38.58385589557918 37.36153276751378 36.89498079067818 36.67747691448182
          35.68382831810695 39.63177020853611 39.15863283488733 37.896032388267834 32.44543416775612 33.974511996860016
          33.72416322398762 31.047950375134192 32.49497087968603 32.22746612921181 36.21080253829447 35.970005686824074
          35.02074942400826 33.386188025527275 31.86469245312612 35.68039033954412 34.43636617366315 38.51810858298919
          37.74746683655114 44.82846684773038 40.94622802059496 37.277757878342065 38.56683196346302 40.024357132370824
          38.54998741069871 44.59433641139569 37.248237992348656 76.51167184529208 51.16261849837745 39.095500465335355
          131.47125495214277 72.95030129651617 39.45943382589556 37.039478687718926 36.83422941057676 36.5002667088668
          36.26702666947766 37.160942124812834 36.98325674617471 36.90102595395496 36.63929556077342 35.94537932338344
          36.84007407587661 36.34393814756113 26.46288159139697 26.55221696280953 26.872231498213623 26.986163006434335
          26.254011658366064 26.48876047037985 26.580785383948367 37.949148524662036 43.3492814123839 41.227289937204446
          39.10529846202498 48.36539004427692 70.23067881130558 59.093918357256456 47.95715790320733 69.82244667023599