<?xml version="1.0"?>
<VTKFile type="UnstructuredGrid" version="0.1" byte_order="LittleEndian" header_type="UInt32" compressor="vtkZLibDataCompressor">
  <UnstructuredGrid>
    <Piece NumberOfPoints="380" NumberOfCells="222">
      <PointData>
        <DataArray type="Int32" Name="libmesh_node_id" format="ascii" RangeMin="372" RangeMax="2834">
          372 450 624 625 626 654
          655 656 657 664 665 890
          891 892 896 897 898 899
          1148 1149 1150 1153 1156 1236
          1237 1238 1239 1240 1241 1242
          1243 1244 1245 1246 1247 1248
          1249 1260 1261 1263 1284 1285
          1286 1287 1288 1289 1290 1291
          1292 1293 1294 1295 1298 1300
          1301 1303 1650 1651 1652 1655
          1661 1662 1665 1666 1667 1668
          1669 1670 1671 1672 1673 1674
          1675 1686 1687 1688 1689 1690
          1691 1692 1965 1966 1967 1970
          1973 1987 1988 1991 1993 2007
          2008 2010 2013 2023 2025 2027
          2052 2053 2056 2058 2188 2190
          2337 2338 2339 2340 2341 2342
          2343 2344 2345 2346 2347 2348
          2349 2350 2351 2352 2353 2354
          2355 2356 2357 2358 2359 2360
          2361 2362 2363 2364 2365 2366
          2367 2368 2369 2370 2371 2372
          2373 2374 2375 2376 2377 2378
          2379 2380 2381 2382 2383 2384
          2385 2386 2387 2388 2389 2390
          2391 2392 2393 2394 2395 2396
          2397 2398 2399 2400 2401 2402
          2403 2404 2405 2406 2407 2408
          2409 2410 2411 2412 2413 2414
          2415 2416 2417 2418 2467 2468
          2469 2470 2471 2472 2473 2474
          2475 2476 2487 2488 2489 2490
          2491 2492 2493 2501 2502 2503
          2504 2505 2506 2507 2508 2509
          2511 2512 2513 2514 2515 2516
          2517 2518 2519 2609 2610 2611
          2612 2613 2614 2615 2616 2617
          2618 2619 2620 2621 2622 2623
          2624 2625 2626 2627 2628 2629
          2630 2631 2632 2633 2634 2635
          2636 2637 2638 2639 2640 2641
          2642 2643 2644 2645 2646 2647
          2648 2649 2650 2651 2652 2653
          2654 2655 2656 2657 2658 2659
          2660 2661 2662 2663 2664 2665
          2666 2667 2668 2669 2670 2671
          2672 2673 2674 2675 2676 2677
          2678 2679 2680 2681 2682 2683
          2684 2685 2686 2697 2698 2699
          2700 2701 2702 2703 2711 2712
          2713 2714 2715 2716 2717 2718
          2719 2720 2731 2732 2733 2734
          2735 2736 2737 903 449 904
          895 1264 1170 1266 1268 451
          661 2510 1171 1265 2520 1267
          2521 2068 2522 2523 2070 2524
          2525 2072 2526 2528 2529 2530
          2531 2532 2533 2575 2579 2576
          2580 2745 2248 2746 2750 2749
          2752 2753 2756 2757 2774 2773
          2778 2777 2780 2781 2784 2785
          2801 2802 2805 2806 2829 2830
          2833 2834
        </DataArray>
        <DataArray type="Float64" Name="bounds" format="ascii" RangeMin="0" RangeMax="0">
          0 0 0 0 0 0
          0 0 0 0 0 0
          0 0 0 0 0 0
          0 0 0 0 0 0
          0 0 0 0 0 0
          0 0 0 0 0 0
          0 0 0 0 0 0
          0 0 0 0 0 0
          0 0 0 0 0 0
          0 0 0 0 0 0
          0 0 0 0 0 0
          0 0 0 0 0 0
          0 0 0 0 0 0
          0 0 0 0 0 0
          0 0 0 0 0 0
          0 0 0 0 0 0
          0 0 0 0 0 0
          0 0 0 0 0 0
          0 0 0 0 0 0
          0 0 0 0 0 0
          0 0 0 0 0 0
          0 0 0 0 0 0
          0 0 0 0 0 0
          0 0 0 0 0 0
          0 0 0 0 0 0
          0 0 0 0 0 0
          0 0 0 0 0 0
          0 0 0 0 0 0
          0 0 0 0 0 0
          0 0 0 0 0 0
          0 0 0 0 0 0
          0 0 0 0 0 0
          0 0 0 0 0 0
          0 0 0 0 0 0
          0 0 0 0 0 0
          0 0 0 0 0 0
          0 0 0 0 0 0
          0 0 0 0 0 0
          0 0 0 0 0 0
          0 0 0 0 0 0
          0 0 0 0 0 0
          0 0 0 0 0 0
          0 0 0 0 0 0
          0 0 0 0 0 0
          0 0 0 0 0 0
          0 0 0 0 0 0
          0 0 0 0 0 0
          0 0 0 0 0 0
          0 0 0 0 0 0
          0 0 0 0 0 0
          0 0 0 0 0 0
          0 0 0 0 0 0
          0 0 0 0 0 0
          0 0 0 0 0 0
          0 0 0 0 0 0
          0 0 0 0 0 0
          0 0 0 0 0 0
          0 0 0 0 0 0
          0 0 0 0 0 0
          0 0 0 0 0 0
          0 0 0 0 0 0
          0 0 0 0 0 0
          0 0 0 0 0 0
          0 0
        </DataArray>
        <DataArray type="Float64" Name="gradient_error" format="ascii" RangeMin="2.8966889365381715e-10" RangeMax="1.9391635614654685e-8">
          5.692753642185817e-9 3.8858203700166945e-9 2.8382436445244658e-9 1.1708805538255662e-8 6.644215204243634e-9 1.2397093583457141e-9
          8.855611324222322e-10 5.23263592175077e-9 2.7159101766470775e-9 1.0829608727144472e-8 7.699839068594436e-9 4.459068291131159e-9
          3.6568459090163437e-9 3.1438738137634568e-9 2.0988609112795984e-9 1.8227983912264677e-9 1.3879018853992687e-9 1.1814766305323935e-9
          3.5911872922183483e-9 4.095693382917512e-9 3.6474536689679903e-9 2.5862752482924234e-9 1.011049312679215e-8 2.2678060604012613e-9
          2.0861370568656213e-9 2.6472718002061345e-9 2.3351017345030244e-9 1.1384279474382423e-9 1.529409231251627e-9 1.3397101186684001e-9
          1.6319208394050035e-9 1.61234494509868e-9 9.085955113231314e-10 8.266013150719038e-9 7.096921403814873e-9 4.43264952392489e-9
          4.513369724755856e-9 2.8720588866110215e-9 2.40409256259885e-9 1.4318760634151724e-9 1.7034458937374212e-8 1.5030084972063735e-8
          1.1344538758859188e-8 9.898589578490501e-9 9.359736816956666e-9 6.007057935818663e-9 1.4095165181174274e-8 1.6291898367164062e-8
          1.1128363995984242e-8 1.1734012227372192e-8 6.838194632497283e-9 5.834096331801487e-9 3.3417726608312057e-9 7.12794519958281e-9
          6.945352238324006e-9 4.416031931682938e-9 2.1735479390571896e-9 4.213984666681386e-9 3.931010993029985e-9 3.1950036411413516e-9
          1.4443778324754852e-9 2.2817959114396374e-9 1.8216218599751562e-9 1.2272586822347083e-9 1.1589961927401514e-9 2.3865234493807478e-9
          2.220183830849343e-9 6.396053670563439e-10 1.3069875821731216e-9 1.2147072838936743e-9 9.79926133213141e-10 1.7941623950515298e-9
          9.776767456728063e-10 7.862547198755414e-10 1.27751905273421e-9 4.358147494181314e-10 7.0035369322064e-10 7.03390876570395e-10
          1.0205575276832985e-9 5.677808807098941e-10 1.610176798022575e-9 2.3150661321869178e-9 2.2546115805992195e-9 2.0825157015968745e-9
          3.978455983021981e-9 1.3207608930145499e-9 1.8265474835922812e-9 1.5231060797607972e-9 3.158775838283367e-9 7.024753160675234e-9
          6.803774741093608e-9 6.1836869150687166e-9 1.1283346904094606e-8 5.278637741915087e-9 4.240743693395122e-9 8.460076863346744e-9
          9.208338005249414e-10 1.2041900972948534e-9 1.0443886280704476e-9 1.9974585278395702e-9 1.2753956322812136e-8 9.77057553857225e-9
          1.2915143145921662e-9 1.2590670942431426e-9 1.8391049004958608e-9 1.7894367534089595e-9 9.643023973053008e-10 1.427256127337841e-9
          1.3875603123090501e-9 1.1653999269332203e-9 1.6481010718211797e-9 1.2749383339780629e-9 3.3365761303313235e-9 3.2368866518814597e-9
          2.5652660393014906e-9 2.9563696337075195e-9 7.40436989717479e-10 7.210065346637458e-10 1.0798234331079927e-9 1.0491235881387275e-9
          5.28026976906789e-10 7.968718143717532e-10 7.738790734542029e-10 6.653554309119962e-10 9.622720066140568e-10 7.089892388475308e-10
          2.0419028028392046e-9 1.976680604772387e-9 1.479374067133778e-9 1.7941535273233387e-9 1.0260517159093886e-9 1.4386318546003346e-9
          7.82250919687389e-10 1.1088260201640287e-9 8.622367000058924e-10 1.1924909447498197e-9 9.148423040543084e-10 2.5446378092295085e-9
          1.9991554109814692e-9 2.066639650493622e-9 5.833321090830272e-10 8.346594135843996e-10 4.2685214194290116e-10 6.139411501158991e-10
          4.873627051275959e-10 6.860838376706717e-10 5.032983162383579e-10 1.5291679904657485e-9 1.1378917313654628e-9 1.226384470648309e-9
          5.878157952465636e-9 5.684996490529835e-9 4.784199781396193e-9 4.619606773746713e-9 5.143446404735464e-9 4.16052129133841e-9
          9.95647647895741e-9 9.589412825121402e-9 7.956610859738975e-9 8.577374798873246e-9 3.7758873660848925e-9 3.6408076784171882e-9
          2.885437027578335e-9 2.7787613076940672e-9 3.2655978844969108e-9 2.483439331428031e-9 6.683407734039543e-9 6.423916325150231e-9
          5.020041845969278e-9 5.702859047952169e-9 4.3573407519306e-9 3.4998316288136546e-9 3.4652946163519917e-9 2.757852582025932e-9
          7.142768357314058e-9 5.869487997556503e-9 5.553317576074394e-9 2.7295248949779266e-9 2.0641690032612597e-9 2.1332403672847265e-9
          1.6020082142442712e-9 4.677831497036385e-9 3.6065401587929997e-9 3.5579540917461393e-9 2.132827812124335e-9 2.051771989723635e-9
          1.5242269053032905e-9 1.4650778502849646e-9 1.8281257968145976e-9 1.3024342453421453e-9 3.9503588165447645e-9 3.783405440905325e-9
          2.7467647373104414e-9 3.324779324045084e-9 1.512629863872132e-9 1.0743380385753962e-9 1.1676708650458047e-9 8.264201208168746e-10
          2.6859140015501583e-9 1.9307263606442706e-9 2.0053382020292385e-9 7.090905865153273e-10 9.362518609575366e-10 5.383587315225888e-10
          7.154383428022738e-10 6.416312248653252e-10 8.083520042958023e-10 6.168319471481218e-10 1.580507249625036e-9 1.2235175006677237e-9
          3.977825689024165e-10 5.33382417042482e-10 2.8966889365381715e-10 3.9024025759515415e-10 3.583691635017158e-10 4.577957158537688e-10
          3.3467403778698177e-10 9.243365670793659e-10 6.817466349035413e-10 1.556883174244427e-8 1.4976914320475288e-8 1.3083041313042597e-8
          1.2570641644048084e-8 1.3307035273660014e-8 1.114072434613556e-8 1.9391635614654685e-8 1.904261420126538e-8 1.6575538838938205e-8
          1.7606178883031678e-8 1.0691519687316252e-8 1.0270396652694058e-8 8.524676483050142e-9 8.180883755948501e-9 9.090050258287213e-9
          7.212063372756945e-9 1.414866029215691e-8 1.3705658527306184e-8 1.0992743781401604e-8 1.234548141338599e-8 1.0911510960884146e-8
          9.103659473865553e-9 8.302255604716117e-9 6.871506044281655e-9 1.4766933938864753e-8 1.2426635210045437e-8 1.1196965138754002e-8
          7.391166869756336e-9 5.8135462866663474e-9 5.51825362237968e-9 4.285383028852424e-9 1.0177881926000393e-8 8.123199186291453e-9
          7.617668252736782e-9 1.6652972928943837e-8 1.7576443515961938e-8 1.6195741209247755e-8 1.6578015922834802e-8 1.8537817272706137e-8
          1.6477324644897987e-8 1.3217244286220202e-8 1.5058687709972407e-8 1.5152515432614657e-8 1.782755348768748e-8 1.424699819391104e-8
          1.4292812874975286e-8 1.1585596156365653e-8 1.1573134906882125e-8 1.3742576705394258e-8 1.1074162623116147e-8 1.3100078713051562e-8
          1.357276413932917e-8 1.110097172204169e-8 1.3770650301349883e-8 1.6995838680147786e-8 1.4463147739228357e-8 1.3276971731760913e-8
          1.1135978181095445e-8 1.747191256839971e-8 1.497812156728898e-8 1.3977944364507751e-8 1.1885911053759455e-8 9.559921855252266e-9
          9.121525502373848e-9 7.268755420419623e-9 1.2329429528068151e-8 9.941042295748813e-9 9.626830324027796e-9 6.594060706904785e-9
          6.313793238915353e-9 4.904515134906386e-9 4.68456752193592e-9 5.528691961909569e-9 4.074807399180388e-9 8.936907391576565e-9
          8.645390567650089e-9 6.588482695198459e-9 7.739129185678384e-9 4.410713088642494e-9 3.220415246053277e-9 3.211659012031515e-9
          2.3202589275109213e-9 6.277182174983655e-9 4.663214389578836e-9 4.56816868503799e-9 9.293550317194255e-9 9.253802442634055e-9
          7.364879578943118e-9 7.276073797166324e-9 8.79101085419128e-9 6.783978214445495e-9 8.80009281064605e-9 8.965867829488395e-9
          7.178793044512684e-9 8.894113982976772e-9 7.494992352387821e-9 5.656870377026752e-9 5.591488185627433e-9 4.132500247749543e-9
          7.839276957441105e-9 5.959078717477643e-9 5.950303153942264e-9 1.2283509469174898e-9 4.0581491879624494e-9 1.517275905784455e-9
          4.201922838081569e-9 1.8572213145811094e-9 3.2360616009089977e-9 1.0139484820261304e-9 2.1601399933681377e-9 5.173215600380204e-9
          1.6966148150608983e-9 1.2833312414671484e-9 2.6939434344527638e-9 1.5918533429240872e-9 7.418157322683225e-10 8.752416419582612e-10
          2.602184938824923e-9 3.2239093569647525e-9 2.048304194223119e-9 1.8460160897765547e-9 2.3179172240605277e-9 1.4365617341105199e-9
          4.04999272751355e-9 4.915691578835365e-9 3.2472189080244257e-9 1.569427471102487e-9 1.169645070089932e-9 1.0898840568693748e-9
          8.06115684769336e-10 2.5282122551650326e-9 1.9089002855785022e-9 8.474570225554274e-10 1.3969769165469037e-9 5.974069555306326e-10
          9.909747637577651e-10 5.903215874875601e-9 7.03596444229019e-9 4.815366979760176e-9 6.479451631821464e-9 7.838118984370294e-9
          3.808750588761551e-9 2.9157341069516803e-9 5.1942806879877495e-9 4.026063276953945e-9 7.737831602910953e-9 9.289629156540305e-9
          8.195147426843227e-9 9.816235152863644e-9 6.259402830779263e-9 4.894781107182879e-9 6.6504850260048536e-9 5.217711795113498e-9
          2.157787474198869e-9 1.5430783946487067e-9 3.011592746972016e-9 2.1719667761285077e-9 3.6904372629237416e-9 2.67936588080415e-9
          3.94554034997433e-9 2.8720062431642137e-9
        </DataArray>
        <DataArray type="Float64" Name="gradient_matprop_error" format="ascii" RangeMin="0" RangeMax="0">
          0 0 0 0 0 0
          0 0 0 0 0 0
          0 0 0 0 0 0
          0 0 0 0 0 0
          0 0 0 0 0 0
          0 0 0 0 0 0
          0 0 0 0 0 0
          0 0 0 0 0 0
          0 0 0 0 0 0
          0 0 0 0 0 0
          0 0 0 0 0 0
          0 0 0 0 0 0
          0 0 0 0 0 0
          0 0 0 0 0 0
          0 0 0 0 0 0
          0 0 0 0 0 0
          0 0 0 0 0 0
          0 0 0 0 0 0
          0 0 0 0 0 0
          0 0 0 0 0 0
          0 0 0 0 0 0
          0 0 0 0 0 0
          0 0 0 0 0 0
          0 0 0 0 0 0
          0 0 0 0 0 0
          0 0 0 0 0 0
          0 0 0 0 0 0
          0 0 0 0 0 0
          0 0 0 0 0 0
          0 0 0 0 0 0
          0 0 0 0 0 0
          0 0 0 0 0 0
          0 0 0 0 0 0
          0 0 0 0 0 0
          0 0 0 0 0 0
          0 0 0 0 0 0
          0 0 0 0 0 0
          0 0 0 0 0 0
          0 0 0 0 0 0
          0 0 0 0 0 0
          0 0 0 0 0 0
          0 0 0 0 0 0
          0 0 0 0 0 0
          0 0 0 0 0 0
          0 0 0 0 0 0
          0 0 0 0 0 0
          0 0 0 0 0 0
          0 0 0 0 0 0
          0 0 0 0 0 0
          0 0 0 0 0 0
          0 0 0 0 0 0
          0 0 0 0 0 0
          0 0 0 0 0 0
          0 0 0 0 0 0
          0 0 0 0 0 0
          0 0 0 0 0 0
          0 0 0 0 0 0
          0 0 0 0 0 0
          0 0 0 0 0 0
          0 0 0 0 0 0
          0 0 0 0 0 0
          0 0 0 0 0 0
          0 0 0 0 0 0
          0 0
        </DataArray>
        <DataArray type="Float64" Name="initial_marker" format="ascii" RangeMin="0" RangeMax="2">
          0 1 0.5 2 2 1
          0 2 2 2 2 0
          0 0 0 0 0 0
          1 2 2 2 2 1
          1 2 2 1 2 2
          0.25 2 2 2 2 2
          2 2 2 2 2 2
          2 2 2 2 2 2
          2 2 2 2 2 2
          2 2 0 0 0 0
          0 0 0 0 0 0
          0 0 0 0 0 0
          0 0 0 0 0 0
          0 0 2 2 2 2
          2 2 2 1.5 2 2
          2 2 2 2 2 2
          0 1 1 2 2 2
          2 2 2 2 2 2
          2 2 2 2 2 2
          2 2 2 2 2 2
          2 2 2 2 2 2
          2 2 2 2 2 2
          1.5 1.75 1 1.5 1.25 2
          2 2 1 1.5 1 1.5
          0 1 1 2 2 2
          2 2 2 2 2 2
          2 2 2 2 2 2
          2 2 2 2 2 2
          2 2 2 2 2 2
          2 2 2 2 2 2
          2 2 2 2 2 2
          2 2 2 2 2 2
          2 2 2 2 2 2
          2 2 2 0 1 0
          1 0 1 1 2 2
          0 1 0 0.75 0 1
          0.5 2 1.75 2 2 2
          2 2 2 2 2 2
          2 2 2 2 2 2
          2 2 2 2 2 2
          2 2 2 2 2 2
          2 2 2 2 2 2
          2 2 2 2 2 2
          2 2 2 2 2 2
          2 2 2 2 2 2
          2 2 2 2 2 2
          2 2 2 2 2 2
          2 2 2 2 2 2
          2 2 2 2 2 2
          2 2 2 2 2 2
          2 2 2 2 2 2
          2 2 2 2 2 2
          2 2 2 2 2 2
          2 2 2 0 0 0
          0 0 0 0 0 0
          0 2 1.5 1.5 2 1.25
          2 2 2 2 2 2
          2 2 2 2 2 2
          2 2 2 2 2 2
          2 2 2 2 2 2
          2 2 2 2 2 2
          2 2 2 2 2 2
          2 2 2 2 2 2
          2 2
        </DataArray>
        <DataArray type="Float64" Name="markers_norefine" format="ascii" RangeMin="0" RangeMax="1">
          0 0 0 0 0 0
          0 0 0 0 0 0
          0 0 0 0 0 0
          0 0 0 0 0 0
          0 0 0 0 0 0
          0 0 0 0 0 0
          0 0 0 0 0 0
          0 0 0 0 0 0
          0 0 0 0 0 0
          0 0 0 0 0 0
          0 0 0 0 0 0
          0 0 0 0 0 0
          0 0 0 0 0 0
          0 0 0 0 0 0
          0 0 0 0 0 0
          0 0 0 0 0 0
          0 0 0 0 0 0
          0 0 0 0 0 0
          0 0 0 0 0 0
          0 0 0 0 0 0
          0 0 0 0 0 0
          0 0 0 0 0 0
          0 0 0 0 0 0
          0 0 0 0 0 0
          0 0 0 0 0 0
          0 0 0 0 0 0
          0 0 0 0 0 0
          0 0 0 0 0 0
          0 0 0 0 0 0
          0 0 0 0 0 0
          0 0 0 0 0 0
          0 0 0 0 0 0
          0 0 0 0 0 0
          0 0 0 0 0 0
          0 0 0 0 0 0
          0 0 0 0 0 0
          0 0 0 0 0 0
          0 0 0 0 0 0
          0 0 0 0 0 0
          0 0 0 0 0 0
          0 0 0 0 0 0
          0 0 0 0 0 0
          0 0.5 0.5 0 0 0.25
          0 1 1 0 0.5 0
          0 0 0 0 0 0
          0 0 0 0 0 0
          0 0 0 0 0 0
          0 0 0 0 0 0
          0 0 0 0 0 0
          0 0 0 0 0 0
          0 0 0 0 0 0
          0 0 0 0 0 0
          0 0 0 0 0 0
          0 0 0 0 0 0
          0 0 0 0 0 0
          0 0 0 0 0 0
          0 0 0 0 0 0
          0 0 0 0 0 0
          0 0 0 0 0 0
          0 0 0 0 0 0
          0 0 0 0 0 0
          0 0 0 0 0 0
          0 0 0 0 0 0
          0 0
        </DataArray>
        <DataArray type="Float64" Name="markers_mustrefine" format="ascii" RangeMin="0" RangeMax="2">
          0 1 0.5 2 2 1
          0 2 2 2 2 0
          0 0 0 0 0 0
          1 2 2 2 2 1
          1 2 2 1 2 2
          0.25 2 2 2 2 2
          2 2 2 2 2 2
          2 2 2 2 2 2
          2 2 2 2 2 2
          2 2 0 0 0 0
          0 0 0 0 0 0
          0 0 0 0 0 0
          0 0 0 0 0 0
          0 0 2 2 2 2
          2 2 2 1.5 2 2
          2 2 2 2 2 2
          0 1 1 2 2 2
          2 2 2 2 2 2
          2 2 2 2 2 2
          2 2 2 2 2 2
          2 2 2 2 2 2
          2 2 2 2 2 2
          1.5 1.75 1 1.5 1.25 2
          2 2 1 1.5 1 1.5
          0 1 1 2 2 2
          2 2 2 2 2 2
          2 2 2 2 2 2
          2 2 2 2 2 2
          2 2 2 2 2 2
          2 2 2 2 2 2
          2 2 2 2 2 2
          2 2 2 2 2 2
          2 2 2 2 2 2
          2 2 2 0 1 0
          1 0 1 1 2 2
          0 1 0 0.75 0 1
          0.5 2 1.75 2 2 2
          2 2 2 2 2 2
          2 2 2 2 2 2
          2 2 2 2 2 2
          2 2 2 2 2 2
          2 2 2 2 2 2
          2 2 2 2 2 2
          2 2 2 2 2 2
          2 2 2 2 2 2
          2 2 2 2 2 2
          2 2 2 2 2 2
          2 2 2 2 2 2
          2 2 2 2 2 2
          2 2 2 2 2 2
          2 2 2 2 2 2
          2 2 2 2 2 2
          2 2 2 2 2 2
          2 2 2 0 0 0
          0 0 0 0 0 0
          0 2 1.5 1.5 2 1.25
          2 2 2 2 2 2
          2 2 2 2 2 2
          2 2 2 2 2 2
          2 2 2 2 2 2
          2 2 2 2 2 2
          2 2 2 2 2 2
          2 2 2 2 2 2
          2 2
        </DataArray>
        <DataArray type="Float64" Name="gradient_marker" format="ascii" RangeMin="1" RangeMax="1">
          1 1 1 1 1 1
          1 1 1 1 1 1
          1 1 1 1 1 1
          1 1 1 1 1 1
          1 1 1 1 1 1
          1 1 1 1 1 1
          1 1 1 1 1 1
          1 1 1 1 1 1
          1 1 1 1 1 1
          1 1 1 1 1 1
          1 1 1 1 1 1
          1 1 1 1 1 1
          1 1 1 1 1 1
          1 1 1 1 1 1
          1 1 1 1 1 1
          1 1 1 1 1 1
          1 1 1 1 1 1
          1 1 1 1 1 1
          1 1 1 1 1 1
          1 1 1 1 1 1
          1 1 1 1 1 1
          1 1 1 1 1 1
          1 1 1 1 1 1
          1 1 1 1 1 1
          1 1 1 1 1 1
          1 1 1 1 1 1
          1 1 1 1 1 1
          1 1 1 1 1 1
          1 1 1 1 1 1
          1 1 1 1 1 1
          1 1 1 1 1 1
          1 1 1 1 1 1
          1 1 1 1 1 1
          1 1 1 1 1 1
          1 1 1 1 1 1
          1 1 1 1 1 1
          1 1 1 1 1 1
          1 1 1 1 1 1
          1 1 1 1 1 1
          1 1 1 1 1 1
          1 1 1 1 1 1
          1 1 1 1 1 1
          1 1 1 1 1 1
          1 1 1 1 1 1
          1 1 1 1 1 1
          1 1 1 1 1 1
          1 1 1 1 1 1
          1 1 1 1 1 1
          1 1 1 1 1 1
          1 1 1 1 1 1
          1 1 1 1 1 1
          1 1 1 1 1 1
          1 1 1 1 1 1
          1 1 1 1 1 1
          1 1 1 1 1 1
          1 1 1 1 1 1
          1 1 1 1 1 1
          1 1 1 1 1 1
          1 1 1 1 1 1
          1 1 1 1 1 1
          1 1 1 1 1 1
          1 1 1 1 1 1
          1 1 1 1 1 1
          1 1
        </DataArray>
        <DataArray type="Float64" Name="gradient_matprop_marker" format="ascii" RangeMin="0" RangeMax="0">
          0 0 0 0 0 0
          0 0 0 0 0 0
          0 0 0 0 0 0
          0 0 0 0 0 0
          0 0 0 0 0 0
          0 0 0 0 0 0
          0 0 0 0 0 0
          0 0 0 0 0 0
          0 0 0 0 0 0
          0 0 0 0 0 0
          0 0 0 0 0 0
          0 0 0 0 0 0
          0 0 0 0 0 0
          0 0 0 0 0 0
          0 0 0 0 0 0
          0 0 0 0 0 0
          0 0 0 0 0 0
          0 0 0 0 0 0
          0 0 0 0 0 0
          0 0 0 0 0 0
          0 0 0 0 0 0
          0 0 0 0 0 0
          0 0 0 0 0 0
          0 0 0 0 0 0
          0 0 0 0 0 0
          0 0 0 0 0 0
          0 0 0 0 0 0
          0 0 0 0 0 0
          0 0 0 0 0 0
          0 0 0 0 0 0
          0 0 0 0 0 0
          0 0 0 0 0 0
          0 0 0 0 0 0
          0 0 0 0 0 0
          0 0 0 0 0 0
          0 0 0 0 0 0
          0 0 0 0 0 0
          0 0 0 0 0 0
          0 0 0 0 0 0
          0 0 0 0 0 0
          0 0 0 0 0 0
          0 0 0 0 0 0
          0 0 0 0 0 0
          0 0 0 0 0 0
          0 0 0 0 0 0
          0 0 0 0 0 0
          0 0 0 0 0 0
          0 0 0 0 0 0
          0 0 0 0 0 0
          0 0 0 0 0 0
          0 0 0 0 0 0
          0 0 0 0 0 0
          0 0 0 0 0 0
          0 0 0 0 0 0
          0 0 0 0 0 0
          0 0 0 0 0 0
          0 0 0 0 0 0
          0 0 0 0 0 0
          0 0 0 0 0 0
          0 0 0 0 0 0
          0 0 0 0 0 0
          0 0 0 0 0 0
          0 0 0 0 0 0
          0 0
        </DataArray>
        <DataArray type="Float64" Name="combo" format="ascii" RangeMin="1" RangeMax="1.5">
          1 1 1 1 1 1
          1 1 1 1 1 1
          1 1 1 1 1 1
          1 1 1 1 1 1
          1 1 1 1 1 1
          1 1 1 1 1 1
          1 1 1 1 1 1
          1 1 1 1 1 1
          1 1 1 1 1 1
          1 1 1 1 1 1
          1 1 1 1 1 1
          1 1 1 1 1 1
          1 1 1 1 1 1
          1 1 1 1 1 1
          1 1 1 1 1 1
          1 1 1 1 1 1
          1 1 1 1 1 1
          1 1 1 1 1 1
          1 1 1 1 1 1
          1 1 1 1 1 1
          1 1 1 1 1 1
          1 1 1 1 1 1
          1 1 1 1 1 1
          1 1 1 1 1 1
          1 1 1 1 1 1
          1 1 1 1 1 1
          1 1 1 1 1 1
          1 1 1 1 1 1
          1 1 1 1 1 1
          1 1 1 1 1 1
          1 1 1 1 1 1
          1 1 1 1 1 1
          1 1 1 1 1 1
          1 1 1 1 1 1
          1 1 1 1 1 1
          1 1 1 1 1 1
          1 1 1 1 1 1
          1 1 1 1 1 1
          1 1 1 1 1 1
          1 1 1 1 1 1
          1 1 1 1 1 1
          1 1 1 1 1 1
          1 1.25 1.25 1 1 1.125
          1 1.5 1.5 1 1.25 1
          1 1 1 1 1 1
          1 1 1 1 1 1
          1 1 1 1 1 1
          1 1 1 1 1 1
          1 1 1 1 1 1
          1 1 1 1 1 1
          1 1 1 1 1 1
          1 1 1 1 1 1
          1 1 1 1 1 1
          1 1 1 1 1 1
          1 1 1 1 1 1
          1 1 1 1 1 1
          1 1 1 1 1 1
          1 1 1 1 1 1
          1 1 1 1 1 1
          1 1 1 1 1 1
          1 1 1 1 1 1
          1 1 1 1 1 1
          1 1 1 1 1 1
          1 1
        </DataArray>
        <DataArray type="Float64" Name="dHdT" format="ascii" RangeMin="25.83107637703673" RangeMax="56.484289998295424">
          25.855059776547236 26.512581884826268 26.31108189430952 33.55295789115443 29.589249421058604 26.025825946455516
          25.961279448518084 28.35724475970523 27.055901350867018 37.773730920667816 30.295652497962056 25.8741011816844
          25.9435957930266 25.921394245707834 25.841487907598825 25.83802362905108 25.85718643785895 25.84987389706869
          26.45361295451886 28.019294985018387 27.75655682828439 27.177455868809687 32.39437758144115 26.212327843713354
          26.17745974863396 27.127226564265307 26.968767861461924 26.006638487862624 26.53505134252251 26.445918728891577
          26.0939088755993 26.616029336425157 26.247517718085682 30.61930941831482 29.687853133458706 27.910497591406774
          28.052389922719975 27.08964754459543 26.871203640107495 26.439521308897007 37.29320725569218 35.949543798861775
          34.30174038530751 32.38174406019763 31.492425218247302 28.838899025479705 41.539274807692166 37.97379660660637
          35.99694817966597 34.00370644993032 29.885601611921643 28.89720014630704 27.320943059508945 32.752603748739034
          30.77010104793091 27.978847956724135 25.994800030966818 26.149809740977343 26.127527086709378 26.0712696718243
          25.93822655037425 26.00728488190879 25.9772748526104 25.92271710570241 25.916799586620428 26.003236677776698
          25.99025077111985 25.869654424385367 25.91528778402575 25.908236821400422 25.9019196125012 25.958034448087005
          25.891004877399297 25.88530658986821 25.922864058987 25.853263720474754 25.87278014169078 25.87765602227247
          25.90692408626299 25.864736387358057 26.708369819322414 27.063230524956573 27.030225129852646 26.938049003400508
          27.949638013492926 26.555609231762624 26.802795218948855 26.646250867305838 27.482800836458154 29.9432348112803
          29.76993652062615 29.309098614391353 33.2715015147574 28.697596089540106 28.066563144059366 31.02362291316212
          26.343682587587857 26.493089686957447 26.42038980514863 26.882002263954583 34.23523117216001 32.032438287519035
          26.514367829796562 26.497093433954422 26.777604251330835 26.75161862537585 26.327715350693563 26.544189625536756
          26.524190535450877 26.449285759908033 26.67909708766561 26.468291635669317 27.53086985971371 27.47604141762682
          27.085171788999833 27.325030552771068 26.20264159091279 26.192740083247095 26.355768349598677 26.34068875263421
          26.086681087500505 26.206874707483124 26.195771021905635 26.16521932940605 26.298586938766444 26.16470712305994
          26.798375188168595 26.766652997280655 26.511473543568698 26.678457030664703 26.37842752988566 26.572959680310632
          26.237128198808218 26.386507157146063 26.29552426161146 26.450552548736855 26.29245754968306 27.110105135829368
          26.802496011258768 26.8692495803346 26.124373313688327 26.236950817134936 26.036588352115892 26.1193038900051
          26.076855505501182 26.166246753068258 26.067476672780263 26.55217593381981 26.35220048549066 26.410749978166585
          28.99735924483322 28.86938712081749 28.2423752222816 28.147213760532757 28.525389434238754 27.88928554208701
          32.13852071856673 31.82985058816571 30.359404866143905 30.970348745443182 27.636451760510088 27.56649069912006
          27.15558014457152 27.104300817855123 27.374810302151673 26.963234456996737 29.31971219996432 29.142649441867775
          28.234941954395037 28.679870048961426 28.05944261548582 27.535431746325266 27.56994076223583 27.159486755336705
          29.825216213416475 28.849348578527273 28.737973850627895 27.10901478811394 26.76674155389151 26.824348307294954
          26.555191128788607 28.08454032626902 27.48431161660531 27.49868039359686 26.77954522069645 26.74226226427016
          26.490127774172628 26.46372897520597 26.63984413761623 26.391278837236772 27.633650689021508 27.54853434752144
          27.030438814438803 27.320406274376275 26.497162878910068 26.29037317648592 26.343623499420843 26.18198888748922
          27.016608257671553 26.65769930188558 26.7075867023713 26.214727936793512 26.331230433560503 26.111847657957764
          26.20123901056394 26.17650992843163 26.274713954358223 26.158185410080247 26.636681338671764 26.43644495661772
          26.03141087518995 26.098162730503212 25.970083361655714 26.01813044706445 26.010257283523494 26.066168867276637
          25.995168418786832 26.27506596489729 26.147506660961827 35.650137740248105 35.36549866099168 34.299163198983585
          33.952951975374205 34.4375484027908 32.88044216354301 39.979243498346875 39.10837866323432 36.92149028849996
          37.37328123883519 32.616253863065964 32.23938306773617 30.783679768738146 30.467528698444884 31.184382418504992
          29.659461692965284 36.031082081989496 35.67223461518139 33.80116829338076 34.43172004107089 32.759780272815675
          31.208599913144873 30.67986600084947 29.495357118416596 35.590726479915084 34.11651999567467 33.10410536555431
          29.799668385190575 28.68792424371889 28.548711708907874 27.8190240161875 32.28863532600677 30.496719048494896
          30.011433808617785 49.722861754261146 46.4365593689228 39.894102314104316 38.93031217817506 40.50980304305625
          37.50065252661057 56.484289998295424 51.52049278020755 40.04948766108484 42.5170691014959 37.28970751784606
          37.246166251879 36.981747973565675 36.54747617213035 36.61482859351674 34.98246007596189 37.29538245088396
          37.42964335083218 37.44830475048249 37.199902935079606 37.175516999975244 36.09074862847066 34.922716487285875
          33.302230512684126 37.70487594896725 36.66871752044406 35.52796974357098 34.522650611830485 32.372175586102514