<?xml version="1.0"?>
<VTKFile type="UnstructuredGrid" version="0.1" byte_order="LittleEndian" header_type="UInt32" compressor="vtkZLibDataCompressor">
  <UnstructuredGrid>
    <Piece NumberOfPoints="399" NumberOfCells="196">
      <PointData>
        <DataArray type="Int32" Name="libmesh_node_id" format="ascii" RangeMin="98" RangeMax="1445">
          98 99 100 101 102 103
          128 129 130 131 132 133
          144 145 146 158 159 160
          161 163 174 175 176 188
          189 190 191 204 205 206
          210 211 212 213 214 215
          216 217 218 219 220 221
          222 223 224 225 226 227
          228 229 230 231 232 236
          237 240 242 285 286 287
          288 289 290 291 292 293
          294 295 296 297 298 299
          300 301 302 303 304 305
          306 307 308 309 310 311
          312 313 314 315 316 317
          318 319 322 325 326 327
          331 374 375 376 377 378
          379 380 381 382 383 384
          385 386 387 399 401 406
          409 436 437 438 439 440
          441 442 443 444 445 446
          447 448 449 450 451 452
          453 454 455 456 457 458
          459 460 461 462 463 464
          465 466 467 468 469 470
          471 472 473 474 475 476
          477 478 479 480 481 482
          483 484 485 486 490 491
          493 494 496 547 639 640
          641 642 643 644 645 646
          647 648 649 650 651 652
          653 654 655 656 657 658
          659 660 661 662 673 674
          675 676 677 678 679 680
          681 682 683 684 685 686
          687 688 689 690 691 692
          693 694 695 696 697 698
          699 700 701 702 703 704
          705 706 707 708 709 710
          711 712 713 714 715 716
          717 718 719 720 731 732
          733 734 735 736 767 768
          769 770 771 772 773 774
          775 776 777 778 779 780
          781 782 783 784 785 786
          787 788 789 790 791 792
          793 794 795 796 797 798
          799 800 801 802 803 804
          805 806 807 808 809 812
          813 815 816 819 822 825
          826 827 828 829 830 831
          832 833 834 837 838 840
          841 842 848 1426 1427 1428
          1429 1430 1431 1432 1433 1434
          1435 1436 1437 1438 1439 1440
          1441 1442 1443 1444 1445 233
          235 238 321 333 339 324
          335 340 193 398 400 404
          405 345 408 411 320 487
          488 489 492 328 495 329
          540 539 545 542 541 546
          550 549 552 162 721 722
          723 724 728 729 332 810
          811 814 817 818 820 821
          823 824 504 835 505 836
          510 839 843 844 845 846
          847 849 850
        </DataArray>
        <DataArray type="Float64" Name="bounds" format="ascii" RangeMin="0" RangeMax="0">
          0 0 0 0 0 0
          0 0 0 0 0 0
          0 0 0 0 0 0
          0 0 0 0 0 0
          0 0 0 0 0 0
          0 0 0 0 0 0
          0 0 0 0 0 0
          0 0 0 0 0 0
          0 0 0 0 0 0
          0 0 0 0 0 0
          0 0 0 0 0 0
          0 0 0 0 0 0
          0 0 0 0 0 0
          0 0 0 0 0 0
          0 0 0 0 0 0
          0 0 0 0 0 0
          0 0 0 0 0 0
          0 0 0 0 0 0
          0 0 0 0 0 0
          0 0 0 0 0 0
          0 0 0 0 0 0
          0 0 0 0 0 0
          0 0 0 0 0 0
          0 0 0 0 0 0
          0 0 0 0 0 0
          0 0 0 0 0 0
          0 0 0 0 0 0
          0 0 0 0 0 0
          0 0 0 0 0 0
          0 0 0 0 0 0
          0 0 0 0 0 0
          0 0 0 0 0 0
          0 0 0 0 0 0
          0 0 0 0 0 0
          0 0 0 0 0 0
          0 0 0 0 0 0
          0 0 0 0 0 0
          0 0 0 0 0 0
          0 0 0 0 0 0
          0 0 0 0 0 0
          0 0 0 0 0 0
          0 0 0 0 0 0
          0 0 0 0 0 0
          0 0 0 0 0 0
          0 0 0 0 0 0
          0 0 0 0 0 0
          0 0 0 0 0 0
          0 0 0 0 0 0
          0 0 0 0 0 0
          0 0 0 0 0 0
          0 0 0 0 0 0
          0 0 0 0 0 0
          0 0 0 0 0 0
          0 0 0 0 0 0
          0 0 0 0 0 0
          0 0 0 0 0 0
          0 0 0 0 0 0
          0 0 0 0 0 0
          0 0 0 0 0 0
          0 0 0 0 0 0
          0 0 0 0 0 0
          0 0 0 0 0 0
          0 0 0 0 0 0
          0 0 0 0 0 0
          0 0 0 0 0 0
          0 0 0 0 0 0
          0 0 0
        </DataArray>
        <DataArray type="Float64" Name="gradient_error" format="ascii" RangeMin="2.7656899611926173e-10" RangeMax="0.0000020277412701772544">
          4.215437412887868e-9 2.629574502238761e-9 2.411916253847043e-9 1.459968385685263e-9 3.5367036540053807e-10 2.918492645319016e-10
          1.4758206008608166e-8 5.696462308199571e-9 3.977110660568976e-9 2.6967115027077083e-9 4.905746688840083e-10 6.424676046899858e-10
          5.295944264169086e-9 2.669616712224705e-9 8.16508141951373e-10 3.977968786362616e-7 6.25822397157279e-8 1.494507580805837e-8
          1.503888251985825e-8 2.384705215425741e-9 5.191644029241264e-9 2.5690863394112163e-9 7.078772569309956e-10 0.0000017591398783989528
          6.553642864610658e-7 3.455194632215242e-7 4.891979027994608e-8 3.8232293321362744e-8 1.62908201174144e-8 6.690473567390832e-10
          1.6758828191965815e-7 1.1375297904233905e-7 2.5642828353532953e-7 0.0000011088287367211002 5.964899073869287e-7 5.947256664909908e-7
          7.414590708087463e-7 1.970092800225261e-8 9.299924756850871e-8 2.3709860544166987e-7 4.390955896077976e-8 3.215762841080729e-7
          3.5977470259596397e-7 3.359867928843468e-8 2.0748176686454043e-7 0.0000011508208671434718 0.0000015134544834304947 2.8697517013304727e-7
          6.115480423171304e-7 5.502392719253418e-9 7.165099794024161e-9 4.46977063262562e-8 6.781496003768192e-8 6.975266421714554e-9
          5.843643980676064e-9 1.5576102334083824e-7 5.418804405175372e-9 0.0000015955335272849262 0.0000013117059265097325 0.000001287009323573929
          0.0000016519850751413317 0.0000013462738154819468 0.0000014338515522681096 0.0000015528681615357318 6.387288134259191e-7 6.513928545206068e-7
          8.546354951476745e-7 0.000001027878325734539 0.0000015278097979558967 0.0000010822549070734877 7.970260778994083e-7 0.0000010738623766554374
          0.0000015611631532043514 0.0000018187269994975351 7.846945204256285e-7 0.0000020277412701772544 1.0943072161496793e-7 2.799315919669483e-7
          3.687734682378917e-7 4.6417142887978925e-7 2.462658441213952e-7 4.3160524886929997e-7 4.6642601471622297e-7 3.52270032550468e-7
          3.992642469016268e-7 3.494522747897893e-7 2.6087760085874844e-7 4.028555882584556e-7 4.852788443062337e-7 3.092079080894627e-7
          6.900425739887334e-8 1.4302324066625668e-7 8.501269602839152e-8 1.5786644260586716e-7 2.138272887738581e-7 1.2393582546412075e-7
          2.2708463487604168e-7 9.149621726676577e-10 1.8067436679468357e-9 2.022576765606079e-9 2.3724198249751067e-8 4.6151413731461173e-10
          6.237168372263996e-10 2.7656899611926173e-10 1.3784317111073084e-9 8.466708423922758e-9 4.1214738606480944e-10 3.1301913585445002e-9
          4.564165283155531e-8 7.859195371381875e-10 2.480294426095355e-9 1.602037505256873e-8 4.3367613249239955e-8 4.855599467633341e-9
          7.071485144591119e-8 3.2462874969113826e-7 3.1378187158503735e-7 2.823398227131822e-7 2.719491134929006e-7 2.744755982018952e-7
          2.919106732545626e-7 2.7592993437928185e-7 3.1896554169707437e-7 2.8815135160274534e-7 3.2131512147241145e-7 3.029349934789364e-7
          3.0934574830723e-7 2.799107552656631e-7 3.373412313779504e-7 2.2432244671265217e-7 2.700394749240879e-7 2.695200460453815e-7
          2.8126042842556956e-7 3.157565031355236e-7 3.3760542710491826e-7 3.2177819226513044e-7 3.121005830581214e-7 3.483885594486205e-7
          3.5125845633286806e-7 3.430440633358681e-7 3.814497498644908e-7 2.984005910669111e-7 3.528932927639326e-7 3.851818155872775e-7
          2.2998746725919084e-7 3.052445847952657e-7 3.3720273242040547e-7 3.697109716793918e-7 3.9910603721319756e-7 3.779074817808173e-7
          3.8392646695654924e-7 4.2379146434160535e-7 4.051482779142072e-7 4.3487540181669787e-7 4.742970800744333e-7 3.456039906423089e-7
          4.1786462450710137e-7 4.531902037549627e-7 2.975484677201121e-7 3.7958526000269604e-7 4.3305919973589073e-7 4.411867538151551e-7
          4.6701127670894516e-7 4.3428543441664086e-7 4.987588969926005e-7 5.353689110052803e-7 3.829350666277204e-7 4.924986698730757e-7
          4.102023834955331e-7 5.009262706861022e-7 5.360004858492831e-7 1.4909166687463995e-7 1.2393490738303941e-8 7.816935931610849e-9
          1.4016232447893108e-8 7.272200690915218e-8 3.8489016826731275e-8 2.495251717405465e-8 4.618566570208821e-8 2.7523944335059586e-9
          1.1888177532126638e-8 8.599825072737586e-9 3.240381124917755e-9 1.1416017521378021e-8 1.964932449502424e-8 5.311472613348537e-9
          9.93594793570673e-10 8.302855461764453e-10 2.416935284874792e-9 2.3714592294686085e-9 3.4497531004594753e-10 9.9676346018027e-10
          1.0173881096882733e-9 6.669762987822174e-10 2.3259831740624247e-9 1.0380127591962763e-9 3.915504299746901e-9 6.425342218602694e-9
          6.181667417083573e-8 6.902280972232044e-8 1.1281330600214214e-9 2.036437394422253e-8 1.987224428607415e-8 1.1971784404192456e-7
          1.316202772260382e-7 3.9600614828423634e-8 1.9628198951407536e-8 1.6304822674657106e-8 2.3611754955453794e-8 5.353872970627327e-8
          5.1460115202963433e-8 3.4938240228745405e-8 3.8833263374128704e-8 8.23174378640497e-9 4.3003757558334484e-8 2.8731384172143165e-8
          1.2981446397906671e-8 1.8416365254527377e-8 2.412779704198414e-8 1.4459010785951848e-8 9.933342730908266e-8 1.2159482320473786e-7
          1.6767545492406276e-7 1.9294463275892e-7 6.108220886701936e-8 1.1913543863786012e-7 4.6073790713343407e-8 7.460212291798292e-8
          1.2061645894444072e-7 1.7856613825883082e-8 2.360174825390429e-7 2.6429444231310214e-7 1.771886684087009e-7 1.0313045512262243e-7
          8.950141779279041e-9 7.1919311720015265e-9 3.238370976060853e-8 2.531085611053382e-8 6.306094573159026e-9 2.4292457860210616e-8
          2.16832858743048e-8 5.433720564724012e-9 1.8238002460459112e-8 1.9074113888398988e-8 3.4031909734358485e-8 7.709850584780344e-8
          4.169998564305797e-9 6.547613634950637e-9 1.2016510196124842e-7 8.925228705595477e-9 1.2172466438625172e-7 1.2218931884069412e-7
          1.3389335722105415e-7 2.2395291121910602e-7 2.2481613630983024e-7 2.0500330686090708e-7 2.0535675128910712e-7 1.1187745189477714e-7
          2.245448163499123e-7 2.033195236551079e-7 1.2265397329513658e-7 1.8519047741198392e-7 1.8676059135910818e-7 1.820942309603035e-7
          2.428355756976601e-7 2.3640030782074838e-7 2.77599059616952e-7 2.7286380045717803e-7 2.5201337056941106e-7 2.864303399742832e-7
          2.0237129304527212e-7 2.340880695451584e-7 2.4266168946466016e-7 2.2235248516712507e-7 3.123625435362439e-7 3.0932729309360763e-7
          3.208473093791555e-7 2.658048460450447e-7 2.567697100301689e-7 2.9494046713147446e-7 2.596941096497131e-7 3.0294176753113126e-7
          1.901453008302853e-7 2.1780814697540753e-7 2.132218858845059e-7 3.3311122423278e-7 3.4618942541254945e-7 2.4547099312052976e-7
          9.689795500415384e-8 9.988298339934956e-8 2.2180254896618808e-7 1.9932115045408653e-7 8.547218170272148e-8 1.0286801179454529e-7
          1.7683975194198498e-7 6.592587616124862e-8 6.89666958982122e-8 5.292475714757297e-8 6.819020105429269e-8 2.6004977665332925e-7
          3.089193438285707e-7 2.0425366528049192e-7 3.1198859080686516e-7 1.744135376721706e-7 2.0482027292895002e-7 1.91657138146084e-7
          3.5778891100381223e-7 3.663965903315369e-7 2.3522700818572944e-7 1.062885038661163e-7 1.7304776775060558e-7 2.0376677353504496e-7
          3.065700877998328e-8 3.8221368883327747e-8 4.578572898667222e-8 1.651870323866089e-7 1.567914712125929e-7 1.727212011179767e-7
          2.2267538522240128e-7 2.2309209386969673e-7 2.0440766082043923e-7 2.034390985853466e-7 1.4839591003857692e-7 1.8572322777118173e-7
          1.8420281194829195e-7 4.8329082763362015e-8 5.4040891518570196e-8 6.87148174427944e-8 7.582035239782949e-8 4.2617274008153835e-8
          6.160928248775933e-8 3.228527905331445e-8 5.126676240969045e-8 5.702099451844401e-8 4.5512530300936904e-8 2.8323357063833723e-9
          3.8422298434405526e-8 2.106146295162662e-9 4.0571643051826275e-7 9.049008357522232e-8 1.0397309290458392e-7 2.2091480853812936e-7
          2.0412654525162864e-7 1.055151096587016e-7 9.093389160686378e-10 6.4771906073758465e-9 1.980044471272441e-8 1.8169202218650633e-9
          2.605897717887411e-9 8.47597543076281e-8 3.312369881807297e-8 3.3948752139097586e-9 5.052998426073365e-7 4.6490304129117055e-7
          5.774924102323752e-7 6.082954288029351e-7 5.357092454205707e-7 4.932602622551431e-7 5.858937751585527e-7 5.942780870949271e-7
          1.8531998268836865e-7 2.163749274900847e-7 9.716673610149896e-8 3.0334824060490487e-7 2.8646864210475404e-7 1.2049322917360703e-7
          3.6901715266093917e-7 3.5656235671942344e-7 1.4381972224571512e-7 2.044221094302465e-9 4.984435739060287e-9 4.603563020849877e-9
          1.6261735380524392e-8 1.535532510227829e-8 4.222690302639468e-9 1.4448914824032186e-8 2.2119069472478836e-8 2.155331820304372e-7
          1.9229059091887252e-7 1.4423856996394356e-7 2.0637334048803032e-7 1.8248053737507897e-7 1.94114065367747e-7 1.697045180272561e-7
          1.22375303369013e-7 1.2276532534937075e-7 2.6439230177672115e-7 1.7006785118102447e-7 4.151999458187421e-7 3.109237036464137e-7
          4.770579756470915e-7 3.708122570530052e-7 1.7497776478130958e-7 1.5131156107817822e-7 2.516929274050239e-8 1.4794080483635085e-7
          1.265597480581045e-7 1.2764535737504687e-7 1.0517869127985816e-7
        </DataArray>
        <DataArray type="Float64" Name="gradient_matprop_error" format="ascii" RangeMin="0" RangeMax="0">
          0 0 0 0 0 0
          0 0 0 0 0 0
          0 0 0 0 0 0
          0 0 0 0 0 0
          0 0 0 0 0 0
          0 0 0 0 0 0
          0 0 0 0 0 0
          0 0 0 0 0 0
          0 0 0 0 0 0
          0 0 0 0 0 0
          0 0 0 0 0 0
          0 0 0 0 0 0
          0 0 0 0 0 0
          0 0 0 0 0 0
          0 0 0 0 0 0
          0 0 0 0 0 0
          0 0 0 0 0 0
          0 0 0 0 0 0
          0 0 0 0 0 0
          0 0 0 0 0 0
          0 0 0 0 0 0
          0 0 0 0 0 0
          0 0 0 0 0 0
          0 0 0 0 0 0
          0 0 0 0 0 0
          0 0 0 0 0 0
          0 0 0 0 0 0
          0 0 0 0 0 0
          0 0 0 0 0 0
          0 0 0 0 0 0
          0 0 0 0 0 0
          0 0 0 0 0 0
          0 0 0 0 0 0
          0 0 0 0 0 0
          0 0 0 0 0 0
          0 0 0 0 0 0
          0 0 0 0 0 0
          0 0 0 0 0 0
          0 0 0 0 0 0
          0 0 0 0 0 0
          0 0 0 0 0 0
          0 0 0 0 0 0
          0 0 0 0 0 0
          0 0 0 0 0 0
          0 0 0 0 0 0
          0 0 0 0 0 0
          0 0 0 0 0 0
          0 0 0 0 0 0
          0 0 0 0 0 0
          0 0 0 0 0 0
          0 0 0 0 0 0
          0 0 0 0 0 0
          0 0 0 0 0 0
          0 0 0 0 0 0
          0 0 0 0 0 0
          0 0 0 0 0 0
          0 0 0 0 0 0
          0 0 0 0 0 0
          0 0 0 0 0 0
          0 0 0 0 0 0
          0 0 0 0 0 0
          0 0 0 0 0 0
          0 0 0 0 0 0
          0 0 0 0 0 0
          0 0 0 0 0 0
          0 0 0 0 0 0
          0 0 0
        </DataArray>
        <DataArray type="Float64" Name="initial_marker" format="ascii" RangeMin="0" RangeMax="2">
          0 0 0 0 0 0
          0 0 0 0 0 0
          0 0 0 0 0 0
          0 0 0 0 0 0
          0 2 0 0 0 0
          0 0 0 0 0 0
          0 0 0 0 0 0
          0 0 2 0 0 0
          0 0 0 0 0 0
          0 0 0 0 0 0
          0 0 0 0 0 0
          0 0 0 0 0 0
          0 0 0 0 0 0
          0.5 0 0 1 0.25 0
          0 0 2 1 1 0
          0 0 0 0 0 0
          0 0 0 0 0 0
          0 0 0 0 0 0
          0 0 0 0 0 0
          0 0 0 0 0 0.5
          0.25 0 0 1 0.5 0
          0 0 0 1 0.5 0
          1 0 0 0 1 0.75
          0.25 1.5 1.25 0 0.25 0.5
          2 1.5 2 0.5 1 0.5
          2 1.5 0.75 2 1.75 0
          0.5 0.75 2 2 2 1
          1 1 2 2 0.6666666666666666 1
          2 2 1 0 0 0
          0 0 0 0 0 0
          0 0 0 0 0 0
          0 0 0 0 0 0
          0 0 0 0 0 0
          0 0 0 0 0 0
          0 0 0 0 0 0
          0 0 0 0 0 0
          0 0 0 0 0 0
          0 0 0 0 0 0
          0 0 0 0 0 0
          0 0 0 0 0 0
          0 0 0 0 0 0
          0 0 0 0 0 0
          0 0 0 0 0 0
          0 0 0 0 0 0
          0 0 0 0 0 0
          0 0 0 0 0 0
          0 0 0 0 0 0
          0 0 0 0 0 0
          0 0 0 0 0 0
          0 0 0 0 0 0
          0 0 0 0 0 0
          0 0 0 0 0 0
          0 0 0 0 0 0
          0 0 0 0 0 0
          0 0 0 0 0 0
          0 0 0 0 0 0
          0 0 0.5 0 0 0
          0 0 0 0 0 0
          0 0 0 0 1 1
          2 2 1 2 2 1
          0 0 0 0 0.25 0
          0 0.5 0 0 0 0
          0 0 0 0 0 0
          0 0 0 0 0 0
          0 0 0.25 0 0.75 0
          1 0 0 0 0 0
          0 0 0
        </DataArray>
        <DataArray type="Float64" Name="markers_norefine" format="ascii" RangeMin="0" RangeMax="0">
          0 0 0 0 0 0
          0 0 0 0 0 0
          0 0 0 0 0 0
          0 0 0 0 0 0
          0 0 0 0 0 0
          0 0 0 0 0 0
          0 0 0 0 0 0
          0 0 0 0 0 0
          0 0 0 0 0 0
          0 0 0 0 0 0
          0 0 0 0 0 0
          0 0 0 0 0 0
          0 0 0 0 0 0
          0 0 0 0 0 0
          0 0 0 0 0 0
          0 0 0 0 0 0
          0 0 0 0 0 0
          0 0 0 0 0 0
          0 0 0 0 0 0
          0 0 0 0 0 0
          0 0 0 0 0 0
          0 0 0 0 0 0
          0 0 0 0 0 0
          0 0 0 0 0 0
          0 0 0 0 0 0
          0 0 0 0 0 0
          0 0 0 0 0 0
          0 0 0 0 0 0
          0 0 0 0 0 0
          0 0 0 0 0 0
          0 0 0 0 0 0
          0 0 0 0 0 0
          0 0 0 0 0 0
          0 0 0 0 0 0
          0 0 0 0 0 0
          0 0 0 0 0 0
          0 0 0 0 0 0
          0 0 0 0 0 0
          0 0 0 0 0 0
          0 0 0 0 0 0
          0 0 0 0 0 0
          0 0 0 0 0 0
          0 0 0 0 0 0
          0 0 0 0 0 0
          0 0 0 0 0 0
          0 0 0 0 0 0
          0 0 0 0 0 0
          0 0 0 0 0 0
          0 0 0 0 0 0
          0 0 0 0 0 0
          0 0 0 0 0 0
          0 0 0 0 0 0
          0 0 0 0 0 0
          0 0 0 0 0 0
          0 0 0 0 0 0
          0 0 0 0 0 0
          0 0 0 0 0 0
          0 0 0 0 0 0
          0 0 0 0 0 0
          0 0 0 0 0 0
          0 0 0 0 0 0
          0 0 0 0 0 0
          0 0 0 0 0 0
          0 0 0 0 0 0
          0 0 0 0 0 0
          0 0 0 0 0 0
          0 0 0
        </DataArray>
        <DataArray type="Float64" Name="markers_mustrefine" format="ascii" RangeMin="0" RangeMax="2">
          0 0 0 0 0 0
          0 0 0 0 0 0
          0 0 0 0 0 0
          0 0 0 0 0 0
          0 2 0 0 0 0
          0 0 0 0 0 0
          0 0 0 0 0 0
          0 0 2 0 0 0
          0 0 0 0 0 0
          0 0 0 0 0 0
          0 0 0 0 0 0
          0 0 0 0 0 0
          0 0 0 0 0 0
          0.5 0 0 1 0.25 0
          0 0 2 1 1 0
          0 0 0 0 0 0
          0 0 0 0 0 0
          0 0 0 0 0 0
          0 0 0 0 0 0
          0 0 0 0 0 0.5
          0.25 0 0 1 0.5 0
          0 0 0 1 0.5 0
          1 0 0 0 1 0.75
          0.25 1.5 1.25 0 0.25 0.5
          2 1.5 2 0.5 1 0.5
          2 1.5 0.75 2 1.75 0
          0.5 0.75 2 2 2 1
          1 1 2 2 0.6666666666666666 1
          2 2 1 0 0 0
          0 0 0 0 0 0
          0 0 0 0 0 0
          0 0 0 0 0 0
          0 0 0 0 0 0
          0 0 0 0 0 0
          0 0 0 0 0 0
          0 0 0 0 0 0
          0 0 0 0 0 0
          0 0 0 0 0 0
          0 0 0 0 0 0
          0 0 0 0 0 0
          0 0 0 0 0 0
          0 0 0 0 0 0
          0 0 0 0 0 0
          0 0 0 0 0 0
          0 0 0 0 0 0
          0 0 0 0 0 0
          0 0 0 0 0 0
          0 0 0 0 0 0
          0 0 0 0 0 0
          0 0 0 0 0 0
          0 0 0 0 0 0
          0 0 0 0 0 0
          0 0 0 0 0 0
          0 0 0 0 0 0
          0 0 0 0 0 0
          0 0 0 0 0 0
          0 0 0.5 0 0 0
          0 0 0 0 0 0
          0 0 0 0 1 1
          2 2 1 2 2 1
          0 0 0 0 0.25 0
          0 0.5 0 0 0 0
          0 0 0 0 0 0
          0 0 0 0 0 0
          0 0 0.25 0 0.75 0
          1 0 0 0 0 0
          0 0 0
        </DataArray>
        <DataArray type="Float64" Name="gradient_marker" format="ascii" RangeMin="0" RangeMax="1">
          1 1 1 1 1 1
          1 1 1 1 1 1
          1 1 1 1 1 1
          1 1 1 1 1 1
          1 1 1 1 1 1
          1 1 1 1 1 1
          1 1 1 1 1 1
          1 1 1 1 1 1
          1 1 1 0.5 0.875 1
          1 1 1 1 1 1
          1 1 1 1 1 1
          1 1 1 1 1 1
          1 1 1 1 1 1
          1 1 1 1 1 1
          1 1 1 1 1 1
          0.5 0.625 0.625 0.8333333333333334 0.875 0.875
          1 1 1 1 1 1
          1 1 1 1 1 1
          1 1 1 1 1 1
          1 1 1 1 1 1
          1 1 1 1 1 1
          1 1 1 1 1 1
          1 1 1 1 1 1
          1 1 1 1 1 1
          1 1 1 1 1 1
          1 1 1 1 1 1
          1 1 1 1 1 1
          1 1 1 1 1 1
          1 1 1 1 1 1
          1 1 1 1 1 1
          1 1 1 1 1 1
          1 1 1 1 1 1
          1 1 1 1 1 1
          1 1 1 1 1 1
          1 1 1 1 1 1
          1 1 1 1 1 1
          1 1 1 1 1 1
          1 1 1 1 1 1
          1 1 1 1 1 1
          1 1 1 1 1 1
          1 1 1 1 1 1
          1 1 1 1 1 1
          1 1 1 1 1 1
          1 1 1 1 1 1
          1 1 1 1 1 1
          1 1 1 1 1 1
          1 1 1 1 1 1
          1 1 1 1 1 1
          0.5 0.5 0.75 0.75 0 0.5
          0.75 0 0 0 0 1
          1 0.8333333333333334 1 1 1 1
          1 1 1 0.5 1 1
          0 0 0 1 1 1
          1 1 1 1 1 1
          1 0 0 0.125 0.25 0
          0 0 0 0 0 1
          1 1 1 0.75 1 0.625
          0.75 0.75 1 1 1 1
          1 0.75 1 1 1 1
          1 1 1 1 1 1
          0.6666666666666666 0.75 0.5 1 0.875 0.75
          1 1 1 1 1 1
          1 1 1 1 0.5 0.5
          0.5 0.5 0.5 0.5 0.5 0.5
          0.375 0.3333333333333333 0.75 0.625 0.75 1
          1 1 0.5 0.5 0 0.5
          0.5 0.5 0.5
        </DataArray>
        <DataArray type="Float64" Name="gradient_matprop_marker" format="ascii" RangeMin="0" RangeMax="0">
          0 0 0 0 0 0
          0 0 0 0 0 0
          0 0 0 0 0 0
          0 0 0 0 0 0
          0 0 0 0 0 0
          0 0 0 0 0 0
          0 0 0 0 0 0
          0 0 0 0 0 0
          0 0 0 0 0 0
          0 0 0 0 0 0
          0 0 0 0 0 0
          0 0 0 0 0 0
          0 0 0 0 0 0
          0 0 0 0 0 0
          0 0 0 0 0 0
          0 0 0 0 0 0
          0 0 0 0 0 0
          0 0 0 0 0 0
          0 0 0 0 0 0
          0 0 0 0 0 0
          0 0 0 0 0 0
          0 0 0 0 0 0
          0 0 0 0 0 0
          0 0 0 0 0 0
          0 0 0 0 0 0
          0 0 0 0 0 0
          0 0 0 0 0 0
          0 0 0 0 0 0
          0 0 0 0 0 0
          0 0 0 0 0 0
          0 0 0 0 0 0
          0 0 0 0 0 0
          0 0 0 0 0 0
          0 0 0 0 0 0
          0 0 0 0 0 0
          0 0 0 0 0 0
          0 0 0 0 0 0
          0 0 0 0 0 0
          0 0 0 0 0 0
          0 0 0 0 0 0
          0 0 0 0 0 0
          0 0 0 0 0 0
          0 0 0 0 0 0
          0 0 0 0 0 0
          0 0 0 0 0 0
          0 0 0 0 0 0
          0 0 0 0 0 0
          0 0 0 0 0 0
          0 0 0 0 0 0
          0 0 0 0 0 0
          0 0 0 0 0 0
          0 0 0 0 0 0
          0 0 0 0 0 0
          0 0 0 0 0 0
          0 0 0 0 0 0
          0 0 0 0 0 0
          0 0 0 0 0 0
          0 0 0 0 0 0
          0 0 0 0 0 0
          0 0 0 0 0 0
          0 0 0 0 0 0
          0 0 0 0 0 0
          0 0 0 0 0 0
          0 0 0 0 0 0
          0 0 0 0 0 0
          0 0 0 0 0 0
          0 0 0
        </DataArray>
        <DataArray type="Float64" Name="combo" format="ascii" RangeMin="0" RangeMax="1">
          1 1 1 1 1 1
          1 1 1 1 1 1
          1 1 1 1 1 1
          1 1 1 1 1 1
          1 1 1 1 1 1
          1 1 1 1 1 1
          1 1 1 1 1 1
          1 1 1 1 1 1
          1 1 1 0.5 0.875 1
          1 1 1 1 1 1
          1 1 1 1 1 1
          1 1 1 1 1 1
          1 1 1 1 1 1
          1 1 1 1 1 1
          1 1 1 1 1 1
          0.5 0.625 0.625 0.8333333333333334 0.875 0.875
          1 1 1 1 1 1
          1 1 1 1 1 1
          1 1 1 1 1 1
          1 1 1 1 1 1
          1 1 1 1 1 1
          1 1 1 1 1 1
          1 1 1 1 1 1
          1 1 1 1 1 1
          1 1 1 1 1 1
          1 1 1 1 1 1
          1 1 1 1 1 1
          1 1 1 1 1 1
          1 1 1 1 1 1
          1 1 1 1 1 1
          1 1 1 1 1 1
          1 1 1 1 1 1
          1 1 1 1 1 1
          1 1 1 1 1 1
          1 1 1 1 1 1
          1 1 1 1 1 1
          1 1 1 1 1 1
          1 1 1 1 1 1
          1 1 1 1 1 1
          1 1 1 1 1 1
          1 1 1 1 1 1
          1 1 1 1 1 1
          1 1 1 1 1 1
          1 1 1 1 1 1
          1 1 1 1 1 1
          1 1 1 1 1 1
          1 1 1 1 1 1
          1 1 1 1 1 1
          0.5 0.5 0.75 0.75 0 0.5
          0.75 0 0 0 0 1
          1 0.8333333333333334 1 1 1 1
          1 1 1 0.5 1 1
          0 0 0 1 1 1
          1 1 1 1 1 1
          1 0 0 0.125 0.25 0
          0 0 0 0 0 1
          1 1 1 0.75 1 0.625
          0.75 0.75 1 1 1 1
          1 0.75 1 1 1 1
          1 1 1 1 1 1
          0.6666666666666666 0.75 0.5 1 0.875 0.75
          1 1 1 1 1 1
          1 1 1 1 0.5 0.5
          0.5 0.5 0.5 0.5 0.5 0.5
          0.375 0.3333333333333333 0.75 0.625 0.75 1
          1 1 0.5 0.5 0 0.5
          0.5 0.5 0.5
        </DataArray>
        <DataArray type="Float64" Name="dHdT" format="ascii" RangeMin="25.793011935854118" RangeMax="38.874811942437404">
          25.811298775059374 25.811350369499245 25.811349047836472 25.81137985093911 25.811404164702445 25.811409850136585
          25.81398329970588 25.811629949046416 25.81155253398764 25.811451493641144 25.811389366640192 25.8114207174143
          25.811506059766206 25.811460133565593 25.811424667125166 25.875022998949554 25.818245667729613 25.805619248126185
          25.81276962604358 25.811540201635015 25.81153364135288 25.811464031464574 25.81143121629362 34.147830896234936
          25.93885714599363 37.38679236631613 25.801779408621687 25.81658320039491 25.812898903436917 25.811365222667078
          25.834510614158557 25.82702157203997 25.850465103806865 27.39813914711576 26.95367203788758 26.221668991478317
          26.32209168822051 25.812558439448125 26.257519613385735 26.054987244241282 25.816059398596323 25.858953964122886
          25.86878626770689 25.81126915047049 38.874811942437404 27.75499313218859 28.208047389766858 27.06061665519999
          25.907815903613972 25.811551581433385 25.812812554087717 25.962882527694973 25.86845059858861 25.81191587985992
          25.812222208225673 26.47573510778018 25.80833408490289 28.80290476259924 27.98395098128842 28.039528827378078
          31.488751762731376 31.646621073854995 29.809846655555443 30.032484723489006 26.932285028767186 32.29939472486536
          29.695173568683266 27.164997199977595 28.55109073997932 27.900847207947546 27.361462612383693 36.285538086803044
          32.53814711799352 32.025440619599934 33.72126109117819 29.93718427998104 26.410465531467906 26.340736250522486
          32.7098659022866 29.732989574168677 26.217098401021037 32.52293930990825 29.543010511799057 26.237060982417447
          26.67928463595876 26.500961352680548 38.06613982882847 34.398430493944986 34.27716102920032 27.301671039346292
          26.106063151293693 26.070376316291608 25.94637679818377 25.97945754949141 26.316105368891904 26.12186211300011
          26.78277594258885 25.811319613926358 25.811195930044725 25.81105661256199 25.808537833997377 25.811380802175705
          25.811337071310405 25.811416949517593 25.81136344417617 25.8121502971698 25.811392258736163 25.810793611197628
          25.80587973795003 25.811293340445108 25.811309938834754 25.82878973021443 25.852667472108372 25.81004526812954
          25.876545214002313 34.900003973590344 33.74248688512906 33.56147805582361 36.51271576296276 36.77807897143579
          35.57758955675649 35.361483194840815 32.55778138332425 37.032694469094274 35.83500372507363 32.58496979666778
          34.37710014207721 34.21025062671886 33.43771167978073 38.656153969281235 37.41269222838394 37.16148833385802
          37.62898827897948 36.169230487486644 32.70181650951058 31.904150658208 36.95883228655009 35.8892890385485
          31.91406177470462 36.795708715242604 35.85192832905373 30.70196236652428 32.94053315090615 32.99013537793898
          38.51398659324923 37.50092784759184 37.283759453532575 34.35879631935162 32.6442932334871 31.849858983821797
          36.589829967076085 35.73139627817064 31.735056914668565 36.3989278447104 35.58967090174881 30.620665267906958
          32.95278343572153 32.8661574230045 37.67136879571494 37.04027596591081 36.83173922888114 34.36162268252725
          32.356913555168205 31.57172956683103 36.27457486902711 35.45999292654473 30.34280497669874 32.7305562233947
          37.283705339174034 36.70717826024477 34.15336516683055 26.770888952376822 25.813968990610398 25.812963580618785
          25.81463384827353 25.800151821274092 25.805645951704363 25.807898645725768 25.804631576365427 25.81176093612037
          25.809652828164683 25.810246311566413 25.81195817062717 25.81015133974718 25.809111331456762 25.81083979496815
          25.811331721161054 25.811422402686603 25.811055007475186 25.811114709853474 25.811426696446542 25.811271175121583
          25.81129498245564 25.81151308421215 25.811174412231757 25.811318789789688 25.810898062089443 25.810477514174046
          25.80384288104799 25.801744725014082 25.811410230652314 25.8137849461317 25.814005114563393 25.796787700006547
          25.793011935854118 25.81615966161109 25.808528250173715 25.812378705192515 25.817936620557767 25.880399545212363
          25.862321754584293 25.848651739712246 25.86412405046204 25.809020105603842 25.832899602400204 25.8241962246767
          25.816229160211314 25.8349817248402 25.847848555711714 25.815492846953195 25.921983311068256 25.952124775811065