<?xml version="1.0"?>
<VTKFile type="UnstructuredGrid" version="0.1" byte_order="LittleEndian" header_type="UInt32" compressor="vtkZLibDataCompressor">
  <UnstructuredGrid>
    <Piece NumberOfPoints="1262" NumberOfCells="825">
      <PointData>
        <DataArray type="Int32" Name="libmesh_node_id" format="ascii" RangeMin="2323" RangeMax="12597">
          2663 2664 2668 2669 2685 2691
          3232 3233 3234 3238 3241 3242
          3245 3247 3249 3250 3253 3254
          3256 3258 3309 3310 3313 3315
          3317 3318 3321 3322 3324 3326
          3663 3664 3665 3667 3668 3669
          3672 3673 4801 4806 4809 4810
          4812 4814 4838 4842 4844 4845
          4846 4848 4863 4864 4865 4868
          4879 4880 4881 4882 4883 4884
          4885 4886 4887 4888 4898 4899
          4902 4910 4911 4912 4913 4914
          4915 4916 4917 4918 4919 4920
          4921 4922 4923 4924 4925 4926
          4927 4928 4931 4932 4934 4935
          4936 4937 4938 4939 4940 4941
          4942 4943 4944 4945 4946 4947
          4948 4951 4952 4954 4956 4957
          4958 4959 4960 4961 4962 4963
          4964 4965 4966 4968 4969 4970
          4971 4972 4973 4974 4975 4976
          4977 4978 4980 4982 4984 5206
          5207 5208 5209 5210 5211 5212
          5213 5214 5215 5216 5217 5218
          5219 5220 5221 5222 5223 5224
          5225 5310 5312 5313 5314 5315
          5316 5317 5318 5319 5320 5321
          5322 5323 5324 5326 5327 5328
          5329 5330 5332 5333 5473 5474
          5475 5476 5477 5478 5479 5490
          5491 5492 5493 5494 5495 5496
          5497 5498 5501 5502 5504 5506
          5657 5658 5660 5662 5663 5664
          5672 5674 5676 5677 5678 5679
          5680 5681 5682 5683 5684 5685
          10361 10362 10363 10364 10365 10366
          10367 10368 10369 10370 10392 10393
          10394 10395 10396 10397 10398 10399
          10403 10404 10405 10408 10419 10420
          10421 10422 10423 10424 10425 10426
          10427 10428 10431 10432 10435 10443
          10444 10445 10446 10447 10448 10449
          10450 10451 10454 10455 10457 10459
          10617 10618 10619 10620 10621 10622
          10623 10645 10646 10647 10648 10649
          10650 10651 10654 10655 10658 10666
          10667 10668 10669 10670 10671 10672
          10673 10675 10676 10677 10679 10682
          10683 10686 10694 10695 10696 10697
          10698 10699 10700 10701 10703 10704
          10705 10707 10796 10797 10798 10799
          10800 10801 10802 10803 10804 10805
          10820 10821 10822 10823 10824 10825
          10826 10827 10828 10829 10830 10831
          10832 10833 10834 10835 10836 10877
          10878 10879 10880 10881 10882 10883
          10884 10885 10886 10887 10888 10889
          10890 10891 10892 10893 10894 10895
          10896 10897 10898 10899 10900 10901
          10902 10903 10904 10905 10906 10907
          10908 10909 10910 10911 10912 10913
          10914 10915 10916 10987 10988 10989
          10990 10991 10992 10993 10994 10995
          10996 10997 10998 10999 11000 11015
          11016 11017 11018 11019 11020 11021
          11022 11023 11024 11025 11026 11027
          11028 11085 11086 11087 11088 11089
          11090 11091 11092 11093 11094 11095
          11096 11097 11098 11099 11100 11101
          11102 11103 11104 11105 11106 11107
          11108 11109 11110 11111 11112 11113
          11114 11115 11116 11117 11118 11119
          11120 11121 11122 11123 11124 11125
          11126 11127 11128 11129 11130 11131
          11132 11133 11134 11135 11136 11137
          11138 11139 11140 11141 11142 11143
          11144 11145 11146 11147 11148 11149
          11150 11151 11152 11153 11154 11155
          11156 11157 11158 11159 11160 11161
          11162 11163 11164 11165 11166 11167
          11168 11169 11170 11171 11172 11173
          11174 11175 11176 11177 11178 11179
          11180 11181 11182 11183 11184 11185
          11186 11187 11188 11189 11190 11191
          11192 11193 11194 11195 11196 11197
          11198 11199 11202 11203 11205 11206
          11207 11208 11209 11210 11211 11212
          11213 11214 11215 11216 11217 11218
          11219 11222 11223 11225 11227 11228
          11229 11230 11231 11232 11233 11234
          11235 11236 11237 11238 11239 11240
          11241 11242 11243 11244 11245 11246
          11247 11248 11249 11250 11251 11252
          11253 11254 11255 11256 11257 11258
          11259 11260 11261 11262 11263 11264
          11265 11266 11267 11268 11269 11270
          11271 11272 11273 11274 11275 11276
          11277 11278 11279 11280 11281 11282
          11283 11284 11285 11286 11287 11288
          11289 11290 11291 11292 11293 11294
          11295 11296 11297 11298 11299 11300
          11301 11302 11303 11304 11305 11306
          11307 11308 11309 11310 11311 11312
          11313 11314 11315 11316 11317 11318
          11319 11320 11321 11322 11323 11324
          11325 11326 11327 11328 11329 11330
          11331 11332 11333 11334 11335 11337
          11339 11341 11342 11343 11344 11345
          11346 11347 11348 11349 11350 11351
          11352 11353 11354 11355 11356 11357
          11358 11359 11360 11361 11362 11363
          11365 11367 11369 11370 11371 11372
          11373 11374 11375 11376 11377 11378
          11379 11380 11381 11382 11383 11384
          11385 11386 11387 11388 11389 11390
          11391 11392 11393 11394 11395 11396
          11397 11398 11399 11400 11401 11402
          11403 11404 11405 11406 11407 11408
          11409 11410 11411 11412 11413 11414
          11415 11416 11417 11418 11419 11420
          11421 11422 11423 11424 11425 11426
          11427 11428 11429 11430 11431 11432
          11433 11434 11435 11436 11437 11438
          11439 11440 11443 11444 11446 11448
          11449 11450 11451 11452 11453 11454
          11455 11456 11457 11458 11459 11460
          11461 11462 11463 11464 11465 11466
          11468 11469 11470 11471 11472 11473
          11474 11475 11476 11478 11480 11482
          11483 11484 11485 11486 11487 11488
          11489 11490 11492 11494 11496 12537
          12538 12539 12540 12541 12542 12543
          12544 12545 12546 12547 12548 12549
          12550 12551 12552 12553 12554 12555
          12556 12557 12558 12559 12560 12561
          12562 12563 12564 12565 12566 12567
          12568 12569 12570 12571 12572 12573
          12574 12575 12576 12577 12578 12579
          12580 12581 12582 12583 12584 12585
          12586 12587 12588 12589 12590 12591
          12592 12593 12594 12595 12596 12597
          2648 2684 2688 2442 2649 2689
          2652 2686 2455 2687 2690 2692
          2460 2693 3307 3311 3308 3312
          3314 3316 2665 3319 3255 3320
          3323 3325 2778 3401 3406 2781
          2626 2657 2439 3404 3407 2660
          2450 3652 3655 3658 3654 3657
          3660 3659 3648 3661 3649 3650
          3662 3588 3589 3666 3592 3239
          3243 3670 3671 3674 2662 3251
          4805 4807 4808 4811 4859 4861
          4860 4862 4871 4855 4872 4875
          4799 4800 4929 4930 4933 4949
          4950 4953 3252 4955 5198 5199
          5202 5204 5247 3394 5249 5274
          3459 2323 5280 3464 3626 5311
          3627 3630 3203 5295 3207 5325
          5296 5299 5331 5301 5468 5469
          5472 3244 5499 4981 5500 5503
          2458 5505 5651 5653 5655 5652
          5654 5656 4795 4797 5648 5640
          5649 5659 5650 5661 3226 4788
          5628 5667 5623 5629 5673 5668
          5630 5675 5671 4851 2659 10345
          10353 10337 10346 10354 10347 10357
          4796 10350 10359 4798 10374 10380
          10386 10381 10388 4802 10384 10390
          4803 4804 10281 10343 10211 10282
          10400 10344 10401 10283 10402 10349
          10406 10407 10409 10413 10410 10414
          10416 10418 10379 10429 10430 10383
          10433 10434 10436 10438 10440 10442
          10452 10439 10453 10456 4813 10458
          10599 10605 10611 10606 10613 4835
          10609 10615 4836 4837 10627 10633
          10639 10634 10641 4839 10637 10643
          4840 4841 10604 10652 10653 10608
          10656 10657 10659 10661 10663 10665
          10662 10674 4843 10678 10632 10680
          10681 10636 10684 10685 10687 10689
          10691 10693 10690 10702 4847 10706
          10780 10740 10724 10781 10741 10782
          10744 4852 10785 10746 10758 10808
          10770 10809 10772 4857 10812 10774
          4866 3240 10795 10815 10816 10819
          4867 10849 10850 10853 10855 4877
          10869 10870 10873 10875 10927 10975
          10939 10976 10941 4890 10979 10943
          4896 4892 10982 10983 10986 4897
          10955 11003 10967 11004 10969 4894
          11007 10971 4900 3246 11010 11011
          11014 4901 11037 11039 11041 4904
          11051 11053 11055 4906 11065 11067
          11069 4908 11079 11081 11083 3248
          10355 10788 9887 10356 10789 10792
          4729 10360 10794 9915 10387 10814
          3220 10391 10818 11200 11201 11204
          11220 11221 11224 11226 10135 10612
          10981 4763 10616 10985 10163 10640
          11009 2667 10644 11013 11336 11338
          11340 4967 11364 11366 11368 3257
          11441 11442 11445 11447 4979 11467
          11477 11479 11481 4983 11491 11493
          11495 11614 11618 11620 11622 11823
          11825 11827 11829 11851 11853 11855
          11857 12215 12221 12219 12223 12235
          12241 12254 12256 12258 12260 12268
          12272 12285 12287 12289 12291 12299
          12303 12488 12489 12492 12494 12514
          12516 12518
        </DataArray>
        <DataArray type="Float64" Name="bounds" format="ascii" RangeMin="0" RangeMax="0">
          0 0 0 0 0 0
          0 0 0 0 0 0
          0 0 0 0 0 0
          0 0 0 0 0 0
          0 0 0 0 0 0
          0 0 0 0 0 0
          0 0 0 0 0 0
          0 0 0 0 0 0
          0 0 0 0 0 0
          0 0 0 0 0 0
          0 0 0 0 0 0
          0 0 0 0 0 0
          0 0 0 0 0 0
          0 0 0 0 0 0
          0 0 0 0 0 0
          0 0 0 0 0 0
          0 0 0 0 0 0
          0 0 0 0 0 0
          0 0 0 0 0 0
          0 0 0 0 0 0
          0 0 0 0 0 0
          0 0 0 0 0 0
          0 0 0 0 0 0
          0 0 0 0 0 0
          0 0 0 0 0 0
          0 0 0 0 0 0
          0 0 0 0 0 0
          0 0 0 0 0 0
          0 0 0 0 0 0
          0 0 0 0 0 0
          0 0 0 0 0 0
          0 0 0 0 0 0
          0 0 0 0 0 0
          0 0 0 0 0 0
          0 0 0 0 0 0
          0 0 0 0 0 0
          0 0 0 0 0 0
          0 0 0 0 0 0
          0 0 0 0 0 0
          0 0 0 0 0 0
          0 0 0 0 0 0
          0 0 0 0 0 0
          0 0 0 0 0 0
          0 0 0 0 0 0
          0 0 0 0 0 0
          0 0 0 0 0 0
          0 0 0 0 0 0
          0 0 0 0 0 0
          0 0 0 0 0 0
          0 0 0 0 0 0
          0 0 0 0 0 0
          0 0 0 0 0 0
          0 0 0 0 0 0
          0 0 0 0 0 0
          0 0 0 0 0 0
          0 0 0 0 0 0
          0 0 0 0 0 0
          0 0 0 0 0 0
          0 0 0 0 0 0
          0 0 0 0 0 0
          0 0 0 0 0 0
          0 0 0 0 0 0
          0 0 0 0 0 0
          0 0 0 0 0 0
          0 0 0 0 0 0
          0 0 0 0 0 0
          0 0 0 0 0 0
          0 0 0 0 0 0
          0 0 0 0 0 0
          0 0 0 0 0 0
          0 0 0 0 0 0
          0 0 0 0 0 0
          0 0 0 0 0 0
          0 0 0 0 0 0
          0 0 0 0 0 0
          0 0 0 0 0 0
          0 0 0 0 0 0
          0 0 0 0 0 0
          0 0 0 0 0 0
          0 0 0 0 0 0
          0 0 0 0 0 0
          0 0 0 0 0 0
          0 0 0 0 0 0
          0 0 0 0 0 0
          0 0 0 0 0 0
          0 0 0 0 0 0
          0 0 0 0 0 0
          0 0 0 0 0 0
          0 0 0 0 0 0
          0 0 0 0 0 0
          0 0 0 0 0 0
          0 0 0 0 0 0
          0 0 0 0 0 0
          0 0 0 0 0 0
          0 0 0 0 0 0
          0 0 0 0 0 0
          0 0 0 0 0 0
          0 0 0 0 0 0
          0 0 0 0 0 0
          0 0 0 0 0 0
          0 0 0 0 0 0
          0 0 0 0 0 0
          0 0 0 0 0 0
          0 0 0 0 0 0
          0 0 0 0 0 0
          0 0 0 0 0 0
          0 0 0 0 0 0
          0 0 0 0 0 0
          0 0 0 0 0 0
          0 0 0 0 0 0
          0 0 0 0 0 0
          0 0 0 0 0 0
          0 0 0 0 0 0
          0 0 0 0 0 0
          0 0 0 0 0 0
          0 0 0 0 0 0
          0 0 0 0 0 0
          0 0 0 0 0 0
          0 0 0 0 0 0
          0 0 0 0 0 0
          0 0 0 0 0 0
          0 0 0 0 0 0
          0 0 0 0 0 0
          0 0 0 0 0 0
          0 0 0 0 0 0
          0 0 0 0 0 0
          0 0 0 0 0 0
          0 0 0 0 0 0
          0 0 0 0 0 0
          0 0 0 0 0 0
          0 0 0 0 0 0
          0 0 0 0 0 0
          0 0 0 0 0 0
          0 0 0 0 0 0
          0 0 0 0 0 0
          0 0 0 0 0 0
          0 0 0 0 0 0
          0 0 0 0 0 0
          0 0 0 0 0 0
          0 0 0 0 0 0
          0 0 0 0 0 0
          0 0 0 0 0 0
          0 0 0 0 0 0
          0 0 0 0 0 0
          0 0 0 0 0 0
          0 0 0 0 0 0
          0 0 0 0 0 0
          0 0 0 0 0 0
          0 0 0 0 0 0
          0 0 0 0 0 0
          0 0 0 0 0 0
          0 0 0 0 0 0
          0 0 0 0 0 0
          0 0 0 0 0 0
          0 0 0 0 0 0
          0 0 0 0 0 0
          0 0 0 0 0 0
          0 0 0 0 0 0
          0 0 0 0 0 0
          0 0 0 0 0 0
          0 0 0 0 0 0
          0 0 0 0 0 0
          0 0 0 0 0 0
          0 0 0 0 0 0
          0 0 0 0 0 0
          0 0 0 0 0 0
          0 0 0 0 0 0
          0 0 0 0 0 0
          0 0 0 0 0 0
          0 0 0 0 0 0
          0 0 0 0 0 0
          0 0 0 0 0 0
          0 0 0 0 0 0
          0 0 0 0 0 0
          0 0 0 0 0 0
          0 0 0 0 0 0
          0 0 0 0 0 0
          0 0 0 0 0 0
          0 0 0 0 0 0
          0 0 0 0 0 0
          0 0 0 0 0 0
          0 0 0 0 0 0
          0 0 0 0 0 0
          0 0 0 0 0 0
          0 0 0 0 0 0
          0 0 0 0 0 0
          0 0 0 0 0 0
          0 0 0 0 0 0
          0 0 0 0 0 0
          0 0 0 0 0 0
          0 0 0 0 0 0
          0 0 0 0 0 0
          0 0 0 0 0 0
          0 0 0 0 0 0
          0 0 0 0 0 0
          0 0 0 0 0 0
          0 0 0 0 0 0
          0 0 0 0 0 0
          0 0 0 0 0 0
          0 0 0 0 0 0
          0 0 0 0 0 0
          0 0 0 0 0 0
          0 0 0 0 0 0
          0 0 0 0 0 0
          0 0 0 0 0 0
          0 0 0 0 0 0
          0 0 0 0 0 0
          0 0 0 0 0 0
          0 0 0 0 0 0
          0 0 0 0 0 0
          0 0
        </DataArray>
        <DataArray type="Float64" Name="gradient_error" format="ascii" RangeMin="5.229565492095674e-14" RangeMax="3.9653093814844986e-11">
          3.7008214250290426e-12 2.216972661030301e-12 2.5208332528189816e-12 5.987280153633331e-13 7.342691722797893e-13 8.746251792244207e-13
          1.6402088498447276e-12 2.686745129732607e-12 8.019130561111097e-13 8.122879815986666e-12 3.5935814017894818e-12 1.815431162979576e-12
          6.495847027062264e-13 5.030372433669249e-12 1.503562571063895e-12 5.978548377705306e-13 8.922542053028376e-13 5.309953660589312e-13
          1.7154033843029401e-12 3.163489612442363e-13 8.009249386977719e-13 7.909907651664992e-13 8.275590416180705e-13 1.0769192762895009e-12
          4.102628978473308e-13 4.0544282403459576e-13 2.482889348805523e-13 4.5198514297006966e-13 4.0700873667804e-13 5.784162818961957e-13
          2.134641034087472e-12 2.6649765130949147e-12 2.15873944988695e-12 2.341746898384728e-12 8.082909696534543e-13 1.2720085735436741e-12
          4.443048139410057e-13 8.833850587840989e-13 1.4261437687465198e-12 9.138574560675488e-13 1.1274364608150297e-12 9.792127128953961e-13
          2.571907331656155e-12 1.489246350759645e-12 6.658133838662882e-12 6.651888437424217e-12 3.736188134004881e-12 2.0346291282529226e-12
          7.700969371982202e-12 4.593890785980095e-12 3.337883454669621e-12 2.596641812533266e-12 2.219684416510647e-12 3.0371060593028907e-12
          2.9121957769239902e-12 1.7659487999235469e-12 1.7299557108571813e-12 1.2466917863820699e-12 1.3378316781070377e-12 1.1477601820241692e-12
          8.75965343300419e-13 1.2175480129592533e-12 9.002002585411571e-13 7.701682996948093e-13 6.4699369900600594e-12 3.924935103400094e-12
          8.250752666756008e-12 2.400406394815853e-12 1.445584143159477e-12 8.016146510590567e-13 4.773093263976561e-13 3.052358868562548e-12
          1.846942019230929e-12 1.000512958926874e-12 1.8674708270338788e-12 1.786982156755499e-12 1.8017890029653187e-12 1.4240578238884723e-12
          1.7175759041288226e-12 1.3054601449980536e-12 7.384222655207846e-13 2.3795228547398148e-12 1.3528796850162666e-12 1.0559520429686953e-12
          1.2696881449232543e-12 7.898866802434579e-13 6.664881975364504e-13 4.932278954570812e-13 7.475706045038421e-13 4.0148682930051753e-13
          4.030280494846981e-13 1.0210583023313224e-12 9.395452409686462e-13 5.863813548767476e-13 5.369521421386834e-13 4.574110250077494e-13
          7.15620959483485e-13 4.973685531423095e-13 7.120364223339619e-13 4.040582494214492e-13 6.517593328779329e-13 3.178236835191713e-13
          3.7686530036261954e-13 2.1553323101399159e-13 3.2547185985353023e-13 3.015879483386415e-13 2.6979104707207427e-13 5.5572553677204425e-12
          3.1998603982163824e-12 2.3140134069224594e-12 1.3260277062930207e-12 7.025176175642044e-12 4.0680886530382864e-12 2.980230725226861e-12
          1.7891551670817805e-12 9.713722767730035e-13 7.380852803942278e-13 2.2870585167684443e-12 1.2481648213426207e-12 9.592466544796783e-13
          8.464782325561372e-13 4.814275460442546e-13 3.4381327892468716e-13 3.273246389916287e-13 1.0872490246266906e-12 6.21364605704139e-13
          3.482994636520301e-13 2.6554064718152774e-13 2.4726944122274795e-13 3.4468421893414105e-13 3.0340080128315813e-13 8.500117964886293e-13
          7.277868888313294e-13 4.91438715940821e-13 4.3098548477206616e-13 7.825342060616072e-13 1.138199581223005e-12 6.743831782720787e-13
          8.438028247511329e-13 5.013132979102525e-13 1.2987738823011559e-12 3.596544926834385e-13 3.259620659076849e-13 3.3455148355381435e-13
          3.3023525401928746e-13 2.723950632745831e-13 3.809311790674318e-13 2.156517070674175e-13 2.8456569098374027e-13 2.904370092804344e-13
          4.3501382398493445e-13 9.763801393470465e-13 4.958205065430564e-13 7.724267732600762e-13 6.578861326342881e-13 8.657735752742233e-13
          3.621141699602118e-13 2.222829682328212e-13 3.151923719167153e-13 1.4930541129005294e-13 1.8094133521661363e-13 1.360375650988569e-13
          1.5353071540800894e-13 1.001004936753867e-13 3.2266119524804337e-13 2.2042723660856968e-13 1.9109925409202544e-13 2.2240383947258697e-13
          1.8832534783535912e-13 1.3790259282666288e-13 1.617712715754812e-13 1.5424685619813125e-13 5.815281329147466e-13 8.37399972641161e-13
          3.533667692028597e-13 4.908129258391191e-13 3.9371819422683386e-13 4.905806631025971e-13 2.989532562720454e-13 2.1567066319857928e-13
          2.859836108129468e-13 1.706098959638971e-13 2.1607156718558806e-13 1.557916431570607e-13 1.8686661777814887e-13 1.4889931018061586e-13
          2.16141807823692e-13 2.5824684106605335e-13 1.2788344507909343e-13 1.3052775931260102e-13 3.0035187430841476e-13 1.3317207354610864e-13
          9.258913105904468e-13 3.893840182908061e-13 2.986918223269656e-13 3.6389219072323626e-13 5.339978696739366e-13 3.760033155587154e-13
          1.5725933360932721e-12 9.367381529697412e-13 1.2919713100129253e-12 1.9913807942683722e-12 1.1669328438840669e-12 5.739741836852245e-13
          9.067278242129965e-13 4.638158387504633e-13 6.510723235536762e-13 4.726635370153633e-13 6.840988179614238e-13 5.180415614887733e-13
          5.705344687594342e-13 7.736619091650392e-13 4.3240311916496056e-13 5.789621316342441e-13 5.393712681277167e-13 6.833643446246284e-13
          5.141166632552798e-13 1.4252079444092645e-12 1.0622391815668983e-12 1.2388253547286537e-12 2.644903235818951e-12 1.9839250234295358e-12
          2.0156188164374467e-12 1.5060872069145727e-12 4.766040429506602e-12 3.5911134206117693e-12 3.5692376671378645e-12 4.3627928386933216e-13
          3.7780182661902425e-13 5.242248480939254e-13 4.1325089356129795e-13 9.962607676736333e-13 3.2657480786862847e-13 4.229349965025502e-13
          2.850738588538667e-13 3.550657071158775e-13 3.0452775540402853e-13 3.7500470587657057e-13 3.1635003545603835e-13 7.849833124287545e-13
          6.623034081670705e-13 6.806364436551195e-13 1.8846890924445864e-12 1.3993961605924798e-12 3.462018753852437e-12 1.483826815424408e-12
          1.1002660720531512e-12 1.1230830429391084e-12 8.315583155209409e-13 2.685777024298257e-12 1.993748662915081e-12 2.0076736811024573e-12
          5.634957850237785e-13 8.036187678666432e-13 4.268424802871137e-13 6.069808962408253e-13 1.469213295496707e-12 1.0968396843830665e-12
          8.130150679727656e-12 6.145636202384036e-12 6.002887045098803e-12 4.534095566736298e-12 1.1937475741945025e-11 9.0519026518848e-12
          8.788880241451209e-12 1.3901341226330361e-11 1.057422374931128e-11 1.0401759707829863e-11 7.900962593573848e-12 1.40721314016028e-11
          1.07225805862263e-11 1.0679736000021864e-11 6.015904229910309e-12 4.4829930818491995e-12 8.899423193666725e-12 4.6111667814912076e-12
          3.43417038474273e-12 3.399557816057454e-12 2.530198418734671e-12 6.812101557521586e-12 5.087897914931169e-12 5.0063097488162445e-12
          2.538576737805779e-12 1.8693084454698878e-12 1.3709069048859152e-12 3.7714936802891316e-12 2.7674882775154605e-12 1.0243490527020154e-11
          7.684094201706714e-12 1.0243410137933336e-11 7.982310211949605e-12 5.980006970381902e-12 5.956316088543165e-12 4.456571240776373e-12
          8.108179014369719e-12 6.0846673641014046e-12 6.13173319793393e-12 4.446013866362983e-12 3.309395810103314e-12 2.439043202103141e-12
          4.5315090074753546e-12 3.415871899543887e-12 9.755140463798944e-13 1.2466271389303086e-12 8.717379997193361e-13 1.0792778671456642e-12
          8.368666542140479e-13 1.0393593416182111e-12 9.096351914966247e-13 2.129464417588083e-12 1.85032911278478e-12 1.6535422086190369e-12
          3.622039283210969e-12 2.8223762279941828e-12 2.4386194297946967e-12 1.899616618544467e-12 5.881861787833843e-12 4.602238635628333e-12
          3.887330574491515e-12 1.621406632756388e-12 2.171492999769857e-12 1.2280777382595278e-12 1.6608405940180012e-12 1.1035911281849943e-12
          1.4609033349600323e-12 1.1162884323331346e-12 3.576239350165154e-12 2.7595493649386867e-12 2.3563722181094074e-12 1.2276941717335215e-12
          1.597272578773265e-12 9.553325809169041e-13 1.2427991241385274e-12 7.997097498366413e-13 1.024569243270609e-12 7.942328304951612e-13
          2.4980479194835493e-12 1.949571489572118e-12 1.5641257137422416e-12 7.319936517728152e-13 9.581229135433422e-13 5.595711650545249e-13
          7.329133016326436e-13 4.772670582219911e-13 6.082971203958576e-13 5.164401933045304e-13 1.5144457921936632e-12 1.1663761812346773e-12
          9.401040282552555e-13 5.072949240001243e-13 6.396669819811151e-13 3.942318495707813e-13 4.960518025491577e-13 4.0544766532726357e-13
          4.926696202432461e-13 3.8374949868357015e-13 9.563192151771762e-13 7.43056148818148e-13 6.342967610041355e-13 3.0602429504717005e-13
          3.8035207562715737e-13 2.707818313063191e-13 3.299670856808325e-13 2.494345194716816e-13 3.02353427938924e-13 2.709202980764618e-13
          5.714185377941845e-13 4.79982781280113e-13 3.8589093483557917e-13 9.152097803911305e-12 7.192467145627185e-12 5.921507420592991e-12
          4.646387934430977e-12 1.2859601602361181e-11 1.0140522585601813e-11 8.219182757549301e-12 5.612764738863944e-12 4.349264846935989e-12
          3.620364253715653e-12 2.8010099871165634e-12 7.939293420417339e-12 6.171386337600925e-12 5.057188548033719e-12 1.5456419401147434e-11
          1.2213895087401757e-11 9.903284021755786e-12 7.810822974357424e-12 1.6236997592453937e-11 1.2839869677694789e-11 1.0454407781787947e-11
          9.58219697297258e-12 7.463348095898888e-12 6.116807270173774e-12 4.7561051812953635e-12 1.008043724929139e-11 7.856957930367006e-12
          6.465437057227672e-12 3.7209256896385675e-12 2.9154550371229403e-12 2.2763049189003422e-12 1.7800513168908488e-12 5.088890874973841e-12
          3.998507367535969e-12 3.0611972259409373e-12 2.2708113227441755e-12 1.7561449958433814e-12 1.3843225750090963e-12 1.0668819160462803e-12
          3.119706031236326e-12 2.416756339183854e-12 1.8691509824191143e-12 1.3599757381165733e-12 1.0610305931306216e-12 7.871658656953686e-13
          6.130381728487651e-13 1.7939809397806066e-12 1.403356969111244e-12 1.0281220323694177e-12 8.226842403426797e-13 6.318390688804501e-13
          4.755236278177411e-13 3.663222340765755e-13 1.0903978120642794e-12 8.420550494727133e-13 6.2085589969613e-13 6.1233135769127725e-12
          4.819969201750613e-12 3.666150764826277e-12 2.8797006061319217e-12 6.48145193000091e-12 5.104956430891085e-12 3.883694224791456e-12
          3.767575676223264e-12 2.9243127570520815e-12 2.246538249345296e-12 1.7406078144100381e-12 3.992722526388771e-12 3.1009059031646262e-12
          2.3825388099297687e-12 2.1335169377883155e-12 1.6717561823122527e-12 1.211995209950161e-12 9.464206046190077e-13 2.2584240818563183e-12
          1.770619070554499e-12 1.2805787326256351e-12 1.3012157286048862e-12 1.0061825511853978e-12 7.341893616005113e-13 5.657691599400024e-13
          1.3788470943853483e-12 1.0665351392937731e-12 7.765139453939594e-13 6.247417083211295e-13 8.054314630514905e-13 5.626834624412039e-13
          6.939650540813741e-13 5.556550979316665e-13 6.884640215038588e-13 6.019958098085518e-13 1.4400837354010995e-12 1.2350925101826373e-12
          1.1764125231903484e-12 2.5925425336286074e-12 1.971693404641245e-12 1.842839792032397e-12 1.3996269158801074e-12 4.463854443784605e-12
          3.404991132030542e-12 3.123009337898994e-12 1.0677391808126571e-12 1.4794515996138886e-12 7.880875369647342e-13 1.1030951205596945e-12
          7.637826947676772e-13 1.050286740585809e-12 7.831413672067106e-13 2.5789936071071675e-12 1.939246257925037e-12 1.8005417533427688e-12
          9.358973149269624e-13 1.267833432613081e-12 7.112284578340681e-13 9.62730353328504e-13 6.358753504471107e-13 8.509681362562226e-13
          6.452263578576603e-13 2.1147715152291196e-12 1.6096089506019894e-12 1.3892737925959976e-12 5.310308005521481e-13 7.23455441433658e-13
          3.9584162978360445e-13 5.408514039894856e-13 3.614640323276111e-13 4.851688567457172e-13 3.6301794889809357e-13 1.21701335246349e-12
          9.139902629119448e-13 7.973890207114165e-13 5.854608460371124e-13 8.207462210418939e-13 4.3361367856369876e-13 6.072179154145295e-13
          4.1892833117105076e-13 5.821852404233673e-13 4.3054864904013904e-13 1.447876623555272e-12 1.073325883838218e-12 1.0092524941948654e-12
          3.1454710894146704e-13 4.440665808087784e-13 2.2636098988996248e-13 3.154227750684547e-13 7.90177738898532e-13 5.776189927189205e-13
          5.499316769410184e-13 2.9571564684982197e-13 4.0286369935257726e-13 2.197023741420389e-13 2.9695400092336136e-13 2.038216064653092e-13
          2.6879488078849794e-13 2.1870535899413306e-13 6.826590018876843e-13 5.050044923833916e-13 4.447055068660316e-13 1.60329466590835e-13
          2.1609630400574535e-13 1.3385137660751977e-13 1.7330310830197343e-13 3.693453290584543e-13 2.7034938790102993e-13 4.2649143225875726e-13
          5.563527415146985e-13 3.2276698880823615e-13 4.202182382735669e-13 3.480929985121443e-13 4.3761488061785365e-13 3.292567783964851e-13
          8.880165918073355e-13 6.715879525608023e-13 6.177763305493138e-13 2.4119906476178885e-13 3.1505177442304765e-13 1.8043456904936487e-13
          2.3533481599722246e-13 1.9601602931423903e-13 2.4612998963858417e-13 1.8410025211510455e-13 5.056357944757681e-13 3.786625912601467e-13
          3.4976995548113947e-13 1.364832759992504e-13 1.7431569668441454e-13 1.1986676336853118e-13 1.4860398619264228e-13 1.1191459770887283e-13
          1.3907008399789958e-13 1.219430675540172e-13 2.8062849661696395e-13 2.302889363084965e-13 1.962093839842848e-13 7.332935989808572e-12
          5.615135838894435e-12 5.039396064185616e-12 3.8547470147765285e-12 1.0617395160206751e-11 8.15538358430095e-12 7.2436540671300704e-12
          4.2685609934140145e-12 3.221378631287073e-12 2.9275093450319802e-12 2.20744550825088e-12 6.218052186168829e-12 4.705918799882393e-12
          4.23240309423023e-12 3.346451311231675e-12 2.556783267932445e-12 2.1519439269908328e-12 1.6417707072090973e-12 4.762757116101636e-12
          3.649254619602814e-12 3.024467757519703e-12 1.9397881848449594e-12 1.461646475492683e-12 1.2439484691379666e-12 9.362946591489642e-13
          2.776001299267117e-12 2.0965231580076696e-12 1.7579231797795825e-12 1.2667737225955663e-11 9.753439602318497e-12 8.726583422827e-12
          6.708923110067173e-12 1.3129886037782626e-11 1.0119772816632181e-11 9.1303294357844e-12 7.45380025285214e-12 5.654024791450526e-12
          5.119893254329894e-12 3.878495808047907e-12 7.74179492439544e-12 5.878579434014991e-12 5.365706289981689e-12 5.771015536620579e-12
          4.430105513611222e-12 3.6716993241001485e-12 2.8142454890661355e-12 6.0796459833421956e-12 4.670282671500667e-12 3.885864324015896e-12
          3.376072679565584e-12 2.5540860294033976e-12 2.1415384017106455e-12 1.6178855474499742e-12 3.5615725076750413e-12 2.6962993461482995e-12
          2.2692230218790496e-12 2.4134168978899845e-12 1.7949934400873185e-12 1.6524007120380662e-12 1.2279104751646397e-12 3.535187465710114e-12
          2.6360713216169973e-12 2.401531885346253e-12 1.3253849695809793e-12 9.717418120641716e-13 9.059686182180398e-13 6.638990873299429e-13
          1.9511179914226293e-12 1.4334745598313285e-12 1.3231409935838174e-12 1.0944525611626042e-12 8.134143094323105e-13 7.009163913742163e-13
          5.198247615920024e-13 1.5717612939336772e-12 1.1696461153512673e-12 9.928919286234307e-13 5.990259448670928e-13 3.809934791264422e-13