<?xml version="1.0"?>
<VTKFile type="UnstructuredGrid" version="0.1" byte_order="LittleEndian" header_type="UInt32" compressor="vtkZLibDataCompressor">
  <UnstructuredGrid>
    <Piece NumberOfPoints="1198" NumberOfCells="829">
      <PointData>
        <DataArray type="Int32" Name="libmesh_node_id" format="ascii" RangeMin="2435" RangeMax="8151">
          2435 2443 2608 2609 2610 2611
          2612 2613 2614 2618 2619 2620
          2764 2765 2767 2768 3037 3038
          3039 3040 3041 3043 3044 3045
          3046 3047 3048 3049 3050 3051
          3052 3053 3054 3055 3056 3057
          3058 3059 3060 3061 3062 3063
          3064 3065 3066 3067 3068 3069
          3070 3071 3072 3073 3074 3075
          3076 3077 3078 3079 3080 3081
          3082 3914 3916 3917 3918 3919
          3920 3921 3922 3923 3924 3925
          3926 3927 3928 3929 3930 3931
          3932 3933 3934 3935 3936 3937
          3938 3939 3940 3941 3942 3943
          3944 3945 3946 3947 3948 3949
          3950 3951 3952 3953 3954 3955
          3956 3957 3958 3959 3960 3961
          3962 3963 3964 3965 3966 3967
          3968 3969 3970 3971 3972 3973
          3974 3975 3978 3979 3981 3984
          3986 3987 3988 3989 3990 3991
          3992 3993 3994 3995 3997 3999
          4000 4001 4002 4003 4006 4007
          4009 4012 4014 4015 4016 4017
          4018 4019 4020 4021 4022 4023
          4025 4027 4029 4031 4032 4033
          4034 4035 4036 4037 4038 4039
          4040 4041 4042 4043 4044 4045
          4046 4047 4048 4049 4050 4051
          4052 4053 4054 4055 4056 4057
          4058 4059 4060 4061 4062 4063
          4064 4065 4066 4067 4068 4069
          4070 4071 4072 4073 4074 4075
          4076 4077 4078 4079 4080 4081
          4082 4083 4084 4085 4086 4087
          4088 4089 4090 4091 4092 4093
          4094 4095 4096 4097 4098 4099
          4100 4101 4102 4103 4104 4105
          4120 4122 4130 4132 4188 4189
          4190 4191 4195 4196 4198 4199
          4201 4216 4220 4250 4251 4254
          4256 4257 4259 4284 4285 4288
          4290 4291 4293 5514 5516 5521
          5523 5819 5820 5821 5822 5823
          5824 5825 5826 5827 5828 5829
          5830 5831 5832 5833 5834 5835
          5836 5837 5838 5839 5840 5841
          5842 5843 5844 5845 5846 5847
          5848 5849 5850 5851 5852 5853
          5854 5855 5856 5857 5858 5859
          5860 5861 5862 5863 5864 5865
          5866 5867 5868 5869 5870 5871
          5872 5873 5874 5875 5876 5877
          5878 5879 5880 5881 5882 5883
          5884 5885 5886 5887 5888 5889
          5890 5891 5892 5893 5894 5895
          5896 5897 5898 5899 5900 5901
          5902 5903 5904 5905 5906 5907
          5908 5909 5910 5911 5912 5913
          5914 5915 5916 5917 5918 5919
          5920 5921 5922 5923 5924 5925
          5926 5927 5928 5929 5930 5931
          5932 5933 5934 5935 5936 5937
          5938 5939 5940 5941 5942 5943
          5944 5945 5946 5947 5948 5949
          5950 5951 5952 5953 5954 5955
          5956 5957 5958 5959 5960 5961
          5962 5963 5964 5965 5966 5967
          5974 5991 5992 5994 5997 6006
          6007 6008 6009 6010 6011 6012
          6013 6014 6015 6016 6017 6018
          6019 6020 6021 6022 6023 6024
          6025 6026 6027 6028 6029 6030
          6031 6032 6033 6034 6035 6036
          6037 6038 6039 6040 6041 6042
          6043 6044 6045 6046 6047 6048
          6049 6050 6051 6052 6053 6054
          6055 6056 6057 6058 6059 6060
          6061 6062 6063 6064 6065 6066
          6067 6068 6069 6070 6071 6072
          6073 6074 6075 6076 6077 6078
          6079 6080 6081 6082 6083 6084
          6085 6086 6087 6088 6089 6090
          6091 6092 6093 6094 6095 6096
          6097 6098 6099 6100 6101 6102
          6103 6104 6105 6106 6107 6108
          6109 6110 6111 6112 6113 6114
          6115 6116 6117 6118 6119 6120
          6121 6122 6123 6124 6125 6126
          6127 6128 6129 6130 6131 6132
          6133 6134 6135 6136 6137 6138
          6139 6140 6141 6142 6143 6144
          6145 6146 6147 6148 6149 6150
          6151 6152 6153 6154 6155 6156
          6157 6158 6159 6160 6161 6162
          6163 6164 6165 6166 6167 6168
          6169 6170 6171 6172 6173 6174
          6175 6176 6177 6178 6179 6180
          6181 6182 6183 6184 6185 6186
          6187 6188 6189 6190 6191 6192
          6193 6194 6195 6196 6197 6198
          6199 6200 6201 6202 6203 6204
          6205 6206 6207 6208 6209 6210
          6211 6212 6213 6214 6215 6216
          6217 6218 6219 6220 6221 6222
          6223 6224 6225 6226 6227 6228
          6229 6230 6231 6232 6233 6234
          6235 6236 6237 6238 6239 6240
          6241 6242 6243 6244 6245 6246
          6247 6248 6249 6250 6251 6252
          6253 6254 6255 6256 6257 6258
          6259 6260 6261 6262 6263 6264
          6265 6266 6267 6268 6269 6270
          6271 6272 6273 6274 6275 6276
          6277 6278 6279 6280 6281 6282
          6283 6284 6285 6286 6287 6288
          6289 6290 6291 6292 6293 6294
          6295 6296 6297 6298 6299 6300
          6301 6302 6303 6304 6305 6306
          6307 6308 6309 6310 6311 6312
          6313 6314 6315 6316 6317 6318
          6319 6320 6321 6322 6323 6324
          6325 6326 6327 6328 6329 6330
          6331 6332 6333 6334 6335 6336
          6337 6338 6339 6340 6341 6342
          6343 6344 6345 6346 6347 6348
          6349 6350 6351 6352 6353 6354
          6355 6356 6357 6358 6359 6360
          6361 6362 6363 6364 6365 6366
          6367 6368 6369 6370 6371 6372
          6373 6374 6375 6376 6377 6378
          6379 6380 6381 6382 6383 6384
          6385 6386 6387 6388 6389 6390
          6391 6392 6393 6394 6395 6396
          6397 6398 6399 6400 6401 6402
          6403 6404 6405 6406 6407 6408
          6409 6410 6411 6412 6413 6414
          6415 6416 6417 6418 6419 6420
          6421 6422 6423 6424 6425 6426
          6427 6428 6429 6430 6431 6432
          6433 6434 6435 6436 6437 6438
          6439 6440 6441 6442 6443 6444
          6445 6446 6447 6448 6449 6450
          6451 6452 6453 6454 6455 6456
          6457 6458 6459 6460 6461 6462
          6463 6464 6465 6466 6467 6468
          6470 6471 6472 6473 6474 6478
          6479 6499 6515 6516 6517 6518
          6522 6523 6525 6526 6527 6528
          6532 6533 6555 6556 6562 6563
          6891 6892 6893 6894 6895 6896
          6897 6898 6899 6900 6901 6902
          6903 6904 6905 6906 6907 6908
          6912 6913 6919 6920 6921 6922
          6923 6924 6925 6926 6927 6928
          6929 6930 6933 6934 6987 6988
          6989 6990 6991 6992 6993 6994
          6995 6996 7065 7066 7067 7068
          7069 7070 7071 7072 7073 7074
          7085 7086 7087 7088 7089 7090
          7091 7099 7100 7101 7102 7103
          7104 7105 7106 7107 7108 7119
          7120 7121 7122 7123 7124 7125
          7201 7202 7203 7205 7206 7207
          7215 7216 7219 7220 7222 7224
          7235 7236 7237 7239 7240 7241
          7249 7251 7253 7255 7325 7326
          7327 7328 7329 7330 7331 7332
          7333 7334 7345 7346 7347 7348
          7349 7350 7351 7359 7360 7361
          7362 7363 7364 7365 7366 7367
          7368 7379 7380 7381 7382 7383
          7384 7385 7461 7462 7463 7465
          7466 7467 7475 7477 7479 7481
          7489 7490 7491 7493 7494 7495
          7503 7505 7507 7509 8110 8111
          8117 8150 2774 2775 2622 2623
          3103 3104 3105 3106 3110 3111
          4192 4193 4194 4197 4217 4218
          4219 4221 4222 4223 4225 5542
          4396 6909 6910 6911 6914 6915
          6916 3113 6917 6918 4200 6931
          6932 6935 6936 6937 6938 3114
          6997 6998 6999 7000 7001 7002
          7004 7005 7006 7075 7076 7079
          7081 7082 7084 7092 7094 7096
          7098 7109 7110 7113 7115 7116
          7118 7126 7128 7130 7132 7204
          4270 7208 7210 7212 7214 7217
          7218 7221 7223 4272 7238 4274
          7242 7244 7246 7248 7250 7252
          7254 4276 7335 7336 7339 7341
          7342 7344 7352 7354 7356 7358
          7369 7370 7373 7375 7376 7378
          7386 7388 7390 7392 7464 4304
          7468 7470 7472 7474 7476 7478
          7480 4306 7492 4308 7496 7498
          7500 7502 7504 7506 7508 4310
          8112 8113 8118 8151
        </DataArray>
        <DataArray type="Float64" Name="bounds" format="ascii" RangeMin="0" RangeMax="0">
          0 0 0 0 0 0
          0 0 0 0 0 0
          0 0 0 0 0 0
          0 0 0 0 0 0
          0 0 0 0 0 0
          0 0 0 0 0 0
          0 0 0 0 0 0
          0 0 0 0 0 0
          0 0 0 0 0 0
          0 0 0 0 0 0
          0 0 0 0 0 0
          0 0 0 0 0 0
          0 0 0 0 0 0
          0 0 0 0 0 0
          0 0 0 0 0 0
          0 0 0 0 0 0
          0 0 0 0 0 0
          0 0 0 0 0 0
          0 0 0 0 0 0
          0 0 0 0 0 0
          0 0 0 0 0 0
          0 0 0 0 0 0
          0 0 0 0 0 0
          0 0 0 0 0 0
          0 0 0 0 0 0
          0 0 0 0 0 0
          0 0 0 0 0 0
          0 0 0 0 0 0
          0 0 0 0 0 0
          0 0 0 0 0 0
          0 0 0 0 0 0
          0 0 0 0 0 0
          0 0 0 0 0 0
          0 0 0 0 0 0
          0 0 0 0 0 0
          0 0 0 0 0 0
          0 0 0 0 0 0
          0 0 0 0 0 0
          0 0 0 0 0 0
          0 0 0 0 0 0
          0 0 0 0 0 0
          0 0 0 0 0 0
          0 0 0 0 0 0
          0 0 0 0 0 0
          0 0 0 0 0 0
          0 0 0 0 0 0
          0 0 0 0 0 0
          0 0 0 0 0 0
          0 0 0 0 0 0
          0 0 0 0 0 0
          0 0 0 0 0 0
          0 0 0 0 0 0
          0 0 0 0 0 0
          0 0 0 0 0 0
          0 0 0 0 0 0
          0 0 0 0 0 0
          0 0 0 0 0 0
          0 0 0 0 0 0
          0 0 0 0 0 0
          0 0 0 0 0 0
          0 0 0 0 0 0
          0 0 0 0 0 0
          0 0 0 0 0 0
          0 0 0 0 0 0
          0 0 0 0 0 0
          0 0 0 0 0 0
          0 0 0 0 0 0
          0 0 0 0 0 0
          0 0 0 0 0 0
          0 0 0 0 0 0
          0 0 0 0 0 0
          0 0 0 0 0 0
          0 0 0 0 0 0
          0 0 0 0 0 0
          0 0 0 0 0 0
          0 0 0 0 0 0
          0 0 0 0 0 0
          0 0 0 0 0 0
          0 0 0 0 0 0
          0 0 0 0 0 0
          0 0 0 0 0 0
          0 0 0 0 0 0
          0 0 0 0 0 0
          0 0 0 0 0 0
          0 0 0 0 0 0
          0 0 0 0 0 0
          0 0 0 0 0 0
          0 0 0 0 0 0
          0 0 0 0 0 0
          0 0 0 0 0 0
          0 0 0 0 0 0
          0 0 0 0 0 0
          0 0 0 0 0 0
          0 0 0 0 0 0
          0 0 0 0 0 0
          0 0 0 0 0 0
          0 0 0 0 0 0
          0 0 0 0 0 0
          0 0 0 0 0 0
          0 0 0 0 0 0
          0 0 0 0 0 0
          0 0 0 0 0 0
          0 0 0 0 0 0
          0 0 0 0 0 0
          0 0 0 0 0 0
          0 0 0 0 0 0
          0 0 0 0 0 0
          0 0 0 0 0 0
          0 0 0 0 0 0
          0 0 0 0 0 0
          0 0 0 0 0 0
          0 0 0 0 0 0
          0 0 0 0 0 0
          0 0 0 0 0 0
          0 0 0 0 0 0
          0 0 0 0 0 0
          0 0 0 0 0 0
          0 0 0 0 0 0
          0 0 0 0 0 0
          0 0 0 0 0 0
          0 0 0 0 0 0
          0 0 0 0 0 0
          0 0 0 0 0 0
          0 0 0 0 0 0
          0 0 0 0 0 0
          0 0 0 0 0 0
          0 0 0 0 0 0
          0 0 0 0 0 0
          0 0 0 0 0 0
          0 0 0 0 0 0
          0 0 0 0 0 0
          0 0 0 0 0 0
          0 0 0 0 0 0
          0 0 0 0 0 0
          0 0 0 0 0 0
          0 0 0 0 0 0
          0 0 0 0 0 0
          0 0 0 0 0 0
          0 0 0 0 0 0
          0 0 0 0 0 0
          0 0 0 0 0 0
          0 0 0 0 0 0
          0 0 0 0 0 0
          0 0 0 0 0 0
          0 0 0 0 0 0
          0 0 0 0 0 0
          0 0 0 0 0 0
          0 0 0 0 0 0
          0 0 0 0 0 0
          0 0 0 0 0 0
          0 0 0 0 0 0
          0 0 0 0 0 0
          0 0 0 0 0 0
          0 0 0 0 0 0
          0 0 0 0 0 0
          0 0 0 0 0 0
          0 0 0 0 0 0
          0 0 0 0 0 0
          0 0 0 0 0 0
          0 0 0 0 0 0
          0 0 0 0 0 0
          0 0 0 0 0 0
          0 0 0 0 0 0
          0 0 0 0 0 0
          0 0 0 0 0 0
          0 0 0 0 0 0
          0 0 0 0 0 0
          0 0 0 0 0 0
          0 0 0 0 0 0
          0 0 0 0 0 0
          0 0 0 0 0 0
          0 0 0 0 0 0
          0 0 0 0 0 0
          0 0 0 0 0 0
          0 0 0 0 0 0
          0 0 0 0 0 0
          0 0 0 0 0 0
          0 0 0 0 0 0
          0 0 0 0 0 0
          0 0 0 0 0 0
          0 0 0 0 0 0
          0 0 0 0 0 0
          0 0 0 0 0 0
          0 0 0 0 0 0
          0 0 0 0 0 0
          0 0 0 0 0 0
          0 0 0 0 0 0
          0 0 0 0 0 0
          0 0 0 0 0 0
          0 0 0 0 0 0
          0 0 0 0 0 0
          0 0 0 0 0 0
          0 0 0 0 0 0
          0 0 0 0 0 0
          0 0 0 0 0 0
          0 0 0 0 0 0
          0 0 0 0 0 0
          0 0 0 0 0 0
          0 0 0 0 0 0
          0 0 0 0
        </DataArray>
        <DataArray type="Float64" Name="gradient_error" format="ascii" RangeMin="4.442905479064943e-11" RangeMax="3.844065779432322e-8">
          8.173088368671245e-10 1.1818274864453626e-9 2.1695974335884186e-9 1.5416090003274507e-9 7.845869952176576e-9 1.351295943632031e-8
          5.526504270467595e-10 2.3257513572625863e-10 2.359887034661887e-10 1.0637140162724511e-9 2.235883162910304e-8 9.279354623805156e-10
          1.032473977942122e-9 8.141501649310387e-10 4.016661075762155e-10 3.1592707439770784e-10 1.1769700675995018e-8 1.0115265010452684e-8
          2.1024856143429843e-9 5.957204360424863e-9 5.08242751290184e-9 6.763094880034115e-9 3.367596681473786e-9 1.3526129263388726e-8
          2.3979937062519446e-8 1.2784781054924182e-8 2.6743001062527665e-8 1.474504287497553e-9 1.321958558333768e-9 1.1173272965649148e-9
          9.735508274013728e-10 7.556228451686289e-10 6.291894875549016e-10 5.420539503003009e-10 9.176586831793085e-10 6.450076814416584e-10
          3.454717984880361e-10 3.663758798627449e-10 3.036787956585503e-10 1.8749555464637855e-10 3.24738564023449e-10 1.6116235927841904e-8
          2.480019501515636e-8 1.5557305139988397e-8 1.8118860031413534e-8 3.844065779432322e-8 2.168395801716274e-8 9.024545999443007e-10
          1.5052710774440638e-8 1.5536455198556302e-8 3.557729679149624e-8 1.6758231075937826e-9 1.3486162532120328e-9 1.3043120852818073e-9
          1.0408638520641308e-9 7.122122376547841e-10 5.18699509040525e-10 1.2405072509286406e-9 1.6258033782874392e-9 1.3453497218345763e-9
          1.15114058450956e-9 7.279114584710546e-9 1.4969698826241671e-9 1.9591140568953713e-9 1.8161820624898193e-9 1.5349772461791185e-9
          6.406385744223132e-9 6.692224746537901e-9 4.671611525742281e-9 6.97806374885267e-9 1.0007308894578097e-9 1.255161527713687e-9
          9.702623961636239e-10 3.1019586601551006e-9 1.2686393774778856e-9 1.177955181165365e-9 1.270808272224083e-9 1.1840872330674809e-9
          7.222911163463417e-10 4.701895846088319e-10 4.4707176026753355e-10 9.892255336393464e-10 1.0062824497759614e-9 3.875156331845338e-10
          2.1537695476438575e-9 2.128104518021609e-9 3.497896578841847e-10 2.014179479107684e-9 5.314125445542344e-10 5.093200120907041e-10
          3.343643644719849e-10 3.1989624808777897e-10 3.7735993873613086e-10 2.4937270123522195e-10 2.383439026205448e-10 4.4619155050007557e-10
          2.794460291722367e-10 2.069848649279233e-10 2.9272469610431194e-10 2.780398469352179e-10 2.2041740227219173e-10 2.3818563243570016e-10
          7.961142718298196e-10 8.195769172045016e-10 5.025409817592956e-10 3.107525514583747e-10 6.033881205651025e-10 7.234450359706085e-10
          3.9944876433773085e-10 1.7069462984820213e-9 2.3850332149781187e-10 1.365126474130339e-9 3.564386953896354e-10 2.2284104788523855e-10
          2.573281766099725e-10 2.213120127832655e-10 2.599507058339583e-10 2.839804255783963e-10 2.657665850871555e-10 1.83271071248527e-10
          1.9448156462073477e-10 2.3880412061229935e-10 9.835047296329302e-9 9.410445944450257e-9 8.985844592571214e-9 1.5352757208917845e-8
          9.28249012924381e-9 8.869168698530777e-9 8.588529006554044e-9 8.20842772423729e-9 8.455847267817745e-9 7.357403710799572e-9
          1.599146948876092e-8 1.5182966509266834e-8 1.4784706418798573e-8 1.4756370715713277e-8 1.3620577405454597e-8 5.690717340211966e-9
          4.2529144071849e-9 1.3350720647459001e-8 1.082835623202335e-8 1.1181256207323667e-8 1.0957443706318403e-8 1.384254016889096e-8
          1.614303324893208e-8 8.174704148260439e-9 1.1122872069073898e-8 1.403828250899826e-8 1.1114031278359932e-8 1.4036871212696545e-8
          1.6253412901200826e-8 1.615584355606226e-8 9.883371419677738e-10 8.403077316210395e-9 8.619948181587979e-9 1.5339085122223142e-8
          1.396569871685068e-8 1.2483998967267564e-8 1.4310820028246764e-8 1.3808603904303876e-8 1.3458540482310735e-8 1.2179684937498126e-8
          1.0288070932510996e-8 1.426648716114875e-8 1.4018101379628094e-8 1.3178113667672584e-8 4.583675048715968e-9 4.384534650843206e-9
          8.268596642066188e-10 7.862663882296266e-10 3.877038136427324e-9 6.766334491502996e-10 8.551388004137435e-9 8.151336033143128e-9
          1.5865070813903193e-9 6.988355406977007e-9 7.003953937859411e-10 6.644857847824411e-10 5.866524165203331e-10 5.553010696759575e-10
          5.6698316857168e-10 4.705163325622959e-10 1.487517761481302e-9 1.4061945785782453e-9 1.2327389070227552e-9 1.1913135963239748e-9
          3.1610609868699654e-9 5.261403761422081e-10 2.3540401928540904e-9 3.681039744319807e-10 5.405524629835552e-9 1.0339971699100345e-9
          3.80954721166268e-9 4.3411987948724586e-10 3.56002548397561e-10 2.9670382489529775e-10 2.3940769746353626e-10 9.048172844729988e-10
          7.821613439466405e-10 6.11281767085425e-10 6.799614216391772e-9 8.192497869641088e-9 2.5445213685833067e-9 2.4341790591310756e-9
          9.077172065681192e-9 2.093423017499366e-9 1.1949202327256919e-9 5.192633487150947e-9 1.4067033062729866e-9 8.749299555285203e-9
          2.374915806974607e-9 2.2549687221711434e-9 2.135585379796208e-9 2.016831669471057e-9 1.9076287976676414e-9 1.6990269749841677e-9
          1.2270256148579368e-9 1.3647678446871696e-9 1.2833642660651177e-9 1.5094083109393078e-9 7.44149338220216e-9 1.5938406185665326e-9
          5.3076133367597305e-9 1.1089173302029883e-9 7.770817586644954e-9 1.496185907408286e-9 5.790872973897478e-9 1.4487492106730758e-9
          1.2976000806871556e-9 9.978317886610539e-10 8.810143246373967e-10 1.3449448250106446e-9 1.2015339238977788e-9 1.0418609718000026e-9
          1.0368004296498615e-9 3.725755691968083e-10 2.6895224904416295e-10 2.0079609741856772e-10 2.908327267560612e-10 2.78555896772564e-10
          1.849691245133222e-10 1.767569176182833e-10 2.417110043266052e-10 1.5304114387151722e-10 1.8095608111391709e-10 1.7120836549796038e-10
          1.4481305249931043e-10 1.8764919287439548e-10 1.3562018901202094e-10 4.801937600189789e-10 4.534726732148466e-10 3.81506949376754e-10
          1.1232407677140325e-9 1.0601979883065566e-9 8.8982905445819e-10 1.8628220239382043e-9 1.7594546861948089e-9 1.4941506532606242e-9
          1.0930063233200816e-9 1.1492522393554766e-9 1.1703907362936714e-9 6.075425938243442e-10 4.3629717286989237e-10 3.1058263718676034e-10
          2.2861932513299299e-10 2.522543355593782e-10 2.876384352937324e-10 2.842329289408318e-10 2.762616206037973e-10 4.467439279230862e-10
          2.2431338925504722e-10 2.217069647798973e-10 2.6901523571513935e-10 2.6592460800237744e-10 1.7803723326927594e-10 2.342720555034772e-10
          2.3154142012585954e-10 2.1494585696626933e-10 2.5788942960971025e-10 2.2363116418962822e-10 4.192647374342427e-10 4.149586171292632e-10
          3.621861647255246e-10 4.026753087147829e-10 2.3433031856893456e-10 2.6439330956895154e-10 2.4805527605271344e-10 4.1401869132211885e-10
          2.0476163426766724e-10 2.4556927123955694e-10 1.624091547888749e-10 2.111976654628026e-10 1.9071185848042925e-10 2.288759890726159e-10
          1.9475886280878674e-10 3.821634539815101e-10 3.2989754597006215e-10 3.547364159302571e-10 1.567495137219652e-10 1.547099527538202e-10
          2.0537191342299568e-10 2.0280546838396095e-10 1.355209590604517e-10 1.8131450930514696e-10 1.7899061781722726e-10 1.4901592900895864e-10
          1.954286072307093e-10 1.7229513294538216e-10 3.271938003110304e-10 3.2315805529549163e-10 2.8898351191743975e-10 3.1133561876926853e-10
          1.200832300398625e-10 1.1851630220127346e-10 1.598713070410659e-10 1.57794650018742e-10 1.0332995064733652e-10 1.4050087699138532e-10
          1.3865786285723706e-10 1.1400854667123331e-10 1.517597374076591e-10 1.332593608531956e-10 2.614486210005856e-10 2.5802876420602274e-10
          2.2947512060873293e-10 2.4803101708894185e-10 1.4032776463104753e-10 1.8388600315871055e-10 1.2271550595750393e-10 1.6182103411251919e-10
          1.2895696302625717e-10 1.68800120354651e-10 1.482221012145288e-10 2.9254493389048953e-10 2.6070294708891464e-10 2.6804540418509875e-10
          1.0694661253875346e-10 1.4227056464183333e-10 9.29538783350159e-11 1.2472421677165582e-10 9.828339969850339e-11 1.3018620595667899e-10
          1.1408964288543897e-10 2.322233149185532e-10 2.061131516555911e-10 2.1167437547716806e-10 1.992987960089983e-10 2.265237430676226e-10
          2.0140905108300606e-10 3.515896012844832e-10 1.728189834862764e-10 2.0783830893533728e-10 1.348865811832257e-10 1.7518390613027144e-10
          1.5285499805625487e-10 1.8398396223548684e-10 1.5389904802023227e-10 3.214357595234738e-10 2.726969017552038e-10 2.8378727401949083e-10
          1.5323824201831345e-10 1.729224484542509e-10 1.5705452929054767e-10 2.681406484798364e-10 1.343484417806662e-10 1.577555745079347e-10
          1.0613571669604289e-10 1.312465840201931e-10 1.2593323236806017e-10 1.4366152781964733e-10 1.1948894593748184e-10 2.4246087141002004e-10
          2.0135250462544225e-10 2.2310323152939846e-10 1.1562232256340933e-10 1.51099655543118e-10 1.0127670558011987e-10 1.3235530013249587e-10
          1.0168132099759793e-10 1.3209332531086402e-10 1.1528057709077798e-10 2.3937191353125777e-10 2.1189398441512814e-10 2.0804845451307167e-10
          8.950914204354593e-11 1.1597287218730019e-10 7.950536190322958e-11 1.0121851765028083e-10 8.058921228616967e-11 1.0032554980907655e-10
          9.109878828533525e-11 1.8758863459277264e-10 1.6515916724635134e-10 1.611127352400486e-10 9.04845565101716e-11 1.1204025190849653e-10
          7.910027439239647e-11 9.739934900793274e-11 8.623125312930471e-11 1.0164673877312773e-10 8.822247033382526e-11 1.7445078631413795e-10
          1.5308386465776638e-10 1.573733233172001e-10 7.143536429260338e-11 8.449489686854399e-11 6.882650097169018e-11 7.836713205944782e-11
          6.696929480067721e-11 7.665167404494368e-11 7.144251944227565e-11 1.3395422040066896e-10 1.305083728158061e-10 1.2128117737803495e-10
          2.225121192714067e-9 1.6193035963126061e-9 1.693377156592036e-9 1.7674507168714656e-9 1.161633120470005e-9 2.3725344551577276e-9
          2.259693285945952e-9 2.3057896925210424e-9 2.1468521167341766e-9 2.4822570125116696e-9 2.360228163764929e-9 2.4098576708203034e-9
          2.238199315018188e-9 1.6619245685852634e-9 1.7308015403072228e-9 1.7048684084291063e-9 1.7706903924023206e-9 1.7996785120291823e-9
          1.8365123763755346e-9 9.513146820127991e-10 1.2019097946684936e-9 1.2355910922835985e-9 1.452504907324188e-9 1.7507215545285626e-9
          1.8140575558680845e-9 1.8013044447853638e-9 1.8603041129404188e-9 1.877393557207606e-9 1.919303781095474e-9 1.0191860965454552e-9
          1.2678869479712398e-9 1.310750555060534e-9 1.5165877993970244e-9 6.463200663879117e-10 6.409495907539615e-10 6.24893667091217e-10
          9.489037854805507e-10 6.16648959475192e-10 6.105782318983114e-10 5.589350560360127e-10 5.522617316943264e-10 5.925287996230158e-10
          5.326126068668464e-10 9.11875526589659e-10 8.998783732140717e-10 8.16511643788507e-10 8.676633600893096e-10 5.941432896159411e-10
          5.527396326678316e-10 8.627215241806989e-10 5.611306583207992e-10 5.012927708025226e-10 5.193635576453821e-10 4.6029763639137364e-10
          8.166759219675332e-10 7.385672028889247e-10 7.513168293901546e-10 1.3296258530977062e-9 1.3067106619493028e-9 1.2542158826957304e-9
          1.8305979001704733e-9 1.2805372881768963e-9 1.2613712498619493e-9 1.1900320946828616e-9 1.174934363290866e-9 1.2123626168683302e-9
          1.130559711897287e-9 1.7886085218493832e-9 1.7665607082039905e-9 1.6531223641206153e-9 1.7031391251704012e-9 1.1765755933482796e-9
          1.080515105209126e-9 1.657752681842711e-9 1.1375608434907096e-9 1.060317372179927e-9 1.0428427566790375e-9 9.691620893323443e-10
          1.5932595020932144e-9 1.48197302512763e-9 1.450212490218177e-9 5.065025612692587e-10 5.001316293566782e-10 4.5963908926803807e-10
          4.536909390047424e-10 4.814788780221124e-10 4.3628479022412904e-10 7.610003123674514e-10 7.512869708672425e-10 6.912501490708e-10
          7.228612648066082e-10 4.1599346709054877e-10 4.1048584659395636e-10 3.747423526972772e-10 3.696796117533763e-10 3.943781193010111e-10
          3.548796634335383e-10 6.42569210401227e-10 6.33996564837236e-10 5.786635713806801e-10 6.089185289435041e-10 4.5186612943743073e-10
          4.086854211520137e-10 4.1334452281223517e-10 3.729018746324163e-10 6.777679119798706e-10 6.220530470409386e-10 6.191553626056777e-10
          3.6886087076723846e-10 3.3145513595412523e-10 3.3582304723845414e-10 3.0110725618004266e-10 5.691925517777092e-10 5.183170363294064e-10
          5.177443104484697e-10 1.1105330994137614e-9 1.0960867199694532e-9 1.0355992585445123e-9 1.0218604138139298e-9 1.053854350613364e-9
          9.817138130405903e-10 1.5800238295371139e-9 1.5578101110023883e-9 1.4666528379418306e-9 1.4936118948749911e-9 9.624131124879932e-10
          9.49432496110532e-10 8.901429609187573e-10 8.779292300739652e-10 9.114908417199618e-10 8.422244843987798e-10 1.3957731994542992e-9
          1.376219566958025e-9 1.2860125955087486e-9 1.3194236191320247e-9 9.869777040115705e-10 9.18199383520522e-10 9.002372057653802e-10
          8.358893762382484e-10 1.3938628274467536e-9 1.3118482475016857e-9 1.267028650357916e-9 8.514530693060305e-10 7.857263415608491e-10
          7.73667418573691e-10 7.125499201267257e-10 1.2304298896778061e-9 1.1489191321841516e-9 1.1161966854803789e-9 5.031533296803088e-10
          4.46882102875265e-10 7.176228067246062e-10 4.697739958924489e-10 4.1220113320698146e-10 4.1446933360328227e-10 3.5969435474456377e-10
          6.753118940271894e-10 6.043764814431315e-10 5.920298526639564e-10 3.88458372924619e-10 3.270034426394713e-10 5.444322262942672e-10
          3.575020668831626e-10 3.0631307429776657e-10 2.9942175197197963e-10 2.5386353060152067e-10 5.072527936869551e-10 4.460215153564158e-10
          4.2233444545765435e-10 9.707809881626132e-10 8.493881755358406e-10 1.3397712622852155e-9 9.336330182345395e-10 8.631148108821567e-10
          8.143303575711237e-10 7.487334640457628e-10 1.2877629376535735e-9 1.1962657021348387e-9 1.112465445032354e-9 7.293586959260671e-10
          6.065880209116971e-10 9.814644518522925e-10 6.945794734406224e-10 6.322712619592745e-10 5.753770245722393e-10 5.195987491060922e-10
          9.415061010670644e-10 8.700014731863331e-10 7.745498234059888e-10 3.6841137900918297e-10 3.314224689873623e-10 3.1965804001887437e-10
          2.8659741137571465e-10 5.508774915629588e-10 5.030125941668463e-10 4.771381121760432e-10 2.9817346538876387e-10 2.671508378545532e-10
          2.5778023818820174e-10 2.309771975205033e-10 4.58124841238492e-10 4.1522742054369807e-10 3.940819616651641e-10 2.7046106915573436e-10
          2.414411006211516e-10 2.2246691084223227e-10 1.976187429806577e-10 4.02027975813593e-10 3.6411992295089325e-10 3.293892795321003e-10
          2.1636828916720183e-10 1.930819728183861e-10 1.7603953563574035e-10 1.5615702023014832e-10 3.292372036781636e-10 2.9633131132768903e-10
          2.6706331871163307e-10 7.994375212215092e-10 7.403318467256267e-10 6.907821739100659e-10 6.374843596672704e-10 1.1219118255306912e-9
          1.0528834036385914e-9 9.670061029531098e-10 6.834397951739093e-10 6.277677291474636e-10 5.865018826811048e-10 5.368917052504381e-10
          9.845139874238729e-10 9.159714963970697e-10 8.434624415638784e-10 5.803825115951798e-10 5.33241282507133e-10 4.738058606262036e-10
          4.329971466518511e-10 8.103880553914463e-10 7.551399270643807e-10 6.594996322163621e-10 4.885493675676851e-10 4.4539434210496135e-10
          3.9477651877039846e-10 3.5823911191447526e-10 7.010283402560067e-10 6.473262104631059e-10 5.64584048505448e-10 2.4132558504439085e-9
          2.395576953715046e-9 2.33682064779916e-9 2.5689699551037987e-9 2.436985517734114e-9 2.4895799803356495e-9 2.3050010803644294e-9
          2.36168675973399e-9 2.336404052808172e-9 2.26133823643018e-9 2.228419178242373e-9 2.2581684715857924e-9 2.1313949153053546e-9
          2.565251441553048e-9 2.5309888374720347e-9 2.5172718139814576e-9 2.4395515648936305e-9 2.1920358356771073e-9 1.9884863943517177e-9
          2.2646279017504966e-9 2.10893189152453e-9 1.9789630866900226e-9 1.9093100722199414e-9 1.7861357148704753e-9 2.2973283580959432e-9
          2.2926105434157223e-9 2.120523166101388e-9 1.8498555816415538e-9 1.89853909451107e-9 1.876987450525352e-9 1.91401767544447e-9
          1.947222607380586e-9 1.978983605176864e-9 1.130741208179309e-9 1.3600926712880256e-9 1.3687627343908084e-9 1.5894441343967423e-9
          1.884398559548344e-9 1.9099825928103604e-9 1.879370634850935e-9 1.8954830413717534e-9 1.9665835862593918e-9 1.927821643606946e-9
          1.23025976119141e-9 1.3220414339437237e-9 1.2890582629488718e-9 1.5340612331899642e-9 2.0034905935116534e-9 1.977929655290755e-9
          1.8287053266828807e-9 1.9831236408779676e-9 1.9417584624860676e-9 1.9539470830304457e-9 1.899842986211033e-9 1.6890165043630573e-9