<?xml version="1.0"?>
<VTKFile type="UnstructuredGrid" version="0.1" byte_order="LittleEndian" header_type="UInt32" compressor="vtkZLibDataCompressor">
  <UnstructuredGrid>
    <Piece NumberOfPoints="1221" NumberOfCells="855">
      <PointData>
        <DataArray type="Int32" Name="libmesh_node_id" format="ascii" RangeMin="2438" RangeMax="11014">
          2656 2657 2658 2659 2666 2667
          3211 3212 3213 3214 3215 3216
          3217 3218 3219 3220 3221 3222
          3223 3224 3225 3226 3227 3228
          3235 3236 3645 3646 3647 3650
          3651 3652 3653 3654 3658 3659
          4689 4690 4691 4694 4697 4699
          4700 4701 4702 4703 4704 4705
          4706 4707 4708 4709 4710 4711
          4712 4715 4716 4719 4721 4723
          4724 4725 4726 4727 4728 4729
          4730 4731 4732 4735 4736 4738
          4741 4743 4744 4745 4746 4747
          4748 4749 4750 4751 4752 4754
          4756 4758 4760 4761 4762 4763
          4764 4765 4766 4767 4768 4769
          4770 4771 4772 4773 4774 4775
          4776 4777 4778 4779 4780 4795
          4796 4797 4798 4799 4800 4802
          4803 4804 4815 4816 4817 4818
          4819 4820 4821 4822 4823 4824
          4835 4836 4837 4839 4840 4841
          4851 4852 4857 4859 4860 4861
          4862 4866 4867 4890 4894 4896
          4897 4900 4901 5607 5608 5609
          5610 5611 5612 5613 5614 5615
          5616 5624 5625 5626 5627 5628
          5629 5630 5631 5632 5633 5634
          5635 5636 5637 5638 5639 5640
          5641 5642 5645 5648 5651 5652
          5653 5654 5655 5656 5673 5675
          9633 9634 9635 9636 9637 9638
          9639 9640 9641 9642 9643 9644
          9645 9646 9657 9658 9659 9660
          9661 9662 9663 9664 9665 9666
          9677 9678 9679 9680 9681 9682
          9683 9684 9685 9686 9694 9695
          9696 9697 9698 9699 9700 9701
          9702 9703 9704 9705 9706 9707
          9708 9709 9710 9711 9712 9713
          9714 9715 9716 9717 9718 9719
          9720 9721 9722 9723 9724 9725
          9726 9727 9728 9729 9730 9731
          9732 9733 9734 9735 9736 9737
          9738 9739 9740 9741 9742 9743
          9744 9745 9746 9747 9748 9749
          9750 9751 9752 9753 9754 9755
          9756 9757 9758 9759 9760 9761
          9762 9763 9764 9765 9766 9767
          9768 9769 9770 9771 9772 9773
          9774 9775 9776 9777 9778 9779
          9780 9781 9782 9793 9794 9795
          9796 9797 9798 9799 9800 9801
          9802 9813 9814 9815 9816 9817
          9818 9819 9820 9821 9822 9830
          9831 9832 9833 9834 9835 9836
          9844 9845 9846 9847 9848 9849
          9850 9851 9852 9853 9854 9855
          9856 9857 9858 9859 9860 9861
          9862 9863 9864 9865 9866 9867
          9868 9869 9870 9871 9872 9873
          9874 9875 9876 9877 9878 9879
          9880 9881 9882 9883 9884 9885
          9886 9887 9888 9889 9890 9891
          9892 9893 9894 9895 9896 9897
          9898 9899 9900 9901 9902 9903
          9904 9905 9906 9907 9908 9909
          9910 9911 9912 9913 9914 9915
          9916 9917 9918 9929 9930 9931
          9932 9933 9934 9935 9936 9937
          9938 9946 9947 9948 9949 9950
          9951 9952 9963 9964 9965 9966
          9967 9968 9969 9970 9971 9972
          9980 9981 9982 9983 9984 9985
          9986 9987 9988 9989 9990 9991
          9992 9993 9994 9995 9996 9997
          9998 9999 10000 10001 10002 10003
          10004 10005 10006 10007 10008 10009
          10010 10011 10012 10013 10014 10015
          10016 10017 10018 10019 10020 10021
          10022 10023 10024 10025 10026 10027
          10028 10029 10030 10031 10032 10033
          10034 10035 10036 10037 10038 10039
          10040 10041 10042 10043 10044 10045
          10046 10047 10048 10049 10050 10051
          10052 10053 10054 10062 10063 10064
          10065 10066 10067 10068 10076 10077
          10078 10079 10080 10081 10082 10090
          10091 10092 10093 10094 10095 10096
          10104 10105 10106 10107 10108 10109
          10110 10111 10112 10113 10114 10115
          10116 10117 10118 10119 10120 10121
          10122 10123 10124 10125 10126 10127
          10128 10129 10130 10131 10132 10133
          10134 10135 10136 10137 10138 10139
          10140 10141 10142 10143 10144 10145
          10146 10147 10148 10149 10150 10151
          10152 10153 10154 10155 10156 10157
          10158 10159 10160 10161 10162 10163
          10164 10165 10166 10167 10168 10169
          10170 10171 10172 10173 10174 10175
          10176 10177 10178 10179 10180 10181
          10182 10183 10184 10185 10186 10187
          10188 10189 10190 10191 10192 10193
          10194 10195 10196 10197 10198 10199
          10200 10201 10202 10203 10204 10205
          10206 10207 10208 10209 10210 10211
          10212 10213 10214 10215 10216 10217
          10218 10219 10220 10221 10222 10223
          10224 10225 10226 10227 10228 10229
          10230 10231 10232 10233 10234 10235
          10236 10237 10238 10239 10240 10241
          10242 10243 10244 10245 10246 10247
          10248 10249 10250 10251 10252 10256
          10257 10259 10260 10262 10277 10278
          10281 10282 10284 10286 10297 10298
          10301 10303 10304 10306 10317 10319
          10321 10323 10331 10332 10333 10334
          10335 10336 10337 10338 10339 10340
          10341 10342 10343 10344 10345 10346
          10347 10348 10349 10350 10351 10352
          10353 10354 10355 10356 10357 10358
          10359 10360 10371 10372 10373 10374
          10375 10376 10377 10378 10379 10380
          10381 10382 10383 10384 10385 10386
          10387 10388 10389 10390 10391 10400
          10406 10429 10433 10460 10461 10462
          10463 10464 10465 10466 10467 10468
          10469 10470 10471 10472 10473 10474
          10475 10476 10477 10478 10479 10480
          10481 10482 10483 10484 10485 10486
          10487 10488 10489 10490 10491 10492
          10493 10494 10495 10496 10497 10498
          10499 10500 10501 10502 10503 10504
          10505 10506 10507 10508 10509 10510
          10511 10512 10513 10514 10515 10516
          10517 10518 10519 10520 10521 10522
          10523 10524 10525 10526 10527 10528
          10529 10532 10548 10550 10596 10597
          10598 10599 10600 10601 10602 10603
          10604 10605 10606 10607 10608 10609
          10610 10611 10612 10613 10614 10615
          10616 10624 10625 10626 10627 10628
          10629 10630 10631 10632 10633 10634
          10635 10636 10637 10638 10639 10640
          10641 10642 10643 10644 10652 10718
          10719 10720 10721 10722 10723 10724
          10725 10726 10727 10738 10739 10740
          10741 10742 10743 10744 10745 10746
          10755 10756 10757 10758 10759 10760
          10761 10769 10770 10773 10774 10776
          10777 10778 10779 10780 10781 10782
          10783 10784 10785 10786 10787 10788
          10789 10790 10791 10792 10793 10794
          10795 10806 10807 10808 10809 10810
          10811 10812 10813 10814 10815 10816
          10817 10818 10819 10924 10925 10926
          10927 10928 10929 10930 10938 10939
          10942 10943 10952 10953 10954 10955
          10956 10957 10958 10966 10967 10970
          10971 10973 10974 10975 10976 10977
          10978 10979 10980 10981 10982 10983
          10984 10985 10986 11001 11002 11003
          11004 11005 11006 11007 11008 11009
          11010 11011 11012 11013 11014 2777
          3400 3401 2778 2438 2626 3403
          3404 2449 2660 3641 3642 3643
          3644 3648 3649 3655 3656 3657
          5599 5602 5603 5600 4685 4686
          5606 5605 4692 5601 5620 5618
          4713 5623 5622 4717 5619 5643
          5644 5646 5647 5649 5650 4781
          4782 4788 5668 5666 4849 5671
          5670 3239 4853 9623 9624 9625
          9628 4687 9631 4688 9649 9650
          9653 9655 4693 9669 9670 9672
          4695 9675 4696 9688 9690 9692
          4698 9785 9786 9789 9791 4714
          9805 9806 9809 9811 4718 9824
          9826 9828 4720 9838 9840 9842
          4722 9921 9922 9924 4733 9927
          4734 9940 9942 9944 4737 9955
          9956 9958 4739 9961 4740 9974
          9976 9978 4742 10056 10058 10060
          4753 10070 10072 10074 4755 10084
          10086 10088 4757 10098 10100 10102
          4759 10253 10254 10255 10258 4783
          10261 4784 10279 10280 10283 10285
          4789 10299 10300 10302 4791 10305
          4792 10318 10320 10322 4794 10402
          10407 10430 10434 10530 10531 10533
          10534 10535 4825 10536 10537 4826
          10549 10551 10552 10553 10554 4829
          10562 10563 10566 10568 10569 10571
          10582 10584 10586 10588 10653 10656
          10657 10680 10684 10710 10711 10714
          10716 4850 10730 10731 10734 10736
          10747 4854 4855 10749 10751 10753
          4856 10763 10771 10765 10772 10767
          10775 4858 3240 10918 10920 10922
          4889 10932 10940 10934 10941 10936
          10944 4891 4892 10946 10948 10950
          4893 10960 10968 10962 10969 10964
          10972 4895 3246
        </DataArray>
        <DataArray type="Float64" Name="bounds" format="ascii" RangeMin="0" RangeMax="0">
          0 0 0 0 0 0
          0 0 0 0 0 0
          0 0 0 0 0 0
          0 0 0 0 0 0
          0 0 0 0 0 0
          0 0 0 0 0 0
          0 0 0 0 0 0
          0 0 0 0 0 0
          0 0 0 0 0 0
          0 0 0 0 0 0
          0 0 0 0 0 0
          0 0 0 0 0 0
          0 0 0 0 0 0
          0 0 0 0 0 0
          0 0 0 0 0 0
          0 0 0 0 0 0
          0 0 0 0 0 0
          0 0 0 0 0 0
          0 0 0 0 0 0
          0 0 0 0 0 0
          0 0 0 0 0 0
          0 0 0 0 0 0
          0 0 0 0 0 0
          0 0 0 0 0 0
          0 0 0 0 0 0
          0 0 0 0 0 0
          0 0 0 0 0 0
          0 0 0 0 0 0
          0 0 0 0 0 0
          0 0 0 0 0 0
          0 0 0 0 0 0
          0 0 0 0 0 0
          0 0 0 0 0 0
          0 0 0 0 0 0
          0 0 0 0 0 0
          0 0 0 0 0 0
          0 0 0 0 0 0
          0 0 0 0 0 0
          0 0 0 0 0 0
          0 0 0 0 0 0
          0 0 0 0 0 0
          0 0 0 0 0 0
          0 0 0 0 0 0
          0 0 0 0 0 0
          0 0 0 0 0 0
          0 0 0 0 0 0
          0 0 0 0 0 0
          0 0 0 0 0 0
          0 0 0 0 0 0
          0 0 0 0 0 0
          0 0 0 0 0 0
          0 0 0 0 0 0
          0 0 0 0 0 0
          0 0 0 0 0 0
          0 0 0 0 0 0
          0 0 0 0 0 0
          0 0 0 0 0 0
          0 0 0 0 0 0
          0 0 0 0 0 0
          0 0 0 0 0 0
          0 0 0 0 0 0
          0 0 0 0 0 0
          0 0 0 0 0 0
          0 0 0 0 0 0
          0 0 0 0 0 0
          0 0 0 0 0 0
          0 0 0 0 0 0
          0 0 0 0 0 0
          0 0 0 0 0 0
          0 0 0 0 0 0
          0 0 0 0 0 0
          0 0 0 0 0 0
          0 0 0 0 0 0
          0 0 0 0 0 0
          0 0 0 0 0 0
          0 0 0 0 0 0
          0 0 0 0 0 0
          0 0 0 0 0 0
          0 0 0 0 0 0
          0 0 0 0 0 0
          0 0 0 0 0 0
          0 0 0 0 0 0
          0 0 0 0 0 0
          0 0 0 0 0 0
          0 0 0 0 0 0
          0 0 0 0 0 0
          0 0 0 0 0 0
          0 0 0 0 0 0
          0 0 0 0 0 0
          0 0 0 0 0 0
          0 0 0 0 0 0
          0 0 0 0 0 0
          0 0 0 0 0 0
          0 0 0 0 0 0
          0 0 0 0 0 0
          0 0 0 0 0 0
          0 0 0 0 0 0
          0 0 0 0 0 0
          0 0 0 0 0 0
          0 0 0 0 0 0
          0 0 0 0 0 0
          0 0 0 0 0 0
          0 0 0 0 0 0
          0 0 0 0 0 0
          0 0 0 0 0 0
          0 0 0 0 0 0
          0 0 0 0 0 0
          0 0 0 0 0 0
          0 0 0 0 0 0
          0 0 0 0 0 0
          0 0 0 0 0 0
          0 0 0 0 0 0
          0 0 0 0 0 0
          0 0 0 0 0 0
          0 0 0 0 0 0
          0 0 0 0 0 0
          0 0 0 0 0 0
          0 0 0 0 0 0
          0 0 0 0 0 0
          0 0 0 0 0 0
          0 0 0 0 0 0
          0 0 0 0 0 0
          0 0 0 0 0 0
          0 0 0 0 0 0
          0 0 0 0 0 0
          0 0 0 0 0 0
          0 0 0 0 0 0
          0 0 0 0 0 0
          0 0 0 0 0 0
          0 0 0 0 0 0
          0 0 0 0 0 0
          0 0 0 0 0 0
          0 0 0 0 0 0
          0 0 0 0 0 0
          0 0 0 0 0 0
          0 0 0 0 0 0
          0 0 0 0 0 0
          0 0 0 0 0 0
          0 0 0 0 0 0
          0 0 0 0 0 0
          0 0 0 0 0 0
          0 0 0 0 0 0
          0 0 0 0 0 0
          0 0 0 0 0 0
          0 0 0 0 0 0
          0 0 0 0 0 0
          0 0 0 0 0 0
          0 0 0 0 0 0
          0 0 0 0 0 0
          0 0 0 0 0 0
          0 0 0 0 0 0
          0 0 0 0 0 0
          0 0 0 0 0 0
          0 0 0 0 0 0
          0 0 0 0 0 0
          0 0 0 0 0 0
          0 0 0 0 0 0
          0 0 0 0 0 0
          0 0 0 0 0 0
          0 0 0 0 0 0
          0 0 0 0 0 0
          0 0 0 0 0 0
          0 0 0 0 0 0
          0 0 0 0 0 0
          0 0 0 0 0 0
          0 0 0 0 0 0
          0 0 0 0 0 0
          0 0 0 0 0 0
          0 0 0 0 0 0
          0 0 0 0 0 0
          0 0 0 0 0 0
          0 0 0 0 0 0
          0 0 0 0 0 0
          0 0 0 0 0 0
          0 0 0 0 0 0
          0 0 0 0 0 0
          0 0 0 0 0 0
          0 0 0 0 0 0
          0 0 0 0 0 0
          0 0 0 0 0 0
          0 0 0 0 0 0
          0 0 0 0 0 0
          0 0 0 0 0 0
          0 0 0 0 0 0
          0 0 0 0 0 0
          0 0 0 0 0 0
          0 0 0 0 0 0
          0 0 0 0 0 0
          0 0 0 0 0 0
          0 0 0 0 0 0
          0 0 0 0 0 0
          0 0 0 0 0 0
          0 0 0 0 0 0
          0 0 0 0 0 0
          0 0 0 0 0 0
          0 0 0 0 0 0
          0 0 0 0 0 0
          0 0 0 0 0 0
          0 0 0 0 0 0
          0 0 0 0 0 0
          0 0 0 0 0 0
          0 0 0 0 0 0
          0 0 0 0 0 0
          0 0 0
        </DataArray>
        <DataArray type="Float64" Name="gradient_error" format="ascii" RangeMin="3.9262776480849583e-13" RangeMax="2.605933782333807e-10">
          1.1591847964114433e-11 8.600474107610907e-12 5.975487077688319e-12 2.423739400957386e-12 6.31973073258027e-11 2.319667140206541e-11
          1.6851661490644728e-11 1.3456621842223148e-11 7.23560604218973e-11 5.313611252862331e-11 4.763938355269605e-12 2.7669674717242385e-11
          2.021942188403718e-11 6.915438286367266e-12 2.133309525276884e-11 8.015406145885736e-12 1.4678948145665625e-10 1.2490469125332345e-10
          5.1825036440694243e-11 5.866273994523215e-11 1.9061715333000876e-12 1.5206574658848282e-12 9.404490144311907e-12 6.849262918073411e-12
          2.359908611913997e-11 1.8826083661182423e-11 5.7190637313225265e-12 4.677024371843874e-12 4.045350334922222e-12 2.6352757156890854e-12
          2.3276895228622174e-12 2.061484646053607e-12 1.6426335518754461e-12 1.4261436793314597e-12 1.4158902260183394e-12 1.2412726044525427e-12
          1.5927630487840257e-11 2.0881034102079925e-11 1.948915828033089e-11 1.5859902639659613e-11 6.69699561847459e-11 1.0157505336886206e-11
          9.598709708548205e-12 1.2817284442621354e-11 1.1958366260572774e-11 5.64584308413808e-12 7.660351859592736e-12 7.1445568494047395e-12
          8.104273516494164e-12 9.720380810222726e-12 5.801225109394402e-12 4.5414252789535714e-11 4.200360225836736e-11 2.5577110529186635e-11
          3.3259315967382985e-11 1.017910185846915e-11 1.1283769415949962e-11 7.051663147882682e-12 3.6228137232288883e-11 6.124816882920433e-12
          6.902580605705911e-12 3.5969324691292657e-12 4.112466840767874e-12 4.150020845929075e-12 4.2992668287612685e-12 2.5514867957526738e-12
          2.2606745380810982e-11 1.3708871819058944e-11 1.3260712341105083e-11 1.7400924159185416e-10 1.6120026741739084e-10 1.2787931319287617e-10
          1.4220167935257114e-10 1.1221822713573643e-10 1.0378468246411409e-10 6.996627041252619e-11 6.462311556326803e-11 8.196435215821795e-11
          5.085388814912858e-11 9.81089130443483e-11 9.445217556409396e-11 6.051991081384573e-11 8.18330259880555e-11 8.648281574493433e-11
          4.974592953533829e-11 9.39353711186917e-11 5.509269803896153e-11 3.401209893207323e-11 3.1477213152939955e-11 1.932627141141934e-11
          6.068820054672719e-11 3.7968815247864244e-11 3.74571429364864e-11 3.4243630648680342e-12 3.23490156640861e-12 4.457099560159067e-12
          4.155671244902712e-12 1.800481366320909e-12 2.5243296574889667e-12 2.352953870477485e-12 2.729549590690578e-12 3.3707285221293893e-12
          1.906287324640748e-12 1.6369257747259425e-11 1.5124279702542324e-11 8.685825494412015e-12 1.1940034502781859e-11 2.0509486017524616e-12
          2.3842271489124298e-12 1.127024974054658e-12 1.3439158559012146e-12 1.7829473433186646e-12 1.840656721188625e-12 8.078194625917374e-12
          4.6255769503953815e-12 4.707496975297198e-12 4.220939724153773e-11 3.8944812045151856e-11 2.465641752363077e-11 2.2730406811694102e-11
          3.055919012451387e-11 1.779528739054349e-11 3.929139813517051e-11 3.74553454371062e-11 2.240800256282949e-11 3.174819088123107e-11
          2.035722888788946e-11 1.1815901924732625e-11 1.1514900377641637e-11 2.3014096074067977e-11 1.3520506162429625e-11 1.3935825288358538e-11
          4.147405372445848e-12 3.886782071165488e-12 1.0942274761163484e-11 3.141662697367909e-12 2.946113627484826e-12 2.522629082725395e-12
          2.3749980028858206e-12 6.766664290098538e-12 4.069816496717869e-12 2.4431397497046163e-11 3.032146260584993e-11 1.535439767105271e-11
          9.373086848085496e-12 1.9178267140316273e-11 1.1779288220142956e-11 4.905999144727961e-12 4.677441933072826e-12 1.0330679974568907e-11
          9.79674016635506e-12 2.7380895489322458e-12 6.0685566970147846e-12 5.75403154006608e-12 4.049067976100416e-12 8.355294018066473e-12
          4.9060664459006624e-12 3.195372552437975e-12 6.422589687762283e-12 1.874871332906354e-12 3.769764732113676e-12 2.297354618133215e-12
          4.451338675959468e-12 2.598918393082378e-12 1.6613958452336785e-12 1.5820425941826252e-12 3.484779210250713e-12 3.3029633791728865e-12
          9.103785009261444e-13 1.953664207323874e-12 1.8509328489344004e-12 1.3721168958381506e-12 2.81777538684416e-12 1.5815267518099008e-12
          5.522435589819117e-13 5.240281382536425e-13 3.9262776480849583e-13 4.553442816918747e-13 1.0970024241316006e-12 2.1612469832994114e-12
          6.513478576183284e-13 1.2058187180756282e-12 8.138726150367785e-13 1.4687237857350664e-12 2.7483332243272357e-12 1.59893333725271e-12
          9.623216923686883e-12 9.474106646108654e-12 1.3979934243020133e-11 1.3754801749798736e-11 7.437086380635016e-12 1.1006661405030985e-11
          1.0828976886469352e-11 9.039258872193176e-12 1.3100805325640449e-11 1.0312895043142991e-11 2.6388194799372742e-11 2.5937994040342508e-11
          2.052372761849857e-11 2.4634329162830957e-11 8.361875149279757e-12 1.2082257444315067e-11 6.562506584712264e-12 9.509272894604587e-12
          7.497532563309805e-12 1.0790624721534078e-11 8.490387297499394e-12 2.2609577276063818e-11 1.7882668395479952e-11 2.0059372325235874e-11
          4.9278777192125824e-11 4.838792873140731e-11 3.922054101000273e-11 3.850872165560724e-11 4.581317704780799e-11 3.645177489474794e-11
          9.030930577137043e-11 8.858808541310568e-11 7.096952956714129e-11 8.362167793559226e-11 4.18299966492647e-11 3.327076654609885e-11
          3.68423237596508e-11 2.928959046838185e-11 7.596472368996494e-11 6.080693988847121e-11 6.642712889940672e-11 5.883912184636258e-12
          5.792370909238469e-12 8.606600360844946e-12 8.467337295152124e-12 4.488609393387044e-12 6.689228880489679e-12 6.580760882320431e-12
          5.525444087555236e-12 8.062839420982742e-12 6.265681449241309e-12 1.6414410514347762e-11 1.613274817307698e-11 1.2596764523781519e-11
          1.5317278954260613e-11 3.5082732953842214e-12 3.453525932024405e-12 5.1645703647540715e-12 5.080648287624851e-12 2.644237687208953e-12
          3.963360156117202e-12 3.898827405625279e-12 3.2937553866704316e-12 4.8368449961632074e-12 3.711356200123493e-12 9.942218126669558e-12
          9.770736889181626e-12 7.52791297927256e-12 9.2743380132968e-12 5.109661857366005e-12 7.432995177487041e-12 3.958443250794878e-12
          5.7750427108623245e-12 4.579502425885286e-12 6.634743593654138e-12 5.153492924032544e-12 1.4051252452568687e-11 1.0967414970313931e-11
          1.2457637400168966e-11 3.044698155617586e-12 4.457179709248661e-12 2.3307106523003338e-12 3.4194127032864982e-12 2.727581471275243e-12
          3.976345746254404e-12 3.0495929958816303e-12 8.503909530453342e-12 6.549628949407345e-12 7.534588366160369e-12 3.0996803889460055e-11
          3.043224705068862e-11 2.4326694157797012e-11 2.3882205228008923e-11 2.8801101710707474e-11 2.259813176811771e-11 5.7538135824908747e-11
          5.643018871203811e-11 4.453594489430289e-11 5.323500613975302e-11 1.8958902210500002e-11 1.8611470945219793e-11 1.4672694596870987e-11
          1.4403078185236482e-11 1.7607901077413224e-11 1.3624357160929058e-11 3.55797025089734e-11 3.4888949254273093e-11 2.713065477459739e-11
          3.289775361304807e-11 2.627935477993874e-11 2.061346321761186e-11 2.312465231032423e-11 1.8131585969313393e-11 4.831385586425438e-11
          3.810509659967907e-11 4.219303501635685e-11 1.6057133814759497e-11 1.2421280236347158e-11 1.411851499114582e-11 1.0917774534620681e-11
          2.983350925532125e-11 2.3187136971932328e-11 2.602677383687476e-11 6.524845057889066e-12 9.338892441051241e-12 5.1182224538129114e-12
          7.345421368871837e-12 5.5068532554512365e-12 7.83313225768033e-12 6.158124783688116e-12 1.721002478012124e-11 1.3600766426469122e-11
          1.4286384840760656e-11 4.518278490158395e-12 6.3749079460250045e-12 3.541013742068241e-12 5.0086870484650755e-12 3.596459214921835e-12
          5.0328157106530696e-12 3.951929428712698e-12 1.1481718272562636e-11 9.062204409706777e-12 8.941126952347855e-12 3.131432848910913e-11
          2.4879945435005976e-11 2.569886095512479e-11 2.040380929768595e-11 5.593246616443562e-11 4.4703847068478834e-11 4.5371430508468555e-11
          2.0378466698552177e-11 1.6166239985863508e-11 1.5628239525888618e-11 1.2387040192915333e-11 3.54819120145593e-11 2.830147488207266e-11
          2.6776172346864587e-11 3.983442516934813e-12 5.73815652082925e-12 3.0850216117861438e-12 4.455783524636898e-12 3.3586505006426336e-12
          4.80804658030596e-12 3.731735965061934e-12 1.0678461299201927e-11 8.3286560581922e-12 8.854497993244056e-12 2.37168307723233e-12
          3.4368293685500633e-12 1.8139145323980836e-12 2.6346065865327107e-12 1.9983586543589777e-12 2.8773823267367797e-12 2.205451431109071e-12
          6.453206641074748e-12 4.966572183959725e-12 5.345812649272607e-12 2.7497996756874134e-12 3.906894679503088e-12 2.1253671875168395e-12
          3.029524948988087e-12 2.1901646803455763e-12 3.0816778498800053e-12 2.3894996053108736e-12 7.1066273042737216e-12 5.536598655530288e-12
          5.524464313315694e-12 1.634142997128989e-12 2.335130418182485e-12 1.2554054941326595e-12 1.7905043117243976e-12 1.3017850268553114e-12
          1.8396866194318348e-12 1.4081933573952136e-12 4.2853581750326724e-12 3.2947510050252834e-12 3.3240089243819756e-12 1.963236875354861e-11
          1.53855329673381e-11 1.6089767632627934e-11 1.2601679175529489e-11 3.547071516557177e-11 2.7941546714751096e-11 2.8720763029399462e-11
          1.1974551847013766e-11 9.255623530725126e-12 9.802544099241273e-12 7.573067594992326e-12 2.1852096033747685e-11 1.6966791197189143e-11
          1.7667463360690217e-11 1.2738296193225324e-11 9.969712099745602e-12 9.751513150617133e-12 7.624557349126492e-12 2.2414981928732998e-11
          1.762774748864943e-11 1.6878356411412015e-11 7.75047697319041e-12 5.985744137776566e-12 5.922158861330342e-12 4.571260394353716e-12
          1.3765413094644044e-11 1.0673694528615144e-11 1.034569807633355e-11 1.539031996105578e-10 1.508880975201336e-10 1.2422466842990013e-10
          1.2177124967021691e-10 1.4219011303514921e-10 1.1469718036574141e-10 2.138868389425479e-10 2.0989791727714761e-10 1.7072117700176022e-10
          1.983375195758625e-10 1.2878790472191067e-10 1.038077991622506e-10 1.1211605772268371e-10 9.028029820377336e-11 1.8037031900099195e-10
          1.4642747895541965e-10 1.5775898772021483e-10 2.067476059405686e-10 2.040866497362298e-10 1.699664042892367e-10 1.6768887328643298e-10
          1.9605477201929595e-10 1.6084592164885752e-10 1.770271380222757e-10 1.7591285536783852e-10 1.457296882420178e-10 1.720914226350226e-10
          1.8267554423655644e-10 1.4953271985500857e-10 1.6439981371115182e-10 1.342088818840039e-10 1.6450029102077257e-10 1.3544443585247133e-10
          1.5230912937701618e-10 9.945852873951543e-11 9.748039060195542e-11 7.899464816023372e-11 7.741385611512419e-11 9.177924694191976e-11
          7.285953285165732e-11 1.4033961322724924e-10 1.37656765371271e-10 1.1005092741334274e-10 1.2989438411375933e-10 6.224566981657587e-11
          6.099322059593688e-11 4.866306047618305e-11 4.7679137383455215e-11 5.738595851822632e-11 4.4846104583255925e-11 8.897784230952006e-11
          8.724402388175546e-11 6.85920299060872e-11 8.223404233622428e-11 8.301056869887939e-11 6.585947563606805e-11 7.21299204316975e-11
          5.718177480937884e-11 1.178682575580209e-10 9.408956344569449e-11 1.0280040068116698e-10 5.1844919873768046e-11 4.0496801937645824e-11
          4.4982010477466724e-11 3.511417911509685e-11 7.449122112125884e-11 5.84953055231077e-11 6.482247377469739e-11 1.3845598428527918e-10
          1.3653292786309176e-10 1.1177347462622853e-10 1.1017035629500322e-10 1.3077812941763539e-10 1.0539008320481442e-10 1.2056760323255143e-10
          1.1959403019976516e-10 9.723847398467218e-11 1.1642385247938955e-10 8.943364057999348e-11 8.811408585881737e-11 7.093894516256784e-11
          6.986563466013769e-11 8.419173309647324e-11 6.668377672301193e-11 7.909776675793659e-11 7.833790539275299e-11 6.254792226178603e-11
          7.593885206474328e-11 1.2132651858264054e-10 9.758589090027871e-11 1.0862075176965803e-10 8.716722171360454e-11 1.1052248087083758e-10
          8.938515164747199e-11 1.015384875893969e-10 7.78217506537484e-11 6.153966849121075e-11 6.936870134628532e-11 5.4749197095938036e-11
          7.165999013336475e-11 5.6959473195785356e-11 6.539589169556425e-11 9.381769028867033e-11 7.545710291707258e-11 7.54805795866412e-11
          6.062858550242175e-11 1.326118181569192e-10 1.0730880315695631e-10 1.0707462468580216e-10 5.84153208101816e-11 4.6854190445545644e-11
          4.352053180587008e-11 3.4854986824450015e-11 8.302381462380785e-11 6.692781321047134e-11 6.183084996195376e-11 1.4233860914864613e-10
          1.1586023667801801e-10 1.1819888591971683e-10 9.593089592878306e-11 1.355855774741125e-10 1.1074035704031536e-10 1.1545118411281226e-10
          9.396119111826537e-11 7.60481985855407e-11 7.144975327768501e-11 5.7677083897393904e-11 9.376660483403033e-11 7.603063338426005e-11
          7.256992290293931e-11 6.022329892131218e-11 4.769735312685179e-11 4.833077199733337e-11 3.8237494095900686e-11 8.61311156549201e-11
          6.857863884900845e-11 6.929882041892606e-11 3.748940105914802e-11 2.9243288381361655e-11 3.002546920205852e-11 2.3401080918956034e-11
          5.4168328403066504e-11 4.2447884282880123e-11 4.345656861294162e-11 3.7302301532950685e-11 2.947810317509421e-11 2.7711619359087416e-11
          2.187198352898987e-11 5.353517942081473e-11 4.249295090128531e-11 3.972072748346862e-11 2.3123144146642694e-11 1.8004428316258312e-11
          1.7137364535000098e-11 1.3329721902740548e-11 3.3470139518407614e-11 2.6162355466975825e-11 2.4757348535670915e-11 9.35204791193544e-11
          7.486769901487439e-11 7.72291311802993e-11 6.167512853372705e-11 8.968457987376645e-11 7.20300324117127e-11 7.580862139735136e-11
          5.944723922865043e-11 4.6820958089505e-11 4.886101367394237e-11 3.8402848674243506e-11 5.7377097773714344e-11 4.53325433157929e-11
          4.819477070379001e-11 6.106630251500777e-11 4.8651863070987985e-11 4.6201927225922096e-11 3.672708278665849e-11 6.11642128580434e-11
          4.8818445311184855e-11 4.705621407427505e-11 3.845936686591899e-11 3.0167024323784954e-11 2.897333194558454e-11 2.268339961862595e-11
          3.8660272234571523e-11 3.037839468372329e-11 2.9589187823065435e-11 2.039154942703696e-12 2.0072159194705986e-12 3.0198611427805093e-12
          2.970582934064009e-12 1.5163694363416507e-12 2.2870547257165464e-12 2.2496496111955067e-12 1.9140561740077648e-12 2.8274614094857185e-12
          2.1410718636934412e-12 5.862989152111046e-12 5.7613951865496665e-12 4.37970014611113e-12 5.46733672636088e-12 1.155014377859109e-12
          1.1367876257816656e-12 1.7202580084937537e-12 1.6920503857987824e-12 8.49042701438881e-13 1.2863552837926838e-12 1.2652866267189532e-12
          1.0838775988310079e-12 1.6102230090454844e-12 1.2039884733499398e-12 3.365732861304255e-12 3.3071760320332217e-12 2.480348564278055e-12
          3.1376487448764035e-12 1.7689489538283575e-12 2.6046253074624956e-12 1.3363649004055527e-12 1.9720833789064943e-12 1.5834874272317936e-12
          2.3220022533348522e-12 1.7573829395711443e-12 5.01100935173593e-12 3.808012299670469e-12 4.437002812852465e-12 1.001857162166631e-12
          1.4829466988948725e-12 7.478665890373617e-13 1.1084671130498107e-12 8.960537436708558e-13 1.3209900008640988e-12 9.87149134614432e-13
          2.874516311543453e-12 2.1551115677153602e-12 2.5436027738155373e-12 1.1276361746079982e-11 1.1068629331821405e-11 8.605832890219752e-12
          8.446921051886675e-12 1.046869454245693e-11 7.988006671693562e-12 2.1360449506216856e-11 2.094305571148872e-11 1.60485022646089e-11
          1.9740230962779088e-11 6.5219760561116585e-12 6.401276859869137e-12 4.908413669091683e-12 4.8173892869445764e-12 6.052721344495932e-12
          4.554530169886072e-12 1.2452822303195924e-11 1.2208188907563189e-11 9.219309246615169e-12 1.1503375280141734e-11 9.541997256132001e-12