<?xml version="1.0"?>
<VTKFile type="UnstructuredGrid" version="0.1" byte_order="LittleEndian" header_type="UInt32" compressor="vtkZLibDataCompressor">
  <UnstructuredGrid>
    <Piece NumberOfPoints="382" NumberOfCells="182">
      <PointData>
        <DataArray type="Int32" Name="libmesh_node_id" format="ascii" RangeMin="178" RangeMax="3021">
          243 244 264 265 267 268
          269 270 274 275 279 280
          282 325 326 327 328 329
          330 331 332 333 334 335
          336 337 338 339 340 341
          342 343 344 345 347 351
          352 357 386 388 392 393
          396 399 410 411 412 413
          416 417 418 420 421 423
          434 435 438 439 441 442
          444 445 447 448 449 450
          451 452 453 454 455 456
          457 458 459 460 461 462
          463 464 465 466 467 468
          469 470 471 472 473 474
          475 476 477 478 479 480
          482 485 488 489 490 494
          509 510 511 512 513 514
          515 516 517 518 519 520
          521 522 595 596 609 610
          611 612 613 614 615 616
          617 618 619 620 621 622
          623 624 625 626 630 631
          633 634 635 636 637 638
          639 640 641 642 673 674
          675 676 677 678 679 680
          681 682 683 684 685 686
          687 688 689 690 691 692
          693 694 695 696 697 698
          699 700 701 702 703 704
          705 706 707 708 709 710
          711 712 713 714 715 716
          777 778 779 780 781 782
          783 784 785 786 787 788
          789 790 791 792 793 794
          795 796 797 798 799 800
          801 802 803 804 805 806
          807 808 809 810 811 812
          813 814 815 816 817 818
          819 820 821 822 823 824
          825 826 827 828 829 832
          833 834 835 837 838 839
          840 841 842 843 844 845
          846 847 855 856 861 876
          877 878 879 880 881 882
          883 884 885 886 887 888
          889 890 891 892 893 894
          895 900 905 916 918 920
          922 1258 1259 1260 1261 1262
          1263 1264 1265 1266 1267 1268
          1269 1270 1271 1272 1273 1274
          1275 1276 1277 3016 3017 3018
          3019 3020 3021 178 180 194
          193 211 213 227 226 266
          276 271 273 277 297 210
          298 301 302 304 305 387
          389 390 391 394 395 397
          246 398 259 260 414 353
          415 419 422 436 437 440
          443 307 446 308 587 586
          591 590 597 592 594 598
          588 589 593 212 627 628
          629 632 348 2966 310 2971
          3006 3007 3011 3014
        </DataArray>
        <DataArray type="Float64" Name="bounds" format="ascii" RangeMin="0" RangeMax="0">
          0 0 0 0 0 0
          0 0 0 0 0 0
          0 0 0 0 0 0
          0 0 0 0 0 0
          0 0 0 0 0 0
          0 0 0 0 0 0
          0 0 0 0 0 0
          0 0 0 0 0 0
          0 0 0 0 0 0
          0 0 0 0 0 0
          0 0 0 0 0 0
          0 0 0 0 0 0
          0 0 0 0 0 0
          0 0 0 0 0 0
          0 0 0 0 0 0
          0 0 0 0 0 0
          0 0 0 0 0 0
          0 0 0 0 0 0
          0 0 0 0 0 0
          0 0 0 0 0 0
          0 0 0 0 0 0
          0 0 0 0 0 0
          0 0 0 0 0 0
          0 0 0 0 0 0
          0 0 0 0 0 0
          0 0 0 0 0 0
          0 0 0 0 0 0
          0 0 0 0 0 0
          0 0 0 0 0 0
          0 0 0 0 0 0
          0 0 0 0 0 0
          0 0 0 0 0 0
          0 0 0 0 0 0
          0 0 0 0 0 0
          0 0 0 0 0 0
          0 0 0 0 0 0
          0 0 0 0 0 0
          0 0 0 0 0 0
          0 0 0 0 0 0
          0 0 0 0 0 0
          0 0 0 0 0 0
          0 0 0 0 0 0
          0 0 0 0 0 0
          0 0 0 0 0 0
          0 0 0 0 0 0
          0 0 0 0 0 0
          0 0 0 0 0 0
          0 0 0 0 0 0
          0 0 0 0 0 0
          0 0 0 0 0 0
          0 0 0 0 0 0
          0 0 0 0 0 0
          0 0 0 0 0 0
          0 0 0 0 0 0
          0 0 0 0 0 0
          0 0 0 0 0 0
          0 0 0 0 0 0
          0 0 0 0 0 0
          0 0 0 0 0 0
          0 0 0 0 0 0
          0 0 0 0 0 0
          0 0 0 0 0 0
          0 0 0 0 0 0
          0 0 0 0
        </DataArray>
        <DataArray type="Float64" Name="gradient_error" format="ascii" RangeMin="1.798776979867835e-10" RangeMax="0.0000010526866018180508">
          1.6067440213204376e-7 2.859113361694802e-8 1.3348240719313751e-8 2.4744658645728154e-8 4.805180625612284e-7 5.4236896594189196e-8
          1.0339177440045652e-7 3.3190140505208407e-7 2.40388519960049e-8 2.0506119798488582e-8 1.5795676162340656e-7 5.473428264939502e-7
          8.059740551356338e-9 8.231752840026499e-8 1.9224080931279514e-7 4.4336817695316044e-7 4.478096432209534e-7 2.912365015429345e-7
          3.2377548266089425e-7 5.688949609250173e-7 1.0077476671369007e-7 1.4486793307211137e-7 1.8201121890256916e-7 2.4115338482065164e-7
          2.7273186472176293e-7 4.776844889473667e-7 1.5709042388414928e-7 2.6046007582248244e-7 3.248058014540559e-7 5.133904111652149e-7
          2.118047551836402e-7 2.1797326774187852e-7 2.4680369896290046e-8 3.6158744491305504e-8 1.0936031325496308e-7 3.9655834564650825e-8
          6.728597353859333e-8 8.641564679693448e-8 1.128136580277884e-9 2.5499834087638774e-9 8.900063279283864e-10 6.855047412927738e-10
          3.971830237249871e-9 4.810031546571613e-10 1.9300598323083042e-8 4.003356233476656e-8 3.408248846301504e-8 6.782082928184688e-8
          5.537832013140229e-9 5.268359584997606e-9 9.392749091375657e-9 4.886437860294705e-8 9.560809622892719e-8 4.998887156854983e-9
          0.0000010526866018180508 8.75918608674718e-7 8.501658139679156e-7 9.033308430197557e-7 4.5652891126680097e-7 6.357133434903418e-7
          6.331996273862832e-7 9.345477905072195e-7 8.148977757138828e-7 2.5157027995056004e-7 2.3687910339951843e-7 2.2482843942053956e-7
          2.1218437375935367e-7 2.519827420981792e-7 2.724109897734948e-7 2.319295365528328e-7 2.7162960069618806e-7 3.101534079379367e-7
          3.285729894024703e-7 2.1369470146512433e-7 2.590373178649288e-7 2.367058695867974e-7 3.012928056360064e-7 1.997882206751049e-7
          2.4857454915796174e-7 2.0846385925922988e-7 3.0915551275918983e-7 2.7556171175224686e-7 2.2822589687000468e-7 2.0688591667213327e-7
          2.0211240244497863e-7 2.1015313375396483e-7 1.243018551392127e-7 7.864643317018164e-8 7.55661173343994e-8 2.0000766426491374e-7
          2.464141523369588e-7 1.7553344300736726e-7 1.723443310386754e-7 2.0247996634049304e-7 7.732401166328511e-8 2.764710738145478e-7
          1.1657695521397793e-7 9.723750113572495e-8 1.1818777425872026e-7 1.7769485622324182e-7 1.6314412722286618e-7 2.2262675967449615e-7
          1.0108762656230248e-7 1.30955681609447e-7 1.9029853487153208e-7 2.0334437338109608e-7 9.55296041026648e-8 1.6192387192633966e-7
          5.880033398397305e-8 9.342773968181196e-8 1.1586158761069999e-7 6.796308013968476e-8 2.3124509861718086e-7 2.4138107647108414e-7
          2.022507675743413e-7 1.0892321651581321e-7 1.1051637112640136e-9 4.394286112524079e-9 2.6325252681240462e-8 2.288426580026087e-8
          3.511651338450359e-8 6.441995803771086e-8 5.272008443323113e-8 3.953876087791051e-8 5.021806657282864e-8 7.564003292575915e-9
          3.0290945576449565e-8 2.099264884142868e-8 1.9443278919281278e-8 2.6357437322589887e-8 3.601617510794642e-8 1.1694352106407794e-8
          2.6436843411930095e-9 3.3250302534948734e-9 1.363934996885045e-8 9.428632140615696e-9 4.006376165796737e-9 5.217914312380939e-9
          6.830707252709078e-8 9.937045315966384e-8 1.08043686805241e-7 1.4659332643992703e-7 1.8056689665015954e-8 1.8556027917671408e-8
          3.346672111348504e-8 1.4778030108339124e-7 1.938161997201902e-7 1.905536617032686e-8 7.027339942221386e-8 7.147723864875471e-8
          8.523288130423885e-8 1.540732018238931e-7 1.5054408807076135e-7 1.3544812453328306e-7 1.4025080832543206e-7 5.6469591755572964e-8
          1.4132210542168962e-7 1.2576896002888343e-7 7.268107787529557e-8 1.2035216099580474e-7 1.2642841482697104e-7 9.373191515751583e-8
          1.6429853755503353e-7 1.583403392004587e-7 1.884528843960398e-7 1.8219209917872169e-7 1.7182954587617137e-7 1.987152611129647e-7
          1.3188882441164776e-7 1.516703705110324e-7 1.57615988289675e-7 1.4183748182092064e-7 2.126072312370461e-7 2.0604385915698462e-7
          2.25600976349758e-7 1.71451916610417e-7 1.719513506859237e-7 2.0448555443121245e-7 1.13846167179927e-7 1.319118364704603e-7
          2.370197581765012e-7 1.499775057609936e-7 3.872258381052744e-8 3.998290188542443e-8 1.2292392247682765e-7 1.082392216424007e-7
          2.6198340034136642e-8 9.608977187978633e-8 8.343247884815232e-8 3.8898834167251986e-8 7.241041221685953e-8 6.110628756137806e-8
          2.1761177549791488e-7 2.0890407151568774e-7 1.8167668739793033e-7 1.7621880926621123e-7 1.8574640456894844e-7 1.9610834907683006e-7
          1.7825870117460765e-7 2.0019636753346057e-7 2.0647029358471174e-7 1.8029859308300407e-7 1.5388103363998198e-7 1.8331262663797242e-7
          1.7484071495128493e-7 2.1274421963596286e-7 5.4714353173063396e-8 5.982444659619962e-8 5.776492040888069e-8 5.444504106220942e-8
          5.8050441272226144e-8 5.8460712420282407e-8 5.618791033295856e-8 6.320049514478356e-8 6.130272968249017e-8 5.9434010031331886e-8
          7.041476519269473e-8 6.837830972984079e-8 5.147443942644028e-8 5.7085780114661184e-8 6.236598199391673e-8 6.509620514416698e-8
          6.490411900746218e-8 7.8560030024668e-8 6.408574235394939e-8 4.5482984494732204e-8 4.528143744130998e-8 5.064307155921001e-8
          4.9524618284410025e-8 4.598525169392536e-8 5.30768471783725e-8 4.193219838221856e-8 4.6519547109294415e-8 4.5864548665962974e-8
          4.776358463589839e-8 5.933258868204101e-8 5.568711019350692e-8 6.64491673264434e-8 5.52057255269406e-8 5.15095477000602e-8
          5.2943978833880445e-8 5.824386494354024e-8 5.0602562768006566e-8 5.513449567322967e-8 5.8529483405886104e-8 6.482746081302108e-8
          7.862983216024099e-8 4.80168589274101e-8 5.366827782886959e-8 6.418055772102547e-8 6.028902222786676e-8 5.846872453635372e-8
          6.297162319622975e-8 6.51424405335145e-8 7.507560790055353e-8 6.255443057952933e-8 7.056996365761522e-8 6.74228623266348e-8
          7.742132381103988e-8 6.580430594154775e-8 5.55492447669265e-8 6.741469913242295e-8 8.678681593746082e-8 4.615855004119539e-8
          5.531092831890178e-8 4.572444708662189e-8 5.684817738957641e-8 4.126447067725786e-8 4.847510817268795e-8 4.8590971830515833e-8
          7.330951928589685e-8 7.987599014458763e-8 6.461756596527235e-8 4.47543228639051e-8 5.750689857745223e-8 4.217831913698342e-8
          5.628927713666121e-8 3.901656606158032e-8 4.819377529953498e-8 4.614075084784821e-8 8.548307414864867e-8 8.898859442150263e-8
          7.044736277597666e-8 8.296216976958545e-8 7.181369252329159e-8 8.58127746933901e-8 7.831191417414342e-8 8.946981741159466e-8
          8.307444208586018e-8 1.1004040601836583e-7 1.0497075321312717e-7 1.1761254725765999e-7 1.5395103439460027e-7 1.545018511991162e-7
          1.4124076481156805e-7 1.4065371891320363e-7 9.990110040788851e-8 1.279796784240199e-7 1.27356403431807e-7 2.8089879590450587e-8
          3.463710824575793e-8 4.045658079458614e-8 4.844440624594144e-8 2.1542650935143244e-8 3.246875534323084e-8 1.9625310806718634e-8
          2.9646857963427002e-8 3.6124696291489934e-8 2.316901963536407e-8 1.2912928652170284e-7 1.8122185963668285e-7 4.435136604118916e-8
          5.200666466416697e-8 2.3331443275166286e-7 5.966196328714477e-8 4.114879036641941e-9 1.5496095829146567e-9 2.1179231444847566e-9
          5.506307108206111e-9 4.5507428315214685e-8 5.834597538584615e-9 1.883237648206183e-9 5.374273253862875e-9 1.3948453897142635e-7
          5.136215883505391e-8 5.687107257179208e-9 2.6660624147097067e-8 5.703321496124099e-9 2.2059121725481841e-7 1.9742127161180892e-7
          1.809899922617632e-7 6.805221000184509e-7 3.928837137931626e-7 1.0228517974172996e-7 9.750752867135936e-8 2.0128774930345786e-9
          6.322332154504354e-9 6.270008928940187e-10 1.0057025112003565e-9 1.5379668088683372e-9 2.422268552057121e-10 1.063178681597413e-8
          2.8698746829885435e-9 1.3844041295066942e-9 1.3616550653900643e-9 1.798776979867835e-10 8.027492535524743e-9 3.569750437921524e-8
          1.3697646051518356e-8 2.9151494141948693e-9 1.936779956751197e-8 5.9502138091311e-7 9.753425408001585e-7 9.210148495254968e-7
          6.062634421420158e-7 9.839098954685717e-7 0.000001018945089656716 7.489162355770953e-7 5.971337201521163e-9 2.390252602519581e-9
          2.2262374488310902e-8 8.090580964830949e-9 9.635625016873428e-9 5.856081174615657e-10 1.381194372707241e-9 1.3719788959634516e-9
          3.488912395974839e-8 1.1786875817137817e-8 1.3904098494510305e-9 1.5270016892375087e-9 1.4157378695166278e-9 4.885136233445538e-9
          3.650837565049086e-9 2.4165388966526355e-9 2.4268743655388396e-8 1.5370427597410966e-8 6.646361867656633e-8 2.5797114868340762e-8
          1.5449473876475546e-7 2.0934564578817184e-7 7.285156554314723e-8 2.6419655281158825e-7
        </DataArray>
        <DataArray type="Float64" Name="gradient_matprop_error" format="ascii" RangeMin="0" RangeMax="0">
          0 0 0 0 0 0
          0 0 0 0 0 0
          0 0 0 0 0 0
          0 0 0 0 0 0
          0 0 0 0 0 0
          0 0 0 0 0 0
          0 0 0 0 0 0
          0 0 0 0 0 0
          0 0 0 0 0 0
          0 0 0 0 0 0
          0 0 0 0 0 0
          0 0 0 0 0 0
          0 0 0 0 0 0
          0 0 0 0 0 0
          0 0 0 0 0 0
          0 0 0 0 0 0
          0 0 0 0 0 0
          0 0 0 0 0 0
          0 0 0 0 0 0
          0 0 0 0 0 0
          0 0 0 0 0 0
          0 0 0 0 0 0
          0 0 0 0 0 0
          0 0 0 0 0 0
          0 0 0 0 0 0
          0 0 0 0 0 0
          0 0 0 0 0 0
          0 0 0 0 0 0
          0 0 0 0 0 0
          0 0 0 0 0 0
          0 0 0 0 0 0
          0 0 0 0 0 0
          0 0 0 0 0 0
          0 0 0 0 0 0
          0 0 0 0 0 0
          0 0 0 0 0 0
          0 0 0 0 0 0
          0 0 0 0 0 0
          0 0 0 0 0 0
          0 0 0 0 0 0
          0 0 0 0 0 0
          0 0 0 0 0 0
          0 0 0 0 0 0
          0 0 0 0 0 0
          0 0 0 0 0 0
          0 0 0 0 0 0
          0 0 0 0 0 0
          0 0 0 0 0 0
          0 0 0 0 0 0
          0 0 0 0 0 0
          0 0 0 0 0 0
          0 0 0 0 0 0
          0 0 0 0 0 0
          0 0 0 0 0 0
          0 0 0 0 0 0
          0 0 0 0 0 0
          0 0 0 0 0 0
          0 0 0 0 0 0
          0 0 0 0 0 0
          0 0 0 0 0 0
          0 0 0 0 0 0
          0 0 0 0 0 0
          0 0 0 0 0 0
          0 0 0 0
        </DataArray>
        <DataArray type="Float64" Name="initial_marker" format="ascii" RangeMin="0" RangeMax="2">
          1 0 0 0 0 0
          0 0 0 0 0 0
          0 0 0 0 0 0.5
          0 0 0 0.5 0 0
          0 0 0 2 1 0
          1 0 0 0 0 0
          0 0 0 0 0 0
          0 0 0 0 0 0
          0 0 0 0 0 0
          0 0 0 0 0 0
          0 0 0 0 0 0
          0.5 1 0.75 0.25 0.25 1.5
          1.25 0 0.25 0 0.5 2
          1.5 0.5 2 0.5 0.5 0.25
          2 1.75 0 2 2 0
          0.5 0.5 2 2 2 1
          0.5 0.75 0 1.25 1.5 1.5
          0 0 0.25 0 0 0.5
          0 0 0 0 0.5 0
          1 0 0 0 0 0
          0 0 0 0 0 0
          0 0 0 0 0 0
          0 0 0 0 0 0
          0 0 0 0 0 0
          0 0 0 0 0 0
          0 0 0 0 0 0
          0 0 0 0 0 0
          0 0 0 0 0 0
          0 0 0 0 0 0
          0 0 0 0 0 0
          0 0 0 0 0 0
          0 0 0 0 0 0
          0 0 0 0 0 0
          0 0 0 0 0 0
          0 0 0 1 1 1
          2 0 0 1 1 0.5
          1.5 1.25 0 1 1 2
          2 2 2 0 0 0.5
          0.5 0 0.5 0 0 0
          0 1.5 1.5 1.5 1 2
          2 2 2 2 2 2
          2 2 2 2 2 2
          2 2 2 2 2 2
          2 2 0.5 1.25 2 0
          0.75 0 1 0 0.5 1
          1.75 2 1.5 0 1 0.5
          1.25 0 1 1 2 2
          2 2 2 2 2 2
          2 0 0 0 0 0
          0 0 0 0 0 0
          0 0 0 0 0 0
          0 0 0 0 0 0
          0 0 0 0 0 0
          0 0 0 0 0 0
          0 0 0 0 0 0
          0 0 0 0 0 0
          0 0 0 0 0 0
          0 0 0 0 0 0
          0 0 0 0 0 0
          0 0 0 0 0 0
          0 0 0 0 0 0
          0 0 0 0 0 0
          0 0 0 0 0 0
          0 0 0 0
        </DataArray>
        <DataArray type="Float64" Name="markers_norefine" format="ascii" RangeMin="0" RangeMax="0">
          0 0 0 0 0 0
          0 0 0 0 0 0
          0 0 0 0 0 0
          0 0 0 0 0 0
          0 0 0 0 0 0
          0 0 0 0 0 0
          0 0 0 0 0 0
          0 0 0 0 0 0
          0 0 0 0 0 0
          0 0 0 0 0 0
          0 0 0 0 0 0
          0 0 0 0 0 0
          0 0 0 0 0 0
          0 0 0 0 0 0
          0 0 0 0 0 0
          0 0 0 0 0 0
          0 0 0 0 0 0
          0 0 0 0 0 0
          0 0 0 0 0 0
          0 0 0 0 0 0
          0 0 0 0 0 0
          0 0 0 0 0 0
          0 0 0 0 0 0
          0 0 0 0 0 0
          0 0 0 0 0 0
          0 0 0 0 0 0
          0 0 0 0 0 0
          0 0 0 0 0 0
          0 0 0 0 0 0
          0 0 0 0 0 0
          0 0 0 0 0 0
          0 0 0 0 0 0
          0 0 0 0 0 0
          0 0 0 0 0 0
          0 0 0 0 0 0
          0 0 0 0 0 0
          0 0 0 0 0 0
          0 0 0 0 0 0
          0 0 0 0 0 0
          0 0 0 0 0 0
          0 0 0 0 0 0
          0 0 0 0 0 0
          0 0 0 0 0 0
          0 0 0 0 0 0
          0 0 0 0 0 0
          0 0 0 0 0 0
          0 0 0 0 0 0
          0 0 0 0 0 0
          0 0 0 0 0 0
          0 0 0 0 0 0
          0 0 0 0 0 0
          0 0 0 0 0 0
          0 0 0 0 0 0
          0 0 0 0 0 0
          0 0 0 0 0 0
          0 0 0 0 0 0
          0 0 0 0 0 0
          0 0 0 0 0 0
          0 0 0 0 0 0
          0 0 0 0 0 0
          0 0 0 0 0 0
          0 0 0 0 0 0
          0 0 0 0 0 0
          0 0 0 0
        </DataArray>
        <DataArray type="Float64" Name="markers_mustrefine" format="ascii" RangeMin="0" RangeMax="2">
          1 0 0 0 0 0
          0 0 0 0 0 0
          0 0 0 0 0 0.5
          0 0 0 0.5 0 0
          0 0 0 2 1 0
          1 0 0 0 0 0
          0 0 0 0 0 0
          0 0 0 0 0 0
          0 0 0 0 0 0
          0 0 0 0 0 0
          0 0 0 0 0 0
          0.5 1 0.75 0.25 0.25 1.5
          1.25 0 0.25 0 0.5 2
          1.5 0.5 2 0.5 0.5 0.25
          2 1.75 0 2 2 0
          0.5 0.5 2 2 2 1
          0.5 0.75 0 1.25 1.5 1.5
          0 0 0.25 0 0 0.5
          0 0 0 0 0.5 0
          1 0 0 0 0 0
          0 0 0 0 0 0
          0 0 0 0 0 0
          0 0 0 0 0 0
          0 0 0 0 0 0
          0 0 0 0 0 0
          0 0 0 0 0 0
          0 0 0 0 0 0
          0 0 0 0 0 0
          0 0 0 0 0 0
          0 0 0 0 0 0
          0 0 0 0 0 0
          0 0 0 0 0 0
          0 0 0 0 0 0
          0 0 0 0 0 0
          0 0 0 1 1 1
          2 0 0 1 1 0.5
          1.5 1.25 0 1 1 2
          2 2 2 0 0 0.5
          0.5 0 0.5 0 0 0
          0 1.5 1.5 1.5 1 2
          2 2 2 2 2 2
          2 2 2 2 2 2
          2 2 2 2 2 2
          2 2 0.5 1.25 2 0
          0.75 0 1 0 0.5 1
          1.75 2 1.5 0 1 0.5
          1.25 0 1 1 2 2
          2 2 2 2 2 2
          2 0 0 0 0 0
          0 0 0 0 0 0
          0 0 0 0 0 0
          0 0 0 0 0 0
          0 0 0 0 0 0
          0 0 0 0 0 0
          0 0 0 0 0 0
          0 0 0 0 0 0
          0 0 0 0 0 0
          0 0 0 0 0 0
          0 0 0 0 0 0
          0 0 0 0 0 0
          0 0 0 0 0 0
          0 0 0 0 0 0
          0 0 0 0 0 0
          0 0 0 0
        </DataArray>
        <DataArray type="Float64" Name="gradient_marker" format="ascii" RangeMin="0" RangeMax="1">
          1 1 1 1 1 0.75
          0.875 1 1 1 1 1
          1 1 1 1 1 1
          1 1 0.75 0.75 0.75 1
          1 1 0.875 1 1 1
          1 1 0.5 0.625 0.625 0.8333333333333334
          0.75 1 1 1 1 1
          1 1 1 1 1 1
          1 1 1 1 1 1
          1 1 1 1 1 1
          1 1 1 1 1 1
          1 1 1 1 1 1
          1 1 1 1 1 1
          1 1 1 1 0.75 0.75
          0.5 0.5 0.5 1 1 0.8333333333333334
          0.75 0.75 0.5 0.75 1 0.75
          0.5 0.5 0.625 0.75 0.75 1
          0.625 0.8333333333333334 1 1 0.5 0.875
          0.5 1 1 0.75 1 1
          1 1 1 1 1 1
          1 1 1 1 1 1
          1 1 1 1 1 1
          1 1 1 1 1 1
          1 1 1 1 1 1
          1 1 1 1 1 1
          1 1 1 1 1 0.5
          0.75 0.75 1 1 1 0.6666666666666666
          1 1 1 1 1 1
          1 1 1 1 1 1
          1 1 1 1 1 1
          1 1 0 0 0.5 0.5
          0 0.5 0.5 0 0.375 0.3333333333333333
          1 1 1 1 1 1
          1 1 1 1 1 1
          1 1 0 0 0 0
          0 0 0 0.25 0.25 0.25
          0.75 0.625 0 0.25 0.5 0.5
          0.5 1 0.5 0 0 0.125
          0 0 0.25 0 0 0
          0 0.375 0 0.75 0.25 0
          0 0.25 0 0.25 0.375 0.625
          1 0 0.25 0.75 0.25 0
          0.5 0.625 1 0.5 1 0.75
          1 0.5 0 0.5 1 0
          0.25 0 0.25 0 0 0
          0.75 0.75 0.5 0 0.25 0
          0.25 0 0 0 0.75 0.75
          0.5 0.875 0.75 1 1 1
          1 1 1 1 1 1
          1 1 1 1 1 0
          0 0.125 0.25 0 0 0
          0 0 0 1 1 1
          1 1 1 1 1 1
          1 1 1 1 1 1
          1 1 1 1 1 1
          1 1 1 1 1 1
          1 1 1 1 1 1
          1 1 1 1 1 0.875
          1 1 1 1 1 1
          1 1 1 1 1 1
          1 1 1 1 1 1
          1 1 1 1 1 1
          1 1 0.875 1 1 1
          1 1 1 1
        </DataArray>
        <DataArray type="Float64" Name="gradient_matprop_marker" format="ascii" RangeMin="0" RangeMax="0">
          0 0 0 0 0 0
          0 0 0 0 0 0
          0 0 0 0 0 0
          0 0 0 0 0 0
          0 0 0 0 0 0
          0 0 0 0 0 0
          0 0 0 0 0 0
          0 0 0 0 0 0
          0 0 0 0 0 0
          0 0 0 0 0 0
          0 0 0 0 0 0
          0 0 0 0 0 0
          0 0 0 0 0 0
          0 0 0 0 0 0
          0 0 0 0 0 0
          0 0 0 0 0 0
          0 0 0 0 0 0
          0 0 0 0 0 0
          0 0 0 0 0 0
          0 0 0 0 0 0
          0 0 0 0 0 0
          0 0 0 0 0 0
          0 0 0 0 0 0
          0 0 0 0 0 0
          0 0 0 0 0 0
          0 0 0 0 0 0
          0 0 0 0 0 0
          0 0 0 0 0 0
          0 0 0 0 0 0
          0 0 0 0 0 0
          0 0 0 0 0 0
          0 0 0 0 0 0
          0 0 0 0 0 0
          0 0 0 0 0 0
          0 0 0 0 0 0
          0 0 0 0 0 0
          0 0 0 0 0 0
          0 0 0 0 0 0
          0 0 0 0 0 0
          0 0 0 0 0 0
          0 0 0 0 0 0
          0 0 0 0 0 0
          0 0 0 0 0 0
          0 0 0 0 0 0
          0 0 0 0 0 0
          0 0 0 0 0 0
          0 0 0 0 0 0
          0 0 0 0 0 0
          0 0 0 0 0 0
          0 0 0 0 0 0
          0 0 0 0 0 0
          0 0 0 0 0 0
          0 0 0 0 0 0
          0 0 0 0 0 0
          0 0 0 0 0 0
          0 0 0 0 0 0
          0 0 0 0 0 0
          0 0 0 0 0 0
          0 0 0 0 0 0
          0 0 0 0 0 0
          0 0 0 0 0 0
          0 0 0 0 0 0
          0 0 0 0 0 0
          0 0 0 0
        </DataArray>
        <DataArray type="Float64" Name="combo" format="ascii" RangeMin="0" RangeMax="1">
          1 1 1 1 1 0.75
          0.875 1 1 1 1 1
          1 1 1 1 1 1
          1 1 0.75 0.75 0.75 1
          1 1 0.875 1 1 1
          1 1 0.5 0.625 0.625 0.8333333333333334
          0.75 1 1 1 1 1
          1 1 1 1 1 1
          1 1 1 1 1 1
          1 1 1 1 1 1
          1 1 1 1 1 1
          1 1 1 1 1 1
          1 1 1 1 1 1
          1 1 1 1 0.75 0.75
          0.5 0.5 0.5 1 1 0.8333333333333334
          0.75 0.75 0.5 0.75 1 0.75
          0.5 0.5 0.625 0.75 0.75 1
          0.625 0.8333333333333334 1 1 0.5 0.875
          0.5 1 1 0.75 1 1
          1 1 1 1 1 1
          1 1 1 1 1 1
          1 1 1 1 1 1
          1 1 1 1 1 1
          1 1 1 1 1 1
          1 1 1 1 1 1
          1 1 1 1 1 0.5
          0.75 0.75 1 1 1 0.6666666666666666
          1 1 1 1 1 1
          1 1 1 1 1 1
          1 1 1 1 1 1
          1 1 0 0 0.5 0.5
          0 0.5 0.5 0 0.375 0.3333333333333333
          1 1 1 1 1 1
          1 1 1 1 1 1
          1 1 0 0 0 0
          0 0 0 0.25 0.25 0.25
          0.75 0.625 0 0.25 0.5 0.5
          0.5 1 0.5 0 0 0.125
          0 0 0.25 0 0 0
          0 0.375 0 0.75 0.25 0
          0 0.25 0 0.25 0.375 0.625
          1 0 0.25 0.75 0.25 0
          0.5 0.625 1 0.5 1 0.75
          1 0.5 0 0.5 1 0
          0.25 0 0.25 0 0 0
          0.75 0.75 0.5 0 0.25 0
          0.25 0 0 0 0.75 0.75
          0.5 0.875 0.75 1 1 1
          1 1 1 1 1 1
          1 1 1 1 1 0
          0 0.125 0.25 0 0 0
          0 0 0 1 1 1
          1 1 1 1 1 1
          1 1 1 1 1 1
          1 1 1 1 1 1
          1 1 1 1 1 1
          1 1 1 1 1 1
          1 1 1 1 1 0.875
          1 1 1 1 1 1
          1 1 1 1 1 1
          1 1 1 1 1 1
          1 1 1 1 1 1
          1 1 0.875 1 1 1
          1 1 1 1
        </DataArray>
        <DataArray type="Float64" Name="dHdT" format="ascii" RangeMin="25.804258896410474" RangeMax="38.73496073133518">
          38.73496073133518 25.85305447774689 25.810169510414564 25.816863143802344 26.98960036938539 26.172465151365895
          25.98427715755249 26.261285431810666 25.817552490818432 25.821962958924757 26.737327316310473 27.76256851141219
          25.823421637773297 26.435297636494326 26.35820638893471 26.962954324339368 31.958799182872816 32.32100470102423
          29.4403521573236 29.482511550872484 26.132004112192057 31.572542326548835 28.314326517743694 26.242596095906375
          26.619128665336124 27.0932433564082 26.350889478596358 37.79907082317892 33.90437407313215 33.23118402257812
          34.041031856753605 27.140096807691414 25.965545103467065 25.940640801460475 27.28760996458537 25.892630609803707
          26.069827344911232 26.307100707090285 25.812557616977053 25.8129583043916 25.812246276525944 25.81222044490236
          25.813358991806133 25.812194613278777 25.84770576515752 25.884141657802417 25.871815032096762 25.93116964688028
          25.822980672982112 25.82341732676965 25.83187177571614 25.895924299036007 25.978197635958146 25.82385398055719
          28.63206191827229 27.939472607189636 31.0593810984859 29.50051746092013 26.74713108725694 27.44691085933213
          35.505190614022176 31.816141337825343 28.146690631407324 32.383002543038124 31.594571041434605 32.16678757944915
          36.71272774957978 36.68994642626353 35.55189246515744 35.411646975530275 31.541445933101365 36.462148412150945
          35.47198984739736 30.404522614850872 32.525502580871745 32.94769245480273 32.53944069492208 38.353694473804865
          37.22094517655593 37.275415511467514 36.934178127214594 33.88062021490042 32.02439815032574 31.064213472032677
          36.786330356966914 36.34607546957645 30.385165102188452 37.758634924730444 36.93651226227328 29.666441438282465
          32.44778160315608 32.177173684767 37.13865847887663 36.93951201704141 37.959546025249715 34.08314720032725
          29.734595949800138 28.79395522474593 27.89945527239913 31.54360354584039 30.534338946893694 33.423030127345754
          26.95748495204276 27.42848290840425 28.126643754310283 28.5772751564443 26.778249962484733 27.570061021922246
          26.418006668614254 26.798254473888605 27.11050918106203 26.501807577922303 28.82318336992278 29.319596210728673
          28.149842605058694 26.99456010115327 25.81221070228445 25.811481677796685 25.829223711269005 25.830475913952036
          25.842680058143678 25.952488558564333 25.91419484036833 25.893910128309585 25.92498423779473 25.817555254693502
          25.857146440081483 25.847747507812958 25.831728116635063 25.87362541625083 25.897479917025137 25.838348575544437
          25.81402350562985 25.815666575315532 25.83004783707642 25.826314892491293 25.817309645001217 25.822581947906166
          25.937226761312083 26.0014432468422 26.009876693479494 26.09814112035767 25.845184750322286 25.84851651066356
          25.877138074287295 26.0825266256469 26.194838993873145 25.851848271004837 26.66011291295021 26.611136174955625
          26.80328468718746 28.19410635222324 27.935003806100863 27.688443045669693 27.938187492905037 26.408806986570877
          27.6156138903376 27.38605454806391 26.562159436961046 27.441882285238524 27.68226863358683 26.951800087243488
          28.579066649221012 28.646990222426467 29.26401230703156 29.314568472760982 28.402840804294865 29.128033239674412
          27.55684453355157 27.890857956370972 28.007191984075327 27.65901637214843 29.94895796484211 29.982146723095497
          29.853225675053956 28.224871379190375 28.156302394914448 28.90738565669712 27.12436940118895 27.40483263371555
          29.658468918479784 27.685295866242143 26.247943756644194 26.2196544316395 27.23556752712515 27.03369060454898
          26.07233113230776 26.826056137918076 26.67490013923069 26.14990797059083 26.62693630966584 26.449732101884774
          34.05405802724934 32.99903351541434 32.64475094700068 35.639252946935876 36.14407469465842 34.84596092228407
          34.40857513783674 31.944009003579335 33.54784714990972 33.1778973287376 38.2340913620675 36.6928883291538
          36.172399328672796 35.15168529624012 34.073501838612884 36.17751231443336 35.87692796190903 34.802375117378595
          37.41997570573274 34.528619712500046 34.01178731367156 36.07312163677241 35.76273078321673 33.83137640197561
          35.851469581569305 35.525445757423725 32.634292572856474 34.68564354164252 34.44125995001547 37.20513523485039
          37.3150423092727 37.48774378203481 37.163655463907205 30.87504812271101 30.987508764840904 32.71858936920498
          32.81558982315267 30.63025338469826 32.49987429467842 29.97646601455216 31.51823158478597 31.60277302093285
          31.316650622604044 35.68908365208303 35.783846099402574 35.4832390614574 34.47580576004663 36.73078242267026
          36.890046305506765 37.43168084887934 36.62049528475321 36.982063890281246 37.02190286314767 37.362599420298295
          37.67853937229264 37.17148087190648 36.927395360511866 37.134882423210755 37.164010893124455 36.5139702768335
          37.40400046890821 37.05675313460347 36.84640516227705 36.45004926462445 36.26578907093697 37.29746958073982