<?xml version="1.0"?>
<VTKFile type="UnstructuredGrid" version="0.1" byte_order="LittleEndian" header_type="UInt32" compressor="vtkZLibDataCompressor">
  <UnstructuredGrid>
    <Piece NumberOfPoints="1434" NumberOfCells="882">
      <PointData>
        <DataArray type="Int32" Name="libmesh_node_id" format="ascii" RangeMin="1848" RangeMax="13349">
          1970 1971 1972 1973 1974 1975
          1976 1977 1978 1979 2005 2006
          2007 2008 2009 2035 2036 2037
          2038 2039 2084 2085 2086 2087
          2088 2089 2090 2091 2092 2093
          2094 2095 2096 2097 2098 2099
          2122 2123 2124 2125 2126 2127
          2128 2129 2152 2153 2154 2155
          2156 2157 2158 2159 2202 2204
          2205 2206 2207 2208 2209 2210
          2211 2212 2213 2214 2215 2216
          2217 2218 2219 2242 2243 2244
          2245 2246 2247 2248 2249 2272
          2273 2274 2275 2276 2277 2278
          2279 2324 2325 2326 2327 2328
          2329 2330 2331 2332 2333 2334
          2335 2336 2337 2338 2339 2362
          2363 2364 2365 2366 2367 2368
          2369 2392 2393 2394 2395 2396
          2397 2398 2399 2437 2442 2447
          2448 2449 2450 2451 2452 2453
          2454 2455 2456 2459 2460 2461
          2462 2463 2464 2465 2466 2467
          2468 2469 2470 2471 2472 2473
          2474 2511 2513 2514 2515 2516
          2517 2518 2519 2520 2521 2522
          2648 2652 2657 2660 2663 2665
          2670 2671 2672 2673 2674 2675
          2676 2677 2678 2679 2680 2681
          2682 2683 2684 2685 2686 2687
          2688 2689 2690 2692 2693 2694
          2695 2696 2697 2698 2699 2700
          2701 2702 2703 2704 2705 2706
          2707 2732 2733 2734 2735 2736
          2737 2738 2739 2740 2741 2810
          2811 2812 2815 2816 2817 2818
          2819 2820 2821 2822 2823 2824
          2825 2826 2827 2828 2829 2830
          2831 2832 2833 2834 2835 3354
          3355 3356 3357 3358 3359 3360
          3361 3362 3363 3364 3365 3366
          3367 3368 3369 3370 3371 3372
          3373 3374 3375 3376 3377 3378
          3379 3380 3381 3382 3384 3385
          3386 3387 3388 3390 3392 3393
          3394 3395 3396 3397 3398 3399
          3400 3401 3404 3412 3414 3415
          3416 3418 3422 3423 3424 3425
          3426 3427 3428 3429 3430 3431
          3432 3433 3434 3435 3482 3483
          3486 3487 3488 3489 3490 3491
          3492 3493 3494 3495 3496 3497
          3498 3499 3500 3501 3502 3503
          3544 3545 3548 3550 3684 3685
          3688 3689 3690 3691 3692 3693
          3694 3695 3696 3697 3698 3699
          3700 3701 3702 3703 3704 3705
          3706 3707 3708 3709 3710 3711
          3712 3713 3714 3715 3716 3717
          3718 3719 3720 3721 3722 3725
          3726 3729 3750 3751 3752 3753
          3754 3755 3756 3757 3758 3759
          5106 5107 5108 5111 5114 5116
          5117 5118 5119 5120 5121 5122
          5123 5124 5125 5126 5127 5128
          5129 5132 5133 5136 5138 5140
          5141 5142 5143 5144 5145 5146
          5147 5148 5149 5152 5153 5155
          5158 5160 5161 5162 5163 5164
          5165 5166 5167 5168 5169 5171
          5173 5175 5177 5178 5179 5180
          5181 5182 5183 5184 5185 5186
          5187 5188 5189 5190 5191 5192
          5193 5194 5195 5196 5197 5198
          5199 5200 5201 5202 5203 5204
          5205 5206 5207 5208 5209 5210
          5211 5212 5213 5214 5215 5216
          5217 5218 5219 5220 5221 5222
          5223 5224 5225 5226 5227 5228
          5229 5230 5231 5232 5233 5234
          5235 5236 5237 5238 5239 5240
          5241 5242 5243 5244 5245 5246
          5247 5248 5251 5252 5255 5259
          5260 5261 5262 5263 5264 5265
          5266 5267 5268 5276 5277 5278
          5279 5280 5281 5282 5293 5294
          5295 5296 5297 5298 5299 5300
          5301 5302 5303 5304 5305 5306
          5307 5308 5309 5310 5311 5312
          5350 5351 5352 5353 5354 5355
          5356 5357 5358 5359 5360 5361
          5362 5363 5364 5365 5366 5367
          5368 5369 5370 5371 5372 5373
          5384 5385 5386 5387 5388 5389
          5390 5391 5392 5393 5404 5405
          5406 5407 5408 5409 5410 5411
          5412 5413 5434 5435 5436 5437
          5438 5439 5440 5441 5442 5443
          5444 5445 5446 5447 5458 5459
          5460 5461 5462 5463 5464 5465
          5466 5467 5468 5469 5470 5471
          5472 5473 5474 5475 5476 5477
          5588 5589 5590 5591 5592 5593
          5594 5595 5596 5597 5598 5599
          5600 5601 5602 5603 5604 5607
          5608 5611 5612 5613 5614 5615
          5616 5617 5618 5619 5620 5621
          5622 5623 5624 5625 5626 5627
          5628 5629 5630 5631 5632 5633
          5634 5635 5636 5637 5638 5639
          5640 5641 5642 5643 5644 5645
          5680 5681 5682 5683 5684 5685
          5686 5687 5688 5689 12161 12181
          12195 12196 12198 12201 12211 12213
          12215 12217 12218 12219 12220 12221
          12222 12223 12224 12225 12226 12227
          12228 12229 12230 12231 12232 12233
          12234 12235 12236 12237 12238 12239
          12240 12241 12242 12243 12244 12245
          12246 12247 12248 12249 12250 12251
          12252 12253 12254 12255 12256 12257
          12258 12259 12260 12261 12262 12263
          12264 12284 12285 12288 12290 12304
          12305 12308 12310 12312 12313 12314
          12315 12316 12317 12318 12319 12320
          12321 12322 12323 12324 12325 12326
          12327 12328 12329 12330 12331 12332
          12333 12334 12335 12336 12337 12338
          12339 12340 12341 12342 12343 12344
          12345 12346 12347 12348 12349 12350
          12351 12364 12365 12367 12370 12380
          12382 12384 12398 12399 12401 12404
          12414 12416 12418 12420 12421 12422
          12423 12424 12425 12426 12427 12428
          12429 12430 12431 12432 12433 12434
          12435 12436 12437 12438 12439 12440
          12441 12442 12443 12444 12445 12446
          12447 12448 12449 12450 12451 12452
          12453 12454 12455 12456 12457 12458
          12459 12460 12461 12462 12463 12464
          12465 12466 12467 12468 12469 12470
          12471 12472 12473 12474 12475 12476
          12477 12478 12479 12480 12481 12482
          12483 12484 12485 12486 12487 12496
          12498 12500 12510 12512 12514 12524
          12526 12528 12538 12540 12542 12544
          12545 12546 12547 12548 12549 12550
          12551 12552 12553 12554 12555 12556
          12557 12558 12559 12560 12561 12562
          12563 12564 12565 12566 12567 12568
          12569 12570 12571 12572 12573 12574
          12575 12576 12577 12578 12579 12580
          12581 12582 12583 12584 12585 12586
          12587 12588 12589 12590 12591 12592
          12593 12594 12595 12596 12597 12598
          12599 12600 12601 12602 12603 12604
          12605 12606 12607 12608 12609 12610
          12611 12612 12613 12614 12615 12616
          12617 12618 12619 12620 12621 12622
          12623 12624 12625 12626 12627 12628
          12629 12630 12631 12632 12633 12634
          12635 12636 12637 12638 12639 12640
          12641 12642 12643 12644 12645 12646
          12647 12648 12649 12650 12651 12652
          12653 12654 12655 12656 12657 12658
          12659 12660 12661 12662 12663 12664
          12665 12666 12667 12668 12669 12670
          12671 12672 12673 12674 12675 12676
          12677 12678 12679 12680 12681 12682
          12683 12684 12685 12686 12687 12688
          12689 12690 12691 12692 12693 12694
          12695 12696 12697 12698 12699 12700
          12701 12702 12703 12704 12705 12706
          12707 12708 12709 12710 12711 12712
          12713 12714 12715 12716 12717 12718
          12719 12720 12721 12722 12723 12724
          12725 12726 12727 12728 12729 12730
          12731 12732 12733 12734 12735 12736
          12737 12738 12739 12740 12741 12742
          12743 12744 12745 12746 12747 12748
          12749 12750 12751 12752 12753 12754
          12755 12756 12757 12758 12759 12760
          12761 12762 12763 12764 12765 12766
          12767 12768 12769 12770 12771 12772
          12773 12774 12775 12776 12777 12778
          12779 12780 12781 12782 12783 12784
          12785 12786 12787 12788 12789 12790
          12791 12792 12793 12794 12795 12796
          12797 12798 12799 12800 12801 12802
          12803 12804 12805 12806 12807 12808
          12809 12810 12811 12812 12813 12814
          12815 12816 12817 12818 12819 12820
          12821 12822 12823 12824 12825 12826
          12827 12828 12829 12830 12831 12832
          12833 12834 12835 12836 12837 12838
          12839 12840 12841 12842 12843 12844
          12845 12846 12847 12848 12849 12850
          12851 12852 12853 12854 12855 12856
          12857 12858 12859 12860 12861 12862
          12863 12864 12865 12866 12867 12868
          12869 12870 12871 12872 12873 12874
          12875 12876 12877 12878 12879 12880
          12881 12882 12883 12884 12885 12886
          12887 12888 12889 12890 12891 12892
          12893 12894 12895 12896 12897 12898
          12899 12900 12901 12902 12903 12904
          12905 12906 12907 12908 12909 12910
          12911 12912 12913 12914 12915 12916
          12917 12918 12919 12920 12921 12922
          12923 12964 12965 12966 12967 12968
          12969 12970 12971 12972 12973 13030
          13031 13032 13033 13034 13035 13036
          13037 13038 13039 13040 13041 13042
          13043 13044 13045 13046 13049 13050
          13053 13055 13057 13058 13059 13060
          13061 13062 13063 13064 13065 13066
          13067 13068 13069 13070 13071 13072
          13073 13074 13075 13076 13077 13078
          13079 13080 13082 13084 13086 13088
          13089 13090 13091 13092 13093 13094
          13156 13157 13158 13159 13160 13161
          13162 13163 13164 13165 13166 13167
          13168 13169 13170 13171 13172 13173
          13174 13175 13176 13177 13178 13179
          13180 13181 13182 13183 13184 13185
          13186 13187 13188 13189 13190 13191
          13192 13193 13194 13195 13196 13197
          13198 13199 13336 13337 13338 13339
          13340 13341 13342 13343 13344 13345
          13346 13347 13348 13349 1848 1850
          1851 1849 1968 1969 1852 1853
          1854 1855 1856 1857 1858 1859
          1885 1884 2004 1886 1887 1888
          1889 1915 1914 2034 1916 1917
          1918 1919 1962 1964 1965 1963
          2082 2083 1966 1967 2002 2001
          2121 2003 2032 2031 2151 2033
          2203 2241 2271 2361 2391 2505
          2506 2509 2726 2727 2728 2731
        </DataArray>
        <DataArray type="Float64" Name="bounds" format="ascii" RangeMin="0" RangeMax="0">
          0 0 0 0 0 0
          0 0 0 0 0 0
          0 0 0 0 0 0
          0 0 0 0 0 0
          0 0 0 0 0 0
          0 0 0 0 0 0
          0 0 0 0 0 0
          0 0 0 0 0 0
          0 0 0 0 0 0
          0 0 0 0 0 0
          0 0 0 0 0 0
          0 0 0 0 0 0
          0 0 0 0 0 0
          0 0 0 0 0 0
          0 0 0 0 0 0
          0 0 0 0 0 0
          0 0 0 0 0 0
          0 0 0 0 0 0
          0 0 0 0 0 0
          0 0 0 0 0 0
          0 0 0 0 0 0
          0 0 0 0 0 0
          0 0 0 0 0 0
          0 0 0 0 0 0
          0 0 0 0 0 0
          0 0 0 0 0 0
          0 0 0 0 0 0
          0 0 0 0 0 0
          0 0 0 0 0 0
          0 0 0 0 0 0
          0 0 0 0 0 0
          0 0 0 0 0 0
          0 0 0 0 0 0
          0 0 0 0 0 0
          0 0 0 0 0 0
          0 0 0 0 0 0
          0 0 0 0 0 0
          0 0 0 0 0 0
          0 0 0 0 0 0
          0 0 0 0 0 0
          0 0 0 0 0 0
          0 0 0 0 0 0
          0 0 0 0 0 0
          0 0 0 0 0 0
          0 0 0 0 0 0
          0 0 0 0 0 0
          0 0 0 0 0 0
          0 0 0 0 0 0
          0 0 0 0 0 0
          0 0 0 0 0 0
          0 0 0 0 0 0
          0 0 0 0 0 0
          0 0 0 0 0 0
          0 0 0 0 0 0
          0 0 0 0 0 0
          0 0 0 0 0 0
          0 0 0 0 0 0
          0 0 0 0 0 0
          0 0 0 0 0 0
          0 0 0 0 0 0
          0 0 0 0 0 0
          0 0 0 0 0 0
          0 0 0 0 0 0
          0 0 0 0 0 0
          0 0 0 0 0 0
          0 0 0 0 0 0
          0 0 0 0 0 0
          0 0 0 0 0 0
          0 0 0 0 0 0
          0 0 0 0 0 0
          0 0 0 0 0 0
          0 0 0 0 0 0
          0 0 0 0 0 0
          0 0 0 0 0 0
          0 0 0 0 0 0
          0 0 0 0 0 0
          0 0 0 0 0 0
          0 0 0 0 0 0
          0 0 0 0 0 0
          0 0 0 0 0 0
          0 0 0 0 0 0
          0 0 0 0 0 0
          0 0 0 0 0 0
          0 0 0 0 0 0
          0 0 0 0 0 0
          0 0 0 0 0 0
          0 0 0 0 0 0
          0 0 0 0 0 0
          0 0 0 0 0 0
          0 0 0 0 0 0
          0 0 0 0 0 0
          0 0 0 0 0 0
          0 0 0 0 0 0
          0 0 0 0 0 0
          0 0 0 0 0 0
          0 0 0 0 0 0
          0 0 0 0 0 0
          0 0 0 0 0 0
          0 0 0 0 0 0
          0 0 0 0 0 0
          0 0 0 0 0 0
          0 0 0 0 0 0
          0 0 0 0 0 0
          0 0 0 0 0 0
          0 0 0 0 0 0
          0 0 0 0 0 0
          0 0 0 0 0 0
          0 0 0 0 0 0
          0 0 0 0 0 0
          0 0 0 0 0 0
          0 0 0 0 0 0
          0 0 0 0 0 0
          0 0 0 0 0 0
          0 0 0 0 0 0
          0 0 0 0 0 0
          0 0 0 0 0 0
          0 0 0 0 0 0
          0 0 0 0 0 0
          0 0 0 0 0 0
          0 0 0 0 0 0
          0 0 0 0 0 0
          0 0 0 0 0 0
          0 0 0 0 0 0
          0 0 0 0 0 0
          0 0 0 0 0 0
          0 0 0 0 0 0
          0 0 0 0 0 0
          0 0 0 0 0 0
          0 0 0 0 0 0
          0 0 0 0 0 0
          0 0 0 0 0 0
          0 0 0 0 0 0
          0 0 0 0 0 0
          0 0 0 0 0 0
          0 0 0 0 0 0
          0 0 0 0 0 0
          0 0 0 0 0 0
          0 0 0 0 0 0
          0 0 0 0 0 0
          0 0 0 0 0 0
          0 0 0 0 0 0
          0 0 0 0 0 0
          0 0 0 0 0 0
          0 0 0 0 0 0
          0 0 0 0 0 0
          0 0 0 0 0 0
          0 0 0 0 0 0
          0 0 0 0 0 0
          0 0 0 0 0 0
          0 0 0 0 0 0
          0 0 0 0 0 0
          0 0 0 0 0 0
          0 0 0 0 0 0
          0 0 0 0 0 0
          0 0 0 0 0 0
          0 0 0 0 0 0
          0 0 0 0 0 0
          0 0 0 0 0 0
          0 0 0 0 0 0
          0 0 0 0 0 0
          0 0 0 0 0 0
          0 0 0 0 0 0
          0 0 0 0 0 0
          0 0 0 0 0 0
          0 0 0 0 0 0
          0 0 0 0 0 0
          0 0 0 0 0 0
          0 0 0 0 0 0
          0 0 0 0 0 0
          0 0 0 0 0 0
          0 0 0 0 0 0
          0 0 0 0 0 0
          0 0 0 0 0 0
          0 0 0 0 0 0
          0 0 0 0 0 0
          0 0 0 0 0 0
          0 0 0 0 0 0
          0 0 0 0 0 0
          0 0 0 0 0 0
          0 0 0 0 0 0
          0 0 0 0 0 0
          0 0 0 0 0 0
          0 0 0 0 0 0
          0 0 0 0 0 0
          0 0 0 0 0 0
          0 0 0 0 0 0
          0 0 0 0 0 0
          0 0 0 0 0 0
          0 0 0 0 0 0
          0 0 0 0 0 0
          0 0 0 0 0 0
          0 0 0 0 0 0
          0 0 0 0 0 0
          0 0 0 0 0 0
          0 0 0 0 0 0
          0 0 0 0 0 0
          0 0 0 0 0 0
          0 0 0 0 0 0
          0 0 0 0 0 0
          0 0 0 0 0 0
          0 0 0 0 0 0
          0 0 0 0 0 0
          0 0 0 0 0 0
          0 0 0 0 0 0
          0 0 0 0 0 0
          0 0 0 0 0 0
          0 0 0 0 0 0
          0 0 0 0 0 0
          0 0 0 0 0 0
          0 0 0 0 0 0
          0 0 0 0 0 0
          0 0 0 0 0 0
          0 0 0 0 0 0
          0 0 0 0 0 0
          0 0 0 0 0 0
          0 0 0 0 0 0
          0 0 0 0 0 0
          0 0 0 0 0 0
          0 0 0 0 0 0
          0 0 0 0 0 0
          0 0 0 0 0 0
          0 0 0 0 0 0
          0 0 0 0 0 0
          0 0 0 0 0 0
          0 0 0 0 0 0
          0 0 0 0 0 0
          0 0 0 0 0 0
          0 0 0 0 0 0
          0 0 0 0 0 0
          0 0 0 0 0 0
          0 0 0 0 0 0
          0 0 0 0 0 0
          0 0 0 0 0 0
          0 0 0 0 0 0
          0 0 0 0 0 0
          0 0 0 0 0 0
          0 0 0 0 0 0
          0 0 0 0 0 0
          0 0 0 0 0 0
        </DataArray>
        <DataArray type="Float64" Name="gradient_error" format="ascii" RangeMin="5.223783043732399e-16" RangeMax="6.258222417066081e-11">
          8.398485640692089e-15 8.452528105371864e-15 2.343215206393196e-15 2.285352350029097e-15 1.1610615295775343e-15 1.1136250701446692e-15
          1.0663538006401888e-15 1.0116608614871e-15 1.0669279261849769e-15 1.0101445640051019e-15 5.5546606714862495e-15 1.6739672255078164e-15
          9.695115330131205e-16 8.97593042106639e-16 8.936092440249654e-16 2.6027507729208603e-15 1.1204449573506351e-15 8.728344553144368e-16
          8.382181618792668e-16 8.338572862247043e-16 7.673129872849418e-13 1.155425879162578e-12 2.8253307854711613e-13 2.4794697340394677e-13
          5.526318418502537e-14 4.8317523924190045e-14 1.4042505857943163e-14 1.206603456063331e-14 4.395374746881748e-15 3.754625262349462e-15
          2.1820865982018213e-15 1.9090752665503372e-15 1.7009313751960786e-15 1.523302617410328e-15 1.6193590132385157e-15 1.4591026678093657e-15
          1.0825717194113344e-12 1.7854980855158088e-13 3.624702025762819e-14 8.530780048591076e-15 2.4931526626629138e-15 1.2965445493882689e-15
          1.1037386468415685e-15 1.078701608866627e-15 6.451531381883503e-13 1.4373874884238437e-13 3.112217685190167e-14 6.971996833858696e-15
          1.8724295475086515e-15 9.570251638776848e-16 8.618034340585592e-16 8.585568953530386e-16 1.1043616524951617e-11 4.714734640506738e-13
          9.434173377748668e-13 2.4362551779684825e-13 1.9264260192712016e-13 6.82432600175044e-14 5.240233675423938e-14 1.6866563050472023e-14
          1.2988808378163205e-14 4.677053390624768e-15 3.787244632493971e-15 1.865372077896442e-15 1.6953073254974096e-15 1.3025192205246275e-15
          1.271112167196344e-15 1.2247322044005106e-15 1.2083509625550274e-15 1.1140653863088164e-12 1.8478927070488814e-13 4.2530945880728784e-14
          9.936836231487443e-15 2.7663870530880273e-15 1.267594367125963e-15 9.969479080404478e-16 9.578830462689683e-16 1.146972057635821e-12
          2.3290357394048406e-13 4.850047827048321e-14 1.0762618757120501e-14 2.6353382318128823e-15 1.0099461611535492e-15 7.541907022128353e-16
          7.237963718283921e-16 2.8962542757117547e-14 1.0963807581594375e-13 8.924526227556846e-14 4.974639470726429e-14 6.325158232345185e-14
          4.795736938579249e-14 1.503087544100555e-14 1.1527351246400386e-14 3.719888890592741e-15 3.107722972621774e-15 1.1877357678018296e-15
          1.238949443764639e-15 7.524374081692046e-16 9.030533409011274e-16 7.141816400505125e-16 8.651273431177044e-16 6.966581920650036e-13
          1.333246505167965e-13 4.0008164921521883e-14 9.409738151805825e-15 2.6550088189694013e-15 1.1801026301541143e-15 8.771266612632319e-16
          8.279217700850147e-16 1.279771343513636e-12 2.3288437982823533e-13 4.735317339491064e-14 1.0795649251816429e-14 2.8144605832879954e-15
          1.0700421405807802e-15 7.00584048893414e-16 6.39770493985133e-16 6.825742916960418e-12 5.100710707786064e-12 1.8630184766325898e-12
          1.2612554600829336e-12 3.2875765028902418e-12 1.4620733893233882e-12 5.453102342111364e-13 2.0551676649888435e-13 3.1026036893652816e-13
          1.1620787273108875e-12 8.452214961304764e-13 3.385936276129176e-13 5.754092624531643e-14 3.4496785929830285e-13 1.7725484284984306e-13
          1.4493872460124387e-13 1.1765135634692219e-13 9.277147195596805e-14 7.119770637155824e-14 7.538289874119296e-14 6.168867218889815e-14
          9.811376012230044e-14 6.804020297453784e-14 4.1405015961840985e-14 1.0027997802462836e-13 3.926243694259436e-14 5.2179638006238035e-14
          3.504914285752665e-14 9.24294230604304e-13 9.629425443760305e-13 6.329308636047745e-13 2.3097437827130886e-13 1.9058624315826915e-13
          3.443721068824675e-13 3.5721601279479037e-13 1.2592961046860413e-13 2.786904215151221e-13 1.5019810804522944e-13 3.700599187071132e-13
          7.800327461323663e-12 2.7968422046541504e-12 1.2740812071452391e-11 2.6068358915375916e-12 5.567597791323259e-12 5.771534948611613e-13
          6.488962376625116e-13 5.339667883400753e-13 4.033701120786467e-13 2.136874521102502e-13 1.5359641745257695e-13 7.276929968929023e-14
          6.193590235340667e-14 4.1583235794591696e-13 1.7362213485602344e-13 5.877001429022836e-14 6.669962307740156e-13 2.0474245913275907e-13
          9.4677201236641e-14 1.2302491587657817e-13 2.0058634459955626e-12 1.0808546625493548e-12 6.841401118709563e-13 3.809061189381721e-13
          1.2308611944907372e-12 8.334581607584834e-13 4.0612721629489666e-13 3.8734910316899284e-13 4.085476761413097e-13 6.107771142837778e-14
          5.4269785093548894e-14 7.131517414929671e-14 5.388924991060678e-14 3.6539069226745684e-14 8.213373650425507e-14 6.06884857971366e-14
          4.076360202377451e-14 3.330208983876245e-14 2.768701824704857e-14 1.2156295438459347e-13 7.174223479848807e-14 8.483790236752753e-14
          2.7925892849283815e-14 3.5994949867382815e-13 4.003078660364872e-13 6.713826507450243e-13 7.088708889990897e-13 2.2608087131949246e-13
          3.902493386253814e-13 4.1799712590890533e-13 4.4066623339914617e-13 7.463591272531549e-13 4.4574491319242927e-13 1.6331271521978807e-11
          6.258222417066081e-11 4.979033518123037e-11 2.4273102532252433e-11 7.933755584522782e-12 6.67873104479541e-12 1.6635094952386772e-11
          1.342011250684432e-11 2.272347360605853e-12 4.085520987650541e-12 3.3594621300544677e-12 3.8324611918861e-12 6.776142421613954e-12
          2.2274898743576633e-12 2.8742151295877506e-13 1.8454617601193973e-13 9.856371602086388e-14 6.366877740612178e-14 1.6048313530729912e-13
          1.44468307610934e-13 4.982317327200453e-14 7.932274120431154e-14 2.9614109327330876e-14 1.284534799145689e-13 4.987214332937324e-13
          5.238442362121574e-13 9.385472036436236e-13 6.827150350946481e-13 3.427786600111058e-13 2.2344764055550708e-13 1.623838269012766e-13
          4.85439857828576e-13 2.6727741273015045e-13 1.085575720637582e-13 2.638495928938956e-12 2.0314298168961906e-12 5.065546265163605e-13
          8.37851759882467e-13 1.237692660300349e-13 1.0459929787374356e-13 7.094559553055622e-14 7.153430685838505e-14 6.040229563917877e-14
          6.289930387053225e-14 6.331463130864211e-14 8.04034766823582e-14 6.249248974155289e-14 6.940488435695868e-14 1.4848517525691506e-13
          1.1159354495541802e-13 6.014934488663797e-14 7.244256113167563e-14 3.100969363521979e-13 1.2137554901485196e-13 1.1176137471236622e-13
          1.991998667520366e-13 1.8006954793379694e-13 1.0208214841603864e-13 1.2193659936228097e-13 7.033208353328935e-14 8.361417892046439e-14
          4.822003180024961e-14 7.103641838685302e-14 5.424662182300805e-14 6.501169092015384e-14 4.590405639972816e-14 1.0042674366782651e-13
          8.635758523485078e-14 6.817566790819959e-14 1.029063775437529e-12 5.14584920764856e-13 4.0082124927791936e-13 3.3024153448372744e-13
          3.591743436430511e-13 2.2003684744951923e-13 7.105721600398176e-14 6.158081005445192e-14 7.40616410751309e-14 6.30600031633196e-14
          3.327003739277255e-14 7.874974656992699e-14 6.627433468650452e-14 4.054535418411874e-14 5.449232476917271e-14 4.041304715862521e-14
          8.57366828632912e-14 7.371507574308214e-14 9.927863198023649e-14 7.104355999000392e-14 3.902410672163887e-12 7.321236549123389e-12
          3.094714225541842e-12 7.998911504295108e-13 6.540289170602727e-13 9.726761314077662e-13 8.042100869336341e-13 2.7139335917511945e-13
          3.690627103377223e-13 3.1291054310226733e-13 5.081666836910347e-13 6.357440424595021e-13 2.567583758668123e-13 1.4230392564648542e-12
          2.126696846557116e-12 6.654383339425073e-13 9.295228351005991e-13 6.048626342255462e-13 9.062389111881861e-13 4.433825920450012e-13
          1.1196276495362035e-12 9.69561795377999e-13 4.718249592714288e-13 8.194959412197947e-13 3.0397652084088076e-12 2.3162149392182568e-12
          1.7089427668781848e-12 1.1660887926023364e-12 1.291451005405742e-12 4.761455379271156e-13 6.070478456545366e-13 5.604658551889554e-13
          1.0676588125027768e-12 5.128955184198514e-13 4.020435064374126e-13 3.6170871742101454e-13 4.352318591488387e-13 3.8899502615603894e-13
          1.397199537708681e-13 3.451332729845955e-13 3.076325389771772e-13 2.6535862137530915e-13 3.981787217350296e-13 2.200806517519189e-13
          5.836710162543269e-14 5.360993535128932e-14 1.2482715173782857e-13 1.0944455576177654e-13 4.148574977857987e-14 6.490245378124117e-14
          5.697652146893047e-14 4.4929915277357726e-14 7.584324833722995e-14 4.023201548163277e-14 1.6876078767506028e-13 3.301096435266276e-13
          8.489593857155301e-14 1.2813440836674716e-13 1.2817826100411873e-13 2.0543659262693973e-13 8.62393181994153e-14 6.428904011126118e-13
          9.691848478379505e-13 5.531208486937431e-13 1.7344732234402221e-13 1.4756436751892924e-13 6.289629367810215e-14 8.312743027006608e-14
          8.107219907290197e-14 8.438218748747649e-14 3.254010035484703e-14 1.2361603134437724e-13 1.0335856686203e-13 8.7692175902051e-14
          3.8078269517944046e-13 3.9396020940937554e-13 3.6914726988023965e-13 4.082019606026198e-13 8.665705093907292e-13 5.376208706585333e-13
          5.069835257089119e-13 3.493334019159155e-13 3.283212004266234e-13 2.5277456848118145e-13 1.725643097529826e-13 1.6188748184871664e-13
          4.2728722739851303e-13 2.739371348441269e-13 1.3383143299651208e-13 4.647684098874491e-13 4.290801035450629e-13 2.0622925530820703e-13
          3.379233976047489e-13 4.951056062665821e-13 4.023465367456817e-13 2.635541764063166e-13 4.602865183068257e-13 3.2110602273909956e-13
          2.0290585743285987e-13 1.5461597621189654e-13 9.75200023687655e-14 2.082886038800669e-13 1.6434885940480667e-13 1.142388749230519e-13
          2.2758615325910534e-13 1.0916537941898277e-13 1.6047001933497106e-13 2.50645279929156e-12 2.307797163125518e-12 1.80092539002209e-12
          2.478267747890473e-12 1.2547023557635247e-12 1.1548417128771184e-12 6.090881362874272e-13 5.604244633305959e-13 9.003110967055004e-13
          4.3659910248671794e-13 1.3478962606994146e-12 1.2633574574901254e-12 6.239807693172869e-13 1.0303317780643895e-12 1.1910611413685812e-12
          6.690332093057213e-13 1.4222937341391701e-12 5.944940263916673e-13 2.8781480535753564e-13 3.330954018946628e-13 1.605908194913244e-13
          7.172575266941306e-13 3.50816976340761e-13 4.2041091276801e-13 1.2556304595093562e-13 1.1757276533374887e-13 8.078246772307337e-14
          7.552754819051191e-14 5.274314496875472e-14 6.378627648617441e-14 5.967464134276166e-14 9.642509137109703e-14 8.218548684145817e-14
          7.00456814284643e-14 1.0422068786238937e-13 9.609644164666867e-14 6.575696173045053e-14 9.226239997329669e-14 7.139520427318533e-14
          7.812076351995663e-14 3.4568777099062727e-14 7.055603287654e-14 5.0086253212722967e-14 6.808605710660978e-14 5.338455531974809e-14
          7.979119417706472e-14 6.775074816660554e-14 6.295837025019262e-14 2.867811805379882e-13 2.6374569434911353e-13 1.3064665978010488e-13
          1.20027810106198e-13 2.0512282188988264e-13 9.313072534433212e-14 3.1973631416401476e-13 2.986373128941345e-13 1.385764651987927e-13
          2.4144064817108155e-13 5.780642889498795e-14 5.365220971803429e-14 5.746082383490935e-14 5.257516254248534e-14 4.5883862697628625e-14
          3.940855696749992e-14 4.7073752432814204e-14 5.617885221480739e-14 5.131139544110461e-14 6.061318941141749e-14 6.674588515624227e-14
          6.258557937322405e-14 4.9271149686599316e-14 4.9741329213966945e-14 1.3485564815830459e-13 6.079712879511221e-14 7.472439492966325e-14
          5.5722597499212576e-14 1.6649041957401734e-13 7.657229516071748e-14 9.659065555809579e-14 5.137277198579713e-14 5.735457681964305e-14
          5.5294910762597665e-14 6.832525433513945e-14 4.739000592820985e-14 7.067715248919719e-14 6.515279683848659e-14 5.839975803965283e-14
          6.858485709334999e-14 8.899650784315018e-14 2.4447763313640667e-13 1.8487877071035155e-13 1.6043166492969046e-13 1.1946627111955778e-13
          1.6012248040727693e-13 6.249465907982979e-14 1.156085682537635e-13 6.758671702732349e-14 1.1658264490647103e-13 7.159567692431259e-14
          1.446124260928987e-13 1.2454418112667944e-13 1.1781390184526212e-13 1.5891273869893404e-13 9.384993933488645e-14 1.0641029532693206e-13
          1.173963171634541e-13 2.06837414482927e-13 9.987815786212448e-14 1.3708993693534108e-13 8.438897418826878e-14 1.200887718816041e-13
          7.285369492432958e-14 1.0774647125838062e-13 7.234538735702558e-14 1.1809964663286905e-13 5.951021477034051e-14 1.4686325509560887e-13
          1.317279183356548e-13 1.4063934563832007e-13 8.134948661324506e-14 7.902397634579415e-14 5.608309710595908e-14 7.790892353085211e-14
          8.501136582384389e-14 9.454855584662862e-14 7.454053016146931e-14 7.62598414703479e-14 9.734206651406845e-14 9.041546832132648e-14
          5.613053507301797e-14 5.305723343011912e-14 4.4625276804255494e-14 5.489204896834837e-14 3.428607131947287e-14 4.404268492526643e-14
          4.3539659112661664e-14 4.461480752743173e-14 5.779303707104056e-14 3.897564003503293e-14 3.403429434948679e-14 5.737513244463149e-14
          5.279324690585046e-14 7.09712666146494e-14 6.055345107611524e-14 4.896737018141071e-14 4.054446682091489e-14 2.7895338179882766e-14
          3.750198826027425e-14 2.9846465626184703e-14 2.0975090072686877e-14 3.738128928670617e-14 1.5246209538850632e-14 2.2190942992095158e-14
          2.914109826017193e-14 2.3557467261279915e-14 2.171961929839731e-14 1.4426971480973452e-14 2.4216851231514844e-14 1.7867955840063676e-14
          1.272314155786789e-14 1.79738362623879e-14 7.134323663549596e-15 1.1519060448612509e-14 4.554337671717088e-13 3.389556957561318e-13
          2.854323740727492e-13 1.887329855053331e-13 3.0594885960646756e-13 2.080858132782024e-13 1.3879700266692451e-13 2.2247762434055491e-13