<?xml version="1.0"?>
<VTKFile type="UnstructuredGrid" version="0.1" byte_order="LittleEndian" header_type="UInt32" compressor="vtkZLibDataCompressor">
  <UnstructuredGrid>
    <Piece NumberOfPoints="1431" NumberOfCells="916">
      <PointData>
        <DataArray type="Int32" Name="libmesh_node_id" format="ascii" RangeMin="48" RangeMax="14018">
          52 53 54 55 56 57
          58 59 60 61 62 63
          64 65 66 67 68 69
          70 71 72 73 74 75
          76 77 78 79 80 81
          82 83 84 85 86 87
          88 89 90 91 92 93
          94 95 96 97 98 99
          100 101 102 103 104 105
          106 107 108 109 110 111
          112 113 114 115 116 117
          118 119 146 147 148 149
          150 151 152 153 154 155
          156 157 158 159 160 161
          162 163 164 165 166 167
          168 169 170 171 172 173
          174 175 176 177 178 179
          206 207 208 209 210 211
          212 213 214 215 216 217
          218 219 220 221 222 223
          224 225 226 227 228 229
          230 231 232 233 234 235
          236 237 238 239 266 267
          268 269 270 271 272 273
          274 275 276 277 278 279
          280 281 282 283 284 285
          286 287 288 289 290 291
          292 293 294 295 296 297
          298 299 313 314 315 316
          317 318 319 320 321 322
          323 324 325 326 327 328
          329 343 344 345 346 347
          348 349 350 351 352 353
          354 355 356 357 358 359
          386 387 388 389 390 391
          392 393 394 395 396 397
          398 399 400 401 402 403
          404 405 406 407 408 409
          410 411 412 413 414 415
          416 417 418 419 433 434
          435 436 437 438 439 440
          441 442 443 444 445 446
          447 448 449 463 464 465
          466 467 468 469 470 471
          472 473 474 475 476 477
          478 479 506 507 508 509
          510 511 512 513 514 515
          516 517 518 519 520 521
          522 523 524 525 526 527
          528 529 530 531 532 533
          534 535 536 537 538 539
          553 554 555 556 557 558
          559 560 561 562 563 564
          565 566 567 568 569 583
          584 585 586 587 588 589
          590 591 592 593 594 595
          596 597 598 599 626 627
          628 629 630 631 632 633
          634 635 636 637 638 639
          640 641 642 643 644 645
          646 647 648 649 650 651
          652 653 654 655 656 657
          658 659 673 674 675 676
          677 678 679 680 681 682
          683 684 685 686 687 688
          689 703 704 705 706 707
          708 709 710 711 712 713
          714 715 716 717 718 719
          746 747 748 749 750 751
          752 753 754 755 756 757
          758 759 760 761 762 763
          764 765 766 767 768 769
          770 771 772 773 774 775
          776 777 778 779 793 794
          795 796 797 798 799 800
          801 802 803 804 805 806
          807 808 809 823 824 825
          826 827 828 829 830 831
          832 833 834 835 836 837
          838 839 866 867 868 869
          870 871 872 873 874 875
          876 877 878 879 880 881
          882 883 884 885 886 887
          888 889 890 891 892 893
          894 895 896 897 898 899
          913 914 915 916 917 918
          919 920 921 922 923 924
          925 926 927 928 929 943
          944 945 946 947 948 949
          950 951 952 953 954 955
          956 957 958 959 986 987
          988 989 990 991 992 993
          994 995 996 997 998 999
          1000 1001 1002 1003 1004 1005
          1006 1007 1008 1009 1010 1011
          1012 1013 1014 1015 1016 1017
          1018 1019 1033 1034 1035 1036
          1037 1038 1039 1040 1041 1042
          1043 1044 1045 1046 1047 1048
          1049 1063 1064 1065 1066 1067
          1068 1069 1070 1071 1072 1073
          1074 1075 1076 1077 1078 1079
          1106 1107 1108 1109 1110 1111
          1112 1113 1114 1115 1116 1117
          1118 1119 1120 1121 1122 1123
          1124 1125 1126 1127 1128 1129
          1130 1131 1132 1133 1134 1135
          1136 1137 1138 1139 1153 1154
          1155 1156 1157 1158 1159 1160
          1161 1162 1163 1164 1165 1166
          1167 1168 1169 1183 1184 1185
          1186 1187 1188 1189 1190 1191
          1192 1193 1194 1195 1196 1197
          1198 1199 1226 1227 1228 1229
          1230 1231 1232 1233 1234 1235
          1236 1237 1238 1239 1240 1241
          1242 1243 1244 1245 1246 1247
          1248 1249 1250 1251 1252 1253
          1254 1255 1256 1257 1258 1259
          1273 1274 1275 1276 1277 1278
          1279 1280 1281 1282 1283 1284
          1285 1286 1287 1288 1289 1303
          1304 1305 1306 1307 1308 1309
          1310 1311 1312 1313 1314 1315
          1316 1317 1318 1319 1346 1347
          1348 1349 1350 1351 1352 1353
          1354 1355 1356 1357 1358 1359
          1360 1361 1362 1363 1364 1365
          1366 1367 1368 1369 1370 1371
          1372 1373 1374 1375 1376 1377
          1378 1379 1393 1394 1395 1396
          1397 1398 1399 1400 1401 1402
          1403 1404 1405 1406 1407 1408
          1409 1423 1424 1425 1426 1427
          1428 1429 1430 1431 1432 1433
          1434 1435 1436 1437 1438 1439
          1466 1467 1468 1469 1470 1471
          1472 1473 1474 1475 1476 1477
          1478 1479 1480 1481 1482 1483
          1484 1485 1486 1487 1488 1489
          1490 1491 1492 1493 1494 1495
          1496 1497 1498 1499 1513 1514
          1515 1516 1517 1518 1519 1520
          1521 1522 1523 1524 1525 1526
          1527 1528 1529 1543 1544 1545
          1546 1547 1548 1549 1550 1551
          1552 1553 1554 1555 1556 1557
          1558 1559 1584 1585 1586 1587
          1588 1589 1590 1591 1592 1593
          1594 1595 1596 1597 1598 1599
          1600 1601 1602 1603 1604 1605
          1606 1607 1608 1609 1610 1611
          1612 1613 1614 1615 1616 1617
          1618 1619 1632 1633 1634 1635
          1636 1637 1638 1639 1640 1641
          1642 1643 1644 1645 1646 1647
          1648 1649 1662 1663 1664 1665
          1666 1667 1668 1669 1670 1671
          1672 1673 1674 1675 1676 1677
          1678 1679 1704 1705 1706 1707
          1708 1709 1710 1711 1712 1713
          1714 1715 1716 1717 1718 1719
          1720 1721 1722 1723 1724 1725
          1726 1727 1728 1729 1730 1731
          1732 1733 1734 1735 1736 1737
          1738 1739 1752 1753 1754 1755
          1756 1757 1758 1759 1760 1761
          1762 1763 1764 1765 1766 1767
          1768 1769 1782 1783 1784 1785
          1786 1787 1788 1789 1790 1791
          1792 1793 1794 1795 1796 1797
          1798 1799 1824 1825 1826 1827
          1828 1829 1830 1831 1832 1833
          1834 1835 1836 1837 1838 1839
          1840 1841 1842 1843 1844 1845
          1846 1847 1848 1849 1850 1851
          1852 1853 1854 1855 1856 1857
          1858 1859 1872 1873 1874 1875
          1876 1877 1878 1879 1880 1881
          1882 1883 1884 1885 1886 1887
          1888 1889 1902 1903 1904 1905
          1906 1907 1908 1909 1910 1911
          1912 1913 1914 1915 1916 1917
          1918 1919 1944 1945 1946 1947
          1948 1949 1950 1951 1952 1953
          1954 1955 1956 1957 1960 1961
          1962 1963 1964 1965 1966 1967
          1968 1969 1992 1993 1994 1995
          1996 1997 1998 2000 2001 2002
          2003 2004 2022 2023 2024 2025
          2026 2027 2028 2030 2031 2032
          2033 2034 2064 2065 2066 2067
          2068 2069 2112 2113 2114 2142
          2143 2144 2182 2183 2184 2185
          2186 2187 2188 2189 2231 2232
          2233 2234 2261 2262 2263 2264
          2302 2303 2304 2305 2306 2307
          2308 2309 2351 2352 2353 2354
          2381 2382 2383 2384 13499 13500
          13501 13504 13507 13509 13510 13511
          13512 13513 13514 13515 13516 13517
          13518 13519 13520 13521 13522 13639
          13640 13642 13645 13647 13648 13649
          13650 13651 13652 13653 13654 13655
          13656 13657 13658 13659 13660 13661
          13662 13663 13664 13665 13666 13667
          13668 13669 13670 13671 13672 13673
          13674 13675 13676 13677 13678 13679
          13680 13681 13682 13683 13684 13826
          13827 13828 13829 13830 13831 13832
          13833 13834 13835 13836 13837 13838
          13839 13840 13841 13842 13843 13844
          13845 13846 13847 13848 13849 13850
          13851 13852 13853 13854 13855 13856
          13857 13858 13859 13860 13861 13862
          13863 13864 13865 13986 13987 13988
          13989 13990 13991 13992 13993 13994
          13995 13996 13997 13998 13999 14000
          14001 14002 14003 14004 14005 14006
          14007 14008 14009 14010 14011 14012
          14013 14014 14015 14016 14017 14018
          48 49 50 51 144 145
          204 205 264 265 312 342
          384 385 432 462 504 505
          552 582 624 625 672 702
          744 745 792 822 864 865
          912 942 984 985 1032 1062
          1104 1105 1152 1182 1224 1225
          1272 1302 1344 1345 1392 1422
          1464 1465 1512 1542 1462 1463
          1582 1583 1511 1631 1541 1661
          1702 1703 1751 1781 1822 1823
          1871 1901 1942 1943 1991 2021
          2062 2063 2111 2141 2061 2110
          2181 2230 2140 2260 2350 2380
          13495 13496 13497 13498 13502 13503
          13505 13506 13508 13637 13638 13641
          13643 13644 13646 13818 13632 13819
          13822 2301 13824
        </DataArray>
        <DataArray type="Float64" Name="bounds" format="ascii" RangeMin="0" RangeMax="0">
          0 0 0 0 0 0
          0 0 0 0 0 0
          0 0 0 0 0 0
          0 0 0 0 0 0
          0 0 0 0 0 0
          0 0 0 0 0 0
          0 0 0 0 0 0
          0 0 0 0 0 0
          0 0 0 0 0 0
          0 0 0 0 0 0
          0 0 0 0 0 0
          0 0 0 0 0 0
          0 0 0 0 0 0
          0 0 0 0 0 0
          0 0 0 0 0 0
          0 0 0 0 0 0
          0 0 0 0 0 0
          0 0 0 0 0 0
          0 0 0 0 0 0
          0 0 0 0 0 0
          0 0 0 0 0 0
          0 0 0 0 0 0
          0 0 0 0 0 0
          0 0 0 0 0 0
          0 0 0 0 0 0
          0 0 0 0 0 0
          0 0 0 0 0 0
          0 0 0 0 0 0
          0 0 0 0 0 0
          0 0 0 0 0 0
          0 0 0 0 0 0
          0 0 0 0 0 0
          0 0 0 0 0 0
          0 0 0 0 0 0
          0 0 0 0 0 0
          0 0 0 0 0 0
          0 0 0 0 0 0
          0 0 0 0 0 0
          0 0 0 0 0 0
          0 0 0 0 0 0
          0 0 0 0 0 0
          0 0 0 0 0 0
          0 0 0 0 0 0
          0 0 0 0 0 0
          0 0 0 0 0 0
          0 0 0 0 0 0
          0 0 0 0 0 0
          0 0 0 0 0 0
          0 0 0 0 0 0
          0 0 0 0 0 0
          0 0 0 0 0 0
          0 0 0 0 0 0
          0 0 0 0 0 0
          0 0 0 0 0 0
          0 0 0 0 0 0
          0 0 0 0 0 0
          0 0 0 0 0 0
          0 0 0 0 0 0
          0 0 0 0 0 0
          0 0 0 0 0 0
          0 0 0 0 0 0
          0 0 0 0 0 0
          0 0 0 0 0 0
          0 0 0 0 0 0
          0 0 0 0 0 0
          0 0 0 0 0 0
          0 0 0 0 0 0
          0 0 0 0 0 0
          0 0 0 0 0 0
          0 0 0 0 0 0
          0 0 0 0 0 0
          0 0 0 0 0 0
          0 0 0 0 0 0
          0 0 0 0 0 0
          0 0 0 0 0 0
          0 0 0 0 0 0
          0 0 0 0 0 0
          0 0 0 0 0 0
          0 0 0 0 0 0
          0 0 0 0 0 0
          0 0 0 0 0 0
          0 0 0 0 0 0
          0 0 0 0 0 0
          0 0 0 0 0 0
          0 0 0 0 0 0
          0 0 0 0 0 0
          0 0 0 0 0 0
          0 0 0 0 0 0
          0 0 0 0 0 0
          0 0 0 0 0 0
          0 0 0 0 0 0
          0 0 0 0 0 0
          0 0 0 0 0 0
          0 0 0 0 0 0
          0 0 0 0 0 0
          0 0 0 0 0 0
          0 0 0 0 0 0
          0 0 0 0 0 0
          0 0 0 0 0 0
          0 0 0 0 0 0
          0 0 0 0 0 0
          0 0 0 0 0 0
          0 0 0 0 0 0
          0 0 0 0 0 0
          0 0 0 0 0 0
          0 0 0 0 0 0
          0 0 0 0 0 0
          0 0 0 0 0 0
          0 0 0 0 0 0
          0 0 0 0 0 0
          0 0 0 0 0 0
          0 0 0 0 0 0
          0 0 0 0 0 0
          0 0 0 0 0 0
          0 0 0 0 0 0
          0 0 0 0 0 0
          0 0 0 0 0 0
          0 0 0 0 0 0
          0 0 0 0 0 0
          0 0 0 0 0 0
          0 0 0 0 0 0
          0 0 0 0 0 0
          0 0 0 0 0 0
          0 0 0 0 0 0
          0 0 0 0 0 0
          0 0 0 0 0 0
          0 0 0 0 0 0
          0 0 0 0 0 0
          0 0 0 0 0 0
          0 0 0 0 0 0
          0 0 0 0 0 0
          0 0 0 0 0 0
          0 0 0 0 0 0
          0 0 0 0 0 0
          0 0 0 0 0 0
          0 0 0 0 0 0
          0 0 0 0 0 0
          0 0 0 0 0 0
          0 0 0 0 0 0
          0 0 0 0 0 0
          0 0 0 0 0 0
          0 0 0 0 0 0
          0 0 0 0 0 0
          0 0 0 0 0 0
          0 0 0 0 0 0
          0 0 0 0 0 0
          0 0 0 0 0 0
          0 0 0 0 0 0
          0 0 0 0 0 0
          0 0 0 0 0 0
          0 0 0 0 0 0
          0 0 0 0 0 0
          0 0 0 0 0 0
          0 0 0 0 0 0
          0 0 0 0 0 0
          0 0 0 0 0 0
          0 0 0 0 0 0
          0 0 0 0 0 0
          0 0 0 0 0 0
          0 0 0 0 0 0
          0 0 0 0 0 0
          0 0 0 0 0 0
          0 0 0 0 0 0
          0 0 0 0 0 0
          0 0 0 0 0 0
          0 0 0 0 0 0
          0 0 0 0 0 0
          0 0 0 0 0 0
          0 0 0 0 0 0
          0 0 0 0 0 0
          0 0 0 0 0 0
          0 0 0 0 0 0
          0 0 0 0 0 0
          0 0 0 0 0 0
          0 0 0 0 0 0
          0 0 0 0 0 0
          0 0 0 0 0 0
          0 0 0 0 0 0
          0 0 0 0 0 0
          0 0 0 0 0 0
          0 0 0 0 0 0
          0 0 0 0 0 0
          0 0 0 0 0 0
          0 0 0 0 0 0
          0 0 0 0 0 0
          0 0 0 0 0 0
          0 0 0 0 0 0
          0 0 0 0 0 0
          0 0 0 0 0 0
          0 0 0 0 0 0
          0 0 0 0 0 0
          0 0 0 0 0 0
          0 0 0 0 0 0
          0 0 0 0 0 0
          0 0 0 0 0 0
          0 0 0 0 0 0
          0 0 0 0 0 0
          0 0 0 0 0 0
          0 0 0 0 0 0
          0 0 0 0 0 0
          0 0 0 0 0 0
          0 0 0 0 0 0
          0 0 0 0 0 0
          0 0 0 0 0 0
          0 0 0 0 0 0
          0 0 0 0 0 0
          0 0 0 0 0 0
          0 0 0 0 0 0
          0 0 0 0 0 0
          0 0 0 0 0 0
          0 0 0 0 0 0
          0 0 0 0 0 0
          0 0 0 0 0 0
          0 0 0 0 0 0
          0 0 0 0 0 0
          0 0 0 0 0 0
          0 0 0 0 0 0
          0 0 0 0 0 0
          0 0 0 0 0 0
          0 0 0 0 0 0
          0 0 0 0 0 0
          0 0 0 0 0 0
          0 0 0 0 0 0
          0 0 0 0 0 0
          0 0 0 0 0 0
          0 0 0 0 0 0
          0 0 0 0 0 0
          0 0 0 0 0 0
          0 0 0 0 0 0
          0 0 0 0 0 0
          0 0 0 0 0 0
          0 0 0 0 0 0
          0 0 0 0 0 0
          0 0 0 0 0 0
          0 0 0 0 0 0
          0 0 0 0 0 0
          0 0 0 0 0 0
          0 0 0 0 0 0
          0 0 0
        </DataArray>
        <DataArray type="Float64" Name="gradient_error" format="ascii" RangeMin="5.223783043732399e-16" RangeMax="2.621827266602648e-7">
          5.967758424358848e-16 5.968485595599871e-16 5.972501281155385e-16 5.970431772120496e-16 5.961999162781328e-16 5.965516310574955e-16
          5.984612968932137e-16 5.976691165797074e-16 5.96856642733412e-16 5.968784526171542e-16 5.970245370113521e-16 5.969544271224826e-16
          5.971460035416965e-16 5.970234795995379e-16 5.963659549978164e-16 5.966250278297482e-16 5.968848374150528e-16 5.968907841834769e-16
          5.96905572270661e-16 5.96899977794579e-16 5.968820291280852e-16 5.968867508087228e-16 5.969247883390356e-16 5.969153400670215e-16
          5.968840280095442e-16 5.968877439508296e-16 5.969218604039409e-16 5.969135151267824e-16 5.968972502038975e-16 5.968973289797444e-16
          5.968932702945902e-16 5.968927240337549e-16 5.968984374736491e-16 5.968978626463979e-16 5.968897691166524e-16 5.968911573584669e-16
          5.968949484959869e-16 5.968951408072869e-16 5.968970029686112e-16 5.968967943697961e-16 5.968955306831249e-16 5.968955296323011e-16
          5.968960950059108e-16 5.968960682086282e-16 5.968955937359306e-16 5.968955159707942e-16 5.968958343874113e-16 5.968957497915536e-16
          5.968955453954713e-16 5.968954749864642e-16 5.968957250958819e-16 5.968956720264065e-16 5.968954487144535e-16 5.968954665793709e-16
          5.968956914676475e-16 5.968957324519403e-16 5.968954487144998e-16 5.968954802408463e-16 5.968957072309141e-16 5.9689574716431895e-16
          5.96895473935685e-16 5.968954592233224e-16 5.968957166888675e-16 5.968957335029176e-16 5.968954150863674e-16 5.968953835599734e-16
          5.968956820097621e-16 5.968956788571227e-16 5.969053764551976e-16 5.968730737310591e-16 5.968978799397658e-16 5.968896672339499e-16
          5.96897039089246e-16 5.968914872557479e-16 5.968975338345727e-16 5.968909853601077e-16 5.968961528960176e-16 5.968950359007117e-16
          5.968943023806364e-16 5.968994498674721e-16 5.968940638338973e-16 5.96899333190501e-16 5.968963305115133e-16 5.968942215759986e-16
          5.968963745746443e-16 5.96894419104656e-16 5.968956116013452e-16 5.968961170764456e-16 5.968956683484725e-16 5.968959352722583e-16
          5.968956546869719e-16 5.968957676565901e-16 5.968956158043712e-16 5.96895690942297e-16 5.968956094990563e-16 5.968957450625462e-16
          5.968956231605753e-16 5.968957597749482e-16 5.968955821762916e-16 5.968957455880872e-16 5.968955201743363e-16 5.968957156379462e-16
          5.968894762263062e-16 5.969099211535575e-16 5.968924140426735e-16 5.969023982016986e-16 5.968938156775959e-16 5.968986572778825e-16
          5.968941120117661e-16 5.968978700585357e-16 5.968955748401345e-16 5.968956884829265e-16 5.968971322719125e-16 5.968930079399369e-16
          5.968966677756797e-16 5.968934965313779e-16 5.968952532674351e-16 5.968962653790774e-16 5.968954613301421e-16 5.968962926090304e-16
          5.968958900841039e-16 5.968956483819098e-16 5.968958081154677e-16 5.968958291331708e-16 5.968958711682859e-16 5.968958701174845e-16
          5.968958270312855e-16 5.968957629276629e-16 5.968957345538241e-16 5.968957166888594e-16 5.968957345539578e-16 5.968957324521728e-16
          5.968957198416234e-16 5.968957408592065e-16 5.968956883150933e-16 5.968957555714091e-16 5.955230256383884e-16 5.963352946226653e-16
          5.915471680878761e-16 5.942620557607612e-16 5.968087331275219e-16 5.968770037059851e-16 5.989634091876997e-16 5.979529889868414e-16
          5.969231433068652e-16 5.969104836815003e-16 5.967877604942026e-16 5.96820226949261e-16 5.967923852650312e-16 5.968250399801717e-16
          5.969025816635694e-16 5.969052679464582e-16 5.969181347863654e-16 5.969130989393088e-16 5.968919713827246e-16 5.968926171546558e-16
          5.968952994947566e-16 5.968952537818949e-16 5.968959920194779e-16 5.968958806262667e-16 5.968960403598777e-16 5.968959589166778e-16
          5.968960151387559e-16 5.968959804597224e-16 5.968960309019723e-16 5.968959883413364e-16 5.968959951720595e-16 5.968960014773342e-16
          5.968959363227687e-16 5.968959846632396e-16 5.969915073707748e-16 5.9692209310408095e-16 5.969136589523289e-16 5.969146153353439e-16
          5.968974634013834e-16 5.968800095776151e-16 5.968810335507073e-16 5.969006311365579e-16 5.969005035502419e-16 5.968945864889625e-16
          5.968955611617783e-16 5.968958538288836e-16 5.968959074235829e-16 5.968959216104111e-16 5.968959294920661e-16 5.96895952085984e-16
          5.968959531368069e-16 5.968354511346073e-16 5.968672427745157e-16 5.968820436202096e-16 5.96886661884705e-16 5.968971027466315e-16
          5.969073257509109e-16 5.969043724061022e-16 5.968933080437687e-16 5.968929440082316e-16 5.968959100513381e-16 5.968959142545235e-16
          5.968959384247118e-16 5.968959373736879e-16 5.968958974401333e-16 5.968959132034317e-16 5.968958963893591e-16 5.968958732699034e-16
          6.086787799936482e-16 6.022377544202386e-16 6.293836139725002e-16 6.129598964244149e-16 6.042126140817704e-16 6.004428549951787e-16
          5.89474816489164e-16 5.930865083997861e-16 5.965391645144694e-16 5.967183608150492e-16 5.973062031698529e-16 5.971949600732863e-16
          5.973228194685432e-16 5.971887845290063e-16 5.968802884983554e-16 5.968648285068333e-16 5.968082356310052e-16 5.968268307826124e-16
          5.969096127587955e-16 5.9690700504017e-16 5.968986749924359e-16 5.968985977548912e-16 5.968958858836003e-16 5.968959305454473e-16
          5.968957072310358e-16 5.968956809590216e-16 5.968956042447503e-16 5.968956436527728e-16 5.968956715010753e-16 5.968956993494146e-16
          5.968956273641238e-16 5.968957145871719e-16 5.96895520174364e-16 5.96895688315173e-16 5.964794117031352e-16 5.967773175170803e-16
          5.96813784968115e-16 5.968150794249108e-16 5.968918299372046e-16 5.969643505860127e-16 5.96956773701283e-16 5.968767541077974e-16
          5.968758163863334e-16 5.968996109077387e-16 5.9689690685122675e-16 5.968958627622356e-16 5.968957729109718e-16 5.968957902504498e-16
          5.968958265058239e-16 5.968958722191058e-16 5.968959068981185e-16 5.971620945594414e-16 5.970184561578312e-16 5.96954474027643e-16
          5.969319585394132e-16 5.968861027587803e-16 5.968449841953055e-16 5.968587978130967e-16 5.969041397002834e-16 5.969062068384474e-16
          5.96894824493933e-16 5.96895293185107e-16 5.968957503171773e-16 5.968958911349364e-16 5.968958974401039e-16 5.968959258138943e-16
          5.968959426279916e-16 5.968959573402549e-16 6.50660434146002e-16 6.264013434841092e-16 6.773820709849483e-16 6.380052626594502e-16
          6.833230636350658e-16 6.406143922519208e-16 6.362207151167502e-16 6.169734792010518e-16 5.994051877804029e-16 5.981232398143806e-16
          5.953847504428982e-16 5.957360821717681e-16 5.95146842118779e-16 5.956947600144702e-16 5.969213591599848e-16 5.969999419558387e-16
          5.972408086230745e-16 5.971727019370493e-16 5.96849376883415e-16 5.968587622197876e-16 5.968835621422995e-16 5.968840960245586e-16
          5.968945460555788e-16 5.968942859590153e-16 5.968956799083744e-16 5.968956599416808e-16 5.968955937358001e-16 5.968956630939282e-16
          5.968956168552155e-16 5.968956441781415e-16 5.968956137025764e-16 5.968956646702996e-16 5.968955264794714e-16 5.968956200078557e-16
          5.989526370157662e-16 5.975068858443087e-16 5.972800232815615e-16 5.972432411507318e-16 5.9689985517940415e-16 5.966049681393333e-16
          5.966487180465915e-16 5.96971852201653e-16 5.969785634900588e-16 5.968827518278001e-16 5.968908547961061e-16 5.968950620105781e-16
          5.968957340286313e-16 5.968956825352348e-16 5.968956116008584e-16 5.96895677806298e-16 5.968957009256214e-16 5.95763021209316e-16
          5.963853173546653e-16 5.966543256943473e-16 5.967602390161101e-16 5.969584185104498e-16 5.971225223780288e-16 5.970547581830217e-16
          5.968651796516134e-16 5.968525317290938e-16 5.968973560994403e-16 5.968970796853947e-16 5.968960981587047e-16 5.968958280822753e-16
          5.968956326184129e-16 5.968955517006494e-16 5.968956399745733e-16 5.9689568831500295e-16 1.1171146051207625e-15 8.487740737840551e-16
          1.6421266873859072e-15 1.1167124765333503e-15 1.1901334705206392e-15 8.915270489402266e-16 6.703526157675855e-16 6.320133873901418e-16
          5.8473602718221e-16 5.91122137731679e-16 6.02587853184867e-16 6.016740659939121e-16 6.042289107021627e-16 6.020753123922297e-16
          5.971264715399295e-16 5.96724608322714e-16 5.955645508357067e-16 5.958156407712754e-16 5.97044340457744e-16 5.970103951167921e-16
          5.969419061882092e-16 5.969399640817235e-16 5.969007449298093e-16 5.969019875013301e-16 5.968952322522613e-16 5.968955948009931e-16
          5.968950893139192e-16 5.9689525377649e-16 5.968953289142634e-16 5.96895442409298e-16 5.968954245442868e-16 5.96895521750689e-16
          5.968954255951021e-16 5.96895511767259e-16 5.913595005609186e-16 5.952139603962352e-16 5.953938511109635e-16 5.955302806028035e-16
          5.970375799594766e-16 5.983548392727993e-16 5.980874838116476e-16 5.966677411726787e-16 5.965704275887701e-16 5.969359728712885e-16
          5.969147055823121e-16 5.968988050229582e-16 5.968956925235815e-16 5.9689551439456e-16 5.968956084483081e-16 5.968956951458846e-16
          5.968957177397144e-16 6.022854586744892e-16 5.991296551116774e-16 5.978670748621131e-16 5.97386402192909e-16 5.965669116378052e-16
          5.959493997426417e-16 5.962532535409987e-16 5.970127372398589e-16 5.970741244706959e-16 5.968954959667366e-16 5.968913891893863e-16
          5.968943799730655e-16 5.968954276974382e-16 5.968956105500593e-16 5.968956609922835e-16 5.96895771334678e-16 5.968958375400131e-16
          3.586667650547224e-15 2.168809808510144e-15 5.782461723012969e-15 3.2140745861257492e-15 4.0439023643256175e-15 2.331116629453352e-15
          1.579784309058404e-15 1.0956345599950122e-15 6.978734069126927e-16 6.467507844202255e-16 5.850266883200358e-16 5.85436228356701e-16
          5.704739387922387e-16 5.796921840018487e-16 5.977071379808672e-16 5.992243046905536e-16 6.024352607797366e-16 6.015780053860922e-16
          5.964380418925138e-16 5.965679998740925e-16 5.967158421949142e-16 5.967275704944231e-16 5.968668883860567e-16 5.968636376166402e-16
          5.968926747317535e-16 5.968921366486723e-16 5.968952322361528e-16 5.968956625719403e-16 5.968947404225894e-16 5.968953709508939e-16
          5.968943810212252e-16 5.96895011024476e-16 5.968943095611613e-16 5.968949169706002e-16 6.662181997476665e-16 6.17810103323468e-16
          6.060673134596188e-16 6.036176685179262e-16 5.975899602608583e-16 5.940496316178965e-16 5.946585541836636e-16 5.987111480737822e-16
          5.984647933272925e-16 5.967858479145245e-16 5.968241194780614e-16 5.968809075505392e-16 5.968947100847979e-16 5.96896477002585e-16
          5.968963650828605e-16 5.9689620692558885e-16 5.968961906368377e-16 5.814844330222679e-16 5.89932757408407e-16 5.938037323381521e-16
          5.957505261042317e-16 5.995517585939583e-16 6.0225349484242645e-16 6.004066791558687e-16 5.966808247473245e-16 5.962088366621371e-16
          5.968737379733776e-16 5.969089401621907e-16 5.969014282538552e-16 5.968978216040044e-16 5.968968610974423e-16 5.968967286865229e-16
          5.968967728234508e-16 5.968968568936362e-16 1.4606110285515192e-14 8.007007716083174e-15 2.327679249067308e-14 1.2035784000111514e-14
          1.5452398900153967e-14 8.023166380366645e-15 5.091908475736104e-15 2.8360611652983748e-15 1.199708154879744e-15 9.252832450498778e-16
          8.009533361249128e-16 7.652693617892535e-16 7.469793427112142e-16 7.220813838134503e-16 6.296865633874338e-16 6.194879313711914e-16
          5.814808546651057e-16 5.849743685820063e-16 5.981970259991962e-16 5.976844229011637e-16 5.975581244858991e-16 5.975017777278633e-16
          5.970217269371762e-16 5.970340801774879e-16 5.969089869661624e-16 5.969147000950484e-16 5.968911108528772e-16 5.968940564184827e-16
          5.968904381299176e-16 5.968926754629446e-16 5.968911874025415e-16 5.968932035280204e-16 5.968914154429887e-16 5.968933553792046e-16
          1.0678648746702927e-15 7.226451745857676e-16 6.07817922172813e-16 5.947080379548601e-16 6.261745762087047e-16 6.630384005746791e-16
          6.464593169041589e-16 6.04773302908287e-16 5.942836579354556e-16 5.971316551897784e-16 5.971612891150576e-16 5.96966032271015e-16
          5.969078343100682e-16 5.968977223328599e-16 5.968971033448212e-16 5.968973597589539e-16 5.968974327938824e-16 7.278246026894279e-16
          6.505148396215861e-16 6.217019837663036e-16 6.092022210490749e-16 6.01490817197398e-16 5.964914136957639e-16 5.957352088926314e-16
          6.002573064616251e-16 6.000994333720042e-16 5.970914905764253e-16 5.968771472602877e-16 5.968856311242306e-16 5.968952553962023e-16
          5.968984426816318e-16 5.968992938936708e-16 5.968994998644083e-16 5.968995702723441e-16 6.225436161686004e-14 3.36957578419435e-14
          9.54789049138707e-14 4.882315964604971e-14 6.0958631977303e-14 3.1107723515273025e-14 2.000041802154254e-14 1.0487971814337227e-14
          4.939665917316879e-15 3.029512340209851e-15 2.0772005045649363e-15 1.7850249949899876e-15 1.3343608923138686e-15 1.305284133315571e-15
          9.827540406606847e-16 9.295580262614095e-16 7.098814859209284e-16 7.033933258007814e-16 5.946714827546829e-16 5.965557728904255e-16
          5.945279788753187e-16 5.948356161581022e-16 5.963172311964252e-16 5.963068046392973e-16 5.967763009330695e-16 5.967728308139367e-16
          5.968718909838536e-16 5.968754848914888e-16 5.968843493932624e-16 5.968902518424672e-16 5.968842085952235e-16 5.96890744127782e-16
          5.968837336064601e-16 5.968903626595888e-16 3.1168573507780523e-15 1.5741908221912307e-15 1.0848048533052175e-15 8.94884920500489e-16
          9.965747605010277e-16 1.1968248892213687e-15 1.0274250824447079e-15 7.517316145515852e-16 6.4385895068146e-16 5.971272329945298e-16
          5.960144554348086e-16 5.966181984834799e-16 5.968457080803039e-16 5.968960749722163e-16 5.969029953401388e-16 5.969030951078976e-16
          5.969029080482007e-16 1.0965606345291355e-15 9.809672661537506e-16 9.12794653367384e-16 8.142442338690639e-16 8.737907578992319e-16
          9.00800293027698e-16 7.786427905721427e-16 6.271012172410361e-16 5.908127356822856e-16 5.958144029628917e-16 5.968856574287315e-16
          5.969400188847905e-16 5.969220554658041e-16 5.969130711453089e-16 5.969098363886054e-16 5.969089105554543e-16 5.96908824383684e-16
          2.760429219736809e-13 1.4809906555833601e-13 3.965431174486949e-13 2.0247803998307838e-13 2.4164847932146553e-13 1.2313733692926855e-13
          7.8793743897941e-14 4.109067075707886e-14 2.281800872469759e-14 1.3694400517973286e-14 9.249667879449869e-15 7.575229243653788e-15
          5.055172397507342e-15 4.739792030336375e-15 2.72948229090999e-15 2.4355510398255538e-15 1.126842070740239e-15 1.0991214810561877e-15
          6.138891705131999e-16 6.03921605138863e-16 6.047080000634567e-16 6.032064732793635e-16 5.991487925871844e-16 5.991283639803636e-16