<?xml version="1.0"?>
<VTKFile type="UnstructuredGrid" version="0.1" byte_order="LittleEndian" header_type="UInt32" compressor="vtkZLibDataCompressor">
  <UnstructuredGrid>
    <Piece NumberOfPoints="1570" NumberOfCells="915">
      <PointData>
        <DataArray type="Int32" Name="libmesh_node_id" format="ascii" RangeMin="1836" RangeMax="14197">
          1958 1959 1999 2029 2070 2071
          2072 2073 2074 2075 2076 2077
          2078 2079 2080 2081 2082 2083
          2115 2116 2117 2118 2119 2120
          2121 2145 2146 2147 2148 2149
          2150 2151 2190 2191 2192 2193
          2194 2195 2196 2197 2198 2199
          2200 2201 2203 2235 2236 2237
          2238 2239 2240 2241 2265 2266
          2267 2268 2269 2270 2271 2310
          2311 2312 2313 2314 2315 2316
          2317 2318 2319 2320 2321 2355
          2356 2357 2358 2359 2360 2361
          2385 2386 2387 2388 2389 2390
          2391 2400 2401 2402 2403 2404
          2405 2406 2407 2408 2409 2410
          2411 2412 2413 2414 2415 2416
          2417 2418 2419 2420 2421 2422
          2423 2424 2425 2426 2427 2428
          2429 2430 2431 2432 2434 2440
          2441 2475 2476 2477 2478 2479
          2480 2481 2482 2483 2484 2485
          2486 2487 2488 2489 2490 2491
          2492 2493 2494 2495 2496 2497
          2498 2499 2500 2501 2502 2503
          2504 2505 2506 2507 2508 2509
          2510 2512 2523 2524 2525 2526
          2527 2528 2529 2530 2531 2532
          2533 2534 2535 2536 2537 2538
          2539 2540 2541 2542 2543 2544
          2545 2546 2547 2548 2549 2550
          2551 2552 2553 2554 2555 2556
          2557 2558 2559 2560 2561 2562
          2563 2564 2565 2566 2567 2568
          2569 2570 2571 2572 2573 2574
          2575 2576 2577 2578 2579 2580
          2581 2582 2583 2584 2585 2586
          2587 2588 2589 2590 2591 2592
          2593 2594 2595 2596 2597 2598
          2599 2600 2601 2602 2603 2604
          2605 2606 2607 2615 2636 2638
          2640 2641 2642 2645 2708 2709
          2710 2711 2712 2713 2714 2715
          2716 2717 2718 2719 2720 2721
          2722 2723 2724 2725 2726 2727
          2728 2729 2730 2731 2742 2743
          2744 2745 2746 2747 2748 2749
          2750 2751 2752 2753 2754 2755
          2756 2757 2758 2759 2760 2761
          2762 2763 2764 2765 2766 2767
          2768 2769 2770 2771 2772 2773
          2774 2775 2776 2777 2778 2779
          2780 2781 2782 2783 2784 2785
          2786 2787 2788 2789 2790 2791
          2792 2793 2794 2795 2803 2804
          2805 2836 2837 2838 2839 2840
          2841 2842 2843 2844 2845 2846
          2847 2848 2849 2850 2851 2852
          2853 2854 2855 2856 2857 2858
          2859 2860 2861 2862 2863 2864
          2865 2866 2867 2868 2869 2870
          2871 2872 2873 2874 2875 2876
          2877 2878 2879 2880 2881 2882
          2883 2884 2885 2886 2887 2888
          2889 2890 2891 2892 2893 2894
          2895 2896 2897 2898 2899 2900
          2901 2902 2903 2904 2905 2906
          2907 2908 2909 2910 2911 2912
          2913 2914 2915 2916 2917 2918
          2919 2920 2921 2922 2923 2924
          2925 2926 2927 2928 2929 2930
          2931 2932 2933 2934 2935 2936
          2937 2938 2939 2940 2941 2942
          2943 2944 2945 2946 2947 2948
          2949 2950 2951 2952 2953 2954
          2955 2956 2957 2958 2959 2960
          2961 2962 2963 2964 2965 2966
          2967 2968 2969 2970 2971 2972
          2973 2974 2975 2976 2977 2978
          2979 2980 2981 2982 2983 2984
          2985 2986 2987 2988 2989 2990
          2991 2992 2993 2994 2995 2996
          2997 2998 2999 3000 3001 3002
          3003 3004 3005 3006 3007 3008
          3009 3010 3011 3012 3013 3014
          3015 3016 3017 3018 3019 3020
          3021 3022 3023 3024 3025 3026
          3027 3028 3029 3030 3031 3032
          3033 3034 3035 3036 3037 3038
          3039 3040 3041 3042 3043 3044
          3045 3046 3047 3048 3049 3050
          3051 3052 3053 3054 3055 3056
          3057 3058 3059 3060 3061 3062
          3063 3064 3065 3066 3067 3068
          3069 3070 3071 3072 3073 3074
          3075 3076 3077 3078 3079 3080
          3081 3082 3083 3084 3085 3086
          3087 3436 3437 3438 3439 3440
          3441 3442 3443 3444 3445 3446
          3447 3448 3449 3450 3451 3452
          3453 3454 3455 3456 3457 3458
          3459 3460 3461 3462 3463 3464
          3465 3466 3467 3468 3469 3470
          3471 3472 3473 3474 3475 3476
          3477 3478 3479 3504 3505 3506
          3507 3508 3509 3510 3511 3512
          3513 3514 3515 3516 3517 3518
          3519 3520 3521 3522 3523 3524
          3525 3526 3527 3528 3529 3530
          3531 3532 3533 3534 3535 3536
          3537 3538 3539 3540 3541 3552
          3553 3554 3555 3556 3557 3558
          3559 3560 3561 3562 3563 3564
          3565 3566 3567 3568 3569 3570
          3571 3572 3573 3574 3575 3576
          3577 3578 3579 3580 3581 3582
          3583 3584 3585 3586 3587 3588
          3589 3590 3591 3592 3593 3594
          3595 3596 3597 3598 3599 3600
          3601 3602 3603 3604 3605 3606
          3607 3608 3609 3610 3611 3612
          3613 3614 3615 3616 3617 3618
          3619 3620 3621 3622 3623 3730
          3731 3732 3733 3734 3735 3736
          3737 3738 3739 3740 3741 3742
          3743 3744 3745 3746 3747 3748
          3749 3760 3761 3762 3763 3764
          3765 3766 3767 3768 3769 3770
          3771 3772 3773 3774 3775 3776
          3777 3778 3779 3780 3781 3782
          3783 3784 3785 3786 3787 3788
          3789 3790 3791 3792 3793 3794
          3795 3796 3797 3798 3799 3800
          3801 3802 3803 3804 3805 3806
          3807 3808 3809 3810 3811 3812
          3813 3814 3815 3816 3817 3818
          3819 3820 3821 3822 3823 3824
          3825 3826 3827 3828 3829 3830
          3831 3832 3833 3834 3835 3836
          3837 3838 3839 3840 3841 3842
          3843 3844 3845 3846 3847 3848
          3849 3850 3851 3852 3853 3854
          3855 3856 3857 3858 3859 3860
          3861 3862 3863 3864 3865 3866
          3867 3868 3869 3870 3871 3872
          3873 3874 3875 3876 3877 3878
          3879 3880 3881 3882 3883 3884
          3885 3886 3887 3888 3889 3890
          3891 3892 3893 3894 3895 3896
          3897 3898 3899 3900 3901 3902
          3903 3904 3905 3906 3907 3908
          3909 3910 3911 3912 3913 3914
          3915 3916 3917 3918 3919 3920
          3921 3922 3923 3924 3925 3926
          3927 3928 3929 3930 3931 3932
          3933 3934 3935 3936 3937 3938
          3939 5374 5375 5376 5377 5378
          5379 5380 5381 5382 5383 5394
          5395 5396 5397 5398 5399 5400
          5401 5402 5403 5414 5415 5416
          5417 5418 5419 5420 5421 5422
          5423 5793 5794 5795 5796 5797
          5798 5799 5800 5801 5802 5803
          5804 5805 5806 5807 5808 5809
          5810 5811 5812 5813 5814 5815
          5816 5817 5818 5819 5820 5821
          5822 5823 5824 5825 5826 5827
          5828 5829 5830 5831 5832 5833
          5834 5835 5836 5837 5838 5839
          5840 5841 5842 5843 5844 5845
          5846 5847 5848 5849 5850 5851
          5852 5853 5854 5855 5856 5857
          5858 5859 5860 5861 5862 5863
          5864 5865 5866 5867 5868 5869
          5870 5871 5872 5873 5874 5875
          5876 5877 5878 5879 5880 5881
          5882 5883 5884 5885 5886 5887
          5888 5889 5890 5891 5892 5893
          5894 5895 5896 5897 5898 5899
          5900 5901 5902 5903 5904 5905
          5906 5907 5908 5909 5910 5911
          5912 5913 5914 5915 5916 5917
          5918 5919 5920 5921 5922 5923
          5924 5925 5926 5927 5928 5929
          5930 5931 5932 5933 5934 5935
          5936 5937 5938 5939 5940 5941
          5942 5943 5944 5945 5946 5947
          5948 5949 5950 5951 5952 5953
          5954 5955 5956 5957 5958 5959
          5960 5961 5962 5963 5964 5965
          5966 5967 5968 5969 5970 5971
          5972 5973 5974 5975 5976 5977
          5978 5979 5980 5981 5982 5983
          13523 13524 13525 13526 13527 13528
          13529 13530 13531 13532 13685 13686
          13687 13688 13689 13690 13691 13692
          13693 13694 13695 13696 13697 13698
          13699 13700 13701 13702 13703 13704
          13705 13706 13707 13708 13709 13710
          13711 13712 13713 13714 13715 13716
          13717 13718 13719 13720 13721 13866
          13867 13868 13869 13870 13871 13872
          13873 13874 13875 13876 13877 13878
          13879 13880 13881 13882 13883 13884
          13885 13886 13887 13888 13889 13890
          13891 13892 13893 13894 13895 13896
          13897 13898 13899 13900 13901 13902
          13903 13904 13905 13906 13907 13908
          13909 13910 13911 13912 13913 13914
          13915 13916 13917 13918 13919 13920
          13921 13922 13923 13924 13925 13926
          13927 13928 13929 13930 13931 13932
          13933 13934 13935 13936 13937 13938
          13939 13940 13941 13942 13943 13944
          13945 13946 13947 13948 13949 13950
          13951 13952 13953 13954 13955 13956
          13957 13958 13959 13960 13961 13962
          13963 13964 13965 13966 13967 13968
          13969 13970 13971 13972 13973 13974
          13975 13976 13977 13978 13979 13980
          13981 13982 13983 13984 13985 14019
          14020 14021 14022 14023 14024 14025
          14026 14027 14028 14029 14030 14031
          14032 14033 14034 14035 14036 14037
          14038 14039 14040 14041 14042 14043
          14044 14045 14046 14047 14048 14049
          14050 14051 14052 14053 14054 14055
          14056 14057 14058 14059 14060 14061
          14062 14063 14064 14065 14066 14067
          14068 14069 14070 14071 14072 14073
          14074 14075 14076 14077 14078 14079
          14080 14081 14082 14083 14084 14085
          14086 14087 14088 14089 14090 14091
          14092 14093 14094 14095 14096 14097
          14098 14099 14100 14101 14102 14103
          14104 14105 14106 14107 14108 14109
          14110 14111 14112 14113 14114 14115
          14116 14117 14118 14119 14120 14121
          14122 14123 14124 14125 14126 14127
          14128 14129 14130 14131 14132 14133
          14134 14135 14136 14137 14138 14139
          14140 14141 14142 14143 14144 14145
          14146 14147 14148 14149 14150 14151
          14152 14153 14154 14155 14156 14157
          14158 14159 14160 14161 14162 14163
          14164 14165 14166 14167 14168 14169
          14170 14171 14172 14173 14174 14175
          14176 14177 14178 14179 14180 14181
          14182 14183 14184 14185 14186 14187
          14188 14189 14190 14191 14192 14193
          14194 14195 14196 14197 1836 1838
          1839 1837 1956 1957 1840 1841
          1960 1961 1879 1878 1998 1880
          2000 1909 1908 2028 1910 2030
          1948 1950 1951 1949 2068 2069
          1952 1953 1954 1955 1962 1963
          1995 1994 2114 1996 1997 2001
          2025 2024 2144 2026 2027 2031
          2189 2234 2264 2354 2384 2188
          13675 13676 13677 13680 13683 2309
          13858 13859 13862 13864 14009 14010
          14011 14014 2308 14017
        </DataArray>
        <DataArray type="Float64" Name="bounds" format="ascii" RangeMin="0" RangeMax="0">
          0 0 0 0 0 0
          0 0 0 0 0 0
          0 0 0 0 0 0
          0 0 0 0 0 0
          0 0 0 0 0 0
          0 0 0 0 0 0
          0 0 0 0 0 0
          0 0 0 0 0 0
          0 0 0 0 0 0
          0 0 0 0 0 0
          0 0 0 0 0 0
          0 0 0 0 0 0
          0 0 0 0 0 0
          0 0 0 0 0 0
          0 0 0 0 0 0
          0 0 0 0 0 0
          0 0 0 0 0 0
          0 0 0 0 0 0
          0 0 0 0 0 0
          0 0 0 0 0 0
          0 0 0 0 0 0
          0 0 0 0 0 0
          0 0 0 0 0 0
          0 0 0 0 0 0
          0 0 0 0 0 0
          0 0 0 0 0 0
          0 0 0 0 0 0
          0 0 0 0 0 0
          0 0 0 0 0 0
          0 0 0 0 0 0
          0 0 0 0 0 0
          0 0 0 0 0 0
          0 0 0 0 0 0
          0 0 0 0 0 0
          0 0 0 0 0 0
          0 0 0 0 0 0
          0 0 0 0 0 0
          0 0 0 0 0 0
          0 0 0 0 0 0
          0 0 0 0 0 0
          0 0 0 0 0 0
          0 0 0 0 0 0
          0 0 0 0 0 0
          0 0 0 0 0 0
          0 0 0 0 0 0
          0 0 0 0 0 0
          0 0 0 0 0 0
          0 0 0 0 0 0
          0 0 0 0 0 0
          0 0 0 0 0 0
          0 0 0 0 0 0
          0 0 0 0 0 0
          0 0 0 0 0 0
          0 0 0 0 0 0
          0 0 0 0 0 0
          0 0 0 0 0 0
          0 0 0 0 0 0
          0 0 0 0 0 0
          0 0 0 0 0 0
          0 0 0 0 0 0
          0 0 0 0 0 0
          0 0 0 0 0 0
          0 0 0 0 0 0
          0 0 0 0 0 0
          0 0 0 0 0 0
          0 0 0 0 0 0
          0 0 0 0 0 0
          0 0 0 0 0 0
          0 0 0 0 0 0
          0 0 0 0 0 0
          0 0 0 0 0 0
          0 0 0 0 0 0
          0 0 0 0 0 0
          0 0 0 0 0 0
          0 0 0 0 0 0
          0 0 0 0 0 0
          0 0 0 0 0 0
          0 0 0 0 0 0
          0 0 0 0 0 0
          0 0 0 0 0 0
          0 0 0 0 0 0
          0 0 0 0 0 0
          0 0 0 0 0 0
          0 0 0 0 0 0
          0 0 0 0 0 0
          0 0 0 0 0 0
          0 0 0 0 0 0
          0 0 0 0 0 0
          0 0 0 0 0 0
          0 0 0 0 0 0
          0 0 0 0 0 0
          0 0 0 0 0 0
          0 0 0 0 0 0
          0 0 0 0 0 0
          0 0 0 0 0 0
          0 0 0 0 0 0
          0 0 0 0 0 0
          0 0 0 0 0 0
          0 0 0 0 0 0
          0 0 0 0 0 0
          0 0 0 0 0 0
          0 0 0 0 0 0
          0 0 0 0 0 0
          0 0 0 0 0 0
          0 0 0 0 0 0
          0 0 0 0 0 0
          0 0 0 0 0 0
          0 0 0 0 0 0
          0 0 0 0 0 0
          0 0 0 0 0 0
          0 0 0 0 0 0
          0 0 0 0 0 0
          0 0 0 0 0 0
          0 0 0 0 0 0
          0 0 0 0 0 0
          0 0 0 0 0 0
          0 0 0 0 0 0
          0 0 0 0 0 0
          0 0 0 0 0 0
          0 0 0 0 0 0
          0 0 0 0 0 0
          0 0 0 0 0 0
          0 0 0 0 0 0
          0 0 0 0 0 0
          0 0 0 0 0 0
          0 0 0 0 0 0
          0 0 0 0 0 0
          0 0 0 0 0 0
          0 0 0 0 0 0
          0 0 0 0 0 0
          0 0 0 0 0 0
          0 0 0 0 0 0
          0 0 0 0 0 0
          0 0 0 0 0 0
          0 0 0 0 0 0
          0 0 0 0 0 0
          0 0 0 0 0 0
          0 0 0 0 0 0
          0 0 0 0 0 0
          0 0 0 0 0 0
          0 0 0 0 0 0
          0 0 0 0 0 0
          0 0 0 0 0 0
          0 0 0 0 0 0
          0 0 0 0 0 0
          0 0 0 0 0 0
          0 0 0 0 0 0
          0 0 0 0 0 0
          0 0 0 0 0 0
          0 0 0 0 0 0
          0 0 0 0 0 0
          0 0 0 0 0 0
          0 0 0 0 0 0
          0 0 0 0 0 0
          0 0 0 0 0 0
          0 0 0 0 0 0
          0 0 0 0 0 0
          0 0 0 0 0 0
          0 0 0 0 0 0
          0 0 0 0 0 0
          0 0 0 0 0 0
          0 0 0 0 0 0
          0 0 0 0 0 0
          0 0 0 0 0 0
          0 0 0 0 0 0
          0 0 0 0 0 0
          0 0 0 0 0 0
          0 0 0 0 0 0
          0 0 0 0 0 0
          0 0 0 0 0 0
          0 0 0 0 0 0
          0 0 0 0 0 0
          0 0 0 0 0 0
          0 0 0 0 0 0
          0 0 0 0 0 0
          0 0 0 0 0 0
          0 0 0 0 0 0
          0 0 0 0 0 0
          0 0 0 0 0 0
          0 0 0 0 0 0
          0 0 0 0 0 0
          0 0 0 0 0 0
          0 0 0 0 0 0
          0 0 0 0 0 0
          0 0 0 0 0 0
          0 0 0 0 0 0
          0 0 0 0 0 0
          0 0 0 0 0 0
          0 0 0 0 0 0
          0 0 0 0 0 0
          0 0 0 0 0 0
          0 0 0 0 0 0
          0 0 0 0 0 0
          0 0 0 0 0 0
          0 0 0 0 0 0
          0 0 0 0 0 0
          0 0 0 0 0 0
          0 0 0 0 0 0
          0 0 0 0 0 0
          0 0 0 0 0 0
          0 0 0 0 0 0
          0 0 0 0 0 0
          0 0 0 0 0 0
          0 0 0 0 0 0
          0 0 0 0 0 0
          0 0 0 0 0 0
          0 0 0 0 0 0
          0 0 0 0 0 0
          0 0 0 0 0 0
          0 0 0 0 0 0
          0 0 0 0 0 0
          0 0 0 0 0 0
          0 0 0 0 0 0
          0 0 0 0 0 0
          0 0 0 0 0 0
          0 0 0 0 0 0
          0 0 0 0 0 0
          0 0 0 0 0 0
          0 0 0 0 0 0
          0 0 0 0 0 0
          0 0 0 0 0 0
          0 0 0 0 0 0
          0 0 0 0 0 0
          0 0 0 0 0 0
          0 0 0 0 0 0
          0 0 0 0 0 0
          0 0 0 0 0 0
          0 0 0 0 0 0
          0 0 0 0 0 0
          0 0 0 0 0 0
          0 0 0 0 0 0
          0 0 0 0 0 0
          0 0 0 0 0 0
          0 0 0 0 0 0
          0 0 0 0 0 0
          0 0 0 0 0 0
          0 0 0 0 0 0
          0 0 0 0 0 0
          0 0 0 0 0 0
          0 0 0 0 0 0
          0 0 0 0 0 0
          0 0 0 0 0 0
          0 0 0 0 0 0
          0 0 0 0 0 0
          0 0 0 0 0 0
          0 0 0 0 0 0
          0 0 0 0 0 0
          0 0 0 0 0 0
          0 0 0 0 0 0
          0 0 0 0 0 0
          0 0 0 0 0 0
          0 0 0 0 0 0
          0 0 0 0 0 0
          0 0 0 0 0 0
          0 0 0 0 0 0
          0 0 0 0 0 0
          0 0 0 0 0 0
          0 0 0 0 0 0
          0 0 0 0 0 0
          0 0 0 0 0 0
          0 0 0 0 0 0
          0 0 0 0
        </DataArray>
        <DataArray type="Float64" Name="gradient_error" format="ascii" RangeMin="9.117901976611462e-13" RangeMax="1.9303209438948687e-7">
          2.0752552282638936e-10 2.007195233267667e-10 1.239958832876393e-10 5.407824274813462e-11 7.0531608532248235e-9 8.7318664854222e-9
          2.312902349510279e-9 3.6563445708719597e-9 1.5580941552946212e-9 1.9925674761463763e-9 9.139514921086838e-10 1.2049455139544131e-9
          4.123651079969498e-10 5.94654895102312e-10 6.259327504986851e-11 1.3910454130499064e-10 6.1701180614524925e-12 9.242566616650981e-12
          6.013512831000072e-9 3.2013251558958645e-9 1.7673337486784498e-9 1.0006455156420055e-9 4.837948531908018e-10 1.3186957722658474e-10
          7.733049570553427e-12 1.4797038779935188e-9 8.347439928907087e-10 5.326781430849288e-10 3.532665664016366e-10 1.851876577681678e-10
          5.057351028156091e-11 2.9956839755381483e-12 3.410122538040226e-8 5.6219072170503026e-8 2.6946565643757424e-8 4.543072266041207e-8
          1.7131137608421417e-8 3.3979706861114264e-8 8.755019241200588e-9 2.172715499372383e-8 2.2153927261595494e-9 6.410397381419905e-9
          7.775936078622526e-11 1.3793872372424086e-10 7.783198223123504e-12 6.344600279391171e-9 3.380938501266434e-9 1.906615484410229e-9
          1.1004034756998094e-9 5.268352103484801e-10 1.2818473699090166e-10 7.57839546972431e-12 2.5238098612099564e-9 1.430022636916785e-9
          9.905981281748512e-10 6.789904137060013e-10 3.2306264176979825e-10 7.749458482038897e-11 5.300016857020347e-12 3.2877450507432235e-8
          4.9841453548878546e-8 4.736822594976325e-8 4.230002025151349e-8 7.50185818323408e-8 3.101405543210383e-8 7.010934733043189e-8
          1.7799911908347494e-8 2.95945166892905e-8 6.541206742607362e-9 7.558154548728927e-10 4.693378440538075e-10 2.068247737169894e-9
          2.0340646114228528e-9 1.8757984558096244e-9 1.1302830620459931e-9 3.2687590420968457e-10 5.042357271775658e-11 3.909075162561967e-12
          2.664467720330985e-9 1.538079394363624e-9 1.1482341657243543e-9 8.117616748659431e-10 3.632693857235791e-10 7.913486862313025e-11
          6.2185124997671605e-12 5.103030284511346e-9 1.7481680667547706e-8 2.534506774815906e-8 1.12086138730615e-7 3.8678849880319555e-8
          5.237659057324205e-8 7.548930656234358e-8 7.754984766337593e-9 3.0745202989240766e-8 2.3709798995892735e-8 1.949465268226798e-8
          1.8052096379705626e-8 2.7287604377486687e-8 7.687591426750746e-9 1.5822736900968945e-8 3.7433520978528204e-8 1.222836367722245e-7
          2.148504586621071e-8 1.1453150718011238e-8 5.994572563929554e-10 7.65850234705523e-10 1.8321986167817336e-8 1.1442444852485533e-8
          1.2696177750964635e-10 6.730008906114303e-9 4.343932341166973e-9 4.6101658266767355e-10 8.748002690511681e-10 2.675107732618281e-10
          4.170600806593518e-9 3.1400442393371324e-8 2.3896281331338846e-8 1.7018018491128346e-9 2.905275608056088e-11 1.4594421062600458e-11
          5.4564034266772435e-11 1.2655375442530911e-8 3.2641121851897547e-8 3.918186257202029e-8 8.799793990988659e-8 9.996236317517048e-8
          7.912670625161841e-8 8.052842273731152e-8 3.6268165644783185e-8 3.6816496975808865e-8 4.586518665096347e-8 9.896319064906112e-8
          1.0499294001399736e-7 9.034898047103827e-8 2.4486499032015286e-8 1.9155132687874677e-10 3.951505482424777e-10 1.1621250953216486e-10
          7.556028233541538e-10 7.363613038163458e-11 4.501241972146269e-11 9.868347875017343e-11 7.886555511344209e-11 2.555154349407626e-10
          2.3875949202645944e-11 5.5104029285933476e-11 1.1365381501700283e-9 2.4511730828308375e-11 5.904763147671073e-11 1.5360207736699182e-11
          9.590079164118033e-12 3.959574048215317e-12 2.553371301119608e-12 3.882719025209883e-12 4.413515237042856e-12 1.4242699633319954e-12
          7.122848641404377e-12 4.94431144887583e-12 7.75513609394158e-8 8.075235434043855e-8 9.808801436549867e-8 1.1611402476559462e-7
          6.066590725431777e-8 8.644586392796923e-8 1.2918994261878926e-7 4.5933635529411413e-8 2.9457332006033942e-8 4.022338351461708e-8
          7.420691782893837e-8 9.138898560459381e-8 1.0671605333930223e-7 4.889866768466408e-8 1.288465600171298e-8 5.9149773570345725e-8
          1.1491617120679447e-7 2.678140999068135e-8 9.110982081455329e-8 3.5506591212258344e-8 2.8037794807685974e-8 3.522838814013886e-8
          3.06080141679808e-8 2.3943160548604628e-8 4.265476477956928e-8 3.489228700305169e-8 2.8097047854376602e-8 2.4012100730960934e-8
          2.249351404909798e-8 2.0663101884130516e-8 3.239895691621159e-8 4.0512765190745925e-8 2.0517135377748426e-8 2.481459595582455e-8
          1.903426842573316e-8 5.15382039119973e-8 3.918059856202181e-8 1.3786222747395255e-8 4.184805722425367e-8 4.2131926586787334e-8
          1.5494354525570907e-8 2.026200446784257e-8 2.2709055892454324e-8 4.656636845106184e-8 5.227123861353525e-8 4.9474153748888215e-8
          2.1658632736991142e-8 1.198047642906381e-8 8.820800321144696e-9 2.4182856695127166e-8 3.3535230360549907e-8 4.874657743990202e-9
          1.9614813951947967e-8 2.8181670330836578e-8 7.582053169868573e-9 2.3306601224154994e-8 1.3689059060728679e-8 5.161174378678139e-10
          3.9883800913911265e-8 4.198952525819359e-8 3.760186081340786e-8 1.0693243457987209e-8 1.6321062644934735e-8 1.215072970604572e-8
          1.5588273286999887e-8 7.818459217910321e-9 1.4627910207912586e-8 2.0145911504877588e-9 2.809214800608435e-9 5.76241299945494e-9
          1.3898045752924856e-9 6.824555916358819e-9 8.992669367947928e-9 1.621169358967723e-8 3.6701531982340537e-9 5.2754286950346e-9
          1.620628009224914e-8 3.118203077595807e-9 8.119516248374965e-9 5.863941955379823e-10 6.265176990677849e-10 3.8847964866259704e-10
          2.297227920337747e-8 1.0812956865390767e-8 6.734240357671972e-10 1.708374991684949e-9 1.1573120402050703e-9 9.96993046068059e-11
          1.5552995033406288e-10 1.8599189118347562e-10 4.379525987448638e-11 2.321811177825017e-10 1.680798216549632e-10 1.7700707943550678e-10
          4.742772313297714e-10 1.6507838479441693e-9 5.541471188818836e-10 5.45198992738959e-10 1.5900611173980693e-9 2.72362814542628e-11
          6.0445415516768e-11 5.6864779685350393e-11 1.8593433721605034e-10 5.362508665960345e-10 1.5293383868519695e-9 5.328414385393277e-11
          8.513435202435201e-12 7.094943106580792e-12 1.567157640067172e-11 1.2304694438327457e-11 2.0181907992262545e-12 2.6130653084577e-12
          2.8741880450232246e-12 5.6764510107263845e-12 8.937812475983193e-12 3.1353107815887496e-12 5.373213319763e-10 8.635348109406767e-10
          2.0818588601906043e-9 3.9541393336591636e-9 3.2470669400700557e-10 5.655945199537925e-10 9.094572753330734e-10 3.6263963884049076e-9
          7.04474385637765e-9 8.064823459005795e-10 3.392673068280778e-8 3.62306597622892e-8 4.370013964049357e-8 4.5425724437109616e-8
          3.0797532755489794e-8 3.159438074880198e-8 1.4216893517112866e-8 1.69107767770532e-8 1.993873227706913e-8 1.3924456069262247e-8
          5.3473548598179354e-8 5.462078911193003e-8 3.2797443239547235e-8 1.9604660036993535e-8 2.6756363541075377e-8 1.8762548912531185e-8
          8.612217994281313e-9 1.1299733627783372e-8 1.0961015427832472e-8 1.3987249261285433e-8 6.915350651682424e-10 1.2081987288584423e-9
          2.5625003100607326e-9 2.102338728602791e-8 1.5563118144958535e-8 1.2706353265466204e-8 1.7358717343606114e-8 4.368340827678298e-10
          1.0505026069043812e-8 8.469552403344e-9 1.7974946242480246e-9 6.586508019540585e-9 1.0516974110640576e-8 4.163213072107303e-9
          9.678410743894288e-11 1.8937142887148054e-10 6.3432028507690185e-9 5.0769005805057e-9 1.137688137225146e-10 3.3665425283346428e-9
          2.6798778860313235e-9 2.811487136044079e-10 2.3806820633522877e-9 1.2121203209378174e-9 8.792131143796057e-11 5.489992516099489e-10
          2.2496308224301592e-10 2.6983850702931256e-8 2.636781762843935e-8 2.468269504168091e-8 1.9013496909292055e-8 2.056892789554395e-8
          2.3147948167480145e-8 2.1356425635963324e-8 2.8898438566162525e-8 2.2573654778456117e-8 2.525114764371975e-8 2.5331455062474566e-8
          2.5540450149262178e-8 2.3830565019206386e-8 2.7835186415986123e-8 1.4099388103804893e-8 1.8847746151180577e-8 1.7614376288967105e-8
          2.0551663050877695e-8 2.490658591862175e-8 2.2568557031279745e-8 2.1445833139685737e-8 2.369951193989631e-8 2.2824132748055383e-8
          2.2597477406977914e-8 2.5290921377686164e-8 2.0646317983030675e-8 2.2045092020684587e-8 2.1555279163760794e-8 1.9383202581097666e-8
          2.4830466848512867e-8 2.420243235642503e-8 2.6174222061743475e-8 2.34438660583385e-8 3.2165241126236964e-8 3.148580152117656e-8
          2.5265064902672522e-8 2.7924775448661472e-8 3.4288363516719124e-8 2.8661872852044912e-8 3.124290773850848e-8 2.842660158729879e-8
          3.031019411105772e-8 3.314437440860756e-8 1.788951853139511e-8 2.294125968183958e-8 2.6037905637414015e-8 2.9338409215109995e-8
          3.8719497019168376e-8 3.7401615047667235e-8 3.2955461533520025e-8 3.5418269517240096e-8 4.083777720377269e-8 3.8444382366938246e-8
          4.062097829591227e-8 3.2719578328990835e-8 3.650433525341123e-8 4.043201019247575e-8 2.442524287099578e-8 3.004813675086624e-8
          3.5320217033673266e-8 3.606459942821998e-8 2.2654209937125273e-8 2.6757604183013482e-8 2.3736032526968874e-8 2.8391209593650492e-8
          1.669222798138779e-8 1.8271792381141086e-8 1.8989997368576132e-8 2.769694083032006e-8 2.9516927163228532e-8 1.9642547298759734e-8
          2.46218511080157e-8 3.0200948465194085e-8 2.5375663184018097e-8 3.209615521296468e-8 1.716141904955957e-8 1.9397359315663755e-8
          1.9625099369622435e-8 3.165021641515575e-8 3.399325339593206e-8 2.1087697068982227e-8 1.7731590746330707e-8 1.6300527023399844e-8
          1.7733622981009654e-8 3.016332592370622e-8 2.9737007242981144e-8 2.7415711655384615e-8 2.7975430859870058e-8 1.4544670484998386e-8
          2.8802828507094546e-8 2.6341038965062343e-8 1.2568636544944896e-8 2.1307252399644893e-8 2.2107778822322416e-8 2.0081512366269627e-8
          5.593114737850988e-8 5.20268909740486e-8 4.8380874095515195e-8 4.5958486015552607e-8 4.0992231575336546e-8 4.697743823385305e-8
          4.454468761752625e-8 4.548597541307754e-8 4.708977028441143e-8 5.425530755727213e-8 5.495084191781701e-8 3.708458820937055e-8
          4.497702587925261e-8 5.0140453571163184e-8 3.68364008823176e-8 4.231195413656927e-8 5.135717438333409e-8 4.587982982369633e-8
          5.035337382642528e-8 5.685766030739542e-8 2.7280961043531732e-8 4.0036190415057066e-8 5.578234847423822e-8 5.218343004404906e-8
          3.001834903273643e-8 4.8164361201046234e-8 2.549527248889161e-8 5.962610205214823e-8 2.5979678460009867e-8 3.406083594823359e-8
          2.636523399546125e-8 3.6051374446382085e-8 1.6825966509631806e-8 1.9669092428676924e-8 1.9458077042373967e-8 3.6542666668889674e-8
          3.929301501941383e-8 2.169675784228079e-8 2.6465844751123006e-8 3.801688731873111e-8 2.616880589930635e-8 3.9725775697746546e-8
          1.550895703989988e-8 1.891942507653047e-8 2.1728687438311964e-8 4.222107507899306e-8 4.5064234649042835e-8 2.130822070019668e-8
          1.3714209599134036e-8 1.2511834081324919e-8 2.728274433311377e-8 2.4716847171361386e-8 1.0322593961242023e-8 2.4995086638552957e-8
          2.2483511407161923e-8 9.414389963291587e-9 1.8444434974014365e-8 1.642644637570279e-8 2.522288168907984e-8 3.808049986941635e-8
          2.961375865271866e-8 4.2319670090361625e-8 9.005460486881481e-9 8.132778919202443e-9 2.199130795729373e-8 1.9618137884716783e-8
          6.146863167946222e-9 1.8471250175817776e-8 1.623489250060909e-8 5.993695885069712e-9 1.4003074202942553e-8 1.1306311922868183e-8
          2.230988883110636e-8 1.989092927399006e-8 2.4822405171769833e-8 2.354519806046713e-8 5.998113205103764e-9 7.157349709344593e-9
          1.120946802149116e-8 1.2553822380753525e-8 4.841305680189243e-9 9.68057104131745e-9 4.476905047140153e-9 7.681016104562605e-9
          8.823869451997938e-9 6.480185507000197e-9 2.5329444960978937e-8 2.3858883591303574e-8 1.6956562822346728e-8 3.748042825537343e-9
          8.02253010226934e-9 2.7567598535195264e-9 6.3679057527801665e-9 2.7687912324586693e-9 5.2838796107934125e-9 4.12172248522437e-9
          2.175256287384733e-8 1.9177193904665372e-8 1.3491717340683502e-8 1.3251675757650397e-8 2.6640169540440342e-8 1.4961798056650457e-8
          2.075157592403098e-8 4.697961258760061e-8 4.081948889588629e-8 4.760918407607879e-10 6.521302628060349e-9 7.414036948960899e-9
          3.718226809843329e-8 1.6423887364204625e-8 1.4538048178060442e-8 1.7409957875772965e-8 2.187780603812964e-8 3.3494218893432544e-8
          3.990997917910179e-8 6.492210019413475e-10 8.168790480039377e-9 8.760197944620828e-9 4.158608228367762e-8 4.0773167344954916e-8