<?xml version="1.0"?>
<VTKFile type="UnstructuredGrid" version="0.1" byte_order="LittleEndian" header_type="UInt32" compressor="vtkZLibDataCompressor">
  <UnstructuredGrid>
    <Piece NumberOfPoints="1372" NumberOfCells="875">
      <PointData>
        <DataArray type="Int32" Name="libmesh_node_id" format="ascii" RangeMin="0" RangeMax="13825">
          0 1 2 3 4 5
          6 7 8 9 10 11
          12 13 14 15 16 17
          18 19 20 21 22 23
          24 25 26 27 28 29
          30 31 32 33 34 35
          36 37 38 39 40 41
          42 43 44 45 46 47
          48 49 50 51 120 121
          122 123 124 125 126 127
          128 129 130 131 132 133
          134 135 136 137 138 139
          140 141 142 143 144 145
          180 181 182 183 184 185
          186 187 188 189 190 191
          192 193 194 195 196 197
          198 199 200 201 202 203
          204 205 240 241 242 243
          244 245 246 247 248 249
          250 251 252 253 254 255
          256 257 258 259 260 261
          262 263 264 265 300 301
          302 303 304 305 306 307
          308 309 310 311 312 330
          331 332 333 334 335 336
          337 338 339 340 341 342
          360 361 362 363 364 365
          366 367 368 369 370 371
          372 373 374 375 376 377
          378 379 380 381 382 383
          384 385 420 421 422 423
          424 425 426 427 428 429
          430 431 432 450 451 452
          453 454 455 456 457 458
          459 460 461 462 480 481
          482 483 484 485 486 487
          488 489 490 491 492 493
          494 495 496 497 498 499
          500 501 502 503 504 505
          540 541 542 543 544 545
          546 547 548 549 550 551
          552 570 571 572 573 574
          575 576 577 578 579 580
          581 582 600 601 602 603
          604 605 606 607 608 609
          610 611 612 613 614 615
          616 617 618 619 620 621
          622 623 624 625 660 661
          662 663 664 665 666 667
          668 669 670 671 672 690
          691 692 693 694 695 696
          697 698 699 700 701 702
          720 721 722 723 724 725
          726 727 728 729 730 731
          732 733 734 735 736 737
          738 739 740 741 742 743
          744 745 780 781 782 783
          784 785 786 787 788 789
          790 791 792 810 811 812
          813 814 815 816 817 818
          819 820 821 822 840 841
          842 843 844 845 846 847
          848 849 850 851 852 853
          854 855 856 857 858 859
          860 861 862 863 864 865
          900 901 902 903 904 905
          906 907 908 909 910 911
          912 930 931 932 933 934
          935 936 937 938 939 940
          941 942 960 961 962 963
          964 965 966 967 968 969
          970 971 972 973 974 975
          976 977 978 979 980 981
          982 983 984 985 1020 1021
          1022 1023 1024 1025 1026 1027
          1028 1029 1030 1031 1032 1050
          1051 1052 1053 1054 1055 1056
          1057 1058 1059 1060 1061 1062
          1080 1081 1082 1083 1084 1085
          1086 1087 1088 1089 1090 1091
          1092 1093 1094 1095 1096 1097
          1098 1099 1100 1101 1102 1103
          1104 1105 1140 1141 1142 1143
          1144 1145 1146 1147 1148 1149
          1150 1151 1152 1170 1171 1172
          1173 1174 1175 1176 1177 1178
          1179 1180 1181 1182 1200 1201
          1202 1203 1204 1205 1206 1207
          1208 1209 1210 1211 1212 1213
          1214 1215 1216 1217 1218 1219
          1220 1221 1222 1223 1224 1225
          1260 1261 1262 1263 1264 1265
          1266 1267 1268 1269 1270 1271
          1272 1290 1291 1292 1293 1294
          1295 1296 1297 1298 1299 1300
          1301 1302 1320 1321 1322 1323
          1324 1325 1326 1327 1328 1329
          1330 1331 1332 1333 1334 1335
          1336 1337 1338 1339 1340 1341
          1342 1343 1344 1345 1380 1381
          1382 1383 1384 1385 1386 1387
          1388 1389 1390 1391 1392 1410
          1411 1412 1413 1414 1415 1416
          1417 1418 1419 1420 1421 1422
          1440 1441 1442 1443 1444 1445
          1446 1447 1448 1449 1450 1451
          1452 1453 1454 1455 1456 1457
          1458 1459 1460 1461 1462 1463
          1464 1465 1500 1501 1502 1503
          1504 1505 1506 1507 1508 1509
          1510 1511 1512 1530 1531 1532
          1533 1534 1535 1536 1537 1538
          1539 1540 1541 1542 1560 1561
          1562 1563 1564 1565 1566 1567
          1568 1569 1570 1571 1572 1573
          1574 1575 1576 1577 1578 1579
          1580 1581 1582 1583 1620 1621
          1622 1623 1624 1625 1626 1627
          1628 1629 1630 1631 1650 1651
          1652 1653 1654 1655 1656 1657
          1658 1659 1660 1661 1680 1681
          1682 1683 1684 1685 1686 1687
          1688 1689 1690 1691 1692 1693
          1694 1695 1696 1697 1698 1699
          1700 1701 1702 1703 1740 1741
          1742 1743 1744 1745 1746 1747
          1748 1749 1750 1751 1770 1771
          1772 1773 1774 1775 1776 1777
          1778 1779 1780 1781 1800 1801
          1802 1803 1804 1805 1806 1807
          1808 1809 1810 1811 1812 1813
          1814 1815 1816 1817 1818 1819
          1820 1821 1822 1823 1860 1861
          1862 1863 1864 1865 1866 1867
          1868 1869 1870 1871 1890 1891
          1892 1893 1894 1895 1896 1897
          1898 1899 1900 1901 1920 1921
          1922 1923 1924 1925 1926 1927
          1928 1929 1930 1931 1932 1933
          1934 1935 1936 1937 1938 1939
          1940 1941 1942 1943 1980 1981
          1982 1983 1984 1985 1986 1987
          1988 1989 1990 1991 2010 2011
          2012 2013 2014 2015 2016 2017
          2018 2019 2020 2021 2040 2041
          2042 2043 2044 2045 2046 2047
          2048 2049 2050 2051 2052 2053
          2054 2055 2056 2057 2058 2059
          2060 2061 2062 2063 2100 2101
          2102 2103 2104 2105 2106 2107
          2108 2109 2110 2111 2130 2131
          2132 2133 2134 2135 2136 2137
          2138 2139 2140 2141 2160 2161
          2162 2163 2164 2165 2166 2167
          2168 2169 2170 2171 2172 2173
          2174 2175 2176 2177 2178 2179
          2180 2181 2220 2221 2222 2223
          2224 2225 2226 2227 2228 2229
          2230 2250 2251 2252 2253 2254
          2255 2256 2257 2258 2259 2260
          2280 2281 2282 2283 2284 2285
          2286 2287 2288 2289 2290 2291
          2292 2293 2294 2295 2296 2297
          2298 2299 2300 2301 2340 2341
          2342 2343 2344 2345 2346 2347
          2348 2349 2350 2370 2371 2372
          2373 2374 2375 2376 2377 2378
          2379 2380 13350 13351 13352 13353
          13354 13355 13356 13357 13358 13359
          13360 13361 13362 13363 13364 13365
          13366 13367 13368 13369 13370 13371
          13372 13373 13374 13375 13376 13377
          13378 13379 13380 13381 13382 13383
          13384 13385 13386 13387 13388 13389
          13390 13391 13392 13393 13394 13395
          13396 13397 13398 13399 13400 13401
          13402 13403 13404 13405 13406 13407
          13408 13409 13410 13411 13412 13413
          13414 13415 13416 13417 13418 13419
          13420 13421 13422 13423 13424 13425
          13426 13427 13428 13429 13430 13431
          13432 13433 13434 13435 13436 13437
          13438 13439 13440 13441 13442 13443
          13444 13445 13446 13447 13448 13449
          13450 13451 13452 13453 13454 13455
          13456 13457 13458 13459 13460 13461
          13462 13463 13464 13465 13466 13467
          13468 13469 13470 13471 13472 13473
          13474 13475 13476 13477 13478 13479
          13480 13481 13482 13483 13484 13485
          13486 13487 13488 13489 13490 13491
          13492 13493 13494 13495 13496 13497
          13498 13502 13503 13505 13506 13508
          13533 13534 13535 13536 13537 13538
          13539 13540 13541 13542 13543 13544
          13545 13546 13547 13548 13549 13550
          13551 13552 13553 13554 13555 13556
          13557 13558 13559 13560 13561 13562
          13563 13564 13565 13566 13567 13568
          13569 13570 13571 13572 13573 13574
          13575 13576 13577 13578 13579 13580
          13581 13582 13583 13584 13585 13586
          13587 13588 13589 13590 13591 13592
          13593 13594 13595 13596 13597 13598
          13599 13600 13601 13602 13603 13604
          13605 13606 13607 13608 13609 13610
          13611 13612 13613 13614 13615 13616
          13617 13618 13619 13620 13621 13622
          13623 13624 13625 13626 13627 13628
          13629 13630 13631 13632 13633 13634
          13635 13636 13637 13638 13641 13643
          13644 13646 13722 13723 13724 13725
          13726 13727 13728 13729 13730 13731
          13732 13733 13734 13735 13736 13737
          13738 13739 13740 13741 13742 13743
          13744 13745 13746 13747 13748 13749
          13750 13751 13752 13753 13754 13755
          13756 13757 13758 13759 13760 13761
          13762 13763 13764 13765 13766 13767
          13768 13769 13770 13771 13772 13773
          13774 13775 13776 13777 13778 13779
          13780 13781 13782 13783 13784 13785
          13786 13787 13788 13789 13790 13791
          13792 13793 13794 13795 13796 13797
          13798 13799 13800 13801 13802 13803
          13804 13805 13806 13807 13808 13809
          13810 13811 13812 13813 13814 13815
          13816 13817 13818 13819 13820 13821
          13822 13823 13824 13825
        </DataArray>
        <DataArray type="Float64" Name="bounds" format="ascii" RangeMin="0" RangeMax="0">
          0 0 0 0 0 0
          0 0 0 0 0 0
          0 0 0 0 0 0
          0 0 0 0 0 0
          0 0 0 0 0 0
          0 0 0 0 0 0
          0 0 0 0 0 0
          0 0 0 0 0 0
          0 0 0 0 0 0
          0 0 0 0 0 0
          0 0 0 0 0 0
          0 0 0 0 0 0
          0 0 0 0 0 0
          0 0 0 0 0 0
          0 0 0 0 0 0
          0 0 0 0 0 0
          0 0 0 0 0 0
          0 0 0 0 0 0
          0 0 0 0 0 0
          0 0 0 0 0 0
          0 0 0 0 0 0
          0 0 0 0 0 0
          0 0 0 0 0 0
          0 0 0 0 0 0
          0 0 0 0 0 0
          0 0 0 0 0 0
          0 0 0 0 0 0
          0 0 0 0 0 0
          0 0 0 0 0 0
          0 0 0 0 0 0
          0 0 0 0 0 0
          0 0 0 0 0 0
          0 0 0 0 0 0
          0 0 0 0 0 0
          0 0 0 0 0 0
          0 0 0 0 0 0
          0 0 0 0 0 0
          0 0 0 0 0 0
          0 0 0 0 0 0
          0 0 0 0 0 0
          0 0 0 0 0 0
          0 0 0 0 0 0
          0 0 0 0 0 0
          0 0 0 0 0 0
          0 0 0 0 0 0
          0 0 0 0 0 0
          0 0 0 0 0 0
          0 0 0 0 0 0
          0 0 0 0 0 0
          0 0 0 0 0 0
          0 0 0 0 0 0
          0 0 0 0 0 0
          0 0 0 0 0 0
          0 0 0 0 0 0
          0 0 0 0 0 0
          0 0 0 0 0 0
          0 0 0 0 0 0
          0 0 0 0 0 0
          0 0 0 0 0 0
          0 0 0 0 0 0
          0 0 0 0 0 0
          0 0 0 0 0 0
          0 0 0 0 0 0
          0 0 0 0 0 0
          0 0 0 0 0 0
          0 0 0 0 0 0
          0 0 0 0 0 0
          0 0 0 0 0 0
          0 0 0 0 0 0
          0 0 0 0 0 0
          0 0 0 0 0 0
          0 0 0 0 0 0
          0 0 0 0 0 0
          0 0 0 0 0 0
          0 0 0 0 0 0
          0 0 0 0 0 0
          0 0 0 0 0 0
          0 0 0 0 0 0
          0 0 0 0 0 0
          0 0 0 0 0 0
          0 0 0 0 0 0
          0 0 0 0 0 0
          0 0 0 0 0 0
          0 0 0 0 0 0
          0 0 0 0 0 0
          0 0 0 0 0 0
          0 0 0 0 0 0
          0 0 0 0 0 0
          0 0 0 0 0 0
          0 0 0 0 0 0
          0 0 0 0 0 0
          0 0 0 0 0 0
          0 0 0 0 0 0
          0 0 0 0 0 0
          0 0 0 0 0 0
          0 0 0 0 0 0
          0 0 0 0 0 0
          0 0 0 0 0 0
          0 0 0 0 0 0
          0 0 0 0 0 0
          0 0 0 0 0 0
          0 0 0 0 0 0
          0 0 0 0 0 0
          0 0 0 0 0 0
          0 0 0 0 0 0
          0 0 0 0 0 0
          0 0 0 0 0 0
          0 0 0 0 0 0
          0 0 0 0 0 0
          0 0 0 0 0 0
          0 0 0 0 0 0
          0 0 0 0 0 0
          0 0 0 0 0 0
          0 0 0 0 0 0
          0 0 0 0 0 0
          0 0 0 0 0 0
          0 0 0 0 0 0
          0 0 0 0 0 0
          0 0 0 0 0 0
          0 0 0 0 0 0
          0 0 0 0 0 0
          0 0 0 0 0 0
          0 0 0 0 0 0
          0 0 0 0 0 0
          0 0 0 0 0 0
          0 0 0 0 0 0
          0 0 0 0 0 0
          0 0 0 0 0 0
          0 0 0 0 0 0
          0 0 0 0 0 0
          0 0 0 0 0 0
          0 0 0 0 0 0
          0 0 0 0 0 0
          0 0 0 0 0 0
          0 0 0 0 0 0
          0 0 0 0 0 0
          0 0 0 0 0 0
          0 0 0 0 0 0
          0 0 0 0 0 0
          0 0 0 0 0 0
          0 0 0 0 0 0
          0 0 0 0 0 0
          0 0 0 0 0 0
          0 0 0 0 0 0
          0 0 0 0 0 0
          0 0 0 0 0 0
          0 0 0 0 0 0
          0 0 0 0 0 0
          0 0 0 0 0 0
          0 0 0 0 0 0
          0 0 0 0 0 0
          0 0 0 0 0 0
          0 0 0 0 0 0
          0 0 0 0 0 0
          0 0 0 0 0 0
          0 0 0 0 0 0
          0 0 0 0 0 0
          0 0 0 0 0 0
          0 0 0 0 0 0
          0 0 0 0 0 0
          0 0 0 0 0 0
          0 0 0 0 0 0
          0 0 0 0 0 0
          0 0 0 0 0 0
          0 0 0 0 0 0
          0 0 0 0 0 0
          0 0 0 0 0 0
          0 0 0 0 0 0
          0 0 0 0 0 0
          0 0 0 0 0 0
          0 0 0 0 0 0
          0 0 0 0 0 0
          0 0 0 0 0 0
          0 0 0 0 0 0
          0 0 0 0 0 0
          0 0 0 0 0 0
          0 0 0 0 0 0
          0 0 0 0 0 0
          0 0 0 0 0 0
          0 0 0 0 0 0
          0 0 0 0 0 0
          0 0 0 0 0 0
          0 0 0 0 0 0
          0 0 0 0 0 0
          0 0 0 0 0 0
          0 0 0 0 0 0
          0 0 0 0 0 0
          0 0 0 0 0 0
          0 0 0 0 0 0
          0 0 0 0 0 0
          0 0 0 0 0 0
          0 0 0 0 0 0
          0 0 0 0 0 0
          0 0 0 0 0 0
          0 0 0 0 0 0
          0 0 0 0 0 0
          0 0 0 0 0 0
          0 0 0 0 0 0
          0 0 0 0 0 0
          0 0 0 0 0 0
          0 0 0 0 0 0
          0 0 0 0 0 0
          0 0 0 0 0 0
          0 0 0 0 0 0
          0 0 0 0 0 0
          0 0 0 0 0 0
          0 0 0 0 0 0
          0 0 0 0 0 0
          0 0 0 0 0 0
          0 0 0 0 0 0
          0 0 0 0 0 0
          0 0 0 0 0 0
          0 0 0 0 0 0
          0 0 0 0 0 0
          0 0 0 0 0 0
          0 0 0 0 0 0
          0 0 0 0 0 0
          0 0 0 0 0 0
          0 0 0 0 0 0
          0 0 0 0 0 0
          0 0 0 0 0 0
          0 0 0 0 0 0
          0 0 0 0 0 0
          0 0 0 0 0 0
          0 0 0 0 0 0
          0 0 0 0 0 0
          0 0 0 0 0 0
          0 0 0 0 0 0
          0 0 0 0
        </DataArray>
        <DataArray type="Float64" Name="gradient_error" format="ascii" RangeMin="5.039969965462644e-16" RangeMax="1.658551872635765e-7">
          5.970781220780769e-16 5.971660645404766e-16 5.970252408109513e-16 5.969668044286566e-16 5.960823150375831e-16 5.959374705975659e-16
          5.963650767842949e-16 5.964646240670672e-16 5.973687064171655e-16 5.971596887265547e-16 5.95623362024693e-16 5.961482973248474e-16
          5.975441274927431e-16 5.972799732472531e-16 5.954194483586461e-16 5.959941487504367e-16 5.975579246651127e-16 5.973051780786996e-16
          5.955797964601491e-16 5.960570338316953e-16 5.973366887419638e-16 5.971911852868372e-16 5.96212464026492e-16 5.964020761935491e-16
          5.968867761812554e-16 5.969399249700489e-16 5.972452460123748e-16 5.969902855360579e-16 5.963331477264861e-16 5.96620909848282e-16
          5.983690226052031e-16 5.97647880090987e-16 5.959521875629485e-16 5.963881195793716e-16 5.990001695336651e-16 5.980477652453353e-16
          5.961188726955271e-16 5.964507835471954e-16 5.984301486611646e-16 5.977939877608741e-16 5.970120381868877e-16 5.969131294730785e-16
          5.964415576253735e-16 5.967544035696774e-16 5.977548038620895e-16 5.973181880304746e-16 5.949343176779223e-16 5.959237339739452e-16
          5.976643673768325e-16 5.972936443000804e-16 5.952692619704859e-16 5.960481688287759e-16 5.96880692233384e-16 5.968662440583129e-16
          5.968679827674843e-16 5.968956035725559e-16 5.96913265144237e-16 5.96807638133964e-16 5.969451117572108e-16 5.967544279131961e-16
          5.969641376911668e-16 5.967334931762472e-16 5.969636495092041e-16 5.967546786231406e-16 5.969421334209608e-16 5.968154876316992e-16
          5.969058369118706e-16 5.968988417204888e-16 5.968687512621266e-16 5.969737096203177e-16 5.968497298130831e-16 5.970037376748353e-16
          5.968617974366014e-16 5.969682435650149e-16 5.968895427288514e-16 5.969044333775135e-16 5.969065255887925e-16 5.96868621733093e-16
          5.968769673853421e-16 5.968770013373896e-16 5.969432825639451e-16 5.969442740485604e-16 5.968758592525297e-16 5.96942043642926e-16
          5.968744045126582e-16 5.96940006684165e-16 5.968758438900469e-16 5.969327151492527e-16 5.968816171866978e-16 5.969176688856752e-16
          5.968911930830791e-16 5.968956502036574e-16 5.969030018536633e-16 5.968709458642067e-16 5.969134509284583e-16 5.968520582836299e-16
          5.969167652273026e-16 5.968496484890872e-16 5.969093741139333e-16 5.968692376160483e-16 5.968975132588431e-16 5.968957164850588e-16
          5.968901299542564e-16 5.969101677791204e-16 6.019578684834303e-16 6.022458979351625e-16 6.000877690796097e-16 5.998684200812009e-16
          6.027483228911092e-16 6.004909566238721e-16 6.026065988650153e-16 6.005128778428053e-16 6.010776734748222e-16 5.996972356743091e-16
          5.980093350088948e-16 5.979498749664936e-16 5.93941615444825e-16 5.955783690561855e-16 5.901778130422519e-16 5.933248273128865e-16
          5.887663663920849e-16 5.923435617504034e-16 5.919381174047773e-16 5.938815678599975e-16 5.999598576645816e-16 5.981214137664098e-16
          6.053509103091324e-16 6.011297954015252e-16 6.031757703518934e-16 6.001960604913965e-16 5.973170739219544e-16 5.972364056503348e-16
          5.974797472137448e-16 5.975859087716099e-16 5.975569397240049e-16 5.973779563361165e-16 5.97082929336348e-16 5.967529007732633e-16
          5.965028227475062e-16 5.964477641825645e-16 5.966316644039601e-16 5.968926949203125e-16 5.970218709585175e-16 5.967045076198517e-16
          5.966938396216981e-16 5.967259040708546e-16 5.967526607226247e-16 5.967970815742138e-16 5.968654977481404e-16 5.9695073600515e-16
          5.970339599630056e-16 5.970848883862903e-16 5.970705100499114e-16 5.969803589396822e-16 5.968767093467074e-16 5.968273912861355e-16
          5.71089930216948e-16 5.711558351749903e-16 5.808889371713996e-16 5.809958019786965e-16 5.721536028386302e-16 5.81181906531211e-16
          5.762661330859547e-16 5.8335044086063e-16 5.855024197859563e-16 5.886141321291931e-16 5.998071781822327e-16 5.969390907777093e-16
          6.163793075643098e-16 6.067268451873833e-16 6.294019481823412e-16 6.146863965060425e-16 6.307861778994608e-16 6.162650473269904e-16
          6.141993426191937e-16 6.078466695724203e-16 5.836802555174001e-16 5.914167837953595e-16 5.66144442045086e-16 5.813198814049775e-16
          5.749859256955904e-16 5.851807208668097e-16 5.940917923193057e-16 5.942629582382076e-16 5.938193455408752e-16 5.938526948534292e-16
          5.943913508473192e-16 5.954231759954759e-16 5.967689507146334e-16 5.98083971258765e-16 5.989141442344542e-16 5.988616502732201e-16
          5.978974422545391e-16 5.967778533369643e-16 5.963018639640575e-16 5.9756154547080265e-16 5.976242427359701e-16 5.974284808579585e-16
          5.972706410715532e-16 5.970568572222086e-16 5.967753486177661e-16 5.964635186188101e-16 5.96197097687786e-16 5.960843717143882e-16
          5.96229304020793e-16 5.966415724357591e-16 5.970603859090595e-16 5.972282118900859e-16 7.213154467611119e-16 7.14955523885635e-16
          6.734821251048896e-16 6.769475766797179e-16 6.963457562211705e-16 6.629288679910806e-16 6.641176771868022e-16 6.438945888600884e-16
          6.176730498838765e-16 6.158832291872862e-16 5.657060585587305e-16 5.838976983289448e-16 5.248329973009214e-16 5.575189686400058e-16
          5.039969965462644e-16 5.42614906768867e-16 5.076674037294233e-16 5.425379081866763e-16 5.742354934469091e-16 5.772964052715245e-16
          7.172337292165213e-16 6.537603072317647e-16 7.925194619374858e-16 6.96707539859701e-16 7.125754841963554e-16 6.586607003364421e-16
          6.135865140331145e-16 6.137259743735274e-16 6.126512506324445e-16 6.100885222797969e-16 6.057381335694234e-16 6.00263872494215e-16
          5.948509832003939e-16 5.9074004846689715e-16 5.88849612290396e-16 5.898413119994408e-16 5.938941592970374e-16 5.983962533867044e-16
          6.00063122869561e-16 5.951643017420847e-16 5.94872242148731e-16 5.957905215038983e-16 5.965055440262192e-16 5.973828586481512e-16
          5.984384068892711e-16 5.994970264216977e-16 6.002472799423245e-16 6.002908119368625e-16 5.9932530690274165e-16 5.975014333470668e-16
          5.958968889914929e-16 5.953803292625929e-16 8.540267311194137e-16 7.932009942093966e-16 6.636692295324602e-16 6.962652797962001e-16
          6.430660078993002e-16 5.862597501175278e-16 5.804430304804524e-16 5.592224666163584e-16 7.344262456937252e-16 6.515104503337327e-16
          9.966700802859061e-16 8.082086384008514e-16 1.2275570087490417e-15 9.517319534883384e-16 1.3161887994138819e-15 1.0159010124599892e-15
          1.158612859293527e-15 9.392255645689568e-16 9.478272889823217e-16 8.152303595961926e-16 1.2378298298480733e-15 9.313149706821957e-16
          1.489538347605038e-15 1.0365848219496947e-15 9.7639174132334e-16 7.743064738763857e-16 5.662903677971802e-16 5.69001895978631e-16
          5.628219454954672e-16 5.658482182763051e-16 5.79715626700092e-16 6.037323423702192e-16 6.304638430742093e-16 6.496555511803679e-16
          6.523396732588647e-16 6.360627881930137e-16 6.111671101354298e-16 5.939125785319201e-16 5.887025992722545e-16 5.984432707388364e-16
          5.994999634842756e-16 5.961903986551794e-16 5.936945338003459e-16 5.908365984264439e-16 5.877174882246418e-16 5.850207879207834e-16
          5.836978768546392e-16 5.84841076673343e-16 5.894921461759641e-16 5.975341087545418e-16 6.041938607694893e-16 6.051839921150779e-16
          3.019416947701305e-15 2.655519401529845e-15 1.9958086168577933e-15 2.2252268493894026e-15 1.7841146580766227e-15 1.4440405835589444e-15
          1.2037639706829951e-15 1.0214214260286816e-15 1.785761960137313e-15 1.2332387204614863e-15 3.153354967429292e-15 1.9623451385531345e-15
          4.256937812807671e-15 2.633806234210134e-15 4.415483358006958e-15 2.785356252783934e-15 3.2800396658287173e-15 2.181819444860356e-15
          2.846955744008445e-15 1.8348408103979416e-15 5.041855436190637e-15 2.8842429130939357e-15 6.13446798378352e-15 3.496272669874834e-15
          3.409356050128563e-15 2.141601551712549e-15 9.797911373885033e-16 1.0250096223005785e-15 8.677478386281139e-16 7.386275049144952e-16
          6.631855790718442e-16 7.128595461035577e-16 8.356285425747202e-16 9.06968564930302e-16 8.638989329858034e-16 7.213481402385499e-16
          6.633568833091584e-16 7.237230763276434e-16 7.274095022000503e-16 6.23484442591265e-16 6.189824935236564e-16 6.315291682149618e-16
          6.381761284546226e-16 6.456556773580295e-16 6.543837825301387e-16 6.605824295368431e-16 6.587079822996932e-16 6.441986420796125e-16
          6.199704036896613e-16 6.00083376621082e-16 5.893687966891389e-16 5.809719511035668e-16 8.353763409233819e-15 6.8492196096203e-15
          5.108585744711136e-15 6.1368386143507935e-15 4.996439958666771e-15 3.5974823654193346e-15 6.6549282323903745e-15 4.212208716860179e-15
          1.1346950804130269e-14 6.93343407756899e-15 1.60689433383897e-14 9.854840370853184e-15 1.8474958896391245e-14 1.1475352101278849e-14
          1.670495536568715e-14 1.0641467202570327e-14 1.1129820592695283e-14 7.433728497308727e-15 1.1820264794302137e-14 7.032418228575752e-15
          2.2631973800414782e-14 1.2204134098605182e-14 2.5761310554821033e-14 1.4074382509465545e-14 1.3590735016410805e-14 7.918513028954766e-15
          1.9683863097424494e-15 2.2349172227394052e-15 1.3920205584078414e-15 1.1711536233230125e-15 1.543015218793082e-15 2.1110549081172306e-15
          2.5348199849236584e-15 2.5728719598670028e-15 2.1415546605259468e-15 1.4457415433066063e-15 1.3187842746857856e-15 1.6802502287332685e-15
          1.5607628698656645e-15 5.688207396829254e-16 5.499206260110418e-16 5.855163446437837e-16 5.728180453160415e-16 5.661130865784534e-16
          5.813724129177933e-16 5.938946636808641e-16 5.677648802804988e-16 5.45472919129724e-16 6.469114237638455e-16 8.612741525759865e-16
          9.73045993356475e-16 8.752346982325993e-16 1.3387993874308612e-14 1.5946799733460952e-14 1.1173888685782928e-14 1.0338839797041117e-14
          2.65632139769241e-14 1.6611503073401755e-14 4.47354671157863e-14 2.7571762755609466e-14 6.303238397796155e-14 3.921843813720346e-14
          7.471345000286334e-14 4.690488971417228e-14 7.429789120438208e-14 4.722775714585314e-14 5.767248351691562e-14 3.7805618422966687e-14
          3.8659425706659275e-14 2.5546162159214625e-14 5.703919339732695e-14 3.203124256246522e-14 1.0411342701153075e-13 5.604322934521756e-14
          1.0767119326868167e-13 5.948245148526378e-14 5.577775831197331e-14 3.2669615615348956e-14 4.012211777736299e-15 4.4322040815706384e-15
          4.160689319663038e-15 6.0135082327894466e-15 8.494500568294348e-15 1.0336532955938385e-14 1.0831771294621464e-14 9.606899336538998e-15
          6.746210884356406e-15 4.24184950064032e-15 5.203256566041813e-15 7.027452300011067e-15 5.738482192459147e-15 1.6234459173676934e-15
          1.5747224433676514e-15 1.6615864694466627e-15 1.6189580701462557e-15 1.5845088401433088e-15 1.576736486395555e-15 1.5059195019187199e-15
          1.275045344060244e-15 1.0595231569428377e-15 1.4604072736771533e-15 2.4334814531792656e-15 2.761194898176241e-15 1.91549146619369e-15
          1.1944628047330637e-13 1.455335464798469e-13 9.512600246015449e-14 7.907605259067203e-14 2.059685935866728e-13 1.3304595569482646e-13
          2.6790139043923226e-13 1.7264312389644064e-13 3.087687658652899e-13 1.989267843393576e-13 3.132388801517546e-13 2.0236365677462716e-13
          2.6716469364279623e-13 1.749855837047964e-13 1.755611426802331e-13 1.191906164286897e-13 1.5427529671713047e-13 9.524700027069589e-14
          2.9706366962844036e-13 1.6186281465319133e-13 4.731044231269012e-13 2.5819852431761553e-13 4.4437272008664143e-13 2.493104926732841e-13
          2.3373240324767787e-13 1.3744411842474437e-13 2.546013025944751e-14 2.2565134063908813e-14 3.294900077323231e-14 4.1378787186366054e-14
          4.700572553193811e-14 4.792374226602028e-14 4.3215721253556346e-14 3.2932418200047816e-14 1.999333304722e-14 1.6572719637660676e-14
          2.6552626392543556e-14 3.2201134108744345e-14 2.3824797923717656e-14 6.201802078432944e-15 6.424443419779946e-15 5.77468374348449e-15
          5.372717019083071e-15 4.92664825045091e-15 4.3590511345408375e-15 3.624968740316089e-15 3.0447462229493067e-15 3.767962270178699e-15
          6.483479597379084e-15 9.812627276757207e-15 1.01540029575619e-14 6.493762245624451e-15 1.0181095230548623e-12 1.0906131039134237e-12
          7.381239650340707e-13 6.931867773843928e-13 1.233645226686349e-12 8.262864580067978e-13 1.3270436691140272e-12 8.817717950877435e-13
          1.3050020736351229e-12 8.633732817716531e-13 1.129646201666412e-12 7.499006860596048e-13 7.917399066717477e-13 5.373422066379571e-13
          5.39970477713525e-13 3.560539167842915e-13 8.332884297220963e-13 4.706908921643042e-13 1.5665909189870466e-12 8.601522861676857e-13
          2.1101495368438062e-12 1.1754874973198264e-12 1.7990656847020057e-12 1.0265836357526098e-12 9.993878037331289e-13 5.856650067305911e-13
          2.143977420112897e-13 2.0762582948934343e-13 2.2731354152030047e-13 2.3277327299038404e-13 2.2225323009637348e-13 1.9333143130761538e-13
          1.473767184913788e-13 9.172631537062136e-14 6.273211447690515e-14 9.104163536464352e-14 1.3943363704690495e-13 1.4486902409176145e-13
          9.761610876188507e-14 4.3160657867861864e-14 4.69876272647636e-14 3.569939371335429e-14 2.9046624919308316e-14 2.2761970284563927e-14
          1.6507692162433203e-14 1.1808930378591083e-14 1.1315274886184784e-14 1.737087434729828e-14 2.8369617380962145e-14 3.80418162979631e-14
          3.563646138030897e-14 2.3290007795716466e-14 5.821452770431226e-12 5.851205078961552e-12 4.0540051446328604e-12 4.055221692906549e-12
          5.774396278441482e-12 3.957609169490486e-12 5.336050067789264e-12 3.624733337593371e-12 4.426194366086394e-12 2.9990033700171863e-12
          3.068235756681128e-12 2.1018755160728513e-12 2.0361198296879426e-12 1.3557243174008004e-12 2.7837453998749034e-12 1.6240934011273405e-12
          5.257493541510587e-12 2.9585208587763353e-12 7.924500257345283e-12 4.472879315081764e-12 9.14539857239821e-12 5.198147431025763e-12
          7.0724050186757835e-12 4.099879068771677e-12 4.3450018459616235e-12 2.5080793249528256e-12 1.2657283004724313e-12 1.2961396411163625e-12
          1.1777040874486658e-12 1.0351724735164047e-12 8.399339575830915e-13 6.039387870055685e-13 3.664434943996528e-13 2.6406829507221663e-13
          3.7255737511868505e-13 5.678493760015179e-13 6.919252477348861e-13 6.239707937259337e-13 3.898668592612405e-13 2.7465139064069355e-13
          3.032886668508535e-13 2.1458611435784306e-13 1.5692833963533118e-13 1.0805554121820342e-13 7.236229854656225e-14 5.755818368564741e-14
          6.369518776465551e-14 8.556657419528697e-14 1.1444037918479003e-13 1.3295420581645682e-13 1.205884685842955e-13 1.0857691457845258e-13
          2.3604153093920033e-11 2.2596623612967246e-11 1.587299961646704e-11 1.665421489126369e-11 1.9577786433860503e-11 1.3629856027211253e-11
          1.4796428864084374e-11 1.0248604105627362e-11 9.468292061976002e-12 6.5410789003316445e-12 7.867014573483827e-12 5.103021067267131e-12
          1.2486539532701777e-11 7.53492881171378e-12 2.1119222320988197e-11 1.2452220788684292e-11 3.0689243115100834e-11 1.7891327293809325e-11