<?xml version="1.0"?>
<VTKFile type="UnstructuredGrid" version="0.1" byte_order="LittleEndian" header_type="UInt32" compressor="vtkZLibDataCompressor">
  <UnstructuredGrid>
    <Piece NumberOfPoints="593" NumberOfCells="361">
      <PointData>
        <DataArray type="Int32" Name="libmesh_node_id" format="ascii" RangeMin="510" RangeMax="4239">
          1165 1167 1168 1169 1170 1175
          1177 1178 1180 2158 2159 2160
          2161 2162 2163 2164 2165 2166
          2167 2168 2169 2170 2171 2174
          2175 2180 2182 2183 2185 2186
          2187 2188 2189 2190 2191 2192
          2193 2194 2195 2196 2197 2203
          2206 2207 2208 2209 2210 2211
          2212 2213 2214 2215 2216 2217
          2220 2222 2223 2225 2226 2227
          2228 2229 2230 2231 2232 2233
          2237 3711 3767 3768 3769 3770
          3771 3772 3773 3774 3775 3776
          3777 3778 3779 3780 3781 3782
          3783 3784 3785 3786 3787 3788
          3789 3790 3791 3792 3793 3794
          3795 3796 3797 3798 3802 3803
          3805 3806 3807 3808 3823 3824
          3827 3828 3830 3831 3832 3843
          3844 3845 3846 3847 3848 3849
          3850 3851 3852 3859 3860 3862
          3863 3864 3865 3866 3867 3868
          3869 3874 3876 3877 3878 3879
          3880 3881 3882 3883 3884 3885
          3886 3887 3888 3889 3890 3891
          3892 3893 3894 3895 3896 3897
          3898 3899 3902 3903 3905 3907
          3908 3909 3910 3911 3912 3913
          3914 3915 3917 3919 3921 3922
          3923 3926 3927 3929 3931 3942
          3943 3944 3945 3946 3947 3948
          3949 3950 3951 3952 3953 3954
          3955 3956 3957 3958 3959 3960
          3961 3962 3963 3964 3965 3966
          3967 3968 3969 3970 3971 3972
          3973 3974 3975 3976 3977 3978
          3979 3980 3981 3982 3983 3984
          3985 3986 3987 3988 3989 3990
          3991 3992 3993 3994 3995 3996
          3997 3998 3999 4000 4001 4002
          4003 4004 4005 4006 4007 4008
          4009 4010 4011 4012 4013 4014
          4015 4016 4017 4018 4019 4020
          4021 4024 4026 4027 4029 4030
          4031 4032 4033 4034 4035 4036
          4037 4039 4041 4043 4044 4045
          4046 4047 4048 4049 4050 4051
          4052 4053 4054 4055 4058 4060
          4061 4063 4064 4065 4066 4067
          4068 4069 4070 4071 4073 4075
          4077 4078 4079 4080 4081 4082
          4083 4084 4085 4086 4087 4088
          4089 4090 4091 4092 4093 4094
          4095 4096 4097 4098 4099 4100
          4101 4102 4103 4104 4105 4106
          4107 4108 4109 4110 4111 4112
          4113 4115 4117 4119 4120 4122
          4124 4126 4134 4135 4136 4137
          4138 4139 4140 4141 4143 4145
          4147 4148 4150 4152 4154 4162
          4163 4164 4165 4166 4167 4170
          4171 4173 4186 4188 4193 4195
          4199 4203 4233 4237 1594 1601
          1602 1595 720 1157 1607 1598
          1174 721 2094 2095 2096 2099
          1158 2102 1159 2116 2117 2120
          2122 1162 2200 2201 2198 724
          2199 2202 2139 2152 2154 2156
          729 2247 2240 2248 2241 2249
          2250 2254 2243 2255 2257 2258
          2267 2244 2268 2271 2246 2272
          2725 2730 2731 2726 2172 2173
          2736 2727 2179 2742 2739 2737
          2744 1171 2746 2740 2747 3678
          3679 3680 3708 3709 3710 3712
          3713 3714 3751 3750 3761 3760
          3765 3764 3799 3800 3801 3804
          3811 3812 3819 3820 3817 3822
          3825 3826 3829 3834 3840 3838
          3842 3853 3854 3857 3855 3856
          1172 3861 3858 2184 3870 3872
          3871 3875 3873 1173 3837 3900
          3839 3901 3904 2181 3906 3916
          3918 3920 2204 3924 3925 3928
          3930 2205 3932 3933 3934 3935
          3939 3940 3562 3659 3660 3662
          2136 3665 2137 3568 3675 3677
          3693 3694 3696 728 3699 2142
          4022 4023 4025 2218 4028 2219
          4038 4040 4042 2221 4056 4057
          4059 510 4062 2224 4072 4074
          4076 1179 3763 4114 4116 4118
          2234 4121 4123 4125 2235 4127
          4128 4131 4132 4142 4144 4146
          2238 4149 4151 4153 2239 4155
          4156 4159 4160 4168 4169 4172
          4174 4175 2264 4200 4201 4187
          4202 4204 4205 2274 4234 4235
          4194 4236 4238 4239 2278
        </DataArray>
        <DataArray type="Float64" Name="bounds" format="ascii" RangeMin="0" RangeMax="0">
          0 0 0 0 0 0
          0 0 0 0 0 0
          0 0 0 0 0 0
          0 0 0 0 0 0
          0 0 0 0 0 0
          0 0 0 0 0 0
          0 0 0 0 0 0
          0 0 0 0 0 0
          0 0 0 0 0 0
          0 0 0 0 0 0
          0 0 0 0 0 0
          0 0 0 0 0 0
          0 0 0 0 0 0
          0 0 0 0 0 0
          0 0 0 0 0 0
          0 0 0 0 0 0
          0 0 0 0 0 0
          0 0 0 0 0 0
          0 0 0 0 0 0
          0 0 0 0 0 0
          0 0 0 0 0 0
          0 0 0 0 0 0
          0 0 0 0 0 0
          0 0 0 0 0 0
          0 0 0 0 0 0
          0 0 0 0 0 0
          0 0 0 0 0 0
          0 0 0 0 0 0
          0 0 0 0 0 0
          0 0 0 0 0 0
          0 0 0 0 0 0
          0 0 0 0 0 0
          0 0 0 0 0 0
          0 0 0 0 0 0
          0 0 0 0 0 0
          0 0 0 0 0 0
          0 0 0 0 0 0
          0 0 0 0 0 0
          0 0 0 0 0 0
          0 0 0 0 0 0
          0 0 0 0 0 0
          0 0 0 0 0 0
          0 0 0 0 0 0
          0 0 0 0 0 0
          0 0 0 0 0 0
          0 0 0 0 0 0
          0 0 0 0 0 0
          0 0 0 0 0 0
          0 0 0 0 0 0
          0 0 0 0 0 0
          0 0 0 0 0 0
          0 0 0 0 0 0
          0 0 0 0 0 0
          0 0 0 0 0 0
          0 0 0 0 0 0
          0 0 0 0 0 0
          0 0 0 0 0 0
          0 0 0 0 0 0
          0 0 0 0 0 0
          0 0 0 0 0 0
          0 0 0 0 0 0
          0 0 0 0 0 0
          0 0 0 0 0 0
          0 0 0 0 0 0
          0 0 0 0 0 0
          0 0 0 0 0 0
          0 0 0 0 0 0
          0 0 0 0 0 0
          0 0 0 0 0 0
          0 0 0 0 0 0
          0 0 0 0 0 0
          0 0 0 0 0 0
          0 0 0 0 0 0
          0 0 0 0 0 0
          0 0 0 0 0 0
          0 0 0 0 0 0
          0 0 0 0 0 0
          0 0 0 0 0 0
          0 0 0 0 0 0
          0 0 0 0 0 0
          0 0 0 0 0 0
          0 0 0 0 0 0
          0 0 0 0 0 0
          0 0 0 0 0 0
          0 0 0 0 0 0
          0 0 0 0 0 0
          0 0 0 0 0 0
          0 0 0 0 0 0
          0 0 0 0 0 0
          0 0 0 0 0 0
          0 0 0 0 0 0
          0 0 0 0 0 0
          0 0 0 0 0 0
          0 0 0 0 0 0
          0 0 0 0 0 0
          0 0 0 0 0 0
          0 0 0 0 0 0
          0 0 0 0 0 0
          0 0 0 0 0
        </DataArray>
        <DataArray type="Float64" Name="gradient_error" format="ascii" RangeMin="9.181587500558259e-11" RangeMax="1.0408229214684742e-7">
          2.6316412671963613e-8 7.3891537194910224e-9 5.362674196429099e-9 3.900568711417798e-8 3.60560684571851e-8 1.2079933477991558e-8
          1.3847444888942699e-8 2.730607311515479e-8 2.907222736241105e-8 1.7865907006322766e-8 1.6292369947911643e-8 5.9362314921950206e-8
          5.2706369969482364e-8 5.148257910223425e-9 2.8642584847062034e-8 2.5315516154933362e-8 1.2254984471731744e-8 3.653966314135476e-8
          1.7285575832628484e-8 6.561136751175538e-8 5.820883251632098e-8 3.405157477871501e-8 6.849965520999935e-8 3.0363172075121678e-9
          2.6098241872143703e-9 1.6505689697819945e-9 1.602488499327867e-8 1.3500586149266338e-8 8.192961318052047e-9 7.525842059112454e-9
          1.99427379520964e-8 2.634888025127601e-9 9.48542737711844e-9 4.228097818083973e-9 9.034787259908062e-9 4.335432485336668e-9
          6.287034310566434e-8 3.10841363461072e-8 2.488789006739179e-8 7.173256303658122e-10 1.1315068776325507e-9 3.6584563127227466e-9
          3.251075968608973e-8 3.1598109835265014e-8 3.3336935773810885e-8 3.1829767410958935e-8 5.3613957539079285e-8 3.7574025589181316e-8
          8.872715776894539e-9 2.2924537553927608e-8 2.510886069343259e-8 2.7732110016185005e-8 3.1146989305842085e-8 2.9348393805663463e-8
          2.1679671877610973e-8 1.7938965354881465e-8 2.431652170749229e-8 2.4895984029267107e-8 7.465715078728343e-8 3.997198591901898e-8
          4.644526769528864e-8 2.3343006274963248e-8 5.6895260728030533e-8 3.354065224397429e-8 5.6956231957525856e-8 9.674707300984952e-9
          1.3122291570722793e-8 2.663770348944221e-8 1.1525458691267391e-9 1.5215936347416211e-9 1.4743752705038678e-9 1.354805555064118e-9
          4.807396087302442e-9 9.180648662356179e-10 1.1755516793514577e-9 9.607171683914133e-10 3.559316987548809e-9 3.014915044063373e-8
          2.9750926971749015e-8 2.9658873086834552e-8 2.8068978498720927e-8 9.823390020235849e-9 9.414372214966237e-9 8.460837473412349e-9
          2.9400396026592218e-8 2.8467997726911012e-8 2.1242058376335562e-8 2.5664539456385445e-8 2.4720042198687254e-8 2.3428389684700825e-8
          2.2654830902796956e-8 7.0489863943845386e-9 5.344647200471596e-9 2.1558450164173155e-8 1.5704481480203347e-8 1.932342084280523e-8
          9.080690007550145e-10 8.820172165423897e-10 1.3955296689874766e-9 1.350440908303019e-9 8.091233394406802e-10 1.2298458782538107e-9
          4.226404181735495e-9 4.061728683952014e-9 2.9238951763704016e-9 3.633747501025555e-9 6.978819234567707e-10 1.0517087151906557e-9
          5.658911223280883e-10 8.447725424059161e-10 3.0074916894575182e-9 2.157154674979974e-9 2.2996498211209687e-9 8.895399854255105e-9
          8.538052947251637e-9 7.284522685465062e-9 7.001721098781674e-9 7.639093603801275e-9 6.220803215458312e-9 1.7978114440782725e-8
          1.7276778124031863e-8 1.53579313227983e-8 1.5332824431455187e-8 1.368017908346205e-8 1.3088663063511906e-8 1.1483087474851781e-8
          6.336331110500537e-9 5.1138037095526025e-9 4.824724515510348e-9 3.8908643243704346e-9 1.2536272597183577e-8 1.0920425787596641e-8
          9.58566767279633e-9 9.274261782755283e-9 6.899930892111754e-9 5.626462819973063e-10 7.256753013204258e-10 5.98565420698819e-10
          1.983745614667414e-9 3.909153559037512e-9 2.68939628665841e-9 7.664957758814323e-9 1.3180021942241606e-9 1.7265843656846557e-9
          1.0187922468049068e-9 3.1729743468529903e-9 4.3729297351989964e-10 6.284587717359286e-10 2.65288894321674e-10 4.546511575320464e-10
          3.7628630274556875e-10 5.164502801522762e-10 3.7098447551245315e-10 1.6613268230515053e-9 1.1657448878914982e-9 1.3454519611439817e-9
          1.880943683791488e-10 3.2698823250437187e-10 1.7545747177563457e-10 2.6655331010496026e-10 8.705398786053725e-10 6.680733211288657e-10
          3.4859647089915493e-9 2.742551766837622e-9 2.3537836219019816e-9 1.7849048972539577e-9 6.949109329075785e-9 5.704567119646218e-9
          4.572412957010231e-9 2.163875414310418e-9 1.375496876676454e-9 4.713417144450551e-9 2.9465480056249346e-9 1.0569454828101487e-9
          1.4777749029638728e-9 6.1387959872143e-10 8.584602452765472e-10 2.792641629512429e-9 1.588259081145797e-9 3.1297467473114057e-8
          3.078504224673015e-8 3.162233317917893e-8 3.1050842544814636e-8 2.9315882537476374e-8 2.934538209507881e-8 3.148413354751833e-8
          3.134774851931289e-8 3.2360278757209255e-8 3.072424747581762e-8 3.1333219844169096e-8 3.06989130678961e-8 3.040250050216016e-8
          2.970244759371847e-8 2.8787638516132786e-8 2.7633457699006733e-8 3.3188538703879196e-8 3.298920470820931e-8 3.3031845456148565e-8
          3.202333464237549e-8 2.664367339190718e-8 2.6203905877594016e-8 2.4928198729207852e-8 2.4196399475480766e-8 2.923721844033511e-8
          2.9790441809755023e-8 2.7538042686714874e-8 2.526302671339686e-8 2.3884189647206418e-8 2.3015382686151262e-8 1.9354560445777508e-8
          2.985824624535377e-8 2.938972195879562e-8 2.755645819292216e-8 1.8938408378164717e-8 2.1635132657407354e-8 2.0506790488324618e-8
          2.307233445662855e-8 2.6237534210688223e-8 2.7363644037944437e-8 7.354334166887155e-9 1.2393925797900213e-8 1.386692340163333e-8
          2.158936004597304e-8 2.2165644096530443e-8 2.4448570452451594e-8 2.3530719703212603e-8 2.5482797726783785e-8 2.8171544171985215e-8
          2.8490199307919346e-8 1.1220254447048464e-8 1.5848559897365763e-8 1.7948790627808323e-8 2.420715663509959e-8 2.830610069806328e-8
          2.9054412119001997e-8 2.747697147214476e-8 2.7902290141900892e-8 2.670506910058345e-8 2.7507362688981158e-8 2.724766219202659e-8
          2.931685053964032e-8 2.902715529078983e-8 2.7858675421294803e-8 2.7349663069404207e-8 2.7884811851193676e-8 2.769271239116561e-8
          2.7736335817955016e-8 2.881392777403906e-8 2.8107664532940072e-8 2.6756951522481868e-8 2.604033550105668e-8 2.5946762592718115e-8
          2.3770435105784102e-8 3.267409052949791e-8 3.2273786796636234e-8 3.072677163704869e-8 3.092929606853471e-8 2.425540365188691e-8
          2.34874667281144e-8 2.1140616874643902e-8 2.8937715776443378e-8 2.852936951143509e-8 2.7121678164748245e-8 2.2095375260183065e-8
          1.9865658344321653e-8 1.692825643940432e-8 1.4949413506484886e-8 2.8331318675219612e-8 2.657985748708217e-8 2.35523519302217e-8
          1.7369221992460166e-8 1.2911791811850012e-8 2.418142295739006e-8 1.9251070695014674e-8 2.4359524454621398e-8 2.590810409534274e-8
          2.4305886842464425e-8 2.5443519158492062e-8 2.8095916934716797e-8 2.6908835990403504e-8 1.626347619901881e-8 1.9701920541892333e-8
          2.0554574093880616e-8 2.522237867750841e-8 2.319276979898993e-8 2.4019703880293483e-8 2.5083990047157327e-8 1.8225499402222518e-8
          1.9998937815567952e-8 2.2509585403712854e-8 2.8219135689076757e-8 2.6918773156149582e-8 2.6309520503166166e-8 2.4667818501914655e-8
          2.6957053702723836e-8 2.5676218939771413e-8 2.637331803036742e-8 2.5084637361129204e-8 2.2489594464716276e-8 2.3917889460382352e-8
          2.2938380960997963e-8 2.4706247196330417e-8 2.4115644920790566e-8 2.3272977172801096e-8 1.2998105199813418e-8 8.545256051635061e-9
          2.3072677727610643e-8 1.9557310255105575e-8 2.0395368713446762e-8 5.205538190987517e-9 3.0326298311684683e-9 7.101508817702658e-9
          2.5328239549646605e-8 2.4922787200214858e-8 2.4171526066403804e-8 2.3060408703675533e-8 2.5950231902962796e-8 2.572992947963915e-8
          2.5070074960006512e-8 2.4076482653480934e-8 2.2795180598253406e-8 2.145772400805521e-8 1.6312383721297455e-8 2.508028757935123e-8
          2.3957303359539408e-8 2.252007930266366e-8 8.861709711247192e-9 5.225337444847495e-9 9.720696012503272e-9 1.1996407688062748e-8
          1.0231397121345564e-8 7.783482574023059e-9 6.465549109780727e-9 1.7232616223870106e-8 1.5355044441505837e-8 1.102443091050801e-8
          8.740858222542344e-9 5.414779211396876e-9 1.337572137542464e-8 8.314526816256996e-9 4.667172860731421e-9 2.6312429170772755e-9
          6.575205301725613e-9 3.7143728778816507e-9 2.1088663737212525e-8 1.9013932145517625e-8 1.3599471240886248e-8 1.2200629048712313e-8
          2.2275592086490805e-8 2.016906259005693e-8 1.458991632564962e-8 1.6740037295185627e-8 1.0602874644799515e-8 1.783606716374525e-8
          1.1440866414505674e-8 8.225560302562567e-9 4.660025522431377e-9 8.94837678722949e-9 5.080313852794075e-9 4.1116227577847116e-10
          5.379788465695955e-10 4.234143263547056e-10 9.37143720534631e-10 3.321975499371077e-10 4.543557763506752e-10 2.499621184067755e-10
          3.374350648811337e-10 8.094957005499766e-10 1.4993376109952106e-9 2.0126461737257557e-9 2.424673503669833e-9 2.6132378581700345e-9
          1.306805099475509e-9 1.8018942501105417e-9 2.205122785096921e-9 2.377589870588066e-9 1.0256397880429011e-8 3.4687584519463074e-9
          2.7218010389374504e-9 8.253231246709159e-9 2.2292768420486745e-8 1.6386101606033268e-8 1.2482346365869733e-9 4.381211338825586e-9
          2.301062827450482e-9 1.585883054579459e-8 2.2709036835104725e-8 7.258494433631476e-8 6.487844981075931e-8 4.582945738972513e-8
          7.478989503942438e-8 6.75426733340378e-8 7.966302201533646e-8 1.0916422824173158e-8 2.549604954260663e-8 1.316128599943607e-8
          7.313096034804786e-8 5.6881327835319137e-8 9.274608735388402e-10 8.213211995208298e-10 3.7561680640545506e-10 4.777963106498617e-10
          6.150924000590667e-10 4.2926379886090524e-10 5.6700825493595235e-8 8.503465021533537e-8 6.383398965697695e-8 6.472953256472901e-8
          1.0408229214684742e-7 2.3421521190057857e-9 3.351076579400991e-9 3.847100212741546e-9 5.017053690286268e-9 9.82348377139124e-10
          1.6581241548596283e-9 8.497464798771217e-9 1.0130848578003126e-8 3.7779060210100275e-9 4.703772187030478e-10 4.528264418851422e-10
          1.466235114830733e-8 1.7161130720871157e-8 6.618312592245767e-9 1.7681821005549527e-8 2.0743595086907606e-8 8.00384149675694e-9
          8.993051844377834e-10 6.777060059853833e-10 6.117070457427105e-10 8.086067839916242e-10 7.342406807055448e-10 6.586715862670867e-10
          4.695417286717446e-10 6.270567890879319e-10 4.866523810834406e-10 3.0709861805302633e-10 4.2505712398279945e-10 2.2683095909181847e-10
          1.3680525466151787e-10 2.682043830947105e-10 2.2082186426260126e-10 3.139090533352001e-10 9.181587500558259e-11 2.7147108199125567e-8
          2.8309635365726737e-8 2.607870057215916e-8 2.5942581507110398e-8 2.7222009844365905e-8 2.554153162089362e-8 2.4453990067909446e-8
          2.5664124530078725e-8 2.5115167691211576e-8 2.4914023010441926e-8 2.4789362175655553e-8 2.53178872582681e-8 2.4972872809250646e-8
          2.5721751506094275e-8 2.515638344284574e-8 5.235009733430601e-10 1.1000589332762139e-9 1.0620599114988138e-9 9.549321418891611e-10
          8.096387661568457e-10 7.806296141458421e-10 2.33351638860651e-9 2.244213108513184e-9 6.993565143741794e-10 1.9958871887484537e-9
          4.0465624752359994e-10 7.996403332824534e-10 6.258975560298188e-10 5.825025571793736e-10 1.6411386437359907e-9 4.526678513245052e-10
          1.2473139708846742e-9 6.001629316410432e-9 5.762740504524452e-9 5.1018164743225165e-9 4.866892165373867e-9 4.668459041821926e-9
          1.143146924977953e-8 1.0941765753276264e-8 4.118335775002275e-9 9.602259898356346e-9 4.162898543945594e-9 3.127978531137336e-9
          3.337402788255561e-9 7.728937636690682e-9 2.479811092892536e-9 5.699549763500052e-9 2.2905324103608772e-10 1.3467055529982692e-10
          3.3068334045448366e-10 2.37548233357357e-10 1.9306816357821883e-10 9.438624090280527e-10 6.538054096053124e-10 1.6904518907199807e-9
          1.0577374422829853e-9 3.836738137097466e-9 2.3491772448791352e-9 6.807403533945875e-10 1.073966703478897e-9 6.034686246757443e-10
          2.1505039643167134e-9 1.168141908800549e-9 4.92972289465401e-10 8.079121193373092e-10 3.6511599528435546e-10 6.104676195193871e-10
          1.6846506083242173e-9 1.3134134253334563e-9 2.9115407835620095e-8 3.045921344173337e-8 3.0013819612890513e-8 2.8773925027190098e-8
          3.011980637455576e-8 3.0015052894008605e-8 2.9508417035812718e-8 2.5415735222912998e-8 2.6627555397856698e-8 2.5275686525380848e-8
          1.7718591454010216e-8 2.0326268271406375e-8 2.4918700460184566e-8 6.79897701147648e-9 1.1534662144956462e-8 2.033093302146218e-8
          2.1327380602743482e-8 2.055303862947984e-8 1.8286947618223126e-8 2.622537898313894e-8 2.5838173085735906e-8 2.442494883348664e-8
          1.4851818529784366e-8 1.0941736926786745e-8 2.1413464232455285e-8 1.668991876654082e-8 2.1319357266842482e-8 2.191397573878998e-8
          2.2900845067169807e-8 1.7028617191241954e-8 1.8133918714706862e-8 2.0278943150914508e-8 2.2850984850749892e-8 1.9948727899377646e-8
          2.1939778467530835e-8 2.0569826126323115e-8 2.4900931394816986e-8 7.333240921627241e-9 4.467066911850932e-9 1.1427858090995296e-8
          7.007217819189915e-9 3.749988590553945e-9 1.991140386886471e-9 5.579841686085671e-9 2.9398439815778627e-9 3.051902149463011e-9
          2.4537977941597823e-9 4.6803642712107024e-9 3.854908441945961e-9 1.4441262781182251e-8 9.015451517678122e-9 1.5433533823077682e-8
          9.749293641575412e-9 7.051203644354386e-9 3.728360335231262e-9 7.608886222575098e-9 4.037522464018289e-9 6.003967029950696e-9
          5.015574353717334e-9 6.50456054896679e-9 5.457919804949815e-9 2.1333478567102273e-10 3.170852688969946e-10 2.136522861136234e-10
          5.917039783071519e-10 4.887394796943644e-10 4.2419024983312586e-10 9.788936240771477e-10 6.547745540870188e-10 7.926496970949777e-10
          4.4769100770623585e-10 1.4140874210880245e-9 8.983810010604627e-10 6.337927918529157e-10 1.7755103064447568e-9 1.0877408092774353e-9
          1.2905117719469436e-9 7.801391988835154e-10 1.9180608143764228e-9 1.1676135107441821e-9 8.370165985746391e-10
        </DataArray>
        <DataArray type="Float64" Name="gradient_matprop_error" format="ascii" RangeMin="0" RangeMax="0">
          0 0 0 0 0 0
          0 0 0 0 0 0
          0 0 0 0 0 0
          0 0 0 0 0 0
          0 0 0 0 0 0
          0 0 0 0 0 0
          0 0 0 0 0 0
          0 0 0 0 0 0
          0 0 0 0 0 0
          0 0 0 0 0 0
          0 0 0 0 0 0
          0 0 0 0 0 0
          0 0 0 0 0 0
          0 0 0 0 0 0
          0 0 0 0 0 0
          0 0 0 0 0 0
          0 0 0 0 0 0
          0 0 0 0 0 0
          0 0 0 0 0 0
          0 0 0 0 0 0
          0 0 0 0 0 0
          0 0 0 0 0 0
          0 0 0 0 0 0
          0 0 0 0 0 0
          0 0 0 0 0 0
          0 0 0 0 0 0
          0 0 0 0 0 0
          0 0 0 0 0 0
          0 0 0 0 0 0
          0 0 0 0 0 0
          0 0 0 0 0 0
          0 0 0 0 0 0
          0 0 0 0 0 0
          0 0 0 0 0 0
          0 0 0 0 0 0
          0 0 0 0 0 0
          0 0 0 0 0 0
          0 0 0 0 0 0
          0 0 0 0 0 0
          0 0 0 0 0 0
          0 0 0 0 0 0
          0 0 0 0 0 0
          0 0 0 0 0 0
          0 0 0 0 0 0
          0 0 0 0 0 0
          0 0 0 0 0 0
          0 0 0 0 0 0
          0 0 0 0 0 0
          0 0 0 0 0 0
          0 0 0 0 0 0
          0 0 0 0 0 0
          0 0 0 0 0 0
          0 0 0 0 0 0
          0 0 0 0 0 0
          0 0 0 0 0 0
          0 0 0 0 0 0
          0 0 0 0 0 0
          0 0 0 0 0 0
          0 0 0 0 0 0
          0 0 0 0 0 0
          0 0 0 0 0 0
          0 0 0 0 0 0
          0 0 0 0 0 0
          0 0 0 0 0 0
          0 0 0 0 0 0
          0 0 0 0 0 0
          0 0 0 0 0 0
          0 0 0 0 0 0
          0 0 0 0 0 0
          0 0 0 0 0 0
          0 0 0 0 0 0
          0 0 0 0 0 0
          0 0 0 0 0 0
          0 0 0 0 0 0
          0 0 0 0 0 0
          0 0 0 0 0 0
          0 0 0 0 0 0
          0 0 0 0 0 0
          0 0 0 0 0 0
          0 0 0 0 0 0
          0 0 0 0 0 0
          0 0 0 0 0 0
          0 0 0 0 0 0
          0 0 0 0 0 0
          0 0 0 0 0 0
          0 0 0 0 0 0
          0 0 0 0 0 0
          0 0 0 0 0 0
          0 0 0 0 0 0
          0 0 0 0 0 0
          0 0 0 0 0 0
          0 0 0 0 0 0
          0 0 0 0 0 0
          0 0 0 0 0 0
          0 0 0 0 0 0
          0 0 0 0 0 0
          0 0 0 0 0 0
          0 0 0 0 0 0
          0 0 0 0 0
        </DataArray>
        <DataArray type="Float64" Name="initial_marker" format="ascii" RangeMin="0" RangeMax="2">
          2 1 0.5 2 2 2
          2 2 2 2 2 2
          2 1 2 2 2 2
          2 2 2 2 2 2
          2 2 2 2 2 1
          1.5 0.3333333333333333 1.5 0 1 0.75
          2 2 2 0 1.5 2
          2 2 2 2 2 2
          2 2 2 2 2 2
          2 2 2 2 2 2
          2 2 2 2 2 2
          2 2 2 2 2 1.5
          2 0 1 1 2 2
          2 2 2 2 2 2
          2 2 2 2 2 2
          2 2 2 2 2 2
          2 2 2 2 1 1.5
          2 2 2 2 0 1
          0 1 2 2 2 2
          2 2 2 2 2 2
          2 2 2 2 2 2
          2 2 2 2 2 2
          2 2 2 0 1 1
          2 2 2 2 2 2
          1.5 2 0 1 0 1
          0 1 1 2 2 2
          0 1 0 1 2 2
          2 2 2 2 2 2
          2 2 2 2 2 2
          2 1 1.5 2 2 2
          2 2 2 2 2 2
          2 2 2 2 2 2
          2 2 2 2 2 2
          2 2 2 2 2 2
          2 2 2 2 2 2
          2 2 2 2 2 2
          2 2 2 2 2 2
          2 2 2 2 2 2
          2 2 2 2 2 2
          2 2 2 2 2 2
          2 2 2 2 2 2
          2 2 2 2 2 2
          2 2 2 2 2 2
          2 2 2 2 2 2
          2 2 2 2 2 2
          2 2 2 2 2 2
          2 2 2 2 2 2
          2 2 2 2 2 2
          2 2 2 2 2 2
          2 2 2 2 2 2
          2 2 2 2 2 2
          2 2 2 2 2 2
          2 2 2 2 2 2
          2 2 2 2 2 2
          2 2 2 2 2 2
          2 2 2 2 2 2
          2 2 2 2 2 2
          2 2 2 2 2 2
          2 2 2 2 2 2
          2 2 2 2 2 0
          1 1 2 0 1 0
          1 2 2 2 2 2
          2 2 2 2 0 0
          0 0 1 1 0 0
          0 0.25 2 2 2 2
          2 2 2 1 1.5 1
          2 2 0 0.5 0 0
          1.5 0.5 2 2 2 2
          2 0 0 0.5 0.5 0
          0.25 1.5 1.5 1.5 0 0
          2 2 2 2 2 2
          0 0 0 0 1 0.5
          0 0 0 0 0 0
          0 0 0 0 0 2
          2 2 2 2 2 2
          2 2 2 2 2 2
          2 2 2 2 2 1.5
          2 2 2 2 1.5 2
          0 1 1 1 2 1
          2 2 2 2 2 2
          2 2 2 2 2 2
          2 2 2 2 0 0
          1 1 1 2 2 2
          2 2 2 2 2 1.5
          2 2 2 2 2 2
          2 2 2 2 2 2
          2 2 2 2 2 2
          2 2 2 2 2 2
          2 2 2 2 2 2
          2 2 2 2 2 2
          2 2 2 2 2 2
          2 2 2 2 2 2
          2 2 2 2 2 2
          2 2 2 2 2 2
          2 2 2 2 2 2
          2 2 2 0 1 1
          2 2 1.5 2 2 2
          2 2 2 2 2 2
          2 2 2 2 2
        </DataArray>
        <DataArray type="Float64" Name="markers_norefine" format="ascii" RangeMin="0" RangeMax="2">
          2 0 0 0 0 0
          2 2 0 0 0 0
          0 0 0 0 0 0
          0 0.5 0.25 0 0 0
          0 0 0 0 0 0
          0 0 0 0 0 0
          0 0 0 0 0 0
          2 2 2 2 1.5 0.5
          2 2 2 2 2 1.75
          0.5 2 2 1 0 0
          0 0 0 0 0 0
          0 2 0 0 0 0
          0 0 0 0 0 2
          2 1 1 0 0 0
          0 0 0 0 0 0
          0 0 0 0 0 0
          0 0 0 0 0 0
          0 0 0 0 0 0
          0 0 0 0 0 0
          0 0 0 0 0 0
          0 0 0 0 0 0
          0 0 0 0 0 0
          0 0 0 0 0 0
          0 0 0 0 0 0
          0 0 0 0 0 0
          0 0 0 0 0 0
          0 0 0 0 0 0
          0 0 0 0 0 0
          0 0 0 0 0 0
          0 0 0 0 0 2
          2 1.5 1.5 1.5 1.25 2
          2 2 2 1 1 1
          1 1 1 2 2 2
          2 1 1 1 1 2
          2 2 0.75 0.5 0.5 0
          1.75 1.5 1.3333333333333333 2 2 2
          2 2 2 2 2 2
          2 2 2 2 2 2
          2 2 2 2 2 2
          2 2 2 2 2 2
          2 2 1.75 1.5 2 2
          2 1 1 1 1 1
          0.75 2 2 2 2 0.5
          0.5 0.25 1.5 1.5 1.25 0.5
          0.25 0 0 1.5 1.25 0.5
          0 0 0.75 0.25 2 2
          2 2 2 2 2 2
          2 2 2 2 2 2
          2 2 2 2 1.25 1
          2 2 1.5 1.75 0.75 2
          1 1 1 0 0 0
          0.5 0 0 0 0 0
          1 1 0 0 1 1
          0 0.75 0.5 0 0 1
          1 0 0 0 0 0
          0 0 0 0 0 0
          0 0 0 0 0 0
          0 0 0.25 0 0 0
          0.5 0 0 0 0 0
          0 0 0 0 0 0
          0 0 0 0 0 0
          0 0 0 0 0 0
          0 0 0 0 0 0
          0 0 0 0 0 0
          0 0 0 0 0 0
          1 0.75 0 0 0 0
          0 0 0 0 0 0
          0 0 1.5 0 0 0
          0 0 0 0 0 0
          0 0 0 0 0 0
          0 0 0 0 0 0
          0 0 0 0 0 0
          0 0 0 0 0 0
          0 0 0 0 0 2
          2 2 2 2 2 2
          2 2 1 1 1 1
          1 1 0 0 0 0
          0 0 0 0 0 0
          0 0 0 0 0 0
          0 0 0 0 0 0
          0 0 0 0 0 0
          0 0 0 0 0 0
          0 0 0 0 0 0
          0 0 0 0 0 0
          0 0 0 0 0 0
          0 0 2 2 2 1.75
          2 2 2 0.5 1.25 1
          2 2 2 2 2 2
          0 0 0 1 1 0.75
          0 0 0.25 0 2 2
          1.75 2 2 2 1 0.25
          1.5 0.5 0 0 0 0
          0 0 0 0 0 0
          0 0 0 0 0 0
          0 0 0 0 0 0
          0 0 0 0 0 0
          0 0 0 0 0 0
          0 0 0 0 0 0
          0 0 0 0 0
        </DataArray>
        <DataArray type="Float64" Name="markers_mustrefine" format="ascii" RangeMin="0" RangeMax="2">
          2 1 0.5 2 2 2
          2 2 2 2 2 2
          2 1 2 2 2 2
          2 2 2 2 2 2
          2 2 2 2 2 1
          1.5 0.3333333333333333 1.5 0 1 0.75
          2 2 2 0 1.5 2
          2 2 2 2 2 2
          2 2 2 2 2 2
          2 2 2 2 2 2
          2 2 2 2 2 2
          2 2 2 2 2 1.5
          2 0 1 1 2 2
          2 2 2 2 2 2
          2 2 2 2 2 2
          2 2 2 2 2 2
          2 2 2 2 1 1.5
          2 2 2 2 0 1
          0 1 2 2 2 2
          2 2 2 2 2 2
          2 2 2 2 2 2
          2 2 2 2 2 2
          2 2 2 0 1 1
          2 2 2 2 2 2
          1.5 2 0 1 0 1
          0 1 1 2 2 2
          0 1 0 1 2 2
          2 2 2 2 2 2
          2 2 2 2 2 2
          2 1 1.5 2 2 2
          2 2 2 2 2 2
          2 2 2 2 2 2
          2 2 2 2 2 2
          2 2 2 2 2 2
          2 2 2 2 2 2
          2 2 2 2 2 2
          2 2 2 2 2 2
          2 2 2 2 2 2
          2 2 2 2 2 2
          2 2 2 2 2 2
          2 2 2 2 2 2
          2 2 2 2 2 2
          2 2 2 2 2 2
          2 2 2 2 2 2
          2 2 2 2 2 2
          2 2 2 2 2 2
          2 2 2 2 2 2
          2 2 2 2 2 2
          2 2 2 2 2 2
          2 2 2 2 2 2
          2 2 2 2 2 2
          2 2 2 2 2 2
          2 2 2 2 2 2
          2 2 2 2 2 2
          2 2 2 2 2 2
          2 2 2 2 2 2
          2 2 2 2 2 2
          2 2 2 2 2 2
          2 2 2 2 2 2
          2 2 2 2 2 0
          1 1 2 0 1 0
          1 2 2 2 2 2
          2 2 2 2 0 0
          0 0 1 1 0 0
          0 0.25 2 2 2 2
          2 2 2 1 1.5 1
          2 2 0 0.5 0 0
          1.5 0.5 2 2 2 2
          2 0 0 0.5 0.5 0
          0.25 1.5 1.5 1.5 0 0
          2 2 2 2 2 2
          0 0 0 0 1 0.5
          0 0 0 0 0 0
          0 0 0 0 0 2
          2 2 2 2 2 2
          2 2 2 2 2 2
          2 2 2 2 2 1.5
          2 2 2 2 1.5 2
          0 1 1 1 2 1
          2 2 2 2 2 2
          2 2 2 2 2 2
          2 2 2 2 0 0
          1 1 1 2 2 2
          2 2 2 2 2 1.5
          2 2 2 2 2 2
          2 2 2 2 2 2
          2 2 2 2 2 2
          2 2 2 2 2 2
          2 2 2 2 2 2
          2 2 2 2 2 2
          2 2 2 2 2 2
          2 2 2 2 2 2
          2 2 2 2 2 2
          2 2 2 2 2 2
          2 2 2 2 2 2
          2 2 2 0 1 1
          2 2 1.5 2 2 2